
     Program PWSCF v.7.1 starts on 27Jan2025 at 22: 4:57 
        Git branch: heads/qe-7.1
        Last git commit: 48ba0178f8fede6d020eb786884699a9f063f55d-dirty
        Last git commit date: Fri Jan 27 14:22:33 2023 +0000
        Last git commit subject: Merge branch 'fix_hubbard' into 'develop'

     This program is part of the open-source Quantum ESPRESSO suite
     for quantum simulation of materials; please cite
         "P. Giannozzi et al., J. Phys.:Condens. Matter 21 395502 (2009);
         "P. Giannozzi et al., J. Phys.:Condens. Matter 29 465901 (2017);
         "P. Giannozzi et al., J. Chem. Phys. 152 154105 (2020);
          URL http://www.quantum-espresso.org", 
     in publications or presentations arising from this work. More details at
     http://www.quantum-espresso.org/quote

     Parallel version (MPI), running on    48 processors

     MPI processes distributed on     1 nodes
     337923 MiB available memory on the printing compute node when the environment starts

     Reading input from espresso.pwi
Warning: card &CELL ignored
Warning: card / ignored
Warning: card &FCP ignored
Warning: card / ignored
Warning: card &RISM ignored
Warning: card / ignored

     Current dimensions of program PWSCF are:
     Max number of different atomic species (ntypx) = 10
     Max number of k-points (npk) =  40000
     Max angular momentum in pseudopotentials (lmaxx) =  4
     file Pt.pbe-n-kjpaw_psl.1.0.0.UPF: wavefunction(s)  6S 5D renormalized
     file H.pbe-kjpaw_psl.1.0.0.UPF: wavefunction(s)  1S renormalized

     **************************************************************************
     Initializing libbeef V0.1.2 with the BEEF-vdW functional.
     Citation: Wellendorff et al., PRB 85, 235149 (2012).
     **************************************************************************


     IMPORTANT: XC functional enforced from input :
     Exchange-correlation= BEEF-VDW
                           (   1   4  43  14   2   0   0)
     Any further DFT definition will be discarded
     Please, verify this is what you really want


     R & G space division:  proc/nbgrp/npool/nimage =      48
     Subspace diagonalization in iterative solution of the eigenvalue problem:
     one sub-group per band group will be used
     custom distributed-memory algorithm (size of sub-group:  2*  2 procs)


     Parallelization info
     --------------------
     sticks:   dense  smooth     PW     G-vecs:    dense   smooth      PW
     Min         150      59     16                30552     7447    1068
     Max         151      60     17                30571     7456    1081
     Sum        7243    2839    769              1467143   357639   51591

     Using Slab Decomposition



     bravais-lattice index     =            0
     lattice parameter (alat)  =      16.0028  a.u.
     unit-cell volume          =   10463.1828 (a.u.)^3
     number of atoms/cell      =           37
     number of atomic types    =            2
     number of electrons       =       361.00
     number of Kohn-Sham states=          217
     kinetic-energy cutoff     =      40.0000  Ry
     charge density cutoff     =     410.0000  Ry
     scf convergence threshold =      1.0E-06
     mixing beta               =       0.7000
     number of iterations used =            8  local-TF  mixing
     Exchange-correlation= BEEF-VDW
                           (   1   4  43  14   2   0   0)

     celldm(1)=  16.002787  celldm(2)=   0.000000  celldm(3)=   0.000000
     celldm(4)=   0.000000  celldm(5)=   0.000000  celldm(6)=   0.000000

     crystal axes: (cart. coord. in units of alat)
               a(1) = (   1.000000   0.000000   0.000000 )  
               a(2) = (   0.500000   0.866025   0.000000 )  
               a(3) = (   0.000000   0.000000   2.948128 )  

     reciprocal axes: (cart. coord. in units 2 pi/alat)
               b(1) = (  1.000000 -0.577350  0.000000 )  
               b(2) = (  0.000000  1.154701  0.000000 )  
               b(3) = (  0.000000  0.000000  0.339198 )  


     PseudoPot. # 1 for Pt read from file:
     /users/kbadger1/espresso/pseudo/pslibrary.1.0.0/pbe/PSEUDOPOTENTIALS/Pt.pbe-n-kjpaw_psl.1.0.0.UPF
     MD5 check sum: 2e24a0b5bf98a4ed1a57fa81bca8c143
     Pseudo is Projector augmented-wave + core cor, Zval = 10.0
     Generated using 'atomic' code by A. Dal Corso  v.7.0
     Shape of augmentation charge: PSQ
     Using radial grid of 1277 points,  6 beta functions with: 
                l(1) =   0
                l(2) =   0
                l(3) =   1
                l(4) =   1
                l(5) =   2
                l(6) =   2
     Q(r) pseudized with 0 coefficients 


     PseudoPot. # 2 for H  read from file:
     /users/kbadger1/espresso/pseudo/pslibrary.1.0.0/pbe/PSEUDOPOTENTIALS/H.pbe-kjpaw_psl.1.0.0.UPF
     MD5 check sum: fe4c6fa958fa6d3815bf5d2419cbf1df
     Pseudo is Projector augmented-wave, Zval =  1.0
     Generated using 'atomic' code by A. Dal Corso  v.7.0
     Shape of augmentation charge: PSQ
     Using radial grid of  929 points,  2 beta functions with: 
                l(1) =   0
                l(2) =   0
     Q(r) pseudized with 0 coefficients 


     atomic species   valence    mass     pseudopotential
        Pt            10.00   195.08400     Pt( 1.00)
        H              1.00     1.00800     H ( 1.00)

     No symmetry found



   Cartesian axes

     site n.     atom                  positions (alat units)
         1           Pt  tau(   1) = (   0.0000000   0.0000000   1.0037422  )
         2           Pt  tau(   2) = (   0.3340014   0.0000000   1.0037422  )
         3           Pt  tau(   3) = (   0.6680027   0.0000000   1.0037422  )
         4           Pt  tau(   4) = (   0.1670007   0.2892537   1.0037422  )
         5           Pt  tau(   5) = (   0.5010021   0.2892537   1.0037422  )
         6           Pt  tau(   6) = (   0.8350034   0.2892537   1.0037422  )
         7           Pt  tau(   7) = (   0.3340014   0.5785073   1.0037422  )
         8           Pt  tau(   8) = (   0.6680027   0.5785073   1.0037422  )
         9           Pt  tau(   9) = (   1.0020041   0.5785073   1.0037422  )
        10           Pt  tau(  10) = (   0.1670007   0.0964179   1.2764532  )
        11           Pt  tau(  11) = (   0.5010021   0.0964179   1.2764532  )
        12           Pt  tau(  12) = (   0.8350034   0.0964179   1.2764532  )
        13           Pt  tau(  13) = (   0.3340014   0.3856716   1.2764532  )
        14           Pt  tau(  14) = (   0.6680027   0.3856716   1.2764532  )
        15           Pt  tau(  15) = (   1.0020041   0.3856716   1.2764532  )
        16           Pt  tau(  16) = (   0.5010021   0.6749252   1.2764532  )
        17           Pt  tau(  17) = (   0.8350034   0.6749252   1.2764532  )
        18           Pt  tau(  18) = (   1.1690048   0.6749252   1.2764532  )
        19           Pt  tau(  19) = (   0.0023891   0.1935654   1.5484049  )
        20           Pt  tau(  20) = (   0.3346615   0.1932533   1.5485891  )
        21           Pt  tau(  21) = (   0.6685628   0.1933706   1.5459398  )
        22           Pt  tau(  22) = (   0.1685180   0.4814705   1.5478111  )
        23           Pt  tau(  23) = (   0.5017121   0.4823632   1.5459333  )
        24           Pt  tau(  24) = (   0.8353649   0.4823276   1.5459490  )
        25           Pt  tau(  25) = (   0.3357429   0.7712230   1.5474977  )
        26           Pt  tau(  26) = (   0.6687958   0.7713618   1.5484091  )
        27           Pt  tau(  27) = (   1.0011944   0.7712782   1.5478154  )
        28           Pt  tau(  28) = (  -0.0004925  -0.0002106   1.8260968  )
        29           Pt  tau(  29) = (   0.3399357  -0.0006556   1.8287655  )
        30           Pt  tau(  30) = (   0.6697445   0.0018455   1.8224011  )
        31           Pt  tau(  31) = (   0.1693366   0.2948192   1.8287641  )
        32           Pt  tau(  32) = (   0.5047366   0.2914862   1.8213930  )
        33           Pt  tau(  33) = (   0.8348923   0.2909254   1.8216950  )
        34           Pt  tau(  34) = (   0.3364121   0.5791910   1.8223941  )
        35           Pt  tau(  35) = (   0.6693300   0.5776740   1.8216895  )
        36           Pt  tau(  36) = (   1.0025722   0.5788956   1.8222109  )
        37           H   tau(  37) = (   0.1893125   0.1093522   1.9337541  )

     number of k points=    13  Marzari-Vanderbilt smearing, width (Ry)=  0.0200
                       cart. coord. in units 2pi/alat
        k(    1) = (   0.0000000   0.0000000   0.0000000), wk =   0.0800000
        k(    2) = (   0.0000000   0.2309401   0.0000000), wk =   0.1600000
        k(    3) = (   0.0000000   0.4618802   0.0000000), wk =   0.1600000
        k(    4) = (   0.2000000  -0.1154701   0.0000000), wk =   0.1600000
        k(    5) = (   0.2000000   0.1154701   0.0000000), wk =   0.1600000
        k(    6) = (   0.2000000   0.3464102   0.0000000), wk =   0.1600000
        k(    7) = (   0.2000000  -0.5773503   0.0000000), wk =   0.1600000
        k(    8) = (   0.2000000  -0.3464102   0.0000000), wk =   0.1600000
        k(    9) = (   0.4000000  -0.2309401   0.0000000), wk =   0.1600000
        k(   10) = (   0.4000000   0.0000000   0.0000000), wk =   0.1600000
        k(   11) = (   0.4000000   0.2309401   0.0000000), wk =   0.1600000
        k(   12) = (   0.4000000  -0.6928203   0.0000000), wk =   0.1600000
        k(   13) = (   0.4000000  -0.4618802   0.0000000), wk =   0.1600000

     Dense  grid:  1467143 G-vectors     FFT dimensions: ( 108, 108, 320)

     Smooth grid:   357639 G-vectors     FFT dimensions: (  72,  72, 192)

     Estimated max dynamical RAM per process >     211.30 MB

     Estimated total dynamical RAM >       9.90 GB

     Initial potential from superposition of free atoms

     starting charge     360.9939, renormalised to     361.0000

     negative rho (up, down):  3.561E-03 0.000E+00


     %%%%%%%%%%%%%%%%%%%%%%%%%%%%%%%%%%%%%%%%%%%%%%%%%%%%%%%%%%%%%%%%%%%%%%%%
     %                                                                      %
     % You are using vdW-DF, which was implemented by the Thonhauser group. %
     % Please cite the following two papers that made this development      %
     % possible and the two reviews that describe the various versions:     %
     %                                                                      %
     %   T. Thonhauser et al., PRL 115, 136402 (2015).                      %
     %   T. Thonhauser et al., PRB 76, 125112 (2007).                       %
     %   K. Berland et al., Rep. Prog. Phys. 78, 066501 (2015).             %
     %   D.C. Langreth et al., J. Phys.: Condens. Matter 21, 084203 (2009). %
     %                                                                      %
     % If you are calculating stress with vdW-DF, please also cite:         %
     %                                                                      %
     %   R. Sabatini et al., J. Phys.: Condens. Matter 24, 424209 (2012).   %
     %                                                                      %
     %%%%%%%%%%%%%%%%%%%%%%%%%%%%%%%%%%%%%%%%%%%%%%%%%%%%%%%%%%%%%%%%%%%%%%%%

     %%%%%%%%%%%%%%%%%%%%%%%%%%%%%%%%%%%%%%%%%%%%%%%%%%%%%%%%%%%%%%%%%%%%%%%%
     %                                                                      %
     %  vdW-DF NEWS:                                                        %
     %                                                                      %
     %  * vdW-DF3 is now available. DOI: 10.1021/acs.jctc.0c00471           %
     %    use with input_dft = 'vdW-DF3-opt1' or 'vdW-DF3-opt2'             %
     %                                                                      %
     %  * Unscreened and range-separated hybrid vdW-DF-cx functionals       %
     %    DOI: 10.1063/1.4986522 and 10.1088/1361-648X/ac2ad2               %
     %    use with input_dft = 'vdW-DF-cx0'    and 'vdW-DF-ahcx'            %
     %  * Unscreened and range-separated hybrid vdW-DF2-b86r functionals    %
     %    DOI: 10.1063/1.4986522 and DOI: 10.1103/PhysRevX.12.041003        %
     %    use with input_dft = 'vdW-DF2-br0' and 'vdW-DF2-ahbr'             %
     %                                                                      %
     %%%%%%%%%%%%%%%%%%%%%%%%%%%%%%%%%%%%%%%%%%%%%%%%%%%%%%%%%%%%%%%%%%%%%%%%


     Starting wfcs are  325 randomized atomic wfcs
     Checking if some PAW data can be deallocated... 

     total cpu time spent up to now is       10.9 secs

     per-process dynamical memory:   208.8 Mb

     Self-consistent Calculation

     iteration #  1     ecut=    40.00 Ry     beta= 0.70
     Davidson diagonalization with overlap
     ethr =  1.00E-02,  avg # of iterations =  2.0

     Threshold (ethr) on eigenvalues was too large:
     Diagonalizing with lowered threshold

     Davidson diagonalization with overlap
     ethr =  3.68E-04,  avg # of iterations =  3.9

     negative rho (up, down):  1.780E-02 0.000E+00

     total cpu time spent up to now is       42.0 secs

     total energy              =  -27755.29720540 Ry
     estimated scf accuracy    <       1.53332939 Ry

     iteration #  2     ecut=    40.00 Ry     beta= 0.70
     Davidson diagonalization with overlap
     ethr =  4.25E-04,  avg # of iterations =  2.0

     negative rho (up, down):  1.609E-02 0.000E+00

     total cpu time spent up to now is       54.4 secs

     total energy              =  -27755.39509877 Ry
     estimated scf accuracy    <       0.75791277 Ry

     iteration #  3     ecut=    40.00 Ry     beta= 0.70
     Davidson diagonalization with overlap
     ethr =  2.10E-04,  avg # of iterations =  2.0

     negative rho (up, down):  1.085E-02 0.000E+00

     total cpu time spent up to now is       67.5 secs

     total energy              =  -27755.44639189 Ry
     estimated scf accuracy    <       0.08780067 Ry

     iteration #  4     ecut=    40.00 Ry     beta= 0.70
     Davidson diagonalization with overlap
     c_bands:  2 eigenvalues not converged
     c_bands:  1 eigenvalues not converged
     c_bands:  1 eigenvalues not converged
     c_bands:  1 eigenvalues not converged
     ethr =  2.43E-05,  avg # of iterations = 15.2

     negative rho (up, down):  7.879E-03 0.000E+00

     total cpu time spent up to now is      100.5 secs

     total energy              =  -27755.49379842 Ry
     estimated scf accuracy    <       0.06724747 Ry

     iteration #  5     ecut=    40.00 Ry     beta= 0.70
     Davidson diagonalization with overlap
     c_bands:  1 eigenvalues not converged
     c_bands:  1 eigenvalues not converged
     ethr =  1.86E-05,  avg # of iterations =  6.2

     negative rho (up, down):  3.955E-03 0.000E+00

     total cpu time spent up to now is      115.5 secs

     total energy              =  -27755.49395984 Ry
     estimated scf accuracy    <       0.02624542 Ry

     iteration #  6     ecut=    40.00 Ry     beta= 0.70
     Davidson diagonalization with overlap
     c_bands:  2 eigenvalues not converged
     ethr =  7.27E-06,  avg # of iterations =  8.5

     negative rho (up, down):  2.163E-03 0.000E+00

     total cpu time spent up to now is      131.3 secs

     total energy              =  -27755.49582436 Ry
     estimated scf accuracy    <       0.00241412 Ry

     iteration #  7     ecut=    40.00 Ry     beta= 0.70
     Davidson diagonalization with overlap
     c_bands:  1 eigenvalues not converged
     c_bands:  1 eigenvalues not converged
     ethr =  6.69E-07,  avg # of iterations = 12.2

     negative rho (up, down):  1.718E-03 0.000E+00

     total cpu time spent up to now is      157.8 secs

     total energy              =  -27755.49629604 Ry
     estimated scf accuracy    <       0.00171547 Ry

     iteration #  8     ecut=    40.00 Ry     beta= 0.70
     Davidson diagonalization with overlap
     ethr =  4.75E-07,  avg # of iterations =  1.8

     negative rho (up, down):  1.479E-03 0.000E+00

     total cpu time spent up to now is      170.2 secs

     total energy              =  -27755.49642198 Ry
     estimated scf accuracy    <       0.00019653 Ry

     iteration #  9     ecut=    40.00 Ry     beta= 0.70
     Davidson diagonalization with overlap
     ethr =  5.44E-08,  avg # of iterations =  4.9

     negative rho (up, down):  1.125E-03 0.000E+00

     total cpu time spent up to now is      192.4 secs

     total energy              =  -27755.49649613 Ry
     estimated scf accuracy    <       0.00008272 Ry

     iteration # 10     ecut=    40.00 Ry     beta= 0.70
     Davidson diagonalization with overlap
     ethr =  2.29E-08,  avg # of iterations =  3.8

     negative rho (up, down):  1.058E-03 0.000E+00

     total cpu time spent up to now is      213.0 secs

     total energy              =  -27755.49651950 Ry
     estimated scf accuracy    <       0.00007230 Ry

     iteration # 11     ecut=    40.00 Ry     beta= 0.70
     Davidson diagonalization with overlap
     ethr =  2.00E-08,  avg # of iterations =  1.6

     negative rho (up, down):  1.121E-03 0.000E+00

     total cpu time spent up to now is      225.4 secs

     total energy              =  -27755.49652398 Ry
     estimated scf accuracy    <       0.00004741 Ry

     iteration # 12     ecut=    40.00 Ry     beta= 0.70
     Davidson diagonalization with overlap
     ethr =  1.31E-08,  avg # of iterations =  1.5

     negative rho (up, down):  1.305E-03 0.000E+00

     total cpu time spent up to now is      237.6 secs

     total energy              =  -27755.49652714 Ry
     estimated scf accuracy    <       0.00002002 Ry

     iteration # 13     ecut=    40.00 Ry     beta= 0.70
     Davidson diagonalization with overlap
     ethr =  5.55E-09,  avg # of iterations =  2.3

     negative rho (up, down):  1.716E-03 0.000E+00

     total cpu time spent up to now is      251.4 secs

     total energy              =  -27755.49652943 Ry
     estimated scf accuracy    <       0.00001163 Ry

     iteration # 14     ecut=    40.00 Ry     beta= 0.70
     Davidson diagonalization with overlap
     ethr =  3.22E-09,  avg # of iterations =  2.2

     negative rho (up, down):  1.990E-03 0.000E+00

     total cpu time spent up to now is      264.3 secs

     total energy              =  -27755.49653245 Ry
     estimated scf accuracy    <       0.00000761 Ry

     iteration # 15     ecut=    40.00 Ry     beta= 0.70
     Davidson diagonalization with overlap
     ethr =  2.11E-09,  avg # of iterations =  1.7

     negative rho (up, down):  2.909E-03 0.000E+00

     total cpu time spent up to now is      276.8 secs

     total energy              =  -27755.49652915 Ry
     estimated scf accuracy    <       0.00000669 Ry

     iteration # 16     ecut=    40.00 Ry     beta= 0.70
     Davidson diagonalization with overlap
     ethr =  1.85E-09,  avg # of iterations =  1.7

     negative rho (up, down):  3.350E-03 0.000E+00

     total cpu time spent up to now is      288.9 secs

     End of self-consistent calculation

          k = 0.0000 0.0000 0.0000 ( 44645 PWs)   bands (ev):

    -6.6559  -5.5759  -4.8590  -4.2462  -4.2170  -4.2079  -4.2008  -4.1888
    -4.1862  -4.1790  -3.8688  -3.6630  -3.6579  -3.6542  -3.6540  -3.6460
    -3.5650  -3.2071  -3.2030  -3.1853  -3.1840  -3.1750  -3.0924  -2.9747
    -2.9708  -2.9677  -2.9634  -2.9632  -2.8607  -2.7680  -2.7633  -2.7499
    -2.7496  -2.7357  -2.7129  -2.7018  -2.6943  -2.6909  -2.6634  -2.6612
    -2.3118  -2.1250  -2.1245  -2.0827  -2.0707  -2.0605  -2.0531  -2.0303
    -2.0283  -2.0208  -1.8810  -1.8804  -1.7863  -1.7709  -1.7693  -1.3266
    -1.3234  -1.3144  -1.3046  -1.2980  -1.2527  -1.2110  -1.1207  -1.1138
    -1.1122  -1.1033  -1.0989  -1.0955  -1.0916  -1.0534  -1.0504  -1.0450
    -1.0423  -1.0420  -1.0021  -0.9966  -0.9954  -0.8971  -0.8945  -0.8922
    -0.8879  -0.8823  -0.8746  -0.6813  -0.6679  -0.6646  -0.6610  -0.6596
    -0.6467  -0.6371  -0.6346  -0.5607  -0.5543  -0.4910  -0.4814  -0.4723
    -0.4521  -0.4453  -0.4264  -0.4212  -0.3571  -0.2606  -0.2578  -0.2548
    -0.2411  -0.2395  -0.2321   0.0014   0.2425   0.2580   0.2649   0.2776
     0.2782   0.2877   0.2908   0.2979   0.3119   0.3166   0.3238   0.3819
     0.3861   0.4612   0.5362   0.5392   0.5467   0.5510   0.5633   0.6577
     0.6691   0.7211   0.7229   0.7307   0.7484   0.9768   0.9905   0.9932
     1.0125   1.0155   1.0186   1.0724   1.0857   1.2162   1.2180   1.2366
     1.2373   1.2394   1.2402   1.3601   1.3906   1.4087   1.4223   1.4357
     1.4405   1.4479   1.4492   1.4516   1.4550   1.4576   1.4610   1.5437
     1.5516   1.5712   1.5902   1.5975   1.6146   1.6241   1.6242   1.6731
     1.6887   1.6924   1.7207   1.7212   1.7349   1.7391   1.7450   1.8134
     1.8227   1.8237   1.8315   1.8342   1.8384   1.8852   1.9143   1.9217
     1.9342   1.9359   1.9444   1.9511   2.1360   2.1440   2.2349   2.2383
     2.2384   2.2589   2.2598   2.2627   2.8075   3.0868   3.0999   3.1143
     3.1451   3.1501   3.1535   5.1511   5.3948   5.4066   5.4641   5.4743
     5.4749   6.9790   7.0255   7.0776   7.1127   7.1172   7.1175   7.2165
     7.3277

          k = 0.0000 0.2309 0.0000 ( 44694 PWs)   bands (ev):

    -6.5084  -5.4577  -4.8131  -4.6746  -4.3137  -4.2998  -4.1032  -4.0107
    -3.9692  -3.9612  -3.8504  -3.7457  -3.7083  -3.5909  -3.5859  -3.5741
    -3.4891  -3.2802  -3.1585  -3.1532  -3.1462  -3.1193  -3.0732  -3.0405
    -3.0164  -2.9689  -2.9645  -2.9593  -2.8847  -2.8599  -2.8525  -2.7777
    -2.7642  -2.7469  -2.7405  -2.5940  -2.5442  -2.5209  -2.5139  -2.4874
    -2.3163  -2.2400  -2.2358  -2.1819  -2.1528  -2.1383  -2.1258  -2.0269
    -1.9473  -1.8834  -1.8647  -1.8498  -1.8045  -1.7843  -1.7248  -1.5687
    -1.4732  -1.4671  -1.4247  -1.4116  -1.3803  -1.3266  -1.3032  -1.2950
    -1.2718  -1.2567  -1.1926  -1.1776  -1.1488  -1.1129  -1.0980  -1.0519
    -1.0124  -1.0060  -1.0013  -0.9187  -0.9151  -0.8982  -0.8702  -0.8317
    -0.8243  -0.8087  -0.7753  -0.7350  -0.7017  -0.6893  -0.6808  -0.6788
    -0.6494  -0.6371  -0.5917  -0.5557  -0.5358  -0.5247  -0.5113  -0.5011
    -0.4875  -0.4535  -0.4311  -0.4246  -0.3529  -0.2880  -0.2788  -0.2494
    -0.2396  -0.2358  -0.2295  -0.2183  -0.1764  -0.1688  -0.1548  -0.1406
     0.0716   0.1879   0.2370   0.2507   0.2632   0.2690   0.2781   0.3205
     0.3244   0.3880   0.4685   0.4905   0.5558   0.6092   0.6132   0.6499
     0.6715   0.6821   0.7190   0.7334   0.7434   0.8324   0.8588   0.8674
     0.8774   0.8829   1.0181   1.0810   1.0909   1.0988   1.1153   1.1216
     1.1363   1.1987   1.2262   1.2595   1.2761   1.2818   1.3352   1.3470
     1.3615   1.3722   1.4466   1.4668   1.4912   1.5013   1.5369   1.6028
     1.6336   1.6515   1.6602   1.6721   1.6920   1.7199   1.7840   1.7882
     1.8398   1.8506   1.8682   1.8766   1.8989   1.9094   1.9181   1.9296
     1.9324   1.9862   1.9890   2.1231   2.1313   2.1488   2.1768   2.1844
     2.1882   2.2140   2.2466   2.2525   2.2742   2.3520   2.3762   2.4003
     2.4493   2.5644   2.5684   2.5836   2.6076   2.9533   2.9956   3.5212
     3.7209   3.7466   3.8599   4.6640   5.0809   5.1609   5.8389   5.9267
     5.9378   6.0048   6.2509   6.7240   6.8843   7.0415   7.2598   7.2890
     7.3137

          k = 0.0000 0.4619 0.0000 ( 44748 PWs)   bands (ev):

    -6.0854  -5.4619  -5.1506  -4.5912  -4.3459  -4.3312  -4.1438  -3.9721
    -3.8349  -3.7159  -3.6260  -3.6182  -3.5694  -3.4595  -3.4135  -3.4044
    -3.3995  -3.3901  -3.2548  -3.2289  -3.2225  -3.1847  -3.1771  -3.1594
    -3.0897  -3.0523  -3.0484  -2.9567  -2.8003  -2.7891  -2.7853  -2.7695
    -2.7650  -2.6729  -2.5408  -2.5322  -2.5209  -2.4874  -2.4801  -2.3860
    -2.2801  -2.2149  -2.1951  -2.1852  -2.1595  -2.1291  -2.0806  -2.0555
    -2.0466  -2.0150  -1.9823  -1.8590  -1.8339  -1.8279  -1.8049  -1.7383
    -1.6740  -1.6457  -1.6131  -1.6034  -1.5825  -1.4569  -1.4077  -1.3941
    -1.3909  -1.3725  -1.2914  -1.2824  -1.2455  -1.1585  -1.1418  -1.1311
    -1.0789  -1.0298  -1.0259  -0.9913  -0.9871  -0.9510  -0.9207  -0.9092
    -0.8968  -0.8834  -0.8763  -0.8597  -0.8431  -0.8400  -0.7438  -0.7278
    -0.7169  -0.7029  -0.7002  -0.6907  -0.6664  -0.5603  -0.5260  -0.5150
    -0.4869  -0.4786  -0.4579  -0.4306  -0.3939  -0.3831  -0.3018  -0.2706
    -0.2336  -0.2083  -0.1922  -0.1749  -0.1498  -0.0099   0.0113   0.0781
     0.0982   0.1505   0.1713   0.1972   0.2070   0.2104   0.2153   0.2528
     0.2867   0.3162   0.3253   0.3347   0.3629   0.3845   0.3882   0.4093
     0.4264   0.5267   0.5589   0.5714   0.6376   0.6667   0.7621   0.7642
     0.8587   0.8643   0.9103   0.9587   1.0360   1.0411   1.0886   1.1004
     1.1240   1.1330   1.1669   1.1970   1.2331   1.2415   1.2993   1.3395
     1.3474   1.3913   1.4054   1.4205   1.4306   1.4788   1.5634   1.5993
     1.6703   1.6935   1.7002   1.7150   1.7539   1.8100   1.8164   1.8784
     1.8925   1.8988   1.9136   1.9619   1.9964   2.0059   2.0207   2.1369
     2.1428   2.1570   2.1657   2.1733   2.1768   2.1941   2.2181   2.3928
     2.4075   2.4174   2.4228   2.4291   2.6000   2.6468   2.8916   3.0036
     3.0643   3.2527   3.4770   3.4857   3.7591   3.8644   3.9699   4.1650
     4.4572   4.7064   4.7128   4.7819   4.8962   4.9384   5.0352   5.0611
     5.2986   5.3572   5.8814   5.9751   6.4005   6.5141   6.8696   6.9747
     7.4597

          k = 0.2000-0.1155 0.0000 ( 44694 PWs)   bands (ev):

    -6.5084  -5.4577  -4.8131  -4.6747  -4.3136  -4.2998  -4.1032  -4.0108
    -3.9692  -3.9610  -3.8504  -3.7456  -3.7084  -3.5910  -3.5859  -3.5742
    -3.4891  -3.2802  -3.1585  -3.1533  -3.1463  -3.1193  -3.0731  -3.0405
    -3.0164  -2.9690  -2.9646  -2.9593  -2.8847  -2.8598  -2.8525  -2.7779
    -2.7641  -2.7469  -2.7404  -2.5940  -2.5442  -2.5210  -2.5138  -2.4873
    -2.3163  -2.2400  -2.2358  -2.1819  -2.1528  -2.1384  -2.1258  -2.0269
    -1.9472  -1.8834  -1.8647  -1.8498  -1.8045  -1.7843  -1.7248  -1.5685
    -1.4732  -1.4671  -1.4245  -1.4114  -1.3801  -1.3263  -1.3034  -1.2952
    -1.2720  -1.2567  -1.1926  -1.1776  -1.1486  -1.1129  -1.0980  -1.0520
    -1.0127  -1.0062  -1.0015  -0.9187  -0.9151  -0.8981  -0.8702  -0.8316
    -0.8241  -0.8083  -0.7755  -0.7350  -0.7019  -0.6893  -0.6807  -0.6788
    -0.6494  -0.6371  -0.5917  -0.5558  -0.5360  -0.5246  -0.5112  -0.5012
    -0.4875  -0.4535  -0.4313  -0.4246  -0.3529  -0.2880  -0.2787  -0.2494
    -0.2398  -0.2359  -0.2295  -0.2182  -0.1764  -0.1688  -0.1548  -0.1406
     0.0718   0.1881   0.2370   0.2506   0.2631   0.2690   0.2782   0.3204
     0.3244   0.3879   0.4686   0.4904   0.5557   0.6091   0.6132   0.6501
     0.6713   0.6821   0.7190   0.7333   0.7435   0.8324   0.8588   0.8675
     0.8774   0.8829   1.0181   1.0810   1.0908   1.0988   1.1154   1.1216
     1.1363   1.1987   1.2263   1.2595   1.2761   1.2819   1.3353   1.3470
     1.3615   1.3723   1.4466   1.4668   1.4912   1.5014   1.5368   1.6028
     1.6336   1.6514   1.6601   1.6720   1.6919   1.7199   1.7840   1.7882
     1.8398   1.8506   1.8682   1.8766   1.8989   1.9095   1.9181   1.9296
     1.9325   1.9861   1.9888   2.1230   2.1313   2.1490   2.1768   2.1844
     2.1884   2.2141   2.2468   2.2527   2.2742   2.3519   2.3762   2.4003
     2.4493   2.5644   2.5685   2.5835   2.6075   2.9534   2.9958   3.5211
     3.7209   3.7465   3.8598   4.6638   5.0810   5.1611   5.8389   5.9267
     5.9378   6.0048   6.2508   6.7239   6.8844   7.0412   7.2598   7.2891
     7.3131

          k = 0.2000 0.1155 0.0000 ( 44694 PWs)   bands (ev):

    -6.5091  -5.4636  -4.8306  -4.6564  -4.3131  -4.3012  -4.1036  -4.0157
    -3.9625  -3.9611  -3.8672  -3.7455  -3.6741  -3.5905  -3.5860  -3.5779
    -3.5093  -3.2770  -3.1561  -3.1529  -3.1451  -3.1038  -3.0721  -3.0444
    -3.0148  -2.9819  -2.9671  -2.9616  -2.8662  -2.8578  -2.8523  -2.7780
    -2.7633  -2.7451  -2.7376  -2.5855  -2.5438  -2.5183  -2.5178  -2.4887
    -2.3118  -2.2378  -2.2333  -2.1813  -2.1528  -2.1424  -2.1281  -2.0331
    -1.9479  -1.8838  -1.8638  -1.8521  -1.8025  -1.7843  -1.7145  -1.5634
    -1.4725  -1.4675  -1.4176  -1.4099  -1.3771  -1.3205  -1.3124  -1.2966
    -1.2757  -1.2564  -1.1985  -1.1798  -1.1347  -1.1126  -1.0985  -1.0578
    -1.0238  -1.0133  -1.0069  -0.9186  -0.9102  -0.8985  -0.8706  -0.8250
    -0.8114  -0.8095  -0.7836  -0.7343  -0.7064  -0.6907  -0.6775  -0.6773
    -0.6443  -0.6432  -0.5902  -0.5555  -0.5381  -0.5267  -0.5143  -0.5006
    -0.4962  -0.4566  -0.4313  -0.4217  -0.3552  -0.2863  -0.2750  -0.2572
    -0.2505  -0.2382  -0.2275  -0.2235  -0.1771  -0.1609  -0.1602  -0.1472
     0.0855   0.1874   0.2282   0.2542   0.2577   0.2698   0.2807   0.3184
     0.3266   0.3673   0.4598   0.4866   0.5548   0.6058   0.6098   0.6606
     0.6613   0.6764   0.7159   0.7307   0.7373   0.8302   0.8674   0.8692
     0.8806   0.8843   1.0527   1.0758   1.0868   1.1059   1.1124   1.1186
     1.1323   1.2072   1.2225   1.2528   1.2764   1.2836   1.3322   1.3482
     1.3602   1.3669   1.4450   1.4641   1.4983   1.5018   1.5454   1.6039
     1.6152   1.6484   1.6608   1.6620   1.6905   1.7216   1.7815   1.7904
     1.8465   1.8475   1.8675   1.8852   1.8996   1.9123   1.9166   1.9287
     1.9345   1.9815   1.9855   2.1248   2.1277   2.1514   2.1826   2.1887
     2.1904   2.2167   2.2540   2.2556   2.2773   2.3647   2.3747   2.3986
     2.4505   2.5660   2.5688   2.5829   2.6058   2.9602   2.9956   3.5283
     3.7140   3.7440   3.8620   4.6447   5.1137   5.1629   5.8260   5.9278
     5.9499   6.0009   6.2307   6.7156   6.8826   7.0258   7.2716   7.2950
     7.3119

          k = 0.2000 0.3464 0.0000 ( 44714 PWs)   bands (ev):

    -6.2237  -5.2964  -4.9671  -4.9548  -4.5920  -3.8902  -3.8870  -3.8803
    -3.8678  -3.8332  -3.8129  -3.7914  -3.7039  -3.6993  -3.5251  -3.3194
    -3.3041  -3.2983  -3.2958  -3.2292  -3.2013  -3.0826  -3.0656  -3.0614
    -3.0487  -2.9886  -2.9471  -2.9095  -2.9056  -2.8990  -2.8396  -2.8149
    -2.8047  -2.7463  -2.7381  -2.6443  -2.4930  -2.4044  -2.3145  -2.3084
    -2.2684  -2.2567  -2.2428  -2.2371  -2.1795  -2.1496  -2.1065  -2.0165
    -2.0055  -1.9118  -1.8889  -1.8749  -1.8348  -1.8226  -1.7540  -1.7251
    -1.7088  -1.5669  -1.5436  -1.5197  -1.4693  -1.4551  -1.4201  -1.4106
    -1.4042  -1.3473  -1.3158  -1.2083  -1.1940  -1.1793  -1.1644  -1.1294
    -1.1177  -1.0691  -1.0350  -1.0116  -0.9630  -0.8995  -0.8928  -0.8674
    -0.8500  -0.8292  -0.8174  -0.8013  -0.7827  -0.7613  -0.7426  -0.7232
    -0.7009  -0.6895  -0.5872  -0.5807  -0.5696  -0.5490  -0.5182  -0.5082
    -0.4826  -0.4575  -0.4384  -0.4318  -0.4241  -0.4159  -0.4105  -0.3912
    -0.3528  -0.3357  -0.2465  -0.2181  -0.1835  -0.1152  -0.1006  -0.0895
    -0.0725   0.0996   0.1266   0.1533   0.2251   0.2312   0.2794   0.2879
     0.3135   0.3261   0.3642   0.3779   0.4010   0.4159   0.4283   0.5097
     0.6031   0.6462   0.6671   0.6837   0.7136   0.7320   0.7579   0.8030
     0.8776   0.9133   0.9216   0.9552   1.0026   1.0335   1.0753   1.1206
     1.1271   1.1424   1.2016   1.2154   1.2233   1.2423   1.2466   1.2630
     1.2724   1.2796   1.2882   1.3849   1.4499   1.4823   1.6103   1.6237
     1.6454   1.7729   1.7838   1.8036   1.8095   1.8856   1.9065   1.9287
     1.9424   1.9644   1.9774   1.9901   2.0083   2.0108   2.0214   2.0564
     2.0761   2.0924   2.1663   2.1901   2.2009   2.2323   2.2396   2.2792
     2.4065   2.4359   2.4699   2.4872   2.5402   2.5494   2.5672   2.6567
     2.7097   3.0343   3.2187   3.2464   3.6139   3.7722   3.7796   3.7889
     4.2887   4.4631   4.4849   4.6485   4.7226   4.7465   5.3640   5.8025
     5.8952   5.9154   6.1145   6.3848   6.6168   6.6610   6.6933   6.7172
     7.1173

          k = 0.2000-0.5774 0.0000 ( 44692 PWs)   bands (ev):

    -5.7200  -5.6596  -5.1530  -4.9457  -4.4329  -4.2131  -3.8847  -3.8300
    -3.7523  -3.7031  -3.5970  -3.5916  -3.4967  -3.4906  -3.4049  -3.3807
    -3.3639  -3.3396  -3.3252  -3.3062  -3.1960  -3.1643  -3.1577  -3.1311
    -3.1158  -3.1069  -3.0482  -2.9532  -2.9067  -2.7990  -2.7756  -2.7594
    -2.7465  -2.7294  -2.6966  -2.6420  -2.5204  -2.5124  -2.4161  -2.3312
    -2.3157  -2.2527  -2.1850  -2.1546  -2.1327  -2.0648  -2.0010  -1.9559
    -1.9206  -1.9018  -1.8802  -1.8443  -1.8332  -1.7938  -1.7190  -1.7112
    -1.6895  -1.6795  -1.6693  -1.6642  -1.6093  -1.6018  -1.5806  -1.4780
    -1.4617  -1.3955  -1.3678  -1.3058  -1.2756  -1.2378  -1.2122  -1.1764
    -1.1681  -1.1593  -1.0953  -1.0852  -1.0591  -1.0337  -1.0033  -0.9543
    -0.9366  -0.8486  -0.8374  -0.8288  -0.8185  -0.8112  -0.7318  -0.6727
    -0.6372  -0.6240  -0.6185  -0.5895  -0.5549  -0.5448  -0.5378  -0.5121
    -0.5040  -0.4905  -0.4731  -0.4314  -0.4062  -0.4013  -0.3966  -0.3833
    -0.3733  -0.3717  -0.3296  -0.2989  -0.2746  -0.0853  -0.0617   0.0097
     0.0283   0.0954   0.1290   0.1418   0.1582   0.1838   0.2141   0.2339
     0.2385   0.2530   0.3154   0.3618   0.3787   0.3978   0.4379   0.4565
     0.5110   0.5327   0.5712   0.6655   0.7123   0.7781   0.7924   0.8088
     0.8622   0.8801   0.9099   0.9281   0.9433   0.9481   0.9617   0.9795
     1.0755   1.1079   1.1103   1.1595   1.1694   1.1895   1.1985   1.2241
     1.2315   1.3703   1.4076   1.4554   1.5227   1.5492   1.6258   1.6343
     1.6785   1.7416   1.7558   1.7702   1.8496   1.8554   1.9393   1.9476
     1.9752   1.9867   1.9938   2.0178   2.0344   2.0826   2.1481   2.1520
     2.1742   2.1897   2.1957   2.2071   2.2131   2.2841   2.3859   2.4136
     2.4207   2.4258   2.4324   2.4971   2.5260   2.6229   2.7312   3.4786
     3.5976   3.6198   3.7671   3.8270   3.9164   3.9704   3.9921   4.3187
     4.5698   4.6056   4.7900   5.0447   5.0658   5.1596   5.1931   5.3464
     5.4653   5.5283   5.5726   5.8403   5.9688   6.0308   6.4767   6.6682
     6.6993

          k = 0.2000-0.3464 0.0000 ( 44714 PWs)   bands (ev):

    -6.2218  -5.2814  -4.9682  -4.9550  -4.5939  -3.8869  -3.8820  -3.8812
    -3.8732  -3.8335  -3.8173  -3.7927  -3.7033  -3.6988  -3.5386  -3.3104
    -3.3015  -3.2982  -3.2944  -3.2261  -3.2015  -3.0769  -3.0670  -3.0615
    -3.0517  -3.0011  -2.9482  -2.9127  -2.9041  -2.9012  -2.8495  -2.8158
    -2.8018  -2.7549  -2.7371  -2.6390  -2.5462  -2.4056  -2.3158  -2.3044
    -2.2687  -2.2568  -2.2415  -2.2393  -2.1793  -2.1497  -2.1054  -2.0200
    -2.0028  -1.9162  -1.8778  -1.8661  -1.8335  -1.8258  -1.7406  -1.7304
    -1.7225  -1.5644  -1.5374  -1.5290  -1.4738  -1.4614  -1.4211  -1.4098
    -1.4048  -1.3454  -1.3165  -1.2020  -1.1909  -1.1757  -1.1591  -1.1346
    -1.1135  -1.0682  -1.0329  -1.0106  -0.9623  -0.9022  -0.8908  -0.8659
    -0.8508  -0.8332  -0.8160  -0.7993  -0.7701  -0.7653  -0.7291  -0.7183
    -0.6971  -0.6685  -0.5860  -0.5751  -0.5715  -0.5454  -0.5210  -0.5006
    -0.4887  -0.4574  -0.4322  -0.4297  -0.4220  -0.4161  -0.4102  -0.3920
    -0.3619  -0.3302  -0.2442  -0.2122  -0.1839  -0.1163  -0.0968  -0.0879
    -0.0720   0.1014   0.1185   0.1744   0.2261   0.2338   0.2803   0.2900
     0.3078   0.3239   0.3550   0.3799   0.4016   0.4124   0.4297   0.5056
     0.5947   0.6520   0.6702   0.6798   0.7072   0.7368   0.7666   0.8037
     0.8791   0.9140   0.9189   0.9360   1.0039   1.0286   1.0720   1.1242
     1.1365   1.1464   1.1983   1.2106   1.2280   1.2378   1.2433   1.2653
     1.2719   1.2792   1.2896   1.3996   1.4511   1.4844   1.6149   1.6231
     1.6434   1.7627   1.7921   1.8030   1.8092   1.8869   1.9026   1.9243
     1.9455   1.9667   1.9768   1.9917   2.0105   2.0144   2.0234   2.0591
     2.0784   2.0859   2.1682   2.1919   2.1996   2.2326   2.2412   2.2804
     2.4082   2.4434   2.4652   2.4790   2.5387   2.5503   2.5667   2.6663
     2.7103   3.0206   3.2059   3.2516   3.5906   3.7737   3.7766   3.7892
     4.2906   4.4663   4.4811   4.6346   4.7188   4.7485   5.3487   5.7753
     5.9044   5.9163   6.1353   6.4145   6.6268   6.6583   6.6952   6.7182
     6.7323

          k = 0.4000-0.2309 0.0000 ( 44748 PWs)   bands (ev):

    -6.0854  -5.4619  -5.1506  -4.5912  -4.3458  -4.3312  -4.1438  -3.9723
    -3.8349  -3.7159  -3.6260  -3.6181  -3.5694  -3.4596  -3.4136  -3.4044
    -3.3996  -3.3902  -3.2548  -3.2289  -3.2225  -3.1847  -3.1772  -3.1594
    -3.0898  -3.0522  -3.0484  -2.9568  -2.8003  -2.7891  -2.7852  -2.7695
    -2.7648  -2.6729  -2.5408  -2.5321  -2.5209  -2.4874  -2.4801  -2.3859
    -2.2801  -2.2150  -2.1951  -2.1852  -2.1596  -2.1291  -2.0805  -2.0555
    -2.0466  -2.0151  -1.9823  -1.8589  -1.8338  -1.8278  -1.8048  -1.7383
    -1.6739  -1.6454  -1.6129  -1.6034  -1.5824  -1.4569  -1.4076  -1.3942
    -1.3910  -1.3726  -1.2912  -1.2826  -1.2456  -1.1586  -1.1423  -1.1314
    -1.0789  -1.0298  -1.0259  -0.9913  -0.9871  -0.9509  -0.9207  -0.9091
    -0.8966  -0.8834  -0.8762  -0.8597  -0.8433  -0.8401  -0.7439  -0.7277
    -0.7169  -0.7027  -0.7000  -0.6907  -0.6665  -0.5603  -0.5262  -0.5151
    -0.4871  -0.4788  -0.4576  -0.4306  -0.3941  -0.3834  -0.3018  -0.2707
    -0.2335  -0.2083  -0.1923  -0.1750  -0.1499  -0.0099   0.0114   0.0781
     0.0981   0.1504   0.1712   0.1972   0.2072   0.2106   0.2153   0.2528
     0.2868   0.3162   0.3252   0.3347   0.3629   0.3843   0.3880   0.4092
     0.4266   0.5266   0.5587   0.5714   0.6376   0.6666   0.7620   0.7641
     0.8587   0.8643   0.9104   0.9589   1.0360   1.0412   1.0885   1.1003
     1.1240   1.1332   1.1669   1.1971   1.2332   1.2416   1.2993   1.3395
     1.3475   1.3913   1.4055   1.4204   1.4307   1.4786   1.5634   1.5993
     1.6702   1.6934   1.7002   1.7150   1.7538   1.8100   1.8164   1.8783
     1.8924   1.8987   1.9135   1.9619   1.9962   2.0057   2.0207   2.1368
     2.1428   2.1571   2.1657   2.1734   2.1768   2.1944   2.2183   2.3928
     2.4076   2.4176   2.4230   2.4293   2.6000   2.6468   2.8917   3.0039
     3.0641   3.2526   3.4770   3.4857   3.7590   3.8645   3.9698   4.1652
     4.4573   4.7064   4.7128   4.7818   4.8961   4.9384   5.0353   5.0613
     5.2986   5.3573   5.8814   5.9752   6.4005   6.5141   6.8695   6.9747
     7.4598

          k = 0.4000 0.0000 0.0000 ( 44714 PWs)   bands (ev):

    -6.2237  -5.2964  -4.9672  -4.9548  -4.5920  -3.8902  -3.8870  -3.8805
    -3.8678  -3.8332  -3.8128  -3.7913  -3.7039  -3.6993  -3.5251  -3.3196
    -3.3042  -3.2983  -3.2958  -3.2293  -3.2013  -3.0826  -3.0656  -3.0614
    -3.0486  -2.9886  -2.9469  -2.9094  -2.9055  -2.8989  -2.8396  -2.8149
    -2.8048  -2.7463  -2.7380  -2.6446  -2.4930  -2.4044  -2.3144  -2.3083
    -2.2683  -2.2567  -2.2428  -2.2371  -2.1795  -2.1496  -2.1065  -2.0165
    -2.0055  -1.9117  -1.8889  -1.8749  -1.8347  -1.8227  -1.7540  -1.7251
    -1.7088  -1.5669  -1.5435  -1.5196  -1.4691  -1.4550  -1.4201  -1.4107
    -1.4041  -1.3473  -1.3157  -1.2083  -1.1943  -1.1794  -1.1645  -1.1294
    -1.1179  -1.0691  -1.0350  -1.0117  -0.9631  -0.8994  -0.8927  -0.8673
    -0.8499  -0.8291  -0.8175  -0.8014  -0.7828  -0.7612  -0.7427  -0.7234
    -0.7011  -0.6896  -0.5872  -0.5808  -0.5695  -0.5491  -0.5181  -0.5083
    -0.4827  -0.4573  -0.4383  -0.4318  -0.4241  -0.4159  -0.4105  -0.3912
    -0.3529  -0.3357  -0.2465  -0.2181  -0.1835  -0.1152  -0.1008  -0.0896
    -0.0725   0.0996   0.1266   0.1533   0.2249   0.2312   0.2794   0.2878
     0.3136   0.3261   0.3642   0.3779   0.4010   0.4159   0.4283   0.5100
     0.6029   0.6462   0.6671   0.6836   0.7135   0.7320   0.7579   0.8030
     0.8776   0.9133   0.9215   0.9552   1.0026   1.0334   1.0752   1.1207
     1.1271   1.1423   1.2017   1.2156   1.2233   1.2424   1.2467   1.2630
     1.2724   1.2796   1.2884   1.3848   1.4499   1.4823   1.6102   1.6236
     1.6454   1.7729   1.7838   1.8036   1.8095   1.8855   1.9064   1.9289
     1.9424   1.9645   1.9774   1.9901   2.0082   2.0108   2.0213   2.0563
     2.0761   2.0926   2.1662   2.1902   2.2008   2.2323   2.2396   2.2791
     2.4067   2.4361   2.4701   2.4873   2.5403   2.5494   2.5672   2.6566
     2.7097   3.0342   3.2186   3.2463   3.6139   3.7723   3.7798   3.7890
     4.2887   4.4631   4.4848   4.6485   4.7227   4.7465   5.3641   5.8026
     5.8954   5.9155   6.1145   6.3847   6.6167   6.6596   6.6927   6.7157
     6.7318

          k = 0.4000 0.2309 0.0000 ( 44748 PWs)   bands (ev):

    -6.0888  -5.4772  -5.1559  -4.5884  -4.3458  -4.3349  -4.1373  -3.9705
    -3.8346  -3.7159  -3.6203  -3.6172  -3.5609  -3.4591  -3.4280  -3.4060
    -3.4030  -3.3918  -3.2574  -3.2283  -3.2236  -3.1853  -3.1787  -3.1566
    -3.0899  -3.0504  -3.0474  -2.8891  -2.8013  -2.7933  -2.7782  -2.7671
    -2.7621  -2.6579  -2.5401  -2.5301  -2.5211  -2.4835  -2.4778  -2.3799
    -2.2797  -2.2123  -2.1961  -2.1864  -2.1596  -2.1264  -2.0821  -2.0514
    -2.0488  -2.0156  -1.9844  -1.8661  -1.8314  -1.8273  -1.8052  -1.7472
    -1.6707  -1.6350  -1.6054  -1.6051  -1.5780  -1.4581  -1.4085  -1.3961
    -1.3871  -1.3745  -1.2824  -1.2822  -1.2541  -1.1652  -1.1461  -1.1447
    -1.0889  -1.0307  -1.0249  -0.9867  -0.9863  -0.9541  -0.9267  -0.9010
    -0.8926  -0.8859  -0.8694  -0.8619  -0.8513  -0.8386  -0.7316  -0.7241
    -0.7153  -0.6955  -0.6954  -0.6891  -0.6730  -0.5847  -0.5416  -0.5260
    -0.4986  -0.4762  -0.4512  -0.4348  -0.4123  -0.3984  -0.3105  -0.2766
    -0.2329  -0.2238  -0.1910  -0.1839  -0.1527  -0.0162   0.0187   0.0624
     0.0951   0.1403   0.1852   0.1892   0.2119   0.2184   0.2208   0.2448
     0.2855   0.3208   0.3242   0.3379   0.3556   0.3766   0.3852   0.4108
     0.4417   0.5261   0.5507   0.5645   0.6372   0.6740   0.7622   0.7636
     0.8589   0.8701   0.9199   0.9659   1.0306   1.0453   1.0714   1.0958
     1.1308   1.1323   1.1733   1.1957   1.2319   1.2436   1.2942   1.3445
     1.3460   1.3896   1.4058   1.4240   1.4243   1.4755   1.5570   1.5916
     1.6530   1.6868   1.6915   1.7179   1.7627   1.8066   1.8159   1.8900
     1.8904   1.9011   1.9087   1.9711   1.9941   1.9968   2.0211   2.1374
     2.1414   2.1610   2.1633   2.1763   2.1791   2.2017   2.2217   2.3937
     2.4135   2.4205   2.4289   2.4325   2.5998   2.6460   2.9135   3.0048
     3.0668   3.2412   3.4813   3.4850   3.7712   3.8647   3.9650   4.1847
     4.4880   4.7072   4.7125   4.7726   4.8952   4.9303   5.0528   5.0661
     5.2995   5.3570   5.8675   5.9856   6.3859   6.5077   6.8878   6.9671
     7.4810

          k = 0.4000-0.6928 0.0000 ( 44692 PWs)   bands (ev):

    -5.7280  -5.6624  -5.1405  -4.9675  -4.4313  -4.1973  -3.8917  -3.8343
    -3.7509  -3.7026  -3.5974  -3.5920  -3.4975  -3.4922  -3.4040  -3.3781
    -3.3614  -3.3433  -3.3234  -3.3050  -3.1901  -3.1658  -3.1564  -3.1385
    -3.1153  -3.1104  -3.0365  -2.9403  -2.9030  -2.7925  -2.7725  -2.7521
    -2.7489  -2.7238  -2.6928  -2.6353  -2.5197  -2.5138  -2.4064  -2.3325
    -2.3128  -2.2572  -2.1855  -2.1513  -2.1247  -2.0752  -1.9942  -1.9557
    -1.9307  -1.9020  -1.8830  -1.8396  -1.8270  -1.7804  -1.7183  -1.7136
    -1.6969  -1.6762  -1.6668  -1.6631  -1.6198  -1.5960  -1.5812  -1.4739
    -1.4645  -1.3965  -1.3658  -1.3075  -1.2664  -1.2401  -1.2184  -1.1772
    -1.1762  -1.1696  -1.0990  -1.0888  -1.0598  -1.0352  -1.0035  -0.9567
    -0.9263  -0.8536  -0.8447  -0.8254  -0.8158  -0.8058  -0.7453  -0.6832
    -0.6356  -0.6295  -0.6112  -0.5933  -0.5573  -0.5474  -0.5358  -0.5205
    -0.5090  -0.5060  -0.4765  -0.4180  -0.4089  -0.4064  -0.4027  -0.3807
    -0.3723  -0.3674  -0.3473  -0.2983  -0.2761  -0.0940  -0.0671   0.0112
     0.0312   0.1122   0.1245   0.1346   0.1640   0.1852   0.2173   0.2343
     0.2400   0.2608   0.3223   0.3657   0.3773   0.4006   0.4382   0.4583
     0.5124   0.5274   0.5544   0.6396   0.7173   0.7836   0.7897   0.8141
     0.8631   0.8840   0.9058   0.9276   0.9430   0.9466   0.9641   0.9782
     1.0757   1.1125   1.1154   1.1638   1.1673   1.1827   1.1977   1.2149
     1.2281   1.3808   1.4044   1.4530   1.5104   1.5555   1.6266   1.6382
     1.6920   1.7411   1.7527   1.7729   1.8442   1.8611   1.9358   1.9520
     1.9677   1.9831   1.9908   2.0138   2.0371   2.0848   2.1494   2.1513
     2.1741   2.1881   2.1952   2.2076   2.2133   2.2839   2.3881   2.4159
     2.4256   2.4296   2.4341   2.4964   2.5280   2.6176   2.7133   3.4922
     3.5974   3.6182   3.7715   3.8267   3.9364   3.9702   3.9867   4.3314
     4.5614   4.6122   4.8172   5.0465   5.0647   5.1436   5.2015   5.3727
     5.4641   5.5228   5.5713   5.8416   5.9438   6.0354   6.4875   6.6498
     6.6922

          k = 0.4000-0.4619 0.0000 ( 44692 PWs)   bands (ev):

    -5.7201  -5.6596  -5.1530  -4.9457  -4.4329  -4.2132  -3.8848  -3.8301
    -3.7523  -3.7031  -3.5969  -3.5915  -3.4968  -3.4907  -3.4049  -3.3807
    -3.3639  -3.3396  -3.3251  -3.3061  -3.1961  -3.1644  -3.1576  -3.1312
    -3.1159  -3.1069  -3.0482  -2.9531  -2.9067  -2.7990  -2.7755  -2.7594
    -2.7464  -2.7293  -2.6966  -2.6420  -2.5203  -2.5123  -2.4161  -2.3314
    -2.3157  -2.2527  -2.1850  -2.1546  -2.1327  -2.0649  -2.0011  -1.9560
    -1.9206  -1.9017  -1.8801  -1.8440  -1.8331  -1.7938  -1.7190  -1.7112
    -1.6895  -1.6794  -1.6692  -1.6642  -1.6093  -1.6019  -1.5806  -1.4779
    -1.4617  -1.3955  -1.3676  -1.3059  -1.2754  -1.2379  -1.2124  -1.1764
    -1.1683  -1.1596  -1.0952  -1.0852  -1.0592  -1.0337  -1.0033  -0.9542
    -0.9365  -0.8486  -0.8374  -0.8288  -0.8184  -0.8111  -0.7318  -0.6730
    -0.6373  -0.6237  -0.6183  -0.5894  -0.5550  -0.5449  -0.5379  -0.5125
    -0.5042  -0.4905  -0.4732  -0.4308  -0.4063  -0.4014  -0.3967  -0.3833
    -0.3731  -0.3716  -0.3297  -0.2990  -0.2745  -0.0854  -0.0618   0.0097
     0.0283   0.0954   0.1290   0.1418   0.1582   0.1839   0.2141   0.2339
     0.2384   0.2532   0.3154   0.3619   0.3786   0.3977   0.4379   0.4566
     0.5110   0.5326   0.5709   0.6655   0.7123   0.7782   0.7924   0.8089
     0.8622   0.8801   0.9100   0.9281   0.9433   0.9481   0.9617   0.9796
     1.0755   1.1079   1.1103   1.1595   1.1694   1.1895   1.1985   1.2241
     1.2314   1.3703   1.4074   1.4553   1.5227   1.5492   1.6258   1.6344
     1.6785   1.7416   1.7558   1.7703   1.8496   1.8553   1.9393   1.9474
     1.9751   1.9866   1.9938   2.0178   2.0345   2.0828   2.1481   2.1521
     2.1740   2.1897   2.1957   2.2071   2.2131   2.2840   2.3859   2.4136
     2.4209   2.4259   2.4326   2.4971   2.5262   2.6229   2.7311   3.4785
     3.5976   3.6198   3.7669   3.8271   3.9163   3.9704   3.9920   4.3189
     4.5699   4.6056   4.7900   5.0447   5.0659   5.1596   5.1931   5.3469
     5.4654   5.5282   5.5724   5.8404   5.9688   6.0307   6.4769   6.6692
     6.7007

     the Fermi energy is     2.1928 ev

!    total energy              =  -27755.49652726 Ry
     total all-electron energy =  -1326642.261944 Ry
     estimated scf accuracy    <       0.00000098 Ry
     smearing contrib. (-TS)   =       0.00460079 Ry
     internal energy E=F+TS    =  -27755.50112805 Ry

     The total energy is F=E-TS. E is the sum of the following terms:
     one-electron contribution =  -22796.22621663 Ry
     hartree contribution      =   11700.94859255 Ry
     xc contribution           =    -890.80270080 Ry
     ewald contribution        =    9704.57860270 Ry
     one-center paw contrib.   =  -25473.99940587 Ry

     convergence has been achieved in  16 iterations

     negative rho (up, down):  3.350E-03 0.000E+00

     Forces acting on atoms (cartesian axes, Ry/au):

     atom    1 type  1   force =     0.00224764    0.00129665   -0.00576855
     atom    2 type  1   force =     0.00055000    0.00211348   -0.00429470
     atom    3 type  1   force =    -0.00166862    0.00367085   -0.00539674
     atom    4 type  1   force =     0.00209843   -0.00057247   -0.00427097
     atom    5 type  1   force =    -0.00018287   -0.00009469   -0.00338022
     atom    6 type  1   force =    -0.00200726    0.00055744   -0.00391872
     atom    7 type  1   force =     0.00234688   -0.00331352   -0.00539287
     atom    8 type  1   force =    -0.00052472   -0.00205188   -0.00393817
     atom    9 type  1   force =    -0.00271267   -0.00159230   -0.00416956
     atom   10 type  1   force =     0.00324793    0.00190578    0.00756638
     atom   11 type  1   force =     0.00011936    0.00169151    0.00424543
     atom   12 type  1   force =    -0.00160063    0.00311742    0.00489558
     atom   13 type  1   force =     0.00149243   -0.00070822    0.00423048
     atom   14 type  1   force =     0.00011558    0.00008972    0.00204765
     atom   15 type  1   force =    -0.00155396    0.00109449    0.00540560
     atom   16 type  1   force =     0.00186952   -0.00294458    0.00488063
     atom   17 type  1   force =     0.00016111   -0.00189853    0.00542281
     atom   18 type  1   force =    -0.00281533   -0.00163146    0.00319829
     atom   19 type  1   force =     0.00001815   -0.00001315   -0.00006372
     atom   20 type  1   force =     0.00008231    0.00004821   -0.00014962
     atom   21 type  1   force =     0.00005244    0.00003577   -0.00009917
     atom   22 type  1   force =     0.00009137    0.00005138   -0.00012033
     atom   23 type  1   force =     0.00007096    0.00001587   -0.00009613
     atom   24 type  1   force =     0.00000547    0.00000624   -0.00004305
     atom   25 type  1   force =     0.00014094    0.00008678    0.00004584
     atom   26 type  1   force =    -0.00000050    0.00002060   -0.00007470
     atom   27 type  1   force =     0.00009781    0.00004338   -0.00012525
     atom   28 type  1   force =     0.00014993    0.00008418    0.00046713
     atom   29 type  1   force =     0.00029868    0.00000282   -0.00011914
     atom   30 type  1   force =     0.00013292    0.00009425    0.00006837
     atom   31 type  1   force =     0.00015708    0.00025424   -0.00012210
     atom   32 type  1   force =     0.00002786    0.00001589    0.00008798
     atom   33 type  1   force =     0.00005469    0.00007577    0.00007695
     atom   34 type  1   force =     0.00015508    0.00005984    0.00007011
     atom   35 type  1   force =     0.00011045    0.00001118    0.00007476
     atom   36 type  1   force =     0.00011158    0.00007169    0.00010655
     atom   37 type  2   force =    -0.00294002   -0.00169462   -0.00134681
     The non-local contrib.  to forces
     atom    1 type  1   force =     0.00282950    0.00163849   -0.01656849
     atom    2 type  1   force =    -0.00015928    0.00232492   -0.01743794
     atom    3 type  1   force =    -0.00059596    0.00141363   -0.01690398
     atom    4 type  1   force =     0.00192043   -0.00128710   -0.01741965
     atom    5 type  1   force =    -0.00003115   -0.00000242   -0.01778828
     atom    6 type  1   force =    -0.00150452    0.00034770   -0.01702105
     atom    7 type  1   force =     0.00092506   -0.00124303   -0.01690577
     atom    8 type  1   force =    -0.00046028   -0.00150169   -0.01703699
     atom    9 type  1   force =    -0.00160845   -0.00094434   -0.01677450
     atom   10 type  1   force =     0.00187013    0.00111288    0.00062375
     atom   11 type  1   force =     0.00004818    0.00192635    0.00090512
     atom   12 type  1   force =    -0.00001184    0.00249350    0.00103676
     atom   13 type  1   force =     0.00166064   -0.00088178    0.00089928
     atom   14 type  1   force =     0.00042366    0.00027470   -0.00048801
     atom   15 type  1   force =    -0.00179039   -0.00005114    0.00119818
     atom   16 type  1   force =     0.00212319   -0.00125843    0.00102909
     atom   17 type  1   force =    -0.00095181   -0.00152667    0.00120909
     atom   18 type  1   force =    -0.00232110   -0.00134518    0.00147136
     atom   19 type  1   force =    -0.00175704    0.00029398    0.00145912
     atom   20 type  1   force =     0.00107066    0.00062548    0.00326301
     atom   21 type  1   force =     0.00059079    0.00085570    0.00249281
     atom   22 type  1   force =     0.00039871    0.00268182   -0.00090316
     atom   23 type  1   force =     0.00104018    0.00008229    0.00249286
     atom   24 type  1   force =    -0.00096130   -0.00055077    0.00295550
     atom   25 type  1   force =    -0.00100888   -0.00058442    0.00042505
     atom   26 type  1   force =    -0.00062918   -0.00166982    0.00144698
     atom   27 type  1   force =     0.00253072   -0.00101304   -0.00091291
     atom   28 type  1   force =     0.04495964    0.02593388    0.02429220
     atom   29 type  1   force =    -0.03290489    0.02306771    0.00497391
     atom   30 type  1   force =     0.00009161   -0.00063115    0.01401347
     atom   31 type  1   force =     0.00354878   -0.04005028    0.00497971
     atom   32 type  1   force =    -0.00676884   -0.00391924    0.01803614
     atom   33 type  1   force =     0.00213586   -0.00116565    0.01593993
     atom   34 type  1   force =    -0.00048169    0.00036712    0.01399484
     atom   35 type  1   force =     0.00008404    0.00241940    0.01593964
     atom   36 type  1   force =    -0.00029050   -0.00017206    0.01461331
     atom   37 type  2   force =     0.00469653    0.00270504   -0.01906159
     The ionic contribution  to forces
     atom    1 type  1   force =     0.14236089    0.08220006  -96.25204030
     atom    2 type  1   force =     0.01399694    0.14592147  -96.18622105
     atom    3 type  1   force =    -0.13592261    0.21623906  -96.20884953
     atom    4 type  1   force =     0.13336496   -0.06088933  -96.18630342
     atom    5 type  1   force =     0.00287908    0.00160460  -96.14010769
     atom    6 type  1   force =    -0.12924266    0.08153039  -96.15462912
     atom    7 type  1   force =     0.11929624   -0.22577869  -96.20895213
     atom    8 type  1   force =     0.00603807   -0.15266928  -96.15464082
     atom    9 type  1   force =    -0.14070095   -0.08118485  -96.15720397
     atom   10 type  1   force =     0.15801476    0.09110798  -32.36725827
     atom   11 type  1   force =    -0.07804971    0.13933037  -32.44697198
     atom   12 type  1   force =    -0.05353898    0.20299703  -32.39705645
     atom   13 type  1   force =     0.08164821   -0.13741826  -32.44763016
     atom   14 type  1   force =    -0.01606436   -0.00931837  -32.57108356
     atom   15 type  1   force =    -0.06527333    0.01535885  -32.41144955
     atom   16 type  1   force =     0.14919036   -0.14720189  -32.39748320
     atom   17 type  1   force =    -0.01939065   -0.06369492  -32.41103919
     atom   18 type  1   force =    -0.14698964   -0.08428148  -32.27853058
     atom   19 type  1   force =     0.11593439   -0.01867028   32.25958160
     atom   20 type  1   force =    -0.08244512   -0.04855408   32.27843354
     atom   21 type  1   force =    -0.03225670   -0.01445165   31.54190437
     atom   22 type  1   force =     0.00531353   -0.00052937   31.95716303
     atom   23 type  1   force =    -0.02748787   -0.02129949   31.54026864
     atom   24 type  1   force =     0.02248609    0.01351498   31.54612422
     atom   25 type  1   force =    -0.03027000   -0.01640718   31.93534572
     atom   26 type  1   force =     0.04280296    0.10994940   32.26051043
     atom   27 type  1   force =     0.00221358    0.00571292   31.95817099
     atom   28 type  1   force =    -0.26641276   -0.15456445   95.40648977
     atom   29 type  1   force =     0.47767838   -0.37323200   95.50368863
     atom   30 type  1   force =     0.00543248    0.01986013   95.37079304
     atom   31 type  1   force =    -0.08364890    0.59930817   95.50385548
     atom   32 type  1   force =    -0.04616459   -0.02794821   95.13145093
     atom   33 type  1   force =     0.03383552   -0.01682614   95.24190170
     atom   34 type  1   force =     0.01991100   -0.00441759   95.37017500
     atom   35 type  1   force =     0.00360168    0.03867049   95.24118744
     atom   36 type  1   force =    -0.02361337   -0.01257646   95.31121733
     atom   37 type  2   force =    -0.15852692   -0.09139193   12.01918912
     The local contribution  to forces
     atom    1 type  1   force =    -0.14258531   -0.08234993   96.24541604
     atom    2 type  1   force =    -0.01321771   -0.14574057   96.18208290
     atom    3 type  1   force =     0.13452855   -0.21343174   96.20306686
     atom    4 type  1   force =    -0.13280500    0.06140864   96.18214288
     atom    5 type  1   force =    -0.00298141   -0.00172458   96.13742906
     atom    6 type  1   force =     0.12834747   -0.08118119   96.15058621
     atom    7 type  1   force =    -0.11754896    0.22321861   96.20314827
     atom    8 type  1   force =    -0.00613396    0.15175158   96.15060205
     atom    9 type  1   force =     0.13925555    0.08040318   96.15263375
     atom   10 type  1   force =    -0.15615405   -0.09008895   32.37418329
     atom   11 type  1   force =     0.07816902   -0.13919409   32.45006566
     atom   12 type  1   force =     0.05154116   -0.20190474   32.40070035
     atom   13 type  1   force =    -0.08143801    0.13739412   32.45073053
     atom   14 type  1   force =     0.01564691    0.00903784   32.57299193
     atom   15 type  1   force =     0.06521023   -0.01407616   32.41538907
     atom   16 type  1   force =    -0.14919437    0.14498998   32.40110458
     atom   17 type  1   force =     0.02048547    0.06305938   32.41496093
     atom   18 type  1   force =     0.14612475    0.08385411   32.28057674
     atom   19 type  1   force =    -0.11405764    0.01826240  -32.25811701
     atom   20 type  1   force =     0.08154264    0.04797030  -32.27885689
     atom   21 type  1   force =     0.03157788    0.01358139  -31.54199915
     atom   22 type  1   force =    -0.00542273   -0.00186885  -31.95381265
     atom   23 type  1   force =     0.02644028    0.02111475  -31.54034776
     atom   24 type  1   force =    -0.02161476   -0.01301243  -31.54655070
     atom   25 type  1   force =     0.03114369    0.01695937  -31.93326867
     atom   26 type  1   force =    -0.04216316   -0.10809378  -32.25904414
     atom   27 type  1   force =    -0.00435985   -0.00455118  -31.95482831
     atom   28 type  1   force =     0.21924553    0.12735429  -95.41647354
     atom   29 type  1   force =    -0.43899222    0.34612086  -95.49745044
     atom   30 type  1   force =    -0.00549402   -0.01899236  -95.36823271
     atom   31 type  1   force =     0.07949359   -0.55226418  -95.49761061
     atom   32 type  1   force =     0.05220324    0.03139637  -95.13317050
     atom   33 type  1   force =    -0.03537495    0.01775159  -95.24133090
     atom   34 type  1   force =    -0.01921814    0.00398712  -95.36757432
     atom   35 type  1   force =    -0.00354008   -0.04042845  -95.24061708
     atom   36 type  1   force =     0.02393481    0.01280246  -95.30911018
     atom   37 type  2   force =     0.15089109    0.08698513  -12.00160427
     The core correction contribution to forces
     atom    1 type  1   force =    -0.00043474   -0.00025084    0.01758861
     atom    2 type  1   force =     0.00000519   -0.00044288    0.01743971
     atom    3 type  1   force =     0.00032654   -0.00057313    0.01753958
     atom    4 type  1   force =    -0.00038084    0.00022639    0.01743956
     atom    5 type  1   force =    -0.00000593   -0.00000316    0.01732973
     atom    6 type  1   force =     0.00034184   -0.00017423    0.01732187
     atom    7 type  1   force =    -0.00033338    0.00056960    0.01753955
     atom    8 type  1   force =     0.00001992    0.00038377    0.01732218
     atom    9 type  1   force =     0.00036059    0.00020826    0.01733029
     atom   10 type  1   force =    -0.00043846   -0.00025344    0.00073549
     atom   11 type  1   force =     0.00008302   -0.00033957    0.00102983
     atom   12 type  1   force =     0.00022889   -0.00054561    0.00094463
     atom   13 type  1   force =    -0.00025172    0.00024112    0.00103127
     atom   14 type  1   force =     0.00000779    0.00000421    0.00140103
     atom   15 type  1   force =     0.00027464   -0.00009418    0.00093838
     atom   16 type  1   force =    -0.00035772    0.00046919    0.00094575
     atom   17 type  1   force =     0.00005636    0.00028379    0.00093745
     atom   18 type  1   force =     0.00044405    0.00025496    0.00036769
     atom   19 type  1   force =    -0.00020433    0.00006152   -0.00236857
     atom   20 type  1   force =     0.00015636    0.00009196   -0.00237898
     atom   21 type  1   force =     0.00000287    0.00003315   -0.00187340
     atom   22 type  1   force =    -0.00003780   -0.00018383   -0.00191797
     atom   23 type  1   force =     0.00002739   -0.00001268   -0.00187303
     atom   24 type  1   force =    -0.00001334   -0.00000953   -0.00189849
     atom   25 type  1   force =     0.00020402    0.00011481   -0.00185199
     atom   26 type  1   force =    -0.00005084   -0.00020886   -0.00236793
     atom   27 type  1   force =    -0.00017864    0.00005725   -0.00191758
     atom   28 type  1   force =     0.00215704    0.00124732   -0.01381668
     atom   29 type  1   force =    -0.00526535    0.00398833   -0.01139267
     atom   30 type  1   force =     0.00009571   -0.00008799   -0.01650156
     atom   31 type  1   force =     0.00081934   -0.00654890   -0.01139469
     atom   32 type  1   force =     0.00088511    0.00051528   -0.01625301
     atom   33 type  1   force =    -0.00073072    0.00032535   -0.01633932
     atom   34 type  1   force =    -0.00002777    0.00012465   -0.01650225
     atom   35 type  1   force =    -0.00008814   -0.00079847   -0.01633969
     atom   36 type  1   force =     0.00010105    0.00005512   -0.01650456
     atom   37 type  2   force =     0.00000000    0.00000000    0.00000000
     The Hubbard contrib.    to forces
     atom    1 type  1   force =     0.00000000    0.00000000    0.00000000
     atom    2 type  1   force =     0.00000000    0.00000000    0.00000000
     atom    3 type  1   force =     0.00000000    0.00000000    0.00000000
     atom    4 type  1   force =     0.00000000    0.00000000    0.00000000
     atom    5 type  1   force =     0.00000000    0.00000000    0.00000000
     atom    6 type  1   force =     0.00000000    0.00000000    0.00000000
     atom    7 type  1   force =     0.00000000    0.00000000    0.00000000
     atom    8 type  1   force =     0.00000000    0.00000000    0.00000000
     atom    9 type  1   force =     0.00000000    0.00000000    0.00000000
     atom   10 type  1   force =     0.00000000    0.00000000    0.00000000
     atom   11 type  1   force =     0.00000000    0.00000000    0.00000000
     atom   12 type  1   force =     0.00000000    0.00000000    0.00000000
     atom   13 type  1   force =     0.00000000    0.00000000    0.00000000
     atom   14 type  1   force =     0.00000000    0.00000000    0.00000000
     atom   15 type  1   force =     0.00000000    0.00000000    0.00000000
     atom   16 type  1   force =     0.00000000    0.00000000    0.00000000
     atom   17 type  1   force =     0.00000000    0.00000000    0.00000000
     atom   18 type  1   force =     0.00000000    0.00000000    0.00000000
     atom   19 type  1   force =     0.00000000    0.00000000    0.00000000
     atom   20 type  1   force =     0.00000000    0.00000000    0.00000000
     atom   21 type  1   force =     0.00000000    0.00000000    0.00000000
     atom   22 type  1   force =     0.00000000    0.00000000    0.00000000
     atom   23 type  1   force =     0.00000000    0.00000000    0.00000000
     atom   24 type  1   force =     0.00000000    0.00000000    0.00000000
     atom   25 type  1   force =     0.00000000    0.00000000    0.00000000
     atom   26 type  1   force =     0.00000000    0.00000000    0.00000000
     atom   27 type  1   force =     0.00000000    0.00000000    0.00000000
     atom   28 type  1   force =     0.00000000    0.00000000    0.00000000
     atom   29 type  1   force =     0.00000000    0.00000000    0.00000000
     atom   30 type  1   force =     0.00000000    0.00000000    0.00000000
     atom   31 type  1   force =     0.00000000    0.00000000    0.00000000
     atom   32 type  1   force =     0.00000000    0.00000000    0.00000000
     atom   33 type  1   force =     0.00000000    0.00000000    0.00000000
     atom   34 type  1   force =     0.00000000    0.00000000    0.00000000
     atom   35 type  1   force =     0.00000000    0.00000000    0.00000000
     atom   36 type  1   force =     0.00000000    0.00000000    0.00000000
     atom   37 type  2   force =     0.00000000    0.00000000    0.00000000
     The SCF correction term to forces
     atom    1 type  1   force =     0.00000000    0.00000000   -0.00000000
     atom    2 type  1   force =    -0.00000000    0.00000000   -0.00000000
     atom    3 type  1   force =    -0.00000000    0.00000000   -0.00000000
     atom    4 type  1   force =    -0.00000000   -0.00000000   -0.00000000
     atom    5 type  1   force =    -0.00000000    0.00000000   -0.00000000
     atom    6 type  1   force =     0.00000000    0.00000000   -0.00000000
     atom    7 type  1   force =     0.00000000   -0.00000000   -0.00000000
     atom    8 type  1   force =     0.00000000   -0.00000000   -0.00000000
     atom    9 type  1   force =    -0.00000000   -0.00000000   -0.00000000
     atom   10 type  1   force =    -0.00000000    0.00000000   -0.00000000
     atom   11 type  1   force =    -0.00000000   -0.00000000   -0.00000000
     atom   12 type  1   force =     0.00000000    0.00000000   -0.00000000
     atom   13 type  1   force =    -0.00000000   -0.00000000   -0.00000000
     atom   14 type  1   force =     0.00000000    0.00000000   -0.00000000
     atom   15 type  1   force =     0.00000000   -0.00000000   -0.00000000
     atom   16 type  1   force =     0.00000000    0.00000000   -0.00000000
     atom   17 type  1   force =    -0.00000000   -0.00000000   -0.00000000
     atom   18 type  1   force =    -0.00000000   -0.00000000   -0.00000000
     atom   19 type  1   force =     0.00010268    0.00003913   -0.00074205
     atom   20 type  1   force =    -0.00024230   -0.00008555   -0.00073349
     atom   21 type  1   force =     0.00013752    0.00001709   -0.00074697
     atom   22 type  1   force =    -0.00016042   -0.00004848   -0.00077276
     atom   23 type  1   force =     0.00005090    0.00013091   -0.00076002
     atom   24 type  1   force =     0.00010870    0.00006390   -0.00079676
     atom   25 type  1   force =     0.00007204    0.00000410   -0.00072744
     atom   26 type  1   force =     0.00003964    0.00004357   -0.00074322
     atom   27 type  1   force =    -0.00010807   -0.00016267   -0.00076062
     atom   28 type  1   force =     0.00020041    0.00011304   -0.00014780
     atom   29 type  1   force =    -0.00021732    0.00005782   -0.00006174
     atom   30 type  1   force =     0.00000706   -0.00005448   -0.00012704
     atom   31 type  1   force =    -0.00005581   -0.00019067   -0.00007517
     atom   32 type  1   force =    -0.00012713   -0.00002841   -0.00009876
     atom   33 type  1   force =     0.00018890   -0.00000948   -0.00021762
     atom   34 type  1   force =    -0.00002839   -0.00000156   -0.00014634
     atom   35 type  1   force =     0.00005287    0.00014811   -0.00021873
     atom   36 type  1   force =    -0.00002049   -0.00003746   -0.00023254
     atom   37 type  2   force =    -0.00000079    0.00000704    0.00000675

     Total force =     0.003751     Total SCF correction =     0.002404
     SCF correction compared to forces is large: reduce conv_thr to get better values

     Writing all to output data dir ./pwscf.save/

     init_run     :     10.32s CPU     10.69s WALL (       1 calls)
     electrons    :    268.83s CPU    278.24s WALL (       1 calls)
     forces       :      3.48s CPU      3.97s WALL (       1 calls)

     Called by init_run:
     wfcinit      :      5.77s CPU      5.97s WALL (       1 calls)
     potinit      :      3.10s CPU      3.21s WALL (       1 calls)
     hinit0       :      0.84s CPU      0.85s WALL (       1 calls)

     Called by electrons:
     c_bands      :    228.66s CPU    234.07s WALL (      17 calls)
     sum_band     :     25.22s CPU     26.27s WALL (      17 calls)
     v_of_rho     :      7.77s CPU      9.58s WALL (      17 calls)
     newd         :      2.20s CPU      2.81s WALL (      17 calls)
     PAW_pot      :      3.58s CPU      3.79s WALL (      17 calls)
     mix_rho      :      3.56s CPU      3.74s WALL (      17 calls)
     vdW_kernel   :      1.71s CPU      1.74s WALL (       1 calls)

     Called by c_bands:
     init_us_2    :      2.38s CPU      2.45s WALL (     468 calls)
     init_us_2:cp :      2.38s CPU      2.45s WALL (     468 calls)
     cegterg      :    222.43s CPU    227.58s WALL (     221 calls)

     Called by *egterg:
     cdiaghg      :     59.65s CPU     60.67s WALL (    1165 calls)
     h_psi        :    101.37s CPU    103.77s WALL (    1191 calls)
     s_psi        :     13.91s CPU     14.04s WALL (    1191 calls)
     g_psi        :      0.42s CPU      0.43s WALL (     957 calls)

     Called by h_psi:
     h_psi:calbec :     17.19s CPU     17.93s WALL (    1191 calls)
     vloc_psi     :     68.91s CPU     70.17s WALL (    1191 calls)
     add_vuspsi   :     14.17s CPU     14.57s WALL (    1191 calls)

     General routines
     calbec       :     24.10s CPU     24.98s WALL (    1464 calls)
     fft          :      4.57s CPU      6.27s WALL (    1131 calls)
     ffts         :      2.00s CPU      2.14s WALL (    4113 calls)
     fftw         :     65.34s CPU     66.50s WALL (  289739 calls)
     interpolate  :      0.58s CPU      0.62s WALL (      17 calls)

     Parallel routines

     PWSCF        :   4m44.24s CPU   4m58.16s WALL


   This run was terminated on:  22: 9:55  27Jan2025            

=------------------------------------------------------------------------------=
   JOB DONE.
=------------------------------------------------------------------------------=
