  37  37   0   0
  0.4190497E+02  0.8468310E-09  0.8468310E-09  0.2496566E-08  0.5000000E-15
  1.000000000000000E-004
  CAR 
 unknown system                          
      8.61476267     -9.90712508  301     -0.07482242      1.00000000
     -9.907  0.0000E+00  0.0000E+00
     -9.845  0.0000E+00  0.0000E+00
     -9.784  0.0000E+00  0.0000E+00
     -9.722 -0.4391E-28 -0.2711E-29
     -9.660 -0.6488E-24 -0.4006E-25
     -9.598 -0.4443E-20 -0.2743E-21
     -9.537 -0.1408E-16 -0.8696E-18
     -9.475 -0.1997E-13 -0.1234E-14
     -9.413 -0.1338E-10 -0.8272E-12
     -9.351 -0.4097E-08 -0.2538E-09
     -9.290 -0.5693E-06 -0.3540E-07
     -9.228 -0.3537E-04 -0.2219E-05
     -9.166 -0.9531E-03 -0.6107E-04
     -9.105 -0.1032E-01 -0.6982E-03
     -9.043 -0.3356E-01 -0.2770E-02
     -8.981  0.5088E-01  0.3712E-03
     -8.919  0.3292E+00  0.2070E-01
     -8.858  0.6112E+00  0.5843E-01
     -8.796  0.2060E+01  0.1856E+00
     -8.734  0.3812E+01  0.4210E+00
     -8.672  0.2239E+01  0.5592E+00
     -8.611 -0.2653E-01  0.5576E+00
     -8.549  0.2213E+00  0.5712E+00
     -8.487  0.2614E+01  0.7326E+00
     -8.425  0.3826E+01  0.9688E+00
     -8.364  0.3605E+01  0.1191E+01
     -8.302  0.3727E+01  0.1422E+01
     -8.240  0.1774E+01  0.1531E+01
     -8.178 -0.4959E-01  0.1528E+01
     -8.117 -0.3882E+00  0.1504E+01
     -8.055  0.4419E-01  0.1507E+01
     -7.993  0.2806E+01  0.1680E+01
     -7.931  0.6365E+01  0.2073E+01
     -7.870  0.5375E+01  0.2405E+01
     -7.808  0.2439E+01  0.2555E+01
     -7.746  0.4656E+01  0.2843E+01
     -7.684  0.7315E+01  0.3295E+01
     -7.623  0.4339E+01  0.3562E+01
     -7.561  0.2837E+01  0.3738E+01
     -7.499  0.3433E+01  0.3950E+01
     -7.438  0.5427E+01  0.4285E+01
     -7.376  0.7128E+01  0.4725E+01
     -7.314  0.3447E+01  0.4937E+01
     -7.252  0.4131E+01  0.5193E+01
     -7.191  0.1056E+02  0.5844E+01
     -7.129  0.9933E+01  0.6458E+01
     -7.067  0.5274E+01  0.6783E+01
     -7.005  0.2464E+01  0.6935E+01
     -6.944  0.2945E+01  0.7117E+01
     -6.882  0.7714E+01  0.7593E+01
     -6.820  0.9120E+01  0.8157E+01
     -6.758  0.4264E+01  0.8420E+01
     -6.697  0.2349E+01  0.8565E+01
     -6.635  0.6439E+01  0.8962E+01
     -6.573  0.1365E+02  0.9805E+01
     -6.511  0.1541E+02  0.1076E+02
     -6.450  0.1214E+02  0.1151E+02
     -6.388  0.1066E+02  0.1216E+02
     -6.326  0.8184E+01  0.1267E+02
     -6.264  0.9204E+01  0.1324E+02
     -6.203  0.1835E+02  0.1437E+02
     -6.141  0.3151E+02  0.1632E+02
     -6.079  0.3690E+02  0.1859E+02
     -6.018  0.3090E+02  0.2050E+02
     -5.956  0.2913E+02  0.2230E+02
     -5.894  0.3217E+02  0.2429E+02
     -5.832  0.3623E+02  0.2652E+02
     -5.771  0.3161E+02  0.2847E+02
     -5.709  0.2565E+02  0.3006E+02
     -5.647  0.3166E+02  0.3201E+02
     -5.585  0.3979E+02  0.3447E+02
     -5.524  0.4260E+02  0.3710E+02
     -5.462  0.4974E+02  0.4017E+02
     -5.400  0.6138E+02  0.4396E+02
     -5.338  0.6279E+02  0.4784E+02
     -5.277  0.5633E+02  0.5131E+02
     -5.215  0.4878E+02  0.5433E+02
     -5.153  0.4315E+02  0.5699E+02
     -5.091  0.4729E+02  0.5991E+02
     -5.030  0.6637E+02  0.6401E+02
     -4.968  0.6441E+02  0.6798E+02
     -4.906  0.3605E+02  0.7021E+02
     -4.844  0.2400E+02  0.7169E+02
     -4.783  0.3769E+02  0.7402E+02
     -4.721  0.3971E+02  0.7647E+02
     -4.659  0.2268E+02  0.7787E+02
     -4.598  0.2237E+02  0.7925E+02
     -4.536  0.4144E+02  0.8181E+02
     -4.474  0.5874E+02  0.8544E+02
     -4.412  0.6248E+02  0.8929E+02
     -4.351  0.5522E+02  0.9270E+02
     -4.289  0.4732E+02  0.9562E+02
     -4.227  0.4463E+02  0.9838E+02
     -4.165  0.4599E+02  0.1012E+03
     -4.104  0.5507E+02  0.1046E+03
     -4.042  0.5805E+02  0.1082E+03
     -3.980  0.4850E+02  0.1112E+03
     -3.918  0.4305E+02  0.1139E+03
     -3.857  0.3986E+02  0.1163E+03
     -3.795  0.3648E+02  0.1186E+03
     -3.733  0.4069E+02  0.1211E+03
     -3.671  0.5702E+02  0.1246E+03
     -3.610  0.6418E+02  0.1286E+03
     -3.548  0.5813E+02  0.1322E+03
     -3.486  0.5659E+02  0.1356E+03
     -3.424  0.6720E+02  0.1398E+03
     -3.363  0.7700E+02  0.1445E+03
     -3.301  0.7436E+02  0.1491E+03
     -3.239  0.6801E+02  0.1533E+03
     -3.178  0.7170E+02  0.1578E+03
     -3.116  0.8635E+02  0.1631E+03
     -3.054  0.8505E+02  0.1683E+03
     -2.992  0.7524E+02  0.1730E+03
     -2.931  0.7737E+02  0.1778E+03
     -2.869  0.7680E+02  0.1825E+03
     -2.807  0.8266E+02  0.1876E+03
     -2.745  0.9970E+02  0.1938E+03
     -2.684  0.1054E+03  0.2003E+03
     -2.622  0.8612E+02  0.2056E+03
     -2.560  0.6280E+02  0.2095E+03
     -2.498  0.6324E+02  0.2134E+03
     -2.437  0.6102E+02  0.2171E+03
     -2.375  0.4491E+02  0.2199E+03
     -2.313  0.3142E+02  0.2219E+03
     -2.251  0.2440E+02  0.2234E+03
     -2.190  0.2801E+02  0.2251E+03
     -2.128  0.4267E+02  0.2277E+03
     -2.066  0.6313E+02  0.2316E+03
     -2.004  0.8592E+02  0.2369E+03
     -1.943  0.9301E+02  0.2427E+03
     -1.881  0.8185E+02  0.2477E+03
     -1.819  0.6304E+02  0.2516E+03
     -1.757  0.4537E+02  0.2544E+03
     -1.696  0.4118E+02  0.2570E+03
     -1.634  0.4721E+02  0.2599E+03
     -1.572  0.5776E+02  0.2634E+03
     -1.511  0.5915E+02  0.2671E+03
     -1.449  0.5375E+02  0.2704E+03
     -1.387  0.5836E+02  0.2740E+03
     -1.325  0.5968E+02  0.2777E+03
     -1.264  0.5155E+02  0.2809E+03
     -1.202  0.5495E+02  0.2843E+03
     -1.140  0.7303E+02  0.2888E+03
     -1.078  0.8414E+02  0.2940E+03
     -1.017  0.8552E+02  0.2993E+03
     -0.955  0.7164E+02  0.3037E+03
     -0.893  0.5724E+02  0.3072E+03
     -0.831  0.5825E+02  0.3108E+03
     -0.770  0.5274E+02  0.3141E+03
     -0.708  0.4207E+02  0.3167E+03
     -0.646  0.5035E+02  0.3198E+03
     -0.584  0.6265E+02  0.3236E+03
     -0.523  0.5950E+02  0.3273E+03
     -0.461  0.5881E+02  0.3309E+03
     -0.399  0.6771E+02  0.3351E+03
     -0.337  0.8558E+02  0.3404E+03
     -0.276  0.9516E+02  0.3463E+03
     -0.214  0.7468E+02  0.3509E+03
     -0.152  0.5600E+02  0.3544E+03
     -0.091  0.8190E+02  0.3594E+03
     -0.029  0.9814E+02  0.3655E+03
      0.033  0.6073E+02  0.3692E+03
      0.095  0.3217E+02  0.3712E+03
      0.156  0.4792E+02  0.3742E+03
      0.218  0.5791E+02  0.3777E+03
      0.280  0.4632E+02  0.3806E+03
      0.342  0.3873E+02  0.3830E+03
      0.403  0.2783E+02  0.3847E+03
      0.465  0.1398E+02  0.3856E+03
      0.527  0.5220E+01  0.3859E+03
      0.589  0.3013E+01  0.3861E+03
      0.650  0.3971E+01  0.3863E+03
      0.712  0.9748E+01  0.3869E+03
      0.774  0.1647E+02  0.3879E+03
      0.836  0.1281E+02  0.3887E+03
      0.897  0.7392E+01  0.3892E+03
      0.959  0.9929E+01  0.3898E+03
      1.021  0.9951E+01  0.3904E+03
      1.083  0.3407E+01  0.3906E+03
      1.144  0.2608E+01  0.3908E+03
      1.206  0.1021E+02  0.3914E+03
      1.268  0.1417E+02  0.3923E+03
      1.329  0.1263E+02  0.3931E+03
      1.391  0.1053E+02  0.3937E+03
      1.453  0.1314E+02  0.3945E+03
      1.515  0.2512E+02  0.3961E+03
      1.576  0.2737E+02  0.3978E+03
      1.638  0.1918E+02  0.3990E+03
      1.700  0.1569E+02  0.3999E+03
      1.762  0.1093E+02  0.4006E+03
      1.823  0.2776E+01  0.4008E+03
      1.885  0.1313E+01  0.4009E+03
      1.947  0.3946E+01  0.4011E+03
      2.009  0.6139E+01  0.4015E+03
      2.070  0.6600E+01  0.4019E+03
      2.132  0.4495E+01  0.4022E+03
      2.194  0.7595E+01  0.4026E+03
      2.256  0.1237E+02  0.4034E+03
      2.317  0.1131E+02  0.4041E+03
      2.379  0.1365E+02  0.4049E+03
      2.441  0.2095E+02  0.4062E+03
      2.503  0.2124E+02  0.4075E+03
      2.564  0.1235E+02  0.4083E+03
      2.626  0.6901E+01  0.4087E+03
      2.688  0.6314E+01  0.4091E+03
      2.749  0.9592E+01  0.4097E+03
      2.811  0.1824E+02  0.4108E+03
      2.873  0.1951E+02  0.4120E+03
      2.935  0.1335E+02  0.4129E+03
      2.996  0.8238E+01  0.4134E+03
      3.058  0.1018E+02  0.4140E+03
      3.120  0.1397E+02  0.4149E+03
      3.182  0.1201E+02  0.4156E+03
      3.243  0.1047E+02  0.4163E+03
      3.305  0.8819E+01  0.4168E+03
      3.367  0.3661E+01  0.4170E+03
      3.429 -0.1088E+00  0.4170E+03
      3.490  0.2440E+01  0.4172E+03
      3.552  0.1076E+02  0.4178E+03
      3.614  0.2038E+02  0.4191E+03
      3.676  0.2573E+02  0.4207E+03
      3.737  0.2205E+02  0.4220E+03
      3.799  0.1231E+02  0.4228E+03
      3.861  0.5169E+01  0.4231E+03
      3.923  0.3330E+01  0.4233E+03
      3.984  0.3607E+01  0.4235E+03
      4.046  0.4649E+01  0.4238E+03
      4.108  0.7253E+01  0.4243E+03
      4.170  0.8227E+01  0.4248E+03
      4.231  0.7027E+01  0.4252E+03
      4.293  0.5424E+01  0.4256E+03
      4.355  0.1100E+02  0.4262E+03
      4.416  0.2414E+02  0.4277E+03
      4.478  0.2235E+02  0.4291E+03
      4.540  0.8616E+01  0.4296E+03
      4.602  0.6267E+01  0.4300E+03
      4.663  0.1169E+02  0.4308E+03
      4.725  0.1548E+02  0.4317E+03
      4.787  0.1430E+02  0.4326E+03
      4.849  0.8837E+01  0.4331E+03
      4.910  0.5253E+01  0.4335E+03
      4.972  0.8076E+01  0.4340E+03
      5.034  0.9981E+01  0.4346E+03
      5.096  0.5076E+01  0.4349E+03
      5.157  0.4488E+01  0.4352E+03
      5.219  0.1131E+02  0.4359E+03
      5.281  0.1591E+02  0.4368E+03
      5.343  0.1240E+02  0.4376E+03
      5.404  0.5688E+01  0.4380E+03
      5.466  0.9968E+01  0.4386E+03
      5.528  0.2112E+02  0.4399E+03
      5.590  0.2601E+02  0.4415E+03
      5.651  0.2782E+02  0.4432E+03
      5.713  0.2707E+02  0.4449E+03
      5.775  0.2209E+02  0.4462E+03
      5.836  0.1874E+02  0.4474E+03
      5.898  0.1768E+02  0.4485E+03
      5.960  0.2138E+02  0.4498E+03
      6.022  0.2990E+02  0.4517E+03
      6.083  0.2716E+02  0.4533E+03
      6.145  0.1489E+02  0.4543E+03
      6.207  0.1406E+02  0.4551E+03
      6.269  0.2399E+02  0.4566E+03
      6.330  0.3140E+02  0.4585E+03
      6.392  0.2807E+02  0.4603E+03
      6.454  0.1614E+02  0.4613E+03
      6.516  0.1329E+02  0.4621E+03
      6.577  0.2458E+02  0.4636E+03
      6.639  0.3039E+02  0.4655E+03
      6.701  0.2514E+02  0.4670E+03
      6.763  0.2112E+02  0.4683E+03
      6.824  0.1712E+02  0.4694E+03
      6.886  0.1496E+02  0.4703E+03
      6.948  0.1754E+02  0.4714E+03
      7.010  0.1453E+02  0.4723E+03
      7.071  0.1328E+02  0.4731E+03
      7.133  0.2239E+02  0.4745E+03
      7.195  0.2624E+02  0.4761E+03
      7.256  0.1983E+02  0.4773E+03
      7.318  0.1215E+02  0.4781E+03
      7.380  0.5625E+01  0.4784E+03
      7.442  0.3716E+01  0.4787E+03
      7.503  0.6368E+01  0.4791E+03
      7.565  0.6946E+01  0.4795E+03
      7.627  0.5456E+01  0.4798E+03
      7.689  0.2758E+01  0.4800E+03
      7.750  0.2764E+00  0.4800E+03
      7.812 -0.2249E+00  0.4800E+03
      7.874 -0.6275E-01  0.4800E+03
      7.936 -0.5588E-02  0.4800E+03
      7.997 -0.2032E-03  0.4800E+03
      8.059 -0.3223E-05  0.4800E+03
      8.121 -0.2291E-07  0.4800E+03
      8.183 -0.7401E-10  0.4800E+03
      8.244 -0.1099E-12  0.4800E+03
      8.306  0.0000E+00  0.4800E+03
      8.368  0.0000E+00  0.4800E+03
      8.430  0.0000E+00  0.4800E+03
      8.491  0.0000E+00  0.4800E+03
      8.553  0.0000E+00  0.4800E+03
      8.615  0.0000E+00  0.4800E+03
