   37   37    1    1
  0.4190497E+02  0.8468310E-09  0.8468310E-09  0.2496566E-08  0.5000000E-15
  1.000000000000000E-004
  CAR 
 unknown system                          
    361     13    240
 
  0.1276756E-14  0.1276756E-14  0.1276756E-14  0.4000000E-01
      1         -8.907125   1.000000
      2         -7.833061   1.000000
      3         -7.119914   1.000000
      4         -6.502825   1.000000
      5         -6.478142   1.000000
      6         -6.454990   1.000000
      7         -6.452572   1.000000
      8         -6.447989   1.000000
      9         -6.441652   1.000000
     10         -6.427675   1.000000
     11         -6.168187   1.000000
     12         -5.925102   1.000000
     13         -5.919892   1.000000
     14         -5.901219   1.000000
     15         -5.898666   1.000000
     16         -5.893865   1.000000
     17         -5.841590   1.000000
     18         -5.467109   1.000000
     19         -5.461637   1.000000
     20         -5.460132   1.000000
     21         -5.452100   1.000000
     22         -5.450686   1.000000
     23         -5.332059   1.000000
     24         -5.230002   1.000000
     25         -5.226552   1.000000
     26         -5.224384   1.000000
     27         -5.219917   1.000000
     28         -5.216835   1.000000
     29         -5.134847   1.000000
     30         -5.034241   1.000000
     31         -5.026423   1.000000
     32         -5.025406   1.000000
     33         -5.018994   1.000000
     34         -5.016815   1.000000
     35         -4.971665   1.000000
     36         -4.964724   1.000000
     37         -4.959361   1.000000
     38         -4.951764   1.000000
     39         -4.919272   1.000000
     40         -4.914290   1.000000
     41         -4.509389   1.000000
     42         -4.380141   1.000000
     43         -4.374447   1.000000
     44         -4.355377   1.000000
     45         -4.343500   1.000000
     46         -4.321826   1.000000
     47         -4.318976   1.000000
     48         -4.300451   1.000000
     49         -4.284547   1.000000
     50         -4.282141   1.000000
     51         -4.177913   1.000000
     52         -4.137401   1.000000
     53         -4.135364   1.000000
     54         -4.037255   1.000000
     55         -4.031221   1.000000
     56         -3.586351   1.000000
     57         -3.577942   1.000000
     58         -3.565066   1.000000
     59         -3.564297   1.000000
     60         -3.554029   1.000000
     61         -3.496851   1.000000
     62         -3.468995   1.000000
     63         -3.387788   1.000000
     64         -3.384582   1.000000
     65         -3.376308   1.000000
     66         -3.374032   1.000000
     67         -3.365565   1.000000
     68         -3.362522   1.000000
     69         -3.348457   1.000000
     70         -3.319070   1.000000
     71         -3.314346   1.000000
     72         -3.301071   1.000000
     73         -3.299202   1.000000
     74         -3.293610   1.000000
     75         -3.272202   1.000000
     76         -3.262461   1.000000
     77         -3.259982   1.000000
     78         -3.164784   1.000000
     79         -3.155167   1.000000
     80         -3.142129   1.000000
     81         -3.134111   1.000000
     82         -3.131168   1.000000
     83         -3.104843   1.000000
     84         -2.950393   1.000000
     85         -2.938142   1.000000
     86         -2.934322   1.000000
     87         -2.925689   1.000000
     88         -2.918028   1.000000
     89         -2.902931   1.000000
     90         -2.889020   1.000000
     91         -2.883290   1.000000
     92         -2.839069   1.000000
     93         -2.828049   1.000000
     94         -2.794056   1.000000
     95         -2.785289   1.000000
     96         -2.744166   1.000000
     97         -2.739565   1.000000
     98         -2.699573   1.000000
     99         -2.691492   1.000000
    100         -2.689729   1.000000
    101         -2.602357   1.000000
    102         -2.537990   1.000000
    103         -2.517823   1.000000
    104         -2.515892   1.000000
    105         -2.511444   1.000000
    106         -2.506965   1.000000
    107         -2.488708   1.000000
    108         -2.277769   1.000000
    109         -2.024675   1.000000
    110         -2.000715   1.000000
    111         -1.999951   1.000000
    112         -1.990580   1.000000
    113         -1.987322   1.000000
    114         -1.979664   1.000000
    115         -1.974000   1.000000
    116         -1.971350   1.000000
    117         -1.961758   1.000000
    118         -1.955215   1.000000
    119         -1.949639   1.000000
    120         -1.869709   1.000000
    121         -1.862683   1.000000
    122         -1.818758   1.000000
    123         -1.743115   1.000000
    124         -1.725247   1.000000
    125         -1.720291   1.000000
    126         -1.719993   1.000000
    127         -1.708426   1.000000
    128         -1.617965   1.000000
    129         -1.595601   1.000000
    130         -1.538261   1.000000
    131         -1.536953   1.000000
    132         -1.531955   1.000000
    133         -1.486274   1.000000
    134         -1.295301   1.000000
    135         -1.284387   1.000000
    136         -1.269729   1.000000
    137         -1.258481   1.000000
    138         -1.254266   1.000000
    139         -1.251353   1.000000
    140         -1.190057   1.000000
    141         -1.177555   1.000000
    142         -1.056125   1.000000
    143         -1.042494   1.000000
    144         -1.037180   1.000000
    145         -1.029322   1.000000
    146         -1.023512   1.000000
    147         -1.022634   1.000000
    148         -0.874352   1.000000
    149         -0.861694   1.000000
    150         -0.859302   1.000000
    151         -0.846383   1.000000
    152         -0.835897   1.000000
    153         -0.825349   1.000000
    154         -0.823129   1.000000
    155         -0.820464   1.000000
    156         -0.812777   1.000000
    157         -0.808722   1.000000
    158         -0.802660   1.000000
    159         -0.796541   1.000000
    160         -0.726936   1.000000
    161         -0.716519   1.000000
    162         -0.696405   1.000000
    163         -0.693841   1.000000
    164         -0.675920   1.000000
    165         -0.657481   1.000000
    166         -0.647970   1.000000
    167         -0.643212   1.000000
    168         -0.604191   1.000000
    169         -0.598098   1.000000
    170         -0.585331   1.000000
    171         -0.566971   1.000000
    172         -0.550948   1.000000
    173         -0.544670   1.000000
    174         -0.543312   1.000000
    175         -0.538798   1.000000
    176         -0.462426   1.000000
    177         -0.456409   1.000000
    178         -0.445325   1.000001
    179         -0.439983   1.000002
    180         -0.430057   1.000003
    181         -0.428943   1.000003
    182         -0.386344   1.000048
    183         -0.347082   1.000405
    184         -0.341960   1.000521
    185         -0.322559   1.001280
    186         -0.319342   1.001474
    187         -0.309404   1.002243
    188         -0.307372   1.002436
    189         -0.119737   0.840901
    190         -0.100484   0.709440
    191         -0.015968   0.085191
    192         -0.011642   0.066226
    193         -0.006374   0.045659
    194          0.001098   0.021140
    195          0.008097   0.002857
    196          0.012222  -0.005940
    197          0.535318  -0.000000
    198          0.824381  -0.000000
    199          0.843571  -0.000000
    200          0.856925  -0.000000
    201          0.894460  -0.000000
    202          0.899881  -0.000000
    203          0.906510  -0.000000
    204          2.824780   0.000000
    205          3.137216   0.000000
    206          3.154027   0.000000
    207          3.201399   0.000000
    208          3.219815   0.000000
    209          3.221736   0.000000
    210          4.627280   0.000000
    211          4.716677   0.000000
    212          4.759758   0.000000
    213          4.811946   0.000000
    214          4.820531   0.000000
    215          4.827640   0.000000
    216          4.926401   0.000000
    217          5.112446   0.000000
    218          5.273152   0.000000
    219          5.432934   0.000000
    220          5.500936   0.000000
    221          5.795364   0.000000
    222          5.801467   0.000000
    223          5.844616   0.000000
    224          5.861594   0.000000
    225          5.873109   0.000000
    226          6.111073   0.000000
    227          6.337213   0.000000
    228          6.613172   0.000000
    229          6.615261   0.000000
    230          6.620073   0.000000
    231          6.843190   0.000000
    232          7.033722   0.000000
    233          7.135199   0.000000
    234          7.148745   0.000000
    235          7.165082   0.000000
    236          7.167272   0.000000
    237          7.172916   0.000000
    238          7.247949   0.000000
    239          7.260602   0.000000
    240          7.553545   0.000000
 
  0.2000000E+00  0.1278043E-14  0.1276756E-14  0.8000000E-01
      1         -8.759288   1.000000
      2         -7.715887   1.000000
      3         -7.071147   1.000000
      4         -6.928574   1.000000
      5         -6.562475   1.000000
      6         -6.553746   1.000000
      7         -6.360946   1.000000
      8         -6.263007   1.000000
      9         -6.228497   1.000000
     10         -6.213250   1.000000
     11         -6.131207   1.000000
     12         -6.006736   1.000000
     13         -5.973299   1.000000
     14         -5.851084   1.000000
     15         -5.830735   1.000000
     16         -5.825021   1.000000
     17         -5.754985   1.000000
     18         -5.539426   1.000000
     19         -5.424737   1.000000
     20         -5.418898   1.000000
     21         -5.404805   1.000000
     22         -5.387936   1.000000
     23         -5.336854   1.000000
     24         -5.301177   1.000000
     25         -5.276788   1.000000
     26         -5.234265   1.000000
     27         -5.224655   1.000000
     28         -5.210143   1.000000
     29         -5.151520   1.000000
     30         -5.119918   1.000000
     31         -5.110670   1.000000
     32         -5.036966   1.000000
     33         -5.020262   1.000000
     34         -5.011885   1.000000
     35         -5.007520   1.000000
     36         -4.871551   1.000000
     37         -4.813270   1.000000
     38         -4.786015   1.000000
     39         -4.770536   1.000000
     40         -4.753990   1.000000
     41         -4.552744   1.000000
     42         -4.499376   1.000000
     43         -4.491537   1.000000
     44         -4.455734   1.000000
     45         -4.415168   1.000000
     46         -4.393409   1.000000
     47         -4.386525   1.000000
     48         -4.316197   1.000000
     49         -4.211752   1.000000
     50         -4.174651   1.000000
     51         -4.125965   1.000000
     52         -4.108534   1.000000
     53         -4.065534   1.000000
     54         -4.047528   1.000000
     55         -4.030890   1.000000
     56         -3.834928   1.000000
     57         -3.738578   1.000000
     58         -3.733437   1.000000
     59         -3.684516   1.000000
     60         -3.660944   1.000000
     61         -3.621184   1.000000
     62         -3.586759   1.000000
     63         -3.561504   1.000000
     64         -3.552224   1.000000
     65         -3.534251   1.000000
     66         -3.524389   1.000000
     67         -3.469995   1.000000
     68         -3.451409   1.000000
     69         -3.408513   1.000000
     70         -3.376677   1.000000
     71         -3.360783   1.000000
     72         -3.338737   1.000000
     73         -3.270852   1.000000
     74         -3.261353   1.000000
     75         -3.237878   1.000000
     76         -3.182190   1.000000
     77         -3.177441   1.000000
     78         -3.161574   1.000000
     79         -3.130745   1.000000
     80         -3.105606   1.000000
     81         -3.092647   1.000000
     82         -3.066193   1.000000
     83         -3.028502   1.000000
     84         -3.005470   1.000000
     85         -2.964578   1.000000
     86         -2.955994   1.000000
     87         -2.943404   1.000000
     88         -2.932637   1.000000
     89         -2.913636   1.000000
     90         -2.898867   1.000000
     91         -2.870074   1.000000
     92         -2.831003   1.000000
     93         -2.808072   1.000000
     94         -2.783453   1.000000
     95         -2.775319   1.000000
     96         -2.757675   1.000000
     97         -2.732912   1.000000
     98         -2.726893   1.000000
     99         -2.698653   1.000000
    100         -2.679655   1.000000
    101         -2.616716   1.000000
    102         -2.568199   1.000000
    103         -2.552028   1.000000
    104         -2.521140   1.000000
    105         -2.510931   1.000000
    106         -2.500530   1.000000
    107         -2.496329   1.000000
    108         -2.490507   1.000000
    109         -2.447455   1.000000
    110         -2.437278   1.000000
    111         -2.428042   1.000000
    112         -2.419574   1.000000
    113         -2.193554   1.000000
    114         -2.077130   1.000000
    115         -2.031546   1.000000
    116         -2.008216   1.000000
    117         -2.002930   1.000000
    118         -1.987283   1.000000
    119         -1.983549   1.000000
    120         -1.954157   1.000000
    121         -1.938786   1.000000
    122         -1.866135   1.000000
    123         -1.802437   1.000000
    124         -1.779630   1.000000
    125         -1.709147   1.000000
    126         -1.656817   1.000000
    127         -1.647941   1.000000
    128         -1.618245   1.000000
    129         -1.591855   1.000000
    130         -1.571361   1.000000
    131         -1.549389   1.000000
    132         -1.538521   1.000000
    133         -1.524673   1.000000
    134         -1.443003   1.000000
    135         -1.415124   1.000000
    136         -1.397947   1.000000
    137         -1.387783   1.000000
    138         -1.375118   1.000000
    139         -1.253948   1.000000
    140         -1.200691   1.000000
    141         -1.178649   1.000000
    142         -1.160738   1.000000
    143         -1.153705   1.000000
    144         -1.143881   1.000000
    145         -1.123363   1.000000
    146         -1.058835   1.000000
    147         -1.037544   1.000000
    148         -1.004137   1.000000
    149         -0.993930   1.000000
    150         -0.986909   1.000000
    151         -0.935088   1.000000
    152         -0.926940   1.000000
    153         -0.906345   1.000000
    154         -0.894652   1.000000
    155         -0.813738   1.000000
    156         -0.795493   1.000000
    157         -0.777512   1.000000
    158         -0.763687   1.000000
    159         -0.725815   1.000000
    160         -0.662049   1.000000
    161         -0.647498   1.000000
    162         -0.628989   1.000000
    163         -0.606026   1.000000
    164         -0.590658   1.000000
    165         -0.560967   1.000000
    166         -0.546724   1.000000
    167         -0.485852   1.000000
    168         -0.475666   1.000000
    169         -0.414897   1.000008
    170         -0.405836   1.000015
    171         -0.400244   1.000021
    172         -0.384939   1.000052
    173         -0.364054   1.000168
    174         -0.352910   1.000302
    175         -0.347875   1.000389
    176         -0.338939   1.000602
    177         -0.330709   1.000887
    178         -0.271907   1.008774
    179         -0.266531   1.010354
    180         -0.127509   0.884497
    181         -0.117475   0.827119
    182         -0.103199   0.729761
    183         -0.090120   0.627794
    184         -0.075205   0.503240
    185         -0.066450   0.429420
    186         -0.035332   0.192944
    187         -0.024822   0.129902
    188         -0.007611   0.050243
    189          0.004152   0.012622
    190          0.066490  -0.031282
    191          0.103700  -0.015006
    192          0.131451  -0.006494
    193          0.198696  -0.000380
    194          0.291932  -0.000001
    195          0.295805  -0.000001
    196          0.312747  -0.000000
    197          0.356706  -0.000000
    198          0.689339  -0.000000
    199          0.747420  -0.000000
    200          1.250374  -0.000000
    201          1.461628  -0.000000
    202          1.484623  -0.000000
    203          1.598263  -0.000000
    204          2.397286  -0.000000
    205          2.806530   0.000000
    206          2.906982   0.000000
    207          3.561774   0.000000
    208          3.644305   0.000000
    209          3.655306   0.000000
    210          3.742923   0.000000
    211          3.981294   0.000000
    212          4.433051   0.000000
    213          4.604516   0.000000
    214          4.761962   0.000000
    215          4.954709   0.000000
    216          4.989777   0.000000
    217          5.020522   0.000000
    218          5.225819   0.000000
    219          5.296919   0.000000
    220          5.463284   0.000000
    221          5.665926   0.000000
    222          5.692633   0.000000
    223          5.767845   0.000000
    224          5.898825   0.000000
    225          6.135521   0.000000
    226          6.227263   0.000000
    227          6.252171   0.000000
    228          6.332527   0.000000
    229          6.348418   0.000000
    230          6.600978   0.000000
    231          6.688597   0.000000
    232          6.761296   0.000000
    233          6.798402   0.000000
    234          6.881770   0.000000
    235          6.935151   0.000000
    236          7.058472   0.000000
    237          7.289752   0.000000
    238          7.464966   0.000000
    239          7.497870   0.000000
    240          7.613565   0.000000
 
  0.2000000E+00  0.2000000E+00  0.1276756E-14  0.8000000E-01
      1         -8.760175   1.000000
      2         -7.723611   1.000000
      3         -7.094105   1.000000
      4         -6.907056   1.000000
      5         -6.561054   1.000000
      6         -6.553835   1.000000
      7         -6.361604   1.000000
      8         -6.274032   1.000000
      9         -6.215213   1.000000
     10         -6.213256   1.000000
     11         -6.151522   1.000000
     12         -6.003060   1.000000
     13         -5.929920   1.000000
     14         -5.855994   1.000000
     15         -5.831090   1.000000
     16         -5.825765   1.000000
     17         -5.785721   1.000000
     18         -5.533476   1.000000
     19         -5.422906   1.000000
     20         -5.415485   1.000000
     21         -5.411594   1.000000
     22         -5.368325   1.000000
     23         -5.334751   1.000000
     24         -5.294063   1.000000
     25         -5.275390   1.000000
     26         -5.255565   1.000000
     27         -5.222284   1.000000
     28         -5.218953   1.000000
     29         -5.135636   1.000000
     30         -5.112687   1.000000
     31         -5.104572   1.000000
     32         -5.040552   1.000000
     33         -5.018824   1.000000
     34         -5.008000   1.000000
     35         -5.007284   1.000000
     36         -4.856749   1.000000
     37         -4.811084   1.000000
     38         -4.781010   1.000000
     39         -4.777233   1.000000
     40         -4.755727   1.000000
     41         -4.537823   1.000000
     42         -4.494950   1.000000
     43         -4.484304   1.000000
     44         -4.457280   1.000000
     45         -4.419112   1.000000
     46         -4.398390   1.000000
     47         -4.386365   1.000000
     48         -4.332221   1.000000
     49         -4.208645   1.000000
     50         -4.176574   1.000000
     51         -4.125782   1.000000
     52         -4.112125   1.000000
     53         -4.062045   1.000000
     54         -4.046633   1.000000
     55         -4.025232   1.000000
     56         -3.825158   1.000000
     57         -3.737119   1.000000
     58         -3.734996   1.000000
     59         -3.673029   1.000000
     60         -3.654727   1.000000
     61         -3.617453   1.000000
     62         -3.579579   1.000000
     63         -3.578956   1.000000
     64         -3.552596   1.000000
     65         -3.528786   1.000000
     66         -3.528499   1.000000
     67         -3.489580   1.000000
     68         -3.446209   1.000000
     69         -3.395119   1.000000
     70         -3.365461   1.000000
     71         -3.360797   1.000000
     72         -3.344905   1.000000
     73         -3.293772   1.000000
     74         -3.269669   1.000000
     75         -3.267532   1.000000
     76         -3.184046   1.000000
     77         -3.166369   1.000000
     78         -3.158559   1.000000
     79         -3.131791   1.000000
     80         -3.090236   1.000000
     81         -3.067224   1.000000
     82         -3.064378   1.000000
     83         -3.047862   1.000000
     84         -3.002258   1.000000
     85         -2.964482   1.000000
     86         -2.962885   1.000000
     87         -2.933530   1.000000
     88         -2.932005   1.000000
     89         -2.908387   1.000000
     90         -2.906290   1.000000
     91         -2.867553   1.000000
     92         -2.836666   1.000000
     93         -2.802561   1.000000
     94         -2.788145   1.000000
     95         -2.773897   1.000000
     96         -2.759580   1.000000
     97         -2.730440   1.000000
     98         -2.727296   1.000000
     99         -2.710090   1.000000
    100         -2.691091   1.000000
    101         -2.616180   1.000000
    102         -2.565232   1.000000
    103         -2.552975   1.000000
    104         -2.530485   1.000000
    105         -2.518595   1.000000
    106         -2.509916   1.000000
    107         -2.499850   1.000000
    108         -2.494631   1.000000
    109         -2.447874   1.000000
    110         -2.434548   1.000000
    111         -2.433591   1.000000
    112         -2.422863   1.000000
    113         -2.166603   1.000000
    114         -2.074372   1.000000
    115         -2.039015   1.000000
    116         -2.023952   1.000000
    117         -2.000736   1.000000
    118         -1.994910   1.000000
    119         -1.980497   1.000000
    120         -1.948386   1.000000
    121         -1.938434   1.000000
    122         -1.892405   1.000000
    123         -1.815695   1.000000
    124         -1.787702   1.000000
    125         -1.712319   1.000000
    126         -1.657620   1.000000
    127         -1.653409   1.000000
    128         -1.609685   1.000000
    129         -1.607566   1.000000
    130         -1.572066   1.000000
    131         -1.557463   1.000000
    132         -1.537690   1.000000
    133         -1.534151   1.000000
    134         -1.441574   1.000000
    135         -1.404809   1.000000
    136         -1.397240   1.000000
    137         -1.380060   1.000000
    138         -1.378122   1.000000
    139         -1.212627   1.000000
    140         -1.211117   1.000000
    141         -1.182352   1.000000
    142         -1.168804   1.000000
    143         -1.154124   1.000000
    144         -1.148024   1.000000
    145         -1.116697   1.000000
    146         -1.051215   1.000000
    147         -1.045000   1.000000
    148         -1.016125   1.000000
    149         -0.992372   1.000000
    150         -0.982874   1.000000
    151         -0.931677   1.000000
    152         -0.918359   1.000000
    153         -0.909860   1.000000
    154         -0.902481   1.000000
    155         -0.808972   1.000000
    156         -0.800955   1.000000
    157         -0.768704   1.000000
    158         -0.761820   1.000000
    159         -0.717006   1.000000
    160         -0.667892   1.000000
    161         -0.667409   1.000000
    162         -0.617275   1.000000
    163         -0.615794   1.000000
    164         -0.605606   1.000000
    165         -0.567810   1.000000
    166         -0.546402   1.000000
    167         -0.483107   1.000000
    168         -0.479306   1.000000
    169         -0.410914   1.000011
    170         -0.408973   1.000012
    171         -0.390709   1.000037
    172         -0.381556   1.000064
    173         -0.361257   1.000195
    174         -0.351022   1.000332
    175         -0.350429   1.000342
    176         -0.339811   1.000578
    177         -0.326514   1.001073
    178         -0.276833   1.007488
    179         -0.275724   1.007764
    180         -0.131596   0.905010
    181         -0.126173   0.877426
    182         -0.099087   0.698797
    183         -0.081114   0.553126
    184         -0.063455   0.404487
    185         -0.062300   0.394945
    186         -0.028379   0.150059
    187         -0.015978   0.085238
    188          0.006449   0.006771
    189          0.011406  -0.004311
    190          0.075776  -0.027384
    191          0.103250  -0.015183
    192          0.129216  -0.007001
    193          0.204622  -0.000281
    194          0.293299  -0.000001
    195          0.298623  -0.000001
    196          0.311399  -0.000000
    197          0.349229  -0.000000
    198          0.708401  -0.000000
    199          0.751548  -0.000000
    200          1.255670  -0.000000
    201          1.452525  -0.000000
    202          1.479889  -0.000000
    203          1.599602  -0.000000
    204          2.371183  -0.000000
    205          2.845559   0.000000
    206          2.911516   0.000000
    207          3.539938   0.000000
    208          3.649174   0.000000
    209          3.672035   0.000000
    210          3.738732   0.000000
    211          3.954543   0.000000
    212          4.421062   0.000000
    213          4.602160   0.000000
    214          4.740641   0.000000
    215          4.978745   0.000000
    216          4.992247   0.000000
    217          5.020084   0.000000
    218          5.236172   0.000000
    219          5.345153   0.000000
    220          5.460422   0.000000
    221          5.613151   0.000000
    222          5.700534   0.000000
    223          5.840663   0.000000
    224          5.898015   0.000000
    225          6.111538   0.000000
    226          6.227464   0.000000
    227          6.272227   0.000000
    228          6.341665   0.000000
    229          6.352837   0.000000
    230          6.627312   0.000000
    231          6.663124   0.000000
    232          6.755940   0.000000
    233          6.791789   0.000000
    234          6.830229   0.000000
    235          6.939501   0.000000
    236          7.051575   0.000000
    237          7.247444   0.000000
    238          7.469060   0.000000
    239          7.546725   0.000000
    240          7.613436   0.000000
 
  0.1276756E-14  0.2000000E+00  0.1276756E-14  0.8000000E-01
      1         -8.759272   1.000000
      2         -7.715938   1.000000
      3         -7.070865   1.000000
      4         -6.928022   1.000000
      5         -6.562716   1.000000
      6         -6.554569   1.000000
      7         -6.360896   1.000000
      8         -6.261594   1.000000
      9         -6.228526   1.000000
     10         -6.214682   1.000000
     11         -6.131200   1.000000
     12         -6.007089   1.000000
     13         -5.973240   1.000000
     14         -5.850482   1.000000
     15         -5.830409   1.000000
     16         -5.824477   1.000000
     17         -5.755058   1.000000
     18         -5.540032   1.000000
     19         -5.424664   1.000000
     20         -5.418567   1.000000
     21         -5.404282   1.000000
     22         -5.387962   1.000000
     23         -5.337084   1.000000
     24         -5.301356   1.000000
     25         -5.277246   1.000000
     26         -5.234348   1.000000
     27         -5.223570   1.000000
     28         -5.210644   1.000000
     29         -5.151473   1.000000
     30         -5.120308   1.000000
     31         -5.111165   1.000000
     32         -5.035704   1.000000
     33         -5.020358   1.000000
     34         -5.011766   1.000000
     35         -5.007683   1.000000
     36         -4.871714   1.000000
     37         -4.813128   1.000000
     38         -4.785290   1.000000
     39         -4.771328   1.000000
     40         -4.755154   1.000000
     41         -4.552743   1.000000
     42         -4.499747   1.000000
     43         -4.492137   1.000000
     44         -4.455845   1.000000
     45         -4.414772   1.000000
     46         -4.393472   1.000000
     47         -4.386162   1.000000
     48         -4.316332   1.000000
     49         -4.212037   1.000000
     50         -4.174844   1.000000
     51         -4.125331   1.000000
     52         -4.109040   1.000000
     53         -4.065598   1.000000
     54         -4.047520   1.000000
     55         -4.030530   1.000000
     56         -3.836621   1.000000
     57         -3.737995   1.000000
     58         -3.733336   1.000000
     59         -3.686129   1.000000
     60         -3.662354   1.000000
     61         -3.621732   1.000000
     62         -3.588799   1.000000
     63         -3.559817   1.000000
     64         -3.551091   1.000000
     65         -3.533994   1.000000
     66         -3.523112   1.000000
     67         -3.469923   1.000000
     68         -3.451084   1.000000
     69         -3.408578   1.000000
     70         -3.376177   1.000000
     71         -3.361580   1.000000
     72         -3.339677   1.000000
     73         -3.270346   1.000000
     74         -3.257949   1.000000
     75         -3.233999   1.000000
     76         -3.182926   1.000000
     77         -3.178322   1.000000
     78         -3.162166   1.000000