       N       E                     dE             d eps       ncg     rms          rms(c)
DAV:   1    -0.104810166987E+03   -0.10481E+03   -0.24163E+00  7296   0.261E+00    0.492E+00
RMM:   2    -0.122095449715E+03   -0.17285E+02   -0.31678E+00  6770   0.260E+00    0.379E+01
RMM:   3    -0.104675570188E+03    0.17420E+02   -0.21483E+00  6818   0.253E+00    0.335E+00
RMM:   4    -0.104563306833E+03    0.11226E+00   -0.22120E-01  6762   0.758E-01    0.211E+00
RMM:   5    -0.104545143482E+03    0.18163E-01   -0.45317E-02  6979   0.341E-01    0.162E+00
RMM:   6    -0.104533619016E+03    0.11524E-01   -0.12861E-02  6886   0.195E-01    0.817E-01
RMM:   7    -0.104532209011E+03    0.14100E-02   -0.46043E-03  7086   0.106E-01    0.654E-01
RMM:   8    -0.104530170097E+03    0.20389E-02   -0.24485E-03  6998   0.838E-02    0.238E-01
RMM:   9    -0.104530129893E+03    0.40204E-04   -0.97527E-04  6931   0.519E-02    0.142E-01
RMM:  10    -0.104530131709E+03   -0.18158E-05   -0.28273E-04  6974   0.283E-02    0.948E-02
RMM:  11    -0.104530237699E+03   -0.10599E-03   -0.12064E-04  6991   0.172E-02    0.934E-02
RMM:  12    -0.104530432041E+03   -0.19434E-03   -0.98961E-05  7208   0.153E-02    0.642E-02
RMM:  13    -0.104530507790E+03   -0.75750E-04   -0.44526E-05  5682   0.106E-02    0.388E-02
RMM:  14    -0.104530587766E+03   -0.79975E-04   -0.18261E-05  4929   0.625E-03    0.143E-02
RMM:  15    -0.104530626276E+03   -0.38511E-04   -0.63921E-06  4460   0.347E-03    0.891E-03
RMM:  16    -0.104530712269E+03   -0.85993E-04   -0.10585E-05  4829   0.377E-03    0.115E-02
RMM:  17    -0.104530769315E+03   -0.57046E-04   -0.69398E-06  4462   0.297E-03    0.536E-03
RMM:  18    -0.104530820389E+03   -0.51074E-04   -0.68068E-06  4059   0.270E-03    0.457E-03
RMM:  19    -0.104530851421E+03   -0.31032E-04   -0.39564E-06  3547   0.217E-03    0.444E-03
RMM:  20    -0.104530878523E+03   -0.27102E-04   -0.42658E-06  3768   0.225E-03    0.413E-03
RMM:  21    -0.104530911696E+03   -0.33173E-04   -0.68673E-06  4093   0.257E-03    0.226E-03
RMM:  22    -0.104530923714E+03   -0.12018E-04   -0.26442E-06  3170   0.172E-03    0.182E-03
RMM:  23    -0.104530931501E+03   -0.77873E-05   -0.26621E-06  3251   0.173E-03
   1 F= -.10453093E+03 E0= -.10449918E+03  d E =-.952560E-01
