 vasp.6.4.2 20Jul23 (build Mar 01 2024 16:46:03) complex                        
  
 executed on             LinuxIFC date 2025.01.11  20:41:17
 running   48 mpi-ranks, on    1 nodes
 distrk:  each k-point on   48 cores,    1 groups
 distr:  one band on NCORE=   1 cores,   48 groups


--------------------------------------------------------------------------------------------------------


 INCAR:
   ENCUT = 680.290000
   SIGMA = 0.100000
   ZAB_VDW = -1.886700
   EDIFF = 1.00e-05
   ALGO = Fast
   GGA = BF
   IBRION = -1
   ISMEAR = 1
   ISPIN = 1
   ISYM = 0
   LUSE_VDW = .TRUE.
   LREAL = Auto

 POTCAR:    PAW_PBE Pt 04Feb2005                  
 POTCAR:    PAW_PBE H 15Jun2001                   
 -----------------------------------------------------------------------------
|                                                                             |
|           W    W    AA    RRRRR   N    N  II  N    N   GGGG   !!!           |
|           W    W   A  A   R    R  NN   N  II  NN   N  G    G  !!!           |
|           W    W  A    A  R    R  N N  N  II  N N  N  G       !!!           |
|           W WW W  AAAAAA  RRRRR   N  N N  II  N  N N  G  GGG   !            |
|           WW  WW  A    A  R   R   N   NN  II  N   NN  G    G                |
|           W    W  A    A  R    R  N    N  II  N    N   GGGG   !!!           |
|                                                                             |
|     For optimal performance we recommend to set                             |
|       NCORE = 2 up to number-of-cores-per-socket                            |
|     NCORE specifies how many cores store one orbital (NPAR=cpu/NCORE).      |
|     This setting can greatly improve the performance of VASP for DFT.       |
|     The default, NCORE=1 might be grossly inefficient on modern             |
|     multi-core architectures or massively parallel machines. Do your        |
|     own testing! More info at https://www.vasp.at/wiki/index.php/NCORE      |
|     Unfortunately you need to use the default for GW and RPA                |
|     calculations (for HF NCORE is supported but not extensively tested      |
|     yet).                                                                   |
|                                                                             |
 -----------------------------------------------------------------------------

 -----------------------------------------------------------------------------
|                                                                             |
|               ----> ADVICE to this user running VASP <----                  |
|                                                                             |
|     You have switched on vdW-DFT.                                           |
|     This routine was written and supplied by Jiri Klimes. We recommend      |
|     that you carefully read and cite the following publications:            |
|       J. Klimes, D.R. Bowler, A. Michelides                                 |
|          J. Phys.: Cond Matt. 22 022201 (2010)                              |
|       J. Klimes, D.R. Bowler, A. Michelides                                 |
|          Phys. Rev. B. 83, 195131 (2011)                                    |
|     and references therein.                                                 |
|                                                                             |
 -----------------------------------------------------------------------------

 POTCAR:    PAW_PBE Pt 04Feb2005                  
   SHA256 =  3ed90460adef76debcff1cfb73ee1349b515b1a3db03439735b44de3a8db7dc8 Pt/POTCAR             
   COPYR  = (c) Copyright 04Feb2005 Georg Kresse                                                    
   COPYR  = This file is part of the software VASP. Any use, copying, and all other rights are regul
   COPYR  = If you do not have a valid VASP license, you may not use, copy or distribute this file. 
   VRHFIN =Pt: s1d9                                                                                 
   LEXCH  = PE                                                                                      
   EATOM  =   729.1176 eV,   53.5886 Ry                                                             
                                                                                                    
   TITEL  = PAW_PBE Pt 04Feb2005                                                                    
   LULTRA =        F    use ultrasoft PP ?                                                          
   IUNSCR =        1    unscreen: 0-lin 1-nonlin 2-no                                               
   RPACOR =    2.330    partial core radius                                                         
   POMASS =  195.080; ZVAL   =   10.000    mass and valenz                                          
   RCORE  =    2.600    outmost cutoff radius                                                       
   RWIGS  =    2.750; RWIGS  =    1.455    wigner-seitz radius (au A)                               
   ENMAX  =  230.283; ENMIN  =  172.712 eV                                                          
   ICORE  =        3    local potential                                                             
   LCOR   =        T    correct aug charges                                                         
   LPAW   =        T    paw PP                                                                      
   EAUG   =  358.966                                                                                
   DEXC   =    0.000                                                                                
   RMAX   =    2.658    core radius for proj-oper                                                   
   RAUG   =    1.300    factor for augmentation sphere                                              
   RDEP   =    2.761    radius for radial grids                                                     
   RDEPT  =    2.203    core radius for aug-charge                                                  
                                                                                                    
   Atomic configuration                                                                             
   16 entries                                                                                       
     n  l   j            E        occ.                                                              
     1  0  0.50    -78401.1885   2.0000                                                             
     2  0  0.50    -13770.7750   2.0000                                                             
     2  1  1.50    -11931.0468   6.0000                                                             
     3  0  0.50     -3234.7234   2.0000                                                             
     3  1  1.50     -2699.2216   6.0000                                                             
     3  2  2.50     -2119.5714  10.0000                                                             
     4  0  0.50      -695.1528   2.0000                                                             
     4  1  1.50      -519.6034   6.0000                                                             
     4  2  2.50      -306.6786  10.0000                                                             
     4  3  3.50       -70.1041  14.0000                                                             
     5  0  0.50      -101.7747   2.0000                                                             
     5  1  1.50       -55.9873   6.0000                                                             
     5  2  2.50        -6.1423   9.0000                                                             
     6  0  0.50        -5.6573   1.0000                                                             
     6  1  1.50        -6.8029   0.0000                                                             
     5  3  2.50        -1.3606   0.0000                                                             
   Description                                                                                      
     l       E           TYP  RCUT    TYP  RCUT                                                     
     2     -6.1423404     23  2.500                                                                 
     2     -7.5029230     23  2.500                                                                 
     0     -5.6573207     23  2.500                                                                 
     0      0.7416693     23  2.500                                                                 
     1     -2.7211652     23  2.600                                                                 
     1     20.4087390     23  2.600                                                                 
     3     -1.3605826     23  2.500                                                                 
  local pseudopotential read in
  partial core-charges read in
  partial kinetic energy density read in
  atomic valenz-charges read in
  non local Contribution for L=           2  read in
    real space projection operators read in
  non local Contribution for L=           2  read in
    real space projection operators read in
  non local Contribution for L=           0  read in
    real space projection operators read in
  non local Contribution for L=           0  read in
    real space projection operators read in
  non local Contribution for L=           1  read in
    real space projection operators read in
  non local Contribution for L=           1  read in
    real space projection operators read in
    PAW grid and wavefunctions read in
 
   number of l-projection  operators is LMAX  =           6
   number of lm-projection operators is LMMAX =          18
 
 POTCAR:    PAW_PBE H 15Jun2001                   
   SHA256 =  030f79b5d3ab3cf0e668861823c8fb652ff669f3e15e46930bd03bfd63a607b6 H/POTCAR              
   COPYR  = (c) Copyright 15Jun2001 Georg Kresse                                                    
   COPYR  = This file is part of the software VASP. Any use, copying, and all other rights are regul
   COPYR  = If you do not have a valid VASP license, you may not use, copy or distribute this file. 
   VRHFIN =H: ultrasoft test                                                                        
   LEXCH  = PE                                                                                      
   EATOM  =    12.4884 eV,    0.9179 Ry                                                             
                                                                                                    
   TITEL  = PAW_PBE H 15Jun2001                                                                     
   LULTRA =        F    use ultrasoft PP ?                                                          
   IUNSCR =        0    unscreen: 0-lin 1-nonlin 2-no                                               
   RPACOR =    0.000    partial core radius                                                         
   POMASS =    1.000; ZVAL   =    1.000    mass and valenz                                          
   RCORE  =    1.100    outmost cutoff radius                                                       
   RWIGS  =    0.700; RWIGS  =    0.370    wigner-seitz radius (au A)                               
   ENMAX  =  250.000; ENMIN  =  200.000 eV                                                          
   RCLOC  =    0.701    cutoff for local pot                                                        
   LCOR   =        T    correct aug charges                                                         
   LPAW   =        T    paw PP                                                                      
   EAUG   =  400.000                                                                                
   RMAX   =    1.123    core radius for proj-oper                                                   
   RAUG   =    1.200    factor for augmentation sphere                                              
   RDEP   =    1.112    radius for radial grids                                                     
   RDEPT  =    0.926    core radius for aug-charge                                                  
                                                                                                    
   Atomic configuration                                                                             
    2 entries                                                                                       
     n  l   j            E        occ.                                                              
     1  0  0.50        -6.4927   1.0000                                                             
     2  1  0.50        -3.4015   0.0000                                                             
   Description                                                                                      
     l       E           TYP  RCUT    TYP  RCUT                                                     
     0     -6.4927494     23  1.100                                                                 
     0      6.8029130     23  1.100                                                                 
     1     -4.0817478     23  1.100                                                                 
  local pseudopotential read in
  atomic valenz-charges read in
  non local Contribution for L=           0  read in
    real space projection operators read in
  non local Contribution for L=           0  read in
    real space projection operators read in
  non local Contribution for L=           1  read in
    real space projection operators read in
    PAW grid and wavefunctions read in
 
   number of l-projection  operators is LMAX  =           3
   number of lm-projection operators is LMMAX =           5
 
 Optimization of the real space projectors (new method)

 maximal supplied QI-value         = 14.36
 optimisation between [QCUT,QGAM] = [ 13.36, 26.71] = [ 49.96,199.83] Ry 
 Optimized for a Real-space Cutoff    1.42 Angstroem

   l    n(q)    QCUT    max X(q) W(low)/X(q) W(high)/X(q)  e(spline) 
   2     11    13.357    66.195    0.16E-03    0.81E-04    0.36E-06
   2     11    13.357    64.643    0.16E-03    0.82E-04    0.36E-06
   0     11    13.357    95.520    0.60E-04    0.72E-05    0.55E-06
   0     11    13.357    63.403    0.58E-04    0.70E-05    0.53E-06
   1     11    13.357    19.961    0.21E-03    0.56E-03    0.21E-05
   1     11    13.357    13.289    0.17E-03    0.46E-03    0.17E-05
 Optimization of the real space projectors (new method)

 maximal supplied QI-value         = 34.20
 optimisation between [QCUT,QGAM] = [ 13.34, 26.68] = [ 49.83,199.32] Ry 
 Optimized for a Real-space Cutoff    0.91 Angstroem

   l    n(q)    QCUT    max X(q) W(low)/X(q) W(high)/X(q)  e(spline) 
   0      7    13.340    19.460    0.48E-03    0.16E-03    0.16E-06
   0      7    13.340    12.209    0.46E-03    0.14E-03    0.15E-06
   1      7    13.340     4.655    0.46E-03    0.87E-03    0.11E-06
 -----------------------------------------------------------------------------
|                                                                             |
|               ----> ADVICE to this user running VASP <----                  |
|                                                                             |
|     You enforced a specific xc type in the INCAR file but a different       |
|     type was found in the POTCAR file.                                      |
|     I HOPE YOU KNOW WHAT YOU ARE DOING!                                     |
|                                                                             |
 -----------------------------------------------------------------------------

  PAW_PBE Pt 04Feb2005                  :
 energy of atom  1       EATOM= -729.1176
 kinetic energy error for atom=    0.0010 (will be added to EATOM!!)
  PAW_PBE H 15Jun2001                   :
 energy of atom  2       EATOM=  -12.4884
 kinetic energy error for atom=    0.0002 (will be added to EATOM!!)
 
 
 POSCAR: Pt  H
  positions in cartesian coordinates
  No initial velocities read in
 exchange correlation table for  LEXCH =       17
   RHO(1)=    0.500       N(1)  =     2000
   RHO(2)=  100.500       N(2)  =     4000
 


--------------------------------------------------------------------------------------------------------


 ion  position               nearest neighbor table
   1  0.000  0.000  0.340-   3 2.81   7 2.81   6 2.82   8 2.82  12 2.82  16 2.82   2 2.83   4 2.83
                            10 2.83
   2  0.334  0.000  0.340-   8 2.81   9 2.82  17 2.82   1 2.83   3 2.83   4 2.83   5 2.83  10 2.83
                            11 2.83
   3  0.668  0.000  0.340-   7 2.81   1 2.81   9 2.81  18 2.82   5 2.83   2 2.83   6 2.83  11 2.83
                            12 2.83
   4  0.000  0.334  0.340-   6 2.81   9 2.82  15 2.82   5 2.83   2 2.83   1 2.83   7 2.83  10 2.83
                            13 2.83
   5  0.334  0.334  0.340-   3 2.83   4 2.83   6 2.83   7 2.83   2 2.83   8 2.83  11 2.83  13 2.83
                            14 2.83
   6  0.668  0.334  0.340-   4 2.81   1 2.82   5 2.83   8 2.83   3 2.83   9 2.83  12 2.83  14 2.83
                            15 2.83
   7  0.000  0.668  0.340-   3 2.81   1 2.81   9 2.81  18 2.82   5 2.83   8 2.83   4 2.83  13 2.83
                            16 2.83
   8  0.334  0.668  0.340-   2 2.81   1 2.82   6 2.83   7 2.83   9 2.83   5 2.83  14 2.83  16 2.83
                            17 2.83
   9  0.668  0.668  0.340-   3 2.81   7 2.81   4 2.82   2 2.82   8 2.83   6 2.83  15 2.83  17 2.83
                            18 2.83
  10  0.111  0.111  0.433-  26 2.80  19 2.81  12 2.81  16 2.81  15 2.82  17 2.82  11 2.83  13 2.83
                             2 2.83   4 2.83   1 2.83  20 2.84
  11  0.445  0.111  0.433-  27 2.80  17 2.81  21 2.82  18 2.82  20 2.83  13 2.83  10 2.83  12 2.83
                            14 2.83   5 2.83   3 2.83   2 2.83
  12  0.779  0.111  0.433-  25 2.79  21 2.81  16 2.81  10 2.81  18 2.81   1 2.82  19 2.83  14 2.83
                            11 2.83  15 2.83   6 2.83   3 2.83
  13  0.111  0.445  0.433-  22 2.81  15 2.81  23 2.82  18 2.82  20 2.82  14 2.83  11 2.83  10 2.83
                            16 2.83   7 2.83   5 2.83   4 2.83
  14  0.445  0.445  0.433-  21 2.80  23 2.80  24 2.81  16 2.83  12 2.83  13 2.83  15 2.83  17 2.83
                            11 2.83   8 2.83   6 2.83   5 2.83
  15  0.779  0.445  0.433-  24 2.80  19 2.80  13 2.81  10 2.82   4 2.82  22 2.82  17 2.83  14 2.83
                            18 2.83  12 2.83   9 2.83   6 2.83
  16  0.111  0.779  0.433-  25 2.79  23 2.80  12 2.81  10 2.81  18 2.81   1 2.82  26 2.83  14 2.83
                            17 2.83  13 2.83   8 2.83   7 2.83
  17  0.445  0.779  0.433-  24 2.80  26 2.81  11 2.81  27 2.82  10 2.82   2 2.82  15 2.83  16 2.83
                            18 2.83  14 2.83   9 2.83   8 2.83
  18  0.779  0.779  0.433-  25 2.80  16 2.81  12 2.81  22 2.82  27 2.82  11 2.82  13 2.82   7 2.82
                             3 2.82  17 2.83  15 2.83   9 2.83
  19  0.891  0.225  0.525-  15 2.80  10 2.81  22 2.81  20 2.82  24 2.82  26 2.82  12 2.83  28 2.83
                            33 2.83  25 2.83  21 2.83  31 2.89
  20  0.224  0.224  0.526-  26 2.81  19 2.82  27 2.82  22 2.82  23 2.82  21 2.82  13 2.82  11 2.83
                            10 2.84  32 2.88  31 2.89  29 2.89
  21  0.557  0.225  0.524-  14 2.80  12 2.81  11 2.82  23 2.82  27 2.82  20 2.82  24 2.82  25 2.82
                            19 2.83  30 2.84  33 2.85  32 2.85
  22  0.891  0.557  0.525-  13 2.81  19 2.81  18 2.82  20 2.82  15 2.82  24 2.82  23 2.82  25 2.83
                            36 2.83  27 2.83  34 2.84  31 2.87
  23  0.224  0.558  0.524-  14 2.80  16 2.80  13 2.82  21 2.82  22 2.82  20 2.82  24 2.82  25 2.82
                            26 2.83  34 2.84  35 2.85  32 2.85
  24  0.557  0.558  0.524-  17 2.80  15 2.80  14 2.81  27 2.82  19 2.82  22 2.82  26 2.82  23 2.82
                            21 2.82  33 2.84  35 2.84  36 2.85
  25  0.891  0.891  0.524-  12 2.79  16 2.79  18 2.80  21 2.82  23 2.82  22 2.83  26 2.83  27 2.83
                            19 2.83  34 2.84  30 2.84  28 2.84
  26  0.224  0.892  0.525-  10 2.80  17 2.81  27 2.81  20 2.81  24 2.82  19 2.82  16 2.83  25 2.83
                            35 2.83  28 2.83  23 2.83  29 2.89
  27  0.556  0.892  0.525-  11 2.80  26 2.81  20 2.82  18 2.82  17 2.82  24 2.82  21 2.82  25 2.83
                            36 2.83  22 2.83  30 2.84  29 2.87
  28  0.001  0.002  0.617-  34 2.80  30 2.80  33 2.82  35 2.82  19 2.83  26 2.83  25 2.84  29 2.85
                            31 2.85
  29  0.338  0.000  0.621-  37 1.79  36 2.80  35 2.81  30 2.82  28 2.85  31 2.87  27 2.87  32 2.87
                            20 2.89  26 2.89
  30  0.670  0.003  0.618-  28 2.80  34 2.81  33 2.82  36 2.82  29 2.82  32 2.83  21 2.84  25 2.84
                            27 2.84
  31  0.999  0.339  0.620-  37 1.79  36 2.80  33 2.81  34 2.82  28 2.85  22 2.87  29 2.87  32 2.87
                            20 2.89  19 2.89
  32  0.339  0.339  0.619-  37 2.14  33 2.79  35 2.79  30 2.83  34 2.83  23 2.85  21 2.85  29 2.87
                            31 2.87  20 2.88
  33  0.669  0.337  0.618-  32 2.79  31 2.81  30 2.82  28 2.82  35 2.82  36 2.83  19 2.83  24 2.84
                            21 2.85
  34  0.002  0.671  0.618-  28 2.80  30 2.81  35 2.82  36 2.82  31 2.82  32 2.83  25 2.84  23 2.84
                            22 2.84
  35  0.336  0.670  0.618-  32 2.79  29 2.81  34 2.82  28 2.82  33 2.82  36 2.83  26 2.83  24 2.84
                            23 2.85
  36  0.669  0.670  0.618-  31 2.80  29 2.80  34 2.82  30 2.82  35 2.83  33 2.83  27 2.83  22 2.83
                            24 2.85
  37  0.208  0.209  0.657-  31 1.79  29 1.79  32 2.14
 

IMPORTANT INFORMATION: All symmetrisations will be switched off!
NOSYMM: (Re-)initialisation of all symmetry stuff for point group C_1.


----------------------------------------------------------------------------------------

                                     Primitive cell                                     

  volume of cell :    1550.4837

  direct lattice vectors                    reciprocal lattice vectors
     8.468310000  0.000000000  0.000000000     0.118087316 -0.068177744  0.000000000
     4.234155000  7.333771587  0.000000000     0.000000000  0.136355488  0.000000000
     0.000000000  0.000000000 24.965661990     0.000000000  0.000000000  0.040055016

  length of vectors
     8.468310000  8.468310000 24.965661990     0.136355488  0.136355488  0.040055016

  position of ions in fractional coordinates (direct lattice)
     0.000000000  0.000000000  0.340467639
     0.334001368  0.000000000  0.340467639
     0.668002736  0.000000000  0.340467639
     1.000000000  0.334001368  0.340467639
     0.334001368  0.334001368  0.340467639
     0.668002736  0.334001368  0.340467639
     1.000000000  0.668002736  0.340467639
     0.334001368  0.668002736  0.340467639
     0.668002736  0.668002736  0.340467639
     0.111333789  0.111333789  0.432970737
     0.445335157  0.111333789  0.432970737
     0.779336525  0.111333789  0.432970737
     0.111333789  0.445335157  0.432970737
     0.445335157  0.445335157  0.432970737
     0.779336525  0.445335157  0.432970737
     0.111333789  0.779336525  0.432970737
     0.445335157  0.779336525  0.432970737
     0.779336525  0.779336525  0.432970737
     0.891008030  0.225170237  0.524832071
     0.223812219  0.224380373  0.525580578
     0.557046822  0.224669517  0.524428885
     0.891106265  0.557003311  0.524903006
     0.224135885  0.557547692  0.524435483
     0.557394238  0.557977543  0.524278059
     0.890654607  0.891192821  0.524057147
     0.224436698  0.891711054  0.524836036
     0.556343026  0.891654113  0.524906472
     0.001325994  0.002199821  0.617301130
     0.338470569  0.000194508  0.620542949
     0.670483460  0.003062231  0.617518976
     0.999408294  0.339333945  0.620495276
     0.338714496  0.339352313  0.618898894
     0.669362909  0.336664926  0.617609869
     0.002114167  0.671413270  0.617538067
     0.335937415  0.670102262  0.617600169
     0.669485492  0.670214093  0.617719396
     0.207679147  0.208869386  0.656823124

  ion indices of the primitive-cell ions
   primitive index   ion index
                 1           1
                 2           2
                 3           3
                 4           4
                 5           5
                 6           6
                 7           7
                 8           8
                 9           9
                10          10
                11          11
                12          12
                13          13
                14          14
                15          15
                16          16
                17          17
                18          18
                19          19
                20          20
                21          21
                22          22
                23          23
                24          24
                25          25
                26          26
                27          27
                28          28
                29          29
                30          30
                31          31
                32          32
                33          33
                34          34
                35          35
                36          36
                37          37

----------------------------------------------------------------------------------------

 
 
 KPOINTS: KPOINTS created by Atomic Simulation Env

Automatic generation of k-mesh.
 Grid dimensions read from file:
 generate k-points for:    5    5    1

 Generating k-lattice:

  Cartesian coordinates                     Fractional coordinates (reciprocal lattice)
     0.023617463 -0.013635549  0.000000000     0.200000000 -0.000000000  0.000000000
     0.000000000  0.027271098  0.000000000     0.000000000  0.200000000  0.000000000
     0.000000000  0.000000000  0.040055016     0.000000000  0.000000000  1.000000000

  Length of vectors
     0.027271098  0.027271098  0.040055016

  Shift w.r.t. Gamma in fractional coordinates (k-lattice)
     0.000000000  0.000000000  0.000000000

 
 Subroutine IBZKPT returns following result:
 ===========================================
 
 Found     13 irreducible k-points:
 
 Following reciprocal coordinates:
            Coordinates               Weight
  0.000000  0.000000  0.000000      1.000000
  0.200000  0.000000  0.000000      2.000000
  0.200000  0.200000  0.000000      2.000000
  0.000000  0.200000  0.000000      2.000000
  0.400000  0.000000  0.000000      2.000000
  0.400000  0.400000  0.000000      2.000000
  0.000000  0.400000  0.000000      2.000000
  0.400000  0.200000  0.000000      2.000000
  0.200000  0.400000  0.000000      2.000000
 -0.200000  0.200000  0.000000      2.000000
 -0.400000  0.200000  0.000000      2.000000
  0.400000 -0.400000  0.000000      2.000000
 -0.200000  0.400000  0.000000      2.000000
 
 Following cartesian coordinates:
            Coordinates               Weight
  0.000000  0.000000  0.000000      1.000000
  0.023617 -0.013636  0.000000      2.000000
  0.023617  0.013636  0.000000      2.000000
  0.000000  0.027271  0.000000      2.000000
  0.047235 -0.027271  0.000000      2.000000
  0.047235  0.027271  0.000000      2.000000
  0.000000  0.054542  0.000000      2.000000
  0.047235  0.000000  0.000000      2.000000
  0.023617  0.040907  0.000000      2.000000
 -0.023617  0.040907  0.000000      2.000000
 -0.047235  0.054542  0.000000      2.000000
  0.047235 -0.081813  0.000000      2.000000
 -0.023617  0.068178  0.000000      2.000000
 


--------------------------------------------------------------------------------------------------------




 Dimension of arrays:
   k-points           NKPTS =     13   k-points in BZ     NKDIM =     13   number of bands    NBANDS=    240
   number of dos      NEDOS =    301   number of ions     NIONS =     37
   non local maximal  LDIM  =      6   non local SUM 2l+1 LMDIM =     18
   total plane-waves  NPLWV = 466560
   max r-space proj   IRMAX =   3679   max aug-charges    IRDMAX=  18423
   dimension x,y,z NGX =    54 NGY =   54 NGZ =  160
   dimension x,y,z NGXF=   108 NGYF=  108 NGZF=  320
   support grid    NGXF=   108 NGYF=  108 NGZF=  320
   ions per type =              36   1
   NGX,Y,Z   is equivalent  to a cutoff of  10.60, 10.60, 10.65 a.u.
   NGXF,Y,Z  is equivalent  to a cutoff of  21.20, 21.20, 21.31 a.u.

 SYSTEM =  unknown system                          
 POSCAR =  Pt  H                                   

 Startparameter for this run:
   NWRITE =      2    write-flag & timer
   PREC   = normal    normal or accurate (medium, high low for compatibility)
   ISTART =      1    job   : 0-new  1-cont  2-samecut
   ICHARG =      0    charge: 1-file 2-atom 10-const
   ISPIN  =      1    spin polarized calculation?
   LNONCOLLINEAR =      F non collinear calculations
   LSORBIT =      F    spin-orbit coupling
   INIWAV =      1    electr: 0-lowe 1-rand  2-diag
   LASPH  =      F    aspherical Exc in radial PAW
 Electronic Relaxation 1
   ENCUT  =  680.3 eV  50.00 Ry    7.07 a.u.  18.01 18.01 53.09*2*pi/ulx,y,z
   ENINI  =  680.3     initial cutoff
   ENAUG  =  400.0 eV  augmentation charge cutoff
   NELM   =     60;   NELMIN=  2; NELMDL=  0     # of ELM steps 
   EDIFF  = 0.1E-04   stopping-criterion for ELM
   LREAL  =      T    real-space projection
   NLSPLINE    = F    spline interpolate recip. space projectors
   LCOMPAT=      F    compatible to vasp.4.4
   GGA_COMPAT  = T    GGA compatible to vasp.4.4-vasp.4.6
   LMAXPAW     = -100 max onsite density
   LMAXMIX     =    2 max onsite mixed and CHGCAR
   VOSKOWN=      0    Vosko Wilk Nusair interpolation
   ROPT   =   -0.00050  -0.00050
 Ionic relaxation
   EDIFFG = 0.1E-03   stopping-criterion for IOM
   NSW    =      0    number of steps for IOM
   NBLOCK =      1;   KBLOCK =      1    inner block; outer block 
   IBRION =     -1    ionic relax: 0-MD 1-quasi-New 2-CG
   NFREE  =      0    steps in history (QN), initial steepest desc. (CG)
   ISIF   =      2    stress and relaxation
   IWAVPR =     10    prediction:  0-non 1-charg 2-wave 3-comb
   ISYM   =      0    0-nonsym 1-usesym 2-fastsym
   LCORR  =      T    Harris-Foulkes like correction to forces

   POTIM  = 0.5000    time-step for ionic-motion
   TEIN   =    0.0    initial temperature
   TEBEG  =    0.0;   TEEND  =   0.0 temperature during run
   SMASS  =  -3.00    Nose mass-parameter (am)
   estimated Nose-frequenzy (Omega)   =  0.10E-29 period in steps = 0.13E+47 mass=  -0.164E-26a.u.
   SCALEE = 1.0000    scale energy and forces
   NPACO  =    256;   APACO  = 10.0  distance and # of slots for P.C.
   PSTRESS=    0.0 pullay stress

  Mass of Ions in am
   POMASS = 195.08  1.00
  Ionic Valenz
   ZVAL   =  10.00  1.00
  Atomic Wigner-Seitz radii
   RWIGS  =  -1.00 -1.00
  virtual crystal weights 
   VCA    =   1.00  1.00
   NELECT =     361.0000    total number of electrons
   NUPDOWN=      -1.0000    fix difference up-down

 DOS related values:
   EMIN   =  10.00;   EMAX   =-10.00  energy-range for DOS
   EFERMI =   0.00;   METHOD = LEGACY      
   ISMEAR =     1;   SIGMA  =   0.10  broadening in eV -4-tet -1-fermi 0-gaus

 Electronic relaxation 2 (details)
   IALGO  =     68    algorithm
   LDIAG  =      T    sub-space diagonalisation (order eigenvalues)
   LSUBROT=      F    optimize rotation matrix (better conditioning)
   TURBO    =      0    0=normal 1=particle mesh
   IRESTART =      0    0=no restart 2=restart with 2 vectors
   NREBOOT  =      0    no. of reboots
   NMIN     =      0    reboot dimension
   EREF     =   0.00    reference energy to select bands
   IMIX   =      4    mixing-type and parameters
     AMIX     =   0.40;   BMIX     =  1.00
     AMIX_MAG =   1.60;   BMIX_MAG =  1.00
     AMIN     =   0.10
     WC   =   100.;   INIMIX=   1;  MIXPRE=   1;  MAXMIX= -45

 Intra band minimization:
   WEIMIN = 0.0000     energy-eigenvalue tresh-hold
   EBREAK =  0.10E-07  absolut break condition
   DEPER  =   0.30     relativ break condition  

   TIME   =   0.40     timestep for ELM

  volume/ion in A,a.u.               =      41.90       282.79
  Fermi-wavevector in a.u.,A,eV,Ry     =   1.007136  1.903211 13.800704  1.014323
  Thomas-Fermi vector in A             =   2.139922
 
 Write flags
   LWAVE        =      T    write WAVECAR
   LDOWNSAMPLE  =      F    k-point downsampling of WAVECAR
   LCHARG       =      T    write CHGCAR
   LVTOT        =      F    write LOCPOT, total local potential
   LVHAR        =      F    write LOCPOT, Hartree potential only
   LELF         =      F    write electronic localiz. function (ELF)
   LORBIT       =      0    0 simple, 1 ext, 2 COOP (PROOUT), +10 PAW based schemes


 Dipole corrections
   LMONO  =      F    monopole corrections only (constant potential shift)
   LDIPOL =      F    correct potential (dipole corrections)
   IDIPOL =      0    1-x, 2-y, 3-z, 4-all directions 
   EPSILON=  1.0000000 bulk dielectric constant

 Exchange correlation treatment:
   GGA     =    BF    GGA type
   LEXCH   =    17    internal setting for exchange type
   LIBXC   =     F    Libxc                    
   VOSKOWN =     0    Vosko Wilk Nusair interpolation
   LHFCALC =     F    Hartree Fock is set to
   LHFONE  =     F    Hartree Fock one center treatment
   AEXX    =    0.0000 exact exchange contribution

 vdW DFT:
   LUSE_VDW   =     T    switch on vdW DFT
   IVDW_NL    =     1    kernel type
   LSPIN_VDW  =     F    use spin-polarized vdW DFT
   Zab_VDW    =******    correlation parameter
   PARAM1     =0.1234
   PARAM2     =1.0000
   PARAM3     =0.0000
   -- rVV10 --
   BPARAM     = 6.3000
   CPARAM     = 0.0093

 Linear response parameters
   LEPSILON=     F    determine dielectric tensor
   LRPA    =     F    only Hartree local field effects (RPA)
   LNABLA  =     F    use nabla operator in PAW spheres
   LVEL    =     F    velocity operator in full k-point grid
   CSHIFT  =0.1000    complex shift for real part using Kramers Kronig
   OMEGAMAX=  -1.0    maximum frequency
   DEG_THRESHOLD= 0.2000000E-02 threshold for treating states as degnerate
   RTIME   =   -0.100 relaxation time in fs
  (WPLASMAI=    0.000 imaginary part of plasma frequency in eV, 0.658/RTIME)
   DFIELD  = 0.0000000 0.0000000 0.0000000 field for delta impulse in time
 
  Optional k-point grid parameters
   LKPOINTS_OPT  =     F    use optional k-point grid
   KPOINTS_OPT_MODE=     1    mode for optional k-point grid
 
 Orbital magnetization related:
   ORBITALMAG=     F  switch on orbital magnetization
   LCHIMAG   =     F  perturbation theory with respect to B field
   DQ        =  0.001000  dq finite difference perturbation B field
   LLRAUG    =     F  two centre corrections for induced B field
   LBONE     =     F  B-component reconstruction in AE one-centre
   LVGVCALC  =     T  calculate vGv susceptibility
   LVGVAPPL  =     F  apply vGv susceptibility instead of pGv for G=0

 Random number generation:
   RANDOM_GENERATOR = DEFAULT
   PCG_SEED         = not used


--------------------------------------------------------------------------------------------------------


 Static calculation
 charge density and potential will be updated during run
 non-spin polarized calculation
 RMM-DIIS sequential band-by-band and
  variant of blocked Davidson during initial phase
 perform sub-space diagonalisation
    before iterative eigenvector-optimisation
 modified Broyden-mixing scheme, WC =      100.0
 initial mixing is a Kerker type mixing with AMIX =  0.4000 and BMIX =      1.0000
 Hartree-type preconditioning will be used
 using additional bands           59
 real space projection scheme for non local part
 use partial core corrections
 calculate Harris-corrections to forces 
   (improved forces if not selfconsistent)
 use gradient corrections 
 use of overlap-Matrix (Vanderbilt PP)
 Methfessel and Paxton  Order N= 1 SIGMA  =   0.10


--------------------------------------------------------------------------------------------------------


  energy-cutoff  :      680.29
  volume of cell :     1550.48
      direct lattice vectors                 reciprocal lattice vectors
     8.468310000  0.000000000  0.000000000     0.118087316 -0.068177744  0.000000000
     4.234155000  7.333771587  0.000000000     0.000000000  0.136355488  0.000000000
     0.000000000  0.000000000 24.965661990     0.000000000  0.000000000  0.040055016

  length of vectors
     8.468310000  8.468310000 24.965661990     0.136355488  0.136355488  0.040055016


 
 old parameters found on file WAVECAR:
  energy-cutoff  :      680.29
  volume of cell :     1550.48
      direct lattice vectors                 reciprocal lattice vectors
     8.468310000  0.000000000  0.000000000     0.118087316 -0.068177744  0.000000000
     4.234155000  7.333771587  0.000000000     0.000000000  0.136355488  0.000000000
     0.000000000  0.000000000 24.965661990     0.000000000  0.000000000  0.040055016

  length of vectors

 
 k-points in units of 2pi/SCALE and weight: KPOINTS created by Atomic Simulation Env
   0.00000000  0.00000000  0.00000000       0.040
   0.02361746 -0.01363555  0.00000000       0.080
   0.02361746  0.01363555  0.00000000       0.080
   0.00000000  0.02727110  0.00000000       0.080
   0.04723493 -0.02727110  0.00000000       0.080
   0.04723493  0.02727110  0.00000000       0.080
   0.00000000  0.05454220  0.00000000       0.080
   0.04723493  0.00000000  0.00000000       0.080
   0.02361746  0.04090665  0.00000000       0.080
  -0.02361746  0.04090665  0.00000000       0.080
  -0.04723493  0.05454220  0.00000000       0.080
   0.04723493 -0.08181329  0.00000000       0.080
  -0.02361746  0.06817774  0.00000000       0.080
 
 k-points in reciprocal lattice and weights: KPOINTS created by Atomic Simulation Env
   0.00000000  0.00000000  0.00000000       0.040
   0.20000000  0.00000000  0.00000000       0.080
   0.20000000  0.20000000  0.00000000       0.080
   0.00000000  0.20000000  0.00000000       0.080
   0.40000000  0.00000000  0.00000000       0.080
   0.40000000  0.40000000  0.00000000       0.080
   0.00000000  0.40000000  0.00000000       0.080
   0.40000000  0.20000000  0.00000000       0.080
   0.20000000  0.40000000  0.00000000       0.080
  -0.20000000  0.20000000  0.00000000       0.080
  -0.40000000  0.20000000  0.00000000       0.080
   0.40000000 -0.40000000  0.00000000       0.080
  -0.20000000  0.40000000  0.00000000       0.080
 
 position of ions in fractional coordinates (direct lattice) 
   0.00000000  0.00000000  0.34046764
   0.33400137  0.00000000  0.34046764
   0.66800274  0.00000000  0.34046764
   0.00000000  0.33400137  0.34046764
   0.33400137  0.33400137  0.34046764
   0.66800274  0.33400137  0.34046764
   0.00000000  0.66800274  0.34046764
   0.33400137  0.66800274  0.34046764
   0.66800274  0.66800274  0.34046764
   0.11133379  0.11133379  0.43297074
   0.44533516  0.11133379  0.43297074
   0.77933653  0.11133379  0.43297074
   0.11133379  0.44533516  0.43297074
   0.44533516  0.44533516  0.43297074
   0.77933653  0.44533516  0.43297074
   0.11133379  0.77933653  0.43297074
   0.44533516  0.77933653  0.43297074
   0.77933653  0.77933653  0.43297074
   0.89100803  0.22517024  0.52483207
   0.22381222  0.22438037  0.52558058
   0.55704682  0.22466952  0.52442888
   0.89110627  0.55700331  0.52490301
   0.22413588  0.55754769  0.52443548
   0.55739424  0.55797754  0.52427806
   0.89065461  0.89119282  0.52405715
   0.22443670  0.89171105  0.52483604
   0.55634303  0.89165411  0.52490647
   0.00132599  0.00219982  0.61730113
   0.33847057  0.00019451  0.62054295
   0.67048346  0.00306223  0.61751898
   0.99940829  0.33933395  0.62049528
   0.33871450  0.33935231  0.61889889
   0.66936291  0.33666493  0.61760987
   0.00211417  0.67141327  0.61753807
   0.33593742  0.67010226  0.61760017
   0.66948549  0.67021409  0.61771940
   0.20767915  0.20886939  0.65682312
 
 position of ions in cartesian coordinates  (Angst):
   0.00000000  0.00000000  8.50000000
   2.82842712  0.00000000  8.50000000
   5.65685425  0.00000000  8.50000000
   1.41421356  2.44948974  8.50000000
   4.24264069  2.44948974  8.50000000
   7.07106781  2.44948974  8.50000000
   2.82842712  4.89897949  8.50000000
   5.65685425  4.89897949  8.50000000
   8.48528137  4.89897949  8.50000000
   1.41421356  0.81649658 10.80940108
   4.24264069  0.81649658 10.80940108
   7.07106781  0.81649658 10.80940108
   2.82842712  3.26598632 10.80940108
   5.65685425  3.26598632 10.80940108
   8.48528137  3.26598632 10.80940108
   4.24264069  5.71547607 10.80940108
   7.07106781  5.71547607 10.80940108
   9.89949494  5.71547607 10.80940108
   8.49873789  1.65134708 13.10278009
   2.84537253  1.64555440 13.12146705
   5.66853073  1.64767492 13.09271427
   9.90460245  4.08493505 13.10455102
   4.25879550  4.08892742 13.09287901
   7.08275060  4.09207985 13.08894882
  11.31578785  6.53580459 13.08343359
   5.67624235  6.53960519 13.10287907
   8.48668693  6.53918760 13.10463757
   0.02054331  0.01613298 15.41133136
   2.86709728  0.00142648 15.49226551
   5.69082775  0.02245771 15.41677003
   9.90009177  2.48859765 15.49107533
   4.30520965  2.48873235 15.45122059
   7.09386410  2.46902367 15.41903924
   2.86077128  4.92399156 15.41724665
   5.68213901  4.91437693 15.41879706
   8.50720104  4.91519707 15.42177365
   2.64307676  1.53180037 16.39802410
 


--------------------------------------------------------------------------------------------------------


 k-point   1 :   0.0000 0.0000 0.0000  plane waves:   62399
 k-point   2 :   0.2000 0.0000 0.0000  plane waves:   62407
 k-point   3 :   0.2000 0.2000 0.0000  plane waves:   62407
 k-point   4 :   0.0000 0.2000 0.0000  plane waves:   62407
 k-point   5 :   0.4000 0.0000 0.0000  plane waves:   62451
 k-point   6 :   0.4000 0.4000 0.0000  plane waves:   62451
 k-point   7 :   0.0000 0.4000 0.0000  plane waves:   62451
 k-point   8 :   0.4000 0.2000 0.0000  plane waves:   62510
 k-point   9 :   0.2000 0.4000 0.0000  plane waves:   62510
 k-point  10 :  -0.2000 0.2000 0.0000  plane waves:   62510
 k-point  11 :  -0.4000 0.2000 0.0000  plane waves:   62498
 k-point  12 :   0.4000-0.4000 0.0000  plane waves:   62498
 k-point  13 :  -0.2000 0.4000 0.0000  plane waves:   62498

 maximum and minimum number of plane-waves per node :     62510    62399

 maximum number of plane-waves:     62510
 maximum index in each direction: 
   IXMAX=   18   IYMAX=   18   IZMAX=   53
   IXMIN=  -18   IYMIN=  -18   IZMIN=  -53


 serial   3D FFT for wavefunctions
 parallel 3D FFT for charge:
    minimum data exchange during FFTs selected (reduces bandwidth)


 total amount of memory used by VASP MPI-rank0   148535. kBytes
=======================================================================

   base      :      30000. kBytes
   nonlr-proj:      22462. kBytes
   fftplans  :       5213. kBytes
   grid      :      24541. kBytes
   one-center:        575. kBytes
   wavefun   :      65744. kBytes
 
     INWAV:  cpu time      7.2388: real time     11.9726
 Broyden mixing: mesh for mixing (old mesh)
   NGX = 37   NGY = 37   NGZ =107
  (NGX  =108   NGY  =108   NGZ  =320)
  gives a total of 146483 points

 charge density for first step will be calculated from the start-wavefunctions


--------------------------------------------------------------------------------------------------------


 Maximum index for non-local projection operator         3550
 Maximum index for augmentation-charges         1170 (set IRDMAX)


--------------------------------------------------------------------------------------------------------


 initial charge from wavefunction
 First call to EWALD:  gamma=   0.153
 Maximum number of real-space cells 4x 4x 2
 Maximum number of reciprocal cells 2x 2x 5

    FEWALD:  cpu time      0.0040: real time      0.0040


--------------------------------------- Ionic step        1  -------------------------------------------




--------------------------------------- Iteration      1(   1)  ---------------------------------------


vdW kernel read from vdw_kernel.bindat
  0.0000  0.2424  0.5071  0.7962  1.1119  1.4567  1.8333  2.2446  2.6937  3.1842
  3.7199  4.3049  4.9438  5.6415  6.4036  7.2358  8.1446  9.1372 10.2212 11.4050
 12.6979 14.1099 15.6519 17.3360 19.1751 21.1837 23.3773 25.7729 28.3892 31.2465
 34.3669 37.7748 41.4965 45.5611 50.0000
 
    POTLOK:  cpu time      2.9426: real time      2.9734
    SETDIJ:  cpu time      0.0056: real time      0.0056
     EDDAV:  cpu time     16.3779: real time     16.5766
       DOS:  cpu time      0.0011: real time      0.0011
    CHARGE:  cpu time      0.7643: real time      0.7728
    MIXING:  cpu time      0.0029: real time      0.0029
    --------------------------------------------
      LOOP:  cpu time     20.0944: real time     20.3325

 eigenvalue-minimisations  :  7296
 total energy-change (2. order) :-0.1048102E+03  (-0.2416268E+00)
 number of electron     360.9999972 magnetization 
 augmentation part      114.0668415 magnetization 

 Broyden mixing:
  rms(total) = 0.49218E+00    rms(broyden)= 0.49218E+00
  rms(prec ) = 0.70331E+00
  weight for this iteration     100.00

 Free energy of the ion-electron system (eV)
  ---------------------------------------------------
  alpha Z        PSCENC =       797.33612757
  Ewald energy   TEWEN  =    132238.67348057
  -Hartree energ DENC   =   -159669.63769497
  -exchange      EXHF   =         0.00000000
  -V(xc)+E(xc)   XCENC  =        89.73412412
  PAW double counting   =     32182.69202686   -31184.80745928
  entropy T*S    EENTRO =        -0.07672925
  eigenvalues    EBANDS =     -1055.52720161
  atomic energy  EATOM  =     26496.80315902
  Solvation  Ediel_sol  =         0.00000000
  ---------------------------------------------------
  free energy    TOTEN  =      -104.81016699 eV

  energy without entropy =     -104.73343773  energy(sigma->0) =     -104.78459057


--------------------------------------------------------------------------------------------------------




--------------------------------------- Iteration      1(   2)  ---------------------------------------


    POTLOK:  cpu time      2.3619: real time      2.3942
    SETDIJ:  cpu time      0.0057: real time      0.0057
    EDDIAG:  cpu time      2.7511: real time      2.7841
  RMM-DIIS:  cpu time      8.5256: real time      8.6187
    ORTHCH:  cpu time      0.4547: real time      0.4596
       DOS:  cpu time      0.0011: real time      0.0011
    CHARGE:  cpu time      0.7702: real time      0.7787
    MIXING:  cpu time      0.0022: real time      0.0023
    --------------------------------------------
      LOOP:  cpu time     14.8725: real time     15.0445

 eigenvalue-minimisations  :  6770
 total energy-change (2. order) :-0.1728528E+02  (-0.3167763E+00)
 number of electron     360.9999962 magnetization 
 augmentation part      114.0501269 magnetization 

 Broyden mixing:
  rms(total) = 0.37949E+01    rms(broyden)= 0.37949E+01
  rms(prec ) = 0.55717E+01
  weight for this iteration     100.00

 eigenvalues of (default mixing * dielectric matrix)
  average eigenvalue GAMMA=   0.1089
  0.1089

 Free energy of the ion-electron system (eV)
  ---------------------------------------------------
  alpha Z        PSCENC =       797.33612757
  Ewald energy   TEWEN  =    132238.67348057
  -Hartree energ DENC   =   -159604.70185263
  -exchange      EXHF   =         0.00000000
  -V(xc)+E(xc)   XCENC  =        89.82305534
  PAW double counting   =     32165.44002850   -31167.72242414
  entropy T*S    EENTRO =         0.00344600
  eigenvalues    EBANDS =     -1137.75046994
  atomic energy  EATOM  =     26496.80315902
  Solvation  Ediel_sol  =         0.00000000
  ---------------------------------------------------
  free energy    TOTEN  =      -122.09544971 eV

  energy without entropy =     -122.09889571  energy(sigma->0) =     -122.09659838


--------------------------------------------------------------------------------------------------------




--------------------------------------- Iteration      1(   3)  ---------------------------------------


    POTLOK:  cpu time      2.5179: real time      2.5784
    SETDIJ:  cpu time      0.0044: real time      0.0045
    EDDIAG:  cpu time      2.6600: real time      2.6944
  RMM-DIIS:  cpu time      8.6966: real time      8.8133
    ORTHCH:  cpu time      0.4542: real time      0.4596
       DOS:  cpu time      0.0012: real time      0.0012
    CHARGE:  cpu time      0.7514: real time      0.7613
    MIXING:  cpu time      0.0020: real time      0.0020
    --------------------------------------------
      LOOP:  cpu time     15.0877: real time     15.3147

 eigenvalue-minimisations  :  6818
 total energy-change (2. order) : 0.1741988E+02  (-0.2148324E+00)
 number of electron     360.9999971 magnetization 
 augmentation part      114.2099017 magnetization 

 Broyden mixing:
  rms(total) = 0.33457E+00    rms(broyden)= 0.33457E+00
  rms(prec ) = 0.39076E+00
  weight for this iteration     100.00

 eigenvalues of (default mixing * dielectric matrix)
  average eigenvalue GAMMA=   0.2057
  0.3016  0.1099

 Free energy of the ion-electron system (eV)
  ---------------------------------------------------
  alpha Z        PSCENC =       797.33612757
  Ewald energy   TEWEN  =    132238.67348057
  -Hartree energ DENC   =   -159634.46455219
  -exchange      EXHF   =         0.00000000
  -V(xc)+E(xc)   XCENC  =        89.67284779
  PAW double counting   =     32187.62406915   -31190.07003970
  entropy T*S    EENTRO =        -0.09777375
  eigenvalues    EBANDS =     -1090.15288865
  atomic energy  EATOM  =     26496.80315902
  Solvation  Ediel_sol  =         0.00000000
  ---------------------------------------------------
  free energy    TOTEN  =      -104.67557019 eV

  energy without entropy =     -104.57779644  energy(sigma->0) =     -104.64297894


--------------------------------------------------------------------------------------------------------




--------------------------------------- Iteration      1(   4)  ---------------------------------------


    POTLOK:  cpu time      2.4370: real time      2.4607
    SETDIJ:  cpu time      0.0045: real time      0.0045
    EDDIAG:  cpu time      2.7820: real time      2.8118
  RMM-DIIS:  cpu time      8.3379: real time      8.4294
    ORTHCH:  cpu time      0.5317: real time      0.5453
       DOS:  cpu time      0.0012: real time      0.0012
    CHARGE:  cpu time      0.7551: real time      0.7629
    MIXING:  cpu time      0.0022: real time      0.0022
    --------------------------------------------
      LOOP:  cpu time     14.8515: real time     15.0180

 eigenvalue-minimisations  :  6762
 total energy-change (2. order) : 0.1122634E+00  (-0.2211954E-01)
 number of electron     360.9999970 magnetization 
 augmentation part      114.1835602 magnetization 

 Broyden mixing:
  rms(total) = 0.21051E+00    rms(broyden)= 0.21051E+00
  rms(prec ) = 0.27170E+00
  weight for this iteration     100.00

 eigenvalues of (default mixing * dielectric matrix)
  average eigenvalue GAMMA=   0.2782
  0.5012  0.1044  0.2289

 Free energy of the ion-electron system (eV)
  ---------------------------------------------------
  alpha Z        PSCENC =       797.33612757
  Ewald energy   TEWEN  =    132238.67348057
  -Hartree energ DENC   =   -159644.34823041
  -exchange      EXHF   =         0.00000000
  -V(xc)+E(xc)   XCENC  =        89.64508927
  PAW double counting   =     32190.31640999   -31192.77863106
  entropy T*S    EENTRO =        -0.09212380
  eigenvalues    EBANDS =     -1080.11858798
  atomic energy  EATOM  =     26496.80315902
  Solvation  Ediel_sol  =         0.00000000
  ---------------------------------------------------
  free energy    TOTEN  =      -104.56330683 eV

  energy without entropy =     -104.47118304  energy(sigma->0) =     -104.53259890


--------------------------------------------------------------------------------------------------------




--------------------------------------- Iteration      1(   5)  ---------------------------------------


    POTLOK:  cpu time      2.5450: real time      2.6052
    SETDIJ:  cpu time      0.0044: real time      0.0045
    EDDIAG:  cpu time      2.8432: real time      2.8774
  RMM-DIIS:  cpu time      8.7793: real time      8.8944
    ORTHCH:  cpu time      0.5030: real time      0.5108
       DOS:  cpu time      0.0010: real time      0.0010
    CHARGE:  cpu time      0.7712: real time      0.7810
    MIXING:  cpu time      0.0023: real time      0.0023
    --------------------------------------------
      LOOP:  cpu time     15.4496: real time     15.6766

 eigenvalue-minimisations  :  6979
 total energy-change (2. order) : 0.1816335E-01  (-0.4531668E-02)
 number of electron     360.9999971 magnetization 
 augmentation part      114.2040348 magnetization 

 Broyden mixing:
  rms(total) = 0.16202E+00    rms(broyden)= 0.16202E+00
  rms(prec ) = 0.17411E+00
  weight for this iteration     100.00

 eigenvalues of (default mixing * dielectric matrix)
  average eigenvalue GAMMA=   0.2705
  0.3985  0.3985  0.1056  0.1793

 Free energy of the ion-electron system (eV)
  ---------------------------------------------------
  alpha Z        PSCENC =       797.33612757
  Ewald energy   TEWEN  =    132238.67348057
  -Hartree energ DENC   =   -159637.96592953
  -exchange      EXHF   =         0.00000000
  -V(xc)+E(xc)   XCENC  =        89.67570134
  PAW double counting   =     32185.21317726   -31187.58407704
  entropy T*S    EENTRO =        -0.09445286
  eigenvalues    EBANDS =     -1086.60232981
  atomic energy  EATOM  =     26496.80315902
  Solvation  Ediel_sol  =         0.00000000
  ---------------------------------------------------
  free energy    TOTEN  =      -104.54514348 eV

  energy without entropy =     -104.45069062  energy(sigma->0) =     -104.51365920


--------------------------------------------------------------------------------------------------------




--------------------------------------- Iteration      1(   6)  ---------------------------------------


    POTLOK:  cpu time      2.4551: real time      2.4791
    SETDIJ:  cpu time      0.0055: real time      0.0055
    EDDIAG:  cpu time      2.8086: real time      2.8398
  RMM-DIIS:  cpu time      8.8145: real time      8.9079
    ORTHCH:  cpu time      0.6876: real time      0.6987
       DOS:  cpu time      0.0009: real time      0.0009
    CHARGE:  cpu time      0.7502: real time      0.7570
    MIXING:  cpu time      0.0036: real time      0.0036
    --------------------------------------------
      LOOP:  cpu time     15.5260: real time     15.6924

 eigenvalue-minimisations  :  6886
 total energy-change (2. order) : 0.1152447E-01  (-0.1286130E-02)
 number of electron     360.9999971 magnetization 
 augmentation part      114.1935027 magnetization 

 Broyden mixing:
  rms(total) = 0.81714E-01    rms(broyden)= 0.81714E-01
  rms(prec ) = 0.10007E+00
  weight for this iteration     100.00

 eigenvalues of (default mixing * dielectric matrix)
  average eigenvalue GAMMA=   0.3926
  0.7166  0.7166  0.1049  0.2381  0.1870

 Free energy of the ion-electron system (eV)
  ---------------------------------------------------
  alpha Z        PSCENC =       797.33612757
  Ewald energy   TEWEN  =    132238.67348057
  -Hartree energ DENC   =   -159639.74878595
  -exchange      EXHF   =         0.00000000
  -V(xc)+E(xc)   XCENC  =        89.67542741
  PAW double counting   =     32184.68737145   -31187.01884307
  entropy T*S    EENTRO =        -0.09500711
  eigenvalues    EBANDS =     -1084.84654889
  atomic energy  EATOM  =     26496.80315902
  Solvation  Ediel_sol  =         0.00000000
  ---------------------------------------------------
  free energy    TOTEN  =      -104.53361902 eV

  energy without entropy =     -104.43861190  energy(sigma->0) =     -104.50194998


--------------------------------------------------------------------------------------------------------




--------------------------------------- Iteration      1(   7)  ---------------------------------------


    POTLOK:  cpu time      2.5307: real time      2.5962
    SETDIJ:  cpu time      0.0043: real time      0.0044
    EDDIAG:  cpu time      2.7133: real time      2.7478
  RMM-DIIS:  cpu time      8.9579: real time      9.0613
    ORTHCH:  cpu time      0.5155: real time      0.5222
       DOS:  cpu time      0.0010: real time      0.0011
    CHARGE:  cpu time      0.7487: real time      0.7568
    MIXING:  cpu time      0.0049: real time      0.0050
    --------------------------------------------
      LOOP:  cpu time     15.4764: real time     15.6948

 eigenvalue-minimisations  :  7086
 total energy-change (2. order) : 0.1410004E-02  (-0.4604276E-03)
 number of electron     360.9999971 magnetization 
 augmentation part      114.1901667 magnetization 

 Broyden mixing:
  rms(total) = 0.65387E-01    rms(broyden)= 0.65387E-01
  rms(prec ) = 0.70874E-01
  weight for this iteration     100.00

 eigenvalues of (default mixing * dielectric matrix)
  average eigenvalue GAMMA=   0.4607
  1.0007  1.0007  0.1049  0.2408  0.2408  0.1760

 Free energy of the ion-electron system (eV)
  ---------------------------------------------------
  alpha Z        PSCENC =       797.33612757
  Ewald energy   TEWEN  =    132238.67348057
  -Hartree energ DENC   =   -159638.74852619
  -exchange      EXHF   =         0.00000000
  -V(xc)+E(xc)   XCENC  =        89.69196242
  PAW double counting   =     32180.79072484   -31183.02586823
  entropy T*S    EENTRO =        -0.09526887
  eigenvalues    EBANDS =     -1085.95800014
  atomic energy  EATOM  =     26496.80315902
  Solvation  Ediel_sol  =         0.00000000
  ---------------------------------------------------
  free energy    TOTEN  =      -104.53220901 eV

  energy without entropy =     -104.43694014  energy(sigma->0) =     -104.50045272


--------------------------------------------------------------------------------------------------------




--------------------------------------- Iteration      1(   8)  ---------------------------------------


    POTLOK:  cpu time      2.3985: real time      2.4269
    SETDIJ:  cpu time      0.0044: real time      0.0044
    EDDIAG:  cpu time      2.6989: real time      2.7348
  RMM-DIIS:  cpu time      8.4201: real time      9.0763
    ORTHCH:  cpu time      0.4920: real time      0.4977
       DOS:  cpu time      0.0010: real time      0.0010
    CHARGE:  cpu time      0.7589: real time      0.7714
    MIXING:  cpu time      0.0036: real time      0.0037
    --------------------------------------------
      LOOP:  cpu time     14.7775: real time     15.5162

 eigenvalue-minimisations  :  6998
 total energy-change (2. order) : 0.2038915E-02  (-0.2448509E-03)
 number of electron     360.9999971 magnetization 
 augmentation part      114.1834799 magnetization 

 Broyden mixing:
  rms(total) = 0.23780E-01    rms(broyden)= 0.23780E-01
  rms(prec ) = 0.27075E-01
  weight for this iteration     100.00

 eigenvalues of (default mixing * dielectric matrix)
  average eigenvalue GAMMA=   0.5405
  1.2076  1.2076  0.6102  0.1049  0.2700  0.1808  0.2022

 Free energy of the ion-electron system (eV)
  ---------------------------------------------------
  alpha Z        PSCENC =       797.33612757
  Ewald energy   TEWEN  =    132238.67348057
  -Hartree energ DENC   =   -159639.17108216
  -exchange      EXHF   =         0.00000000
  -V(xc)+E(xc)   XCENC  =        89.69939699
  PAW double counting   =     32178.31690396   -31180.47504560
  entropy T*S    EENTRO =        -0.09543454
  eigenvalues    EBANDS =     -1085.61767590
  atomic energy  EATOM  =     26496.80315902
  Solvation  Ediel_sol  =         0.00000000
  ---------------------------------------------------
  free energy    TOTEN  =      -104.53017010 eV

  energy without entropy =     -104.43473555  energy(sigma->0) =     -104.49835858


--------------------------------------------------------------------------------------------------------




--------------------------------------- Iteration      1(   9)  ---------------------------------------


    POTLOK:  cpu time      2.4766: real time      2.5218
    SETDIJ:  cpu time      0.0044: real time      0.0044
    EDDIAG:  cpu time      2.7996: real time      2.8325
  RMM-DIIS:  cpu time      8.9035: real time      8.9930
    ORTHCH:  cpu time      0.5343: real time      0.5399
       DOS:  cpu time      0.0010: real time      0.0010
    CHARGE:  cpu time      0.7641: real time      0.7716
    MIXING:  cpu time      0.0026: real time      0.0026
    --------------------------------------------
      LOOP:  cpu time     15.4861: real time     15.6668

 eigenvalue-minimisations  :  6931
 total energy-change (2. order) : 0.4020378E-04  (-0.9752657E-04)
 number of electron     360.9999971 magnetization 
 augmentation part      114.1825033 magnetization 

 Broyden mixing:
  rms(total) = 0.14224E-01    rms(broyden)= 0.14224E-01
  rms(prec ) = 0.15934E-01
  weight for this iteration     100.00

 eigenvalues of (default mixing * dielectric matrix)
  average eigenvalue GAMMA=   0.5727
  1.6741  0.8955  0.8955  0.1049  0.3620  0.2699  0.1792  0.2003

 Free energy of the ion-electron system (eV)
  ---------------------------------------------------
  alpha Z        PSCENC =       797.33612757
  Ewald energy   TEWEN  =    132238.67348057
  -Hartree energ DENC   =   -159638.63594583
  -exchange      EXHF   =         0.00000000
  -V(xc)+E(xc)   XCENC  =        89.70118803
  PAW double counting   =     32177.33003251   -31179.44858430
  entropy T*S    EENTRO =        -0.09522789
  eigenvalues    EBANDS =     -1086.19435956
  atomic energy  EATOM  =     26496.80315902
  Solvation  Ediel_sol  =         0.00000000
  ---------------------------------------------------
  free energy    TOTEN  =      -104.53012989 eV

  energy without entropy =     -104.43490200  energy(sigma->0) =     -104.49838726


--------------------------------------------------------------------------------------------------------




--------------------------------------- Iteration      1(  10)  ---------------------------------------


    POTLOK:  cpu time      2.4176: real time      2.4519
    SETDIJ:  cpu time      0.0044: real time      0.0044
    EDDIAG:  cpu time      2.8263: real time      2.8605
  RMM-DIIS:  cpu time      9.0223: real time      9.1146
    ORTHCH:  cpu time      0.4980: real time      0.5040
       DOS:  cpu time      0.0011: real time      0.0011
    CHARGE:  cpu time      0.7475: real time      0.7567
    MIXING:  cpu time      0.0028: real time      0.0028
    --------------------------------------------
      LOOP:  cpu time     15.5199: real time     15.6961

 eigenvalue-minimisations  :  6974
 total energy-change (2. order) :-0.1815850E-05  (-0.2827316E-04)
 number of electron     360.9999971 magnetization 
 augmentation part      114.1823386 magnetization 

 Broyden mixing:
  rms(total) = 0.94788E-02    rms(broyden)= 0.94788E-02
  rms(prec ) = 0.10549E-01
  weight for this iteration     100.00

 eigenvalues of (default mixing * dielectric matrix)
  average eigenvalue GAMMA=   0.5783
  1.8000  0.8671  0.8671  0.6164  0.1049  0.3114  0.2591  0.1794  0.1997

 Free energy of the ion-electron system (eV)
  ---------------------------------------------------
  alpha Z        PSCENC =       797.33612757
  Ewald energy   TEWEN  =    132238.67348057
  -Hartree energ DENC   =   -159638.40627174
  -exchange      EXHF   =         0.00000000
  -V(xc)+E(xc)   XCENC  =        89.69968865
  PAW double counting   =     32177.35057339   -31179.45665018
  entropy T*S    EENTRO =        -0.09526633
  eigenvalues    EBANDS =     -1086.43497264
  atomic energy  EATOM  =     26496.80315902
  Solvation  Ediel_sol  =         0.00000000
  ---------------------------------------------------
  free energy    TOTEN  =      -104.53013171 eV

  energy without entropy =     -104.43486537  energy(sigma->0) =     -104.49837626


--------------------------------------------------------------------------------------------------------




--------------------------------------- Iteration      1(  11)  ---------------------------------------


    POTLOK:  cpu time      2.4511: real time      2.5013
    SETDIJ:  cpu time      0.0195: real time      0.0197
    EDDIAG:  cpu time      2.8129: real time      2.8438
  RMM-DIIS:  cpu time      9.0837: real time      9.1739
    ORTHCH:  cpu time      0.4789: real time      0.4838
       DOS:  cpu time      0.0011: real time      0.0011
    CHARGE:  cpu time      0.7462: real time      0.7557
    MIXING:  cpu time      0.0036: real time      0.0037
    --------------------------------------------
      LOOP:  cpu time     15.5970: real time     15.7831

 eigenvalue-minimisations  :  6991
 total energy-change (2. order) :-0.1059902E-03  (-0.1206377E-04)
 number of electron     360.9999971 magnetization 
 augmentation part      114.1825824 magnetization 

 Broyden mixing:
  rms(total) = 0.93446E-02    rms(broyden)= 0.93446E-02
  rms(prec ) = 0.10234E-01
  weight for this iteration     100.00

 eigenvalues of (default mixing * dielectric matrix)
  average eigenvalue GAMMA=   0.6555
  2.0125  1.3219  0.9492  0.9492  0.1049  0.3629  0.2655  0.1790  0.1986  0.2114

 Free energy of the ion-electron system (eV)
  ---------------------------------------------------
  alpha Z        PSCENC =       797.33612757
  Ewald energy   TEWEN  =    132238.67348057
  -Hartree energ DENC   =   -159638.19400710
  -exchange      EXHF   =         0.00000000
  -V(xc)+E(xc)   XCENC  =        89.69867463
  PAW double counting   =     32177.46917636   -31179.56893035
  entropy T*S    EENTRO =        -0.09533086
  eigenvalues    EBANDS =     -1086.65258753
  atomic energy  EATOM  =     26496.80315902
  Solvation  Ediel_sol  =         0.00000000
  ---------------------------------------------------
  free energy    TOTEN  =      -104.53023770 eV

  energy without entropy =     -104.43490683  energy(sigma->0) =     -104.49846074


--------------------------------------------------------------------------------------------------------




--------------------------------------- Iteration      1(  12)  ---------------------------------------


    POTLOK:  cpu time      2.4323: real time      2.4690
    SETDIJ:  cpu time      0.0110: real time      0.0110
    EDDIAG:  cpu time      2.7728: real time      2.8087
  RMM-DIIS:  cpu time      9.0301: real time      9.1377
    ORTHCH:  cpu time      0.4714: real time      0.4764
       DOS:  cpu time      0.0010: real time      0.0010
    CHARGE:  cpu time      0.7732: real time      0.7803
    MIXING:  cpu time      0.0044: real time      0.0044
    --------------------------------------------
      LOOP:  cpu time     15.4962: real time     15.6885

 eigenvalue-minimisations  :  7208
 total energy-change (2. order) :-0.1943418E-03  (-0.9896128E-05)
 number of electron     360.9999971 magnetization 
 augmentation part      114.1833203 magnetization 

 Broyden mixing:
  rms(total) = 0.64229E-02    rms(broyden)= 0.64229E-02
  rms(prec ) = 0.73159E-02
  weight for this iteration     100.00

 eigenvalues of (default mixing * dielectric matrix)
  average eigenvalue GAMMA=   0.6633
  2.2479  1.4507  0.9633  0.9633  0.1049  0.3998  0.3188  0.2658  0.1795  0.1960
  0.2059

 Free energy of the ion-electron system (eV)
  ---------------------------------------------------
  alpha Z        PSCENC =       797.33612757
  Ewald energy   TEWEN  =    132238.67348057
  -Hartree energ DENC   =   -159637.75588855
  -exchange      EXHF   =         0.00000000
  -V(xc)+E(xc)   XCENC  =        89.69620399
  PAW double counting   =     32177.91026928   -31179.99995587
  entropy T*S    EENTRO =        -0.09525200
  eigenvalues    EBANDS =     -1087.09857604
  atomic energy  EATOM  =     26496.80315902
  Solvation  Ediel_sol  =         0.00000000
  ---------------------------------------------------
  free energy    TOTEN  =      -104.53043204 eV

  energy without entropy =     -104.43518004  energy(sigma->0) =     -104.49868137


--------------------------------------------------------------------------------------------------------




--------------------------------------- Iteration      1(  13)  ---------------------------------------


    POTLOK:  cpu time      2.4313: real time      2.4787
    SETDIJ:  cpu time      0.0044: real time      0.0045
    EDDIAG:  cpu time      2.7120: real time      2.7363
  RMM-DIIS:  cpu time      7.6492: real time      7.7128
    ORTHCH:  cpu time      0.4846: real time      0.4903
       DOS:  cpu time      0.0010: real time      0.0010
    CHARGE:  cpu time      0.7610: real time      0.7684
    MIXING:  cpu time      0.0031: real time      0.0031
    --------------------------------------------
      LOOP:  cpu time     14.0465: real time     14.1952

 eigenvalue-minimisations  :  5682
 total energy-change (2. order) :-0.7574969E-04  (-0.4452626E-05)
 number of electron     360.9999971 magnetization 
 augmentation part      114.1834572 magnetization 

 Broyden mixing:
  rms(total) = 0.38806E-02    rms(broyden)= 0.38806E-02
  rms(prec ) = 0.48139E-02
  weight for this iteration     100.00

 eigenvalues of (default mixing * dielectric matrix)
  average eigenvalue GAMMA=   0.6794
  2.3383  1.4656  0.9972  0.8655  0.8655  0.1049  0.3774  0.2943  0.2653  0.1793
  0.2037  0.1961

 Free energy of the ion-electron system (eV)
  ---------------------------------------------------
  alpha Z        PSCENC =       797.33612757
  Ewald energy   TEWEN  =    132238.67348057
  -Hartree energ DENC   =   -159637.60094264
  -exchange      EXHF   =         0.00000000
  -V(xc)+E(xc)   XCENC  =        89.69476137
  PAW double counting   =     32178.26560987   -31180.35390979
  entropy T*S    EENTRO =        -0.09526550
  eigenvalues    EBANDS =     -1087.25352826
  atomic energy  EATOM  =     26496.80315902
  Solvation  Ediel_sol  =         0.00000000
  ---------------------------------------------------
  free energy    TOTEN  =      -104.53050779 eV

  energy without entropy =     -104.43524229  energy(sigma->0) =     -104.49875262


--------------------------------------------------------------------------------------------------------




--------------------------------------- Iteration      1(  14)  ---------------------------------------


    POTLOK:  cpu time      2.4519: real time      2.4682
    SETDIJ:  cpu time      0.0064: real time      0.0064
    EDDIAG:  cpu time      2.7721: real time      2.7999
  RMM-DIIS:  cpu time      6.9665: real time      7.0228
    ORTHCH:  cpu time      0.5512: real time      0.5647
       DOS:  cpu time      0.0010: real time      0.0010
    CHARGE:  cpu time      0.7460: real time      0.7530
    MIXING:  cpu time      0.0034: real time      0.0034
    --------------------------------------------
      LOOP:  cpu time     13.4985: real time     13.6193

 eigenvalue-minimisations  :  4929
 total energy-change (2. order) :-0.7997515E-04  (-0.1826116E-05)
 number of electron     360.9999971 magnetization 
 augmentation part      114.1835244 magnetization 

 Broyden mixing:
  rms(total) = 0.14294E-02    rms(broyden)= 0.14294E-02
  rms(prec ) = 0.16402E-02
  weight for this iteration     100.00

 eigenvalues of (default mixing * dielectric matrix)
  average eigenvalue GAMMA=   0.6662
  2.3570  1.4495  1.1635  0.8427  0.8427  0.1049  0.3871  0.3871  0.2667  0.2799
  0.1793  0.2039  0.1958

 Free energy of the ion-electron system (eV)
  ---------------------------------------------------
  alpha Z        PSCENC =       797.33612757
  Ewald energy   TEWEN  =    132238.67348057
  -Hartree energ DENC   =   -159637.48862639
  -exchange      EXHF   =         0.00000000
  -V(xc)+E(xc)   XCENC  =        89.69328409
  PAW double counting   =     32178.72815258   -31180.81974975
  entropy T*S    EENTRO =        -0.09525248
  eigenvalues    EBANDS =     -1087.36116297
  atomic energy  EATOM  =     26496.80315902
  Solvation  Ediel_sol  =         0.00000000
  ---------------------------------------------------
  free energy    TOTEN  =      -104.53058777 eV

  energy without entropy =     -104.43533528  energy(sigma->0) =     -104.49883694


--------------------------------------------------------------------------------------------------------




--------------------------------------- Iteration      1(  15)  ---------------------------------------


    POTLOK:  cpu time      2.4140: real time      2.4419
    SETDIJ:  cpu time      0.0059: real time      0.0059
    EDDIAG:  cpu time      2.8629: real time      2.8902
  RMM-DIIS:  cpu time      6.6632: real time      6.7119
    ORTHCH:  cpu time      0.4574: real time      0.4616
       DOS:  cpu time      0.0009: real time      0.0009
    CHARGE:  cpu time      0.7669: real time      0.7735
    MIXING:  cpu time      0.0034: real time      0.0034
    --------------------------------------------
      LOOP:  cpu time     13.1746: real time     13.2893

 eigenvalue-minimisations  :  4460
 total energy-change (2. order) :-0.3851095E-04  (-0.6392076E-06)
 number of electron     360.9999971 magnetization 
 augmentation part      114.1835133 magnetization 

 Broyden mixing:
  rms(total) = 0.89100E-03    rms(broyden)= 0.89100E-03
  rms(prec ) = 0.10443E-02
  weight for this iteration     100.00

 eigenvalues of (default mixing * dielectric matrix)
  average eigenvalue GAMMA=   0.7106
  2.3138  1.4778  1.4778  0.9398  0.9398  0.8968  0.1049  0.3842  0.3032  0.2704
  0.2613  0.1793  0.2037  0.1959

 Free energy of the ion-electron system (eV)
  ---------------------------------------------------
  alpha Z        PSCENC =       797.33612757
  Ewald energy   TEWEN  =    132238.67348057
  -Hartree energ DENC   =   -159637.42649902
  -exchange      EXHF   =         0.00000000
  -V(xc)+E(xc)   XCENC  =        89.69283479
  PAW double counting   =     32178.87455148   -31180.96692307
  entropy T*S    EENTRO =        -0.09524793
  eigenvalues    EBANDS =     -1087.42210969
  atomic energy  EATOM  =     26496.80315902
  Solvation  Ediel_sol  =         0.00000000
  ---------------------------------------------------
  free energy    TOTEN  =      -104.53062628 eV

  energy without entropy =     -104.43537835  energy(sigma->0) =     -104.49887697


--------------------------------------------------------------------------------------------------------




--------------------------------------- Iteration      1(  16)  ---------------------------------------


    POTLOK:  cpu time      2.5193: real time      2.5706
    SETDIJ:  cpu time      0.0045: real time      0.0045
    EDDIAG:  cpu time      2.7235: real time      2.7520
  RMM-DIIS:  cpu time      7.0188: real time      7.0816
    ORTHCH:  cpu time      0.5119: real time      0.5178
       DOS:  cpu time      0.0010: real time      0.0010
    CHARGE:  cpu time      0.7500: real time      0.7571
    MIXING:  cpu time      0.0104: real time      0.0105
    --------------------------------------------
      LOOP:  cpu time     13.5394: real time     13.6950

 eigenvalue-minimisations  :  4829
 total energy-change (2. order) :-0.8599282E-04  (-0.1058497E-05)
 number of electron     360.9999971 magnetization 
 augmentation part      114.1834645 magnetization 

 Broyden mixing:
  rms(total) = 0.11547E-02    rms(broyden)= 0.11547E-02
  rms(prec ) = 0.13462E-02
  weight for this iteration     100.00

 eigenvalues of (default mixing * dielectric matrix)
  average eigenvalue GAMMA=   0.7277
  2.1465  2.1465  1.5902  1.0168  0.9295  0.9295  0.1049  0.3832  0.3130  0.2910
  0.2642  0.1793  0.1957  0.2037  0.2221

 Free energy of the ion-electron system (eV)
  ---------------------------------------------------
  alpha Z        PSCENC =       797.33612757
  Ewald energy   TEWEN  =    132238.67348057
  -Hartree energ DENC   =   -159637.26365234
  -exchange      EXHF   =         0.00000000
  -V(xc)+E(xc)   XCENC  =        89.69212229
  PAW double counting   =     32179.10938690   -31181.20246201
  entropy T*S    EENTRO =        -0.09524909
  eigenvalues    EBANDS =     -1087.58362517
  atomic energy  EATOM  =     26496.80315902
  Solvation  Ediel_sol  =         0.00000000
  ---------------------------------------------------
  free energy    TOTEN  =      -104.53071227 eV

  energy without entropy =     -104.43546317  energy(sigma->0) =     -104.49896257


--------------------------------------------------------------------------------------------------------




--------------------------------------- Iteration      1(  17)  ---------------------------------------


    POTLOK:  cpu time      2.5592: real time      2.5931
    SETDIJ:  cpu time      0.0050: real time      0.0050
    EDDIAG:  cpu time      2.8512: real time      2.8773
  RMM-DIIS:  cpu time      6.6037: real time      6.6565
    ORTHCH:  cpu time      0.5201: real time      0.5247
       DOS:  cpu time      0.0010: real time      0.0010
    CHARGE:  cpu time      0.7638: real time      0.7706
    MIXING:  cpu time      0.0040: real time      0.0040
    --------------------------------------------
      LOOP:  cpu time     13.3080: real time     13.4324

 eigenvalue-minimisations  :  4462
 total energy-change (2. order) :-0.5704584E-04  (-0.6939780E-06)
 number of electron     360.9999971 magnetization 
 augmentation part      114.1834388 magnetization 

 Broyden mixing:
  rms(total) = 0.53606E-03    rms(broyden)= 0.53606E-03
  rms(prec ) = 0.74151E-03
  weight for this iteration     100.00

 eigenvalues of (default mixing * dielectric matrix)
  average eigenvalue GAMMA=   0.7559
  2.3484  2.3484  1.3396  1.3396  0.9066  0.9066  0.7780  0.1049  0.3862  0.3150
  0.2650  0.2768  0.1793  0.2041  0.1957  0.2000

 Free energy of the ion-electron system (eV)
  ---------------------------------------------------
  alpha Z        PSCENC =       797.33612757
  Ewald energy   TEWEN  =    132238.67348057
  -Hartree energ DENC   =   -159637.13925794
  -exchange      EXHF   =         0.00000000
  -V(xc)+E(xc)   XCENC  =        89.69159459
  PAW double counting   =     32179.25688756   -31181.35033311
  entropy T*S    EENTRO =        -0.09525194
  eigenvalues    EBANDS =     -1087.70717564
  atomic energy  EATOM  =     26496.80315902
  Solvation  Ediel_sol  =         0.00000000
  ---------------------------------------------------
  free energy    TOTEN  =      -104.53076932 eV

  energy without entropy =     -104.43551738  energy(sigma->0) =     -104.49901867


--------------------------------------------------------------------------------------------------------




--------------------------------------- Iteration      1(  18)  ---------------------------------------


    POTLOK:  cpu time      2.4325: real time      2.4501
    SETDIJ:  cpu time      0.0058: real time      0.0058
    EDDIAG:  cpu time      2.8078: real time      2.8390
  RMM-DIIS:  cpu time      6.3332: real time      6.3825
    ORTHCH:  cpu time      0.4980: real time      0.5036
       DOS:  cpu time      0.0012: real time      0.0012
    CHARGE:  cpu time      0.7511: real time      0.7577
    MIXING:  cpu time      0.0039: real time      0.0040
    --------------------------------------------
      LOOP:  cpu time     12.8335: real time     12.9439

 eigenvalue-minimisations  :  4059
 total energy-change (2. order) :-0.5107377E-04  (-0.6806816E-06)
 number of electron     360.9999971 magnetization 
 augmentation part      114.1835028 magnetization 

 Broyden mixing:
  rms(total) = 0.45677E-03    rms(broyden)= 0.45677E-03
  rms(prec ) = 0.56558E-03
[...]
    148      -1.1314      2.00000
    149      -1.1114      2.00000
    150      -1.0710      2.00000
    151      -1.0576      2.00000
    152      -1.0339      2.00000
    153      -1.0280      2.00000
    154      -0.8944      2.00000
    155      -0.8649      2.00000
    156      -0.8010      2.00000
    157      -0.7378      2.00000
    158      -0.7152      2.00000
    159      -0.6366      2.00000
    160      -0.6199      2.00000
    161      -0.5817      2.00000
    162      -0.5153      2.00000
    163      -0.5033      2.00000
    164      -0.4982      2.00000
    165      -0.4066      2.00003
    166      -0.3926      2.00007
    167      -0.3093      2.00451
    168      -0.2934      2.00838
    169      -0.2801      2.01342
    170      -0.2730      2.01694
    171      -0.2679      2.01987
    172      -0.2377      2.04350
    173      -0.2144      2.06383
    174      -0.1771      2.05461
    175      -0.1199      1.68428
    176      -0.1104      1.56223
    177      -0.0787      1.06542
    178      -0.0653      0.84009
    179      -0.0541      0.65761
    180      -0.0517      0.62057
    181      -0.0454      0.52472
    182       0.0253     -0.05041
    183       0.1121     -0.02383
    184       0.1519     -0.00615
    185       0.1603     -0.00438
    186       0.1655     -0.00352
    187       0.1774     -0.00210
    188       0.2250     -0.00019
    189       0.2668     -0.00002
    190       0.3556     -0.00000
    191       0.4549     -0.00000
    192       1.1691     -0.00000
    193       1.3312     -0.00000
    194       1.3505     -0.00000
    195       1.5112     -0.00000
    196       1.5697     -0.00000
    197       1.6457     -0.00000
    198       1.7044     -0.00000
    199       1.7120     -0.00000
    200       2.0550     -0.00000
    201       2.2919     -0.00000
    202       2.3419     -0.00000
    203       2.5319     -0.00000
    204       2.7787      0.00000
    205       2.8028      0.00000
    206       2.8898      0.00000
    207       2.9336      0.00000
    208       3.0778      0.00000
    209       3.1916      0.00000
    210       3.2580      0.00000
    211       3.2969      0.00000
    212       3.5709      0.00000
    213       3.7073      0.00000
    214       3.7540      0.00000
    215       4.1946      0.00000
    216       4.3920      0.00000
    217       4.4297      0.00000
    218       4.6889      0.00000
    219       4.7217      0.00000
    220       5.5281      0.00000
    221       5.5584      0.00000
    222       5.5727      0.00000
    223       5.6536      0.00000
    224       5.7270      0.00000
    225       5.7975      0.00000
    226       5.8788      0.00000
    227       5.9783      0.00000
    228       6.0043      0.00000
    229       6.0115      0.00000
    230       6.0323      0.00000
    231       6.2381      0.00000
    232       6.4097      0.00000
    233       6.5574      0.00000
    234       6.6563      0.00000
    235       6.7992      0.00000
    236       6.9140      0.00000
    237       6.9238      0.00000
    238       7.1421      0.00000
    239       7.2231      0.00000
    240       7.3345      0.00000


--------------------------------------------------------------------------------------------------------


 soft charge-density along one line, spin component           1
         0         1         2         3         4         5         6         7         8         9
 total charge-density along one line
 
 pseudopotential strength for first ion, spin component:           1
 -6.580   0.001   0.000  -0.009  -0.001  -6.674   0.001   0.000
  0.001  -6.466   0.001   0.000  -0.011   0.001  -6.563   0.001
  0.000   0.001  -6.454   0.001  -0.000   0.000   0.001  -6.553
 -0.009   0.000   0.001  -6.465   0.001  -0.009   0.000   0.001
 -0.001  -0.011  -0.000   0.001  -6.579  -0.001  -0.011   0.000
 -6.674   0.001   0.000  -0.009  -0.001  -6.753   0.001   0.000
  0.001  -6.563   0.001   0.000  -0.011   0.001  -6.645   0.001
  0.000   0.001  -6.553   0.001   0.000   0.000   0.001  -6.635
 -0.009   0.000   0.001  -6.563   0.001  -0.009   0.000   0.001
 -0.001  -0.011   0.000   0.001  -6.674  -0.001  -0.010   0.000
 -0.000  -0.000  -0.035  -0.001  -0.000  -0.000  -0.000  -0.034
 -0.000  -0.001  -0.052  -0.001  -0.000  -0.000  -0.001  -0.051
 -0.000  -0.005   0.000   0.000   0.000  -0.000  -0.004   0.000
  0.000  -0.000  -0.008  -0.000   0.000   0.000  -0.000  -0.008
  0.000   0.000   0.000  -0.004  -0.000   0.000   0.000   0.000
 -0.000  -0.004   0.000   0.000   0.001  -0.000  -0.003   0.000
  0.000  -0.000  -0.008  -0.000   0.000   0.000  -0.000  -0.008
  0.000   0.000   0.000  -0.004  -0.000   0.000   0.000   0.000
 total augmentation occupancy for first ion, spin component:           1
  3.232   0.006   0.011  -0.257  -0.022  -1.901  -0.003  -0.006   0.078   0.014   0.004  -0.001   0.006  -0.001  -0.040  -0.000
  0.006   4.227   0.014   0.013  -0.264  -0.003  -2.175  -0.008  -0.006   0.091   0.008  -0.003  -0.245   0.000   0.000   0.014
  0.011   0.014   4.374   0.021   0.006  -0.006  -0.008  -2.559  -0.012  -0.004   0.842  -0.184  -0.002  -0.280  -0.003   0.000
 -0.257   0.013   0.021   4.245   0.006   0.087  -0.006  -0.012  -2.184  -0.003   0.012  -0.005   0.000   0.001  -0.245  -0.000
 -0.022  -0.264   0.006   0.006   3.258   0.014   0.083  -0.003  -0.003  -1.918   0.002  -0.000  -0.048  -0.000   0.006   0.004
 -1.901  -0.003  -0.006   0.087   0.014   2.219   0.002   0.003   0.041  -0.009  -0.003   0.001  -0.007  -0.000   0.040   0.000
 -0.003  -2.175  -0.008  -0.006   0.083   0.002   1.973   0.004   0.002   0.038  -0.005   0.001   0.236  -0.001  -0.001  -0.019
 -0.006  -0.008  -2.559  -0.012  -0.003   0.003   0.004   2.530   0.006   0.002  -0.708   0.127   0.003   0.337   0.004  -0.000
  0.078  -0.006  -0.012  -2.184  -0.003   0.041   0.002   0.006   1.976   0.002  -0.008   0.002  -0.001  -0.003   0.235   0.000
  0.014   0.091  -0.004  -0.003  -1.918  -0.009   0.038   0.002   0.002   2.229  -0.002   0.000   0.048   0.000  -0.007  -0.004
  0.004   0.008   0.842   0.012   0.002  -0.003  -0.005  -0.708  -0.008  -0.002   2.506  -0.575  -0.003   0.191  -0.005   0.000
 -0.001  -0.003  -0.184  -0.005  -0.000   0.001   0.001   0.127   0.002   0.000  -0.575   0.148   0.001  -0.068   0.001  -0.000
  0.006  -0.245  -0.002   0.000  -0.048  -0.007   0.236   0.003  -0.001   0.048  -0.003   0.001   0.254  -0.000  -0.000  -0.018
 -0.001   0.000  -0.280   0.001  -0.000  -0.000  -0.001   0.337  -0.003   0.000   0.191  -0.068  -0.000   0.142  -0.000   0.000
 -0.040   0.000  -0.003  -0.245   0.006   0.040  -0.001   0.004   0.235  -0.007  -0.005   0.001  -0.000  -0.000   0.254   0.000
 -0.000   0.014   0.000  -0.000   0.004   0.000  -0.019  -0.000   0.000  -0.004   0.000  -0.000  -0.018   0.000   0.000   0.001
  0.000  -0.000   0.008  -0.000   0.000   0.000   0.000  -0.023   0.000   0.000  -0.021   0.007   0.000  -0.011   0.000  -0.000
  0.003  -0.000   0.000   0.014  -0.000  -0.003   0.000  -0.000  -0.019   0.000   0.000  -0.000   0.000   0.000  -0.018  -0.000


------------------------ aborting loop because EDIFF is reached ----------------------------------------


    CHARGE:  cpu time      0.7607: real time      0.7672
    FORLOC:  cpu time      0.0174: real time      0.0175
    FORNL :  cpu time      2.5916: real time      2.6170
    STRESS:  cpu time      7.7787: real time      7.8510
    FORCOR:  cpu time      2.4873: real time      2.5022
    FORHAR:  cpu time      0.0159: real time      0.0160
    MIXING:  cpu time      0.0062: real time      0.0062
    OFIELD:  cpu time      0.0000: real time      0.0000

  FORCE on cell =-STRESS in cart. coord.  units (eV):
  Direction    XX          YY          ZZ          XY          YZ          ZX
  --------------------------------------------------------------------------------------
  Alpha Z   797.33613   797.33613   797.33613
  Ewald  151959.24749151984.65281************   -20.17274    -3.60775    -4.20590
  Hartree157919.16747157926.62509************    -5.88788    -1.01499    -1.29335
  E(xc)   -1657.82247 -1657.53198 -1666.89030    -0.22972    -0.05910    -0.07500
  Local  ************************321374.60822    22.10645     3.27780     3.81742
  n-local   108.34286   109.22907    86.54693    -0.60486    -0.17675    -0.11478
  augment  1892.12373  1890.43633  1954.59417     1.25640     0.60970     0.77315
  Kinetic  5212.11562  5207.43260  5370.78407     3.65566     1.05679     1.26239
  Fock        0.00000     0.00000     0.00000     0.00000     0.00000     0.00000
  -------------------------------------------------------------------------------------
  Total     -32.88935   -33.04946     2.34310     0.12331     0.08569     0.16393
  in kB     -33.98589   -34.15134     2.42122     0.12742     0.08855     0.16939
  external pressure =      -21.91 kB  Pullay stress =        0.00 kB


 VOLUME and BASIS-vectors are now :
 -----------------------------------------------------------------------------
  energy-cutoff  :      680.29
  volume of cell :     1550.48
      direct lattice vectors                 reciprocal lattice vectors
     8.468310000  0.000000000  0.000000000     0.118087316 -0.068177744  0.000000000
     4.234155000  7.333771587  0.000000000     0.000000000  0.136355488  0.000000000
     0.000000000  0.000000000 24.965661990     0.000000000  0.000000000  0.040055016

  length of vectors
     8.468310000  8.468310000 24.965661990     0.136355488  0.136355488  0.040055016


 FORCES acting on ions
    electron-ion (+dipol)            ewald-force                    non-local-force                 convergence-correction
 -----------------------------------------------------------------------------------------------
   -.383E+01 -.221E+01 0.248E+04   0.378E+01 0.218E+01 -.248E+04   0.971E-01 0.571E-01 -.130E+01   -.112E-03 -.630E-03 0.834E-03
   -.471E+00 -.397E+01 0.248E+04   0.455E+00 0.391E+01 -.247E+04   0.246E-01 0.109E+00 -.128E+01   -.719E-03 -.180E-02 0.118E-02
   0.369E+01 -.576E+01 0.248E+04   -.371E+01 0.572E+01 -.248E+04   -.177E-01 0.108E+00 -.129E+01   0.839E-03 -.558E-03 0.673E-03
   -.368E+01 0.157E+01 0.248E+04   0.362E+01 -.156E+01 -.247E+04   0.106E+00 -.313E-01 -.128E+01   -.145E-02 0.583E-03 0.922E-03
   -.107E-01 -.107E-01 0.247E+04   0.609E-02 0.495E-02 -.247E+04   -.698E-03 0.554E-03 -.130E+01   0.111E-02 0.122E-02 0.670E-03
   0.346E+01 -.222E+01 0.247E+04   -.344E+01 0.219E+01 -.247E+04   -.681E-01 0.285E-01 -.130E+01   0.323E-03 0.109E-02 0.807E-03
   -.314E+01 0.606E+01 0.248E+04   0.310E+01 -.607E+01 -.248E+04   0.835E-01 -.676E-01 -.129E+01   0.427E-03 0.704E-03 0.949E-03
   -.188E+00 0.410E+01 0.247E+04   0.175E+00 -.407E+01 -.247E+04   -.102E-01 -.720E-01 -.130E+01   0.586E-03 -.924E-05 0.136E-02
   0.371E+01 0.213E+01 0.247E+04   -.367E+01 -.211E+01 -.247E+04   -.999E-01 -.566E-01 -.128E+01   -.102E-02 -.629E-03 0.144E-02
   -.598E+01 -.348E+01 0.834E+03   0.593E+01 0.345E+01 -.833E+03   0.141E+00 0.879E-01 -.275E+00   -.430E-03 -.104E-02 0.996E-03
   0.267E+01 -.485E+01 0.834E+03   -.266E+01 0.480E+01 -.834E+03   -.561E-02 0.114E+00 -.271E+00   -.669E-04 -.908E-03 0.156E-02
   0.218E+01 -.703E+01 0.835E+03   -.221E+01 0.696E+01 -.835E+03   -.255E-01 0.178E+00 -.330E+00   0.511E-03 -.368E-04 0.586E-03
   -.286E+01 0.468E+01 0.834E+03   0.282E+01 -.466E+01 -.834E+03   0.917E-01 -.549E-01 -.271E+00   -.111E-03 0.107E-02 0.120E-02
   0.972E+00 0.474E+00 0.838E+03   -.101E+01 -.499E+00 -.838E+03   0.375E-01 0.273E-01 -.380E+00   0.103E-02 0.166E-02 0.572E-03
   0.145E+01 -.105E+01 0.835E+03   -.142E+01 0.102E+01 -.835E+03   -.807E-01 0.473E-01 -.335E+00   -.915E-03 0.112E-02 0.294E-03
   -.501E+01 0.538E+01 0.835E+03   0.494E+01 -.537E+01 -.835E+03   0.137E+00 -.104E+00 -.329E+00   0.889E-03 -.231E-03 0.734E-03
   -.779E-01 0.171E+01 0.835E+03   0.746E-01 -.167E+01 -.835E+03   -.619E-02 -.845E-01 -.334E+00   -.378E-03 -.109E-02 0.793E-03
   0.521E+01 0.293E+01 0.833E+03   -.514E+01 -.289E+01 -.832E+03   -.152E+00 -.818E-01 -.275E+00   -.510E-03 -.569E-03 0.102E-02
   -.311E+01 -.708E+00 -.825E+03   0.322E+01 0.783E+00 0.824E+03   -.101E+00 -.745E-01 0.390E+00   -.972E-04 -.946E-04 0.820E-03
   0.299E+00 0.254E+00 -.839E+03   -.306E+00 -.256E+00 0.838E+03   0.155E-01 0.417E-02 0.683E+00   0.207E-03 -.368E-03 0.151E-02
   0.282E+01 -.135E+00 -.816E+03   -.288E+01 0.158E+00 0.815E+03   0.643E-01 -.185E-01 0.455E+00   -.169E-03 -.936E-04 0.141E-02
   -.808E+00 0.199E+01 -.825E+03   0.782E+00 -.213E+01 0.824E+03   0.282E-01 0.141E+00 0.353E+00   -.992E-04 0.845E-03 0.103E-02
   0.118E+01 0.239E+01 -.816E+03   -.119E+01 -.245E+01 0.816E+03   0.176E-01 0.645E-01 0.455E+00   0.274E-03 0.777E-03 0.103E-02
   -.874E-01 -.198E+00 -.814E+03   0.102E+00 0.208E+00 0.813E+03   -.150E-01 -.952E-02 0.555E+00   -.275E-03 0.940E-03 0.189E-03
   0.790E+00 0.486E+00 -.812E+03   -.792E+00 -.487E+00 0.811E+03   0.411E-02 -.881E-03 0.540E+00   -.351E-04 -.657E-03 0.127E-02
   -.230E+01 -.206E+01 -.825E+03   0.241E+01 0.212E+01 0.825E+03   -.111E+00 -.566E-01 0.389E+00   0.253E-03 -.911E-03 0.577E-03
   0.131E+01 -.169E+01 -.825E+03   -.144E+01 0.174E+01 0.824E+03   0.143E+00 -.439E-01 0.355E+00   -.239E-03 -.570E-03 0.119E-02
   -.934E+00 -.318E+00 -.245E+04   0.650E+00 0.159E+00 0.245E+04   0.288E+00 0.160E+00 0.131E+01   -.851E-04 -.645E-03 0.538E-03
   -.162E+01 0.217E+02 -.246E+04   0.170E+01 -.216E+02 0.246E+04   -.673E-01 -.953E-01 0.152E-01   0.475E-03 -.287E-03 0.467E-03
   -.504E+00 0.181E+00 -.245E+04   0.621E+00 -.216E+00 0.245E+04   -.112E+00 0.325E-01 0.121E+01   -.318E-03 -.562E-03 0.451E-03
   0.179E+02 -.122E+02 -.246E+04   -.178E+02 0.122E+02 0.246E+04   -.119E+00 -.174E-01 0.265E-02   0.478E-03 0.274E-03 0.878E-03
   -.668E+01 -.421E+01 -.245E+04   0.775E+01 0.483E+01 0.245E+04   -.108E+01 -.618E+00 0.121E+01   -.275E-03 -.102E-03 0.660E-03
   -.755E+00 -.337E+00 -.245E+04   0.781E+00 0.326E+00 0.245E+04   -.224E-01 0.744E-02 0.117E+01   -.261E-03 0.626E-04 0.598E-03
   -.566E+00 -.309E+00 -.245E+04   0.584E+00 0.440E+00 0.245E+04   -.119E-01 -.129E+00 0.121E+01   -.898E-04 0.303E-03 0.338E-03
   -.401E+00 -.561E+00 -.245E+04   0.405E+00 0.595E+00 0.245E+04   -.583E-02 -.340E-01 0.117E+01   -.114E-03 0.323E-03 0.171E-03
   0.119E+01 0.533E+00 -.245E+04   -.114E+01 -.502E+00 0.245E+04   -.504E-01 -.318E-01 0.120E+01   0.167E-03 0.706E-03 0.402E-03
   -.441E+01 -.251E+01 -.310E+03   0.485E+01 0.275E+01 0.311E+03   -.439E+00 -.247E+00 -.148E+01   0.274E-04 -.352E-04 -.125E-03
 -----------------------------------------------------------------------------------------------
   0.136E+01 0.770E+00 0.326E+01   0.364E-13 0.959E-13 0.284E-11   -.132E+01 -.761E+00 -.324E+01   -.172E-03 -.150E-03 0.300E-01
 
 
 POSITION                                       TOTAL-FORCE (eV/Angst)
 -----------------------------------------------------------------------------------
      0.00000      0.00000      8.50000         0.048097      0.026916     -0.132706
      2.82843      0.00000      8.50000         0.006848      0.047554     -0.082351
      5.65685      0.00000      8.50000        -0.046058      0.070531     -0.140772
      1.41421      2.44949      8.50000         0.045478     -0.019708     -0.082184
      4.24264      2.44949      8.50000        -0.005197     -0.004162     -0.063568
      7.07107      2.44949      8.50000        -0.054666      0.002601     -0.083778
      2.82843      4.89898      8.50000         0.039086     -0.076742     -0.140882
      5.65685      4.89898      8.50000        -0.023847     -0.050392     -0.083383
      8.48528      4.89898      8.50000        -0.066415     -0.039711     -0.090299
      1.41421      0.81650     10.80940         0.088854      0.055401      0.160940
      4.24264      0.81650     10.80940        -0.000119      0.065961      0.130130
      7.07107      0.81650     10.80940        -0.057827      0.110240      0.034592
      2.82843      3.26599     10.80940         0.054557     -0.028219      0.129702
      5.65685      3.26599     10.80940         0.001920      0.004524      0.054968
      8.48528      3.26599     10.80940        -0.051837      0.022776      0.130008
      4.24264      5.71548     10.80940         0.063641     -0.101226      0.034949
      7.07107      5.71548     10.80940        -0.010812     -0.049975      0.130365
      9.89949      5.71548     10.80940        -0.080001     -0.042076      0.052453
      8.49874      1.65135     13.10278         0.002359      0.000744      0.002794
      2.84537      1.64555     13.12147         0.007811      0.001791     -0.000052
      5.66853      1.64767     13.09271         0.004427      0.003922     -0.000668
      9.90460      4.08494     13.10455         0.001146      0.001987      0.002039
      4.25880      4.08893     13.09288         0.005339      0.003279      0.002133
      7.08275      4.09208     13.08895        -0.002015      0.000680      0.000545
     11.31579      6.53580     13.08343         0.001582     -0.002313      0.002823
      5.67624      6.53961     13.10288         0.001462      0.002024      0.002132
      8.48669      6.53919     13.10464         0.004916      0.004292      0.003371
      0.02054      0.01613     15.41133         0.003333      0.000162      0.001722
      2.86710      0.00143     15.49227         0.009448     -0.005135      0.001817
      5.69083      0.02246     15.41677         0.004252     -0.003269      0.003739
      9.90009      2.48860     15.49108         0.003632      0.004602      0.004744
      4.30521      2.48873     15.45122        -0.002279     -0.001101     -0.001156
      7.09386      2.46902     15.41904         0.002919     -0.003869      0.003559
      2.86077      4.92399     15.41725         0.005087      0.002379      0.002271
      5.68214      4.91438     15.41880        -0.002539      0.000700      0.002916
      8.50720      4.91520     15.42177        -0.002617     -0.001245      0.003089
      2.64308      1.53180     16.39802         0.000035     -0.003924      0.003997
 -----------------------------------------------------------------------------------
    total drift:                                0.037096      0.008383      0.049495


--------------------------------------------------------------------------------------------------------



  FREE ENERGIE OF THE ION-ELECTRON SYSTEM (eV)
  ---------------------------------------------------
  free  energy   TOTEN  =      -104.53093150 eV

  energy  without entropy=     -104.43567546  energy(sigma->0) =     -104.49917949
 


--------------------------------------------------------------------------------------------------------


    POTLOK:  cpu time      2.4601: real time      2.4888


--------------------------------------------------------------------------------------------------------


 writing wavefunctions
     LOOP+:  cpu time    357.6880: real time    362.8041
    4ORBIT:  cpu time      0.0000: real time      0.0000

 total amount of memory used by VASP MPI-rank0   148535. kBytes
=======================================================================

   base      :      30000. kBytes
   nonlr-proj:      22462. kBytes
   fftplans  :       5213. kBytes
   grid      :      24541. kBytes
   one-center:        575. kBytes
   wavefun   :      65744. kBytes
 
  
  
 General timing and accounting informations for this job:
 ========================================================
  
                  Total CPU time used (sec):      370.655
                            User time (sec):      365.679
                          System time (sec):        4.976
                         Elapsed time (sec):      381.227
  
                   Maximum memory used (kb):      633512.
                   Average memory used (kb):          N/A
  
                          Minor page faults:       484072
                          Major page faults:          683
                 Voluntary context switches:         5937
