unknown system                          
           1
     8.468310    0.000000    0.000000
     4.234155    7.333772    0.000000
     0.000000    0.000000   24.965662
   Pt   H 
    36     1
Direct configuration=     1
   0.00000000  0.00000000  0.34046764
   0.33400137  0.00000000  0.34046764
   0.66800274  0.00000000  0.34046764
   0.00000000  0.33400137  0.34046764
   0.33400137  0.33400137  0.34046764
   0.66800274  0.33400137  0.34046764
   0.00000000  0.66800274  0.34046764
   0.33400137  0.66800274  0.34046764
   0.66800274  0.66800274  0.34046764
   0.11133379  0.11133379  0.43297074
   0.44533516  0.11133379  0.43297074
   0.77933653  0.11133379  0.43297074
   0.11133379  0.44533516  0.43297074
   0.44533516  0.44533516  0.43297074
   0.77933653  0.44533516  0.43297074
   0.11133379  0.77933653  0.43297074
   0.44533516  0.77933653  0.43297074
   0.77933653  0.77933653  0.43297074
   0.89100803  0.22517024  0.52483207
   0.22381222  0.22438037  0.52558058
   0.55704682  0.22466952  0.52442888
   0.89110627  0.55700331  0.52490301
   0.22413588  0.55754769  0.52443548
   0.55739424  0.55797754  0.52427806
   0.89065461  0.89119282  0.52405715
   0.22443670  0.89171105  0.52483604
   0.55634303  0.89165411  0.52490647
   0.00132599  0.00219982  0.61730113
   0.33847057  0.00019451  0.62054295
   0.67048346  0.00306223  0.61751898
   0.99940829  0.33933395  0.62049528
   0.33871450  0.33935231  0.61889889
   0.66936291  0.33666493  0.61760987
   0.00211417  0.67141327  0.61753807
   0.33593742  0.67010226  0.61760017
   0.66948549  0.67021409  0.61771940
   0.20767915  0.20886939  0.65682312
