  37  37   0   0
  0.4190497E+02  0.8468310E-09  0.8468310E-09  0.2496566E-08  0.5000000E-15
  1.000000000000000E-004
  CAR 
 unknown system                          
      8.80895648     -9.89285633  301     -0.06852938      1.00000000
     -9.893  0.0000E+00  0.0000E+00
     -9.831  0.0000E+00  0.0000E+00
     -9.768  0.0000E+00  0.0000E+00
     -9.706 -0.5815E-28 -0.3625E-29
     -9.643 -0.9187E-24 -0.5728E-25
     -9.581 -0.6626E-20 -0.4131E-21
     -9.519 -0.2178E-16 -0.1358E-17
     -9.456 -0.3159E-13 -0.1971E-14
     -9.394 -0.2126E-10 -0.1327E-11
     -9.332 -0.6448E-08 -0.4033E-09
     -9.269 -0.8730E-06 -0.5483E-07
     -9.207 -0.5192E-04 -0.3291E-05
     -9.145 -0.1311E-02 -0.8501E-04
     -9.082 -0.1286E-01 -0.8868E-03
     -9.020 -0.3351E-01 -0.2976E-02
     -8.958  0.8431E-01  0.2281E-02
     -8.895  0.3670E+00  0.2516E-01
     -8.833  0.7091E+00  0.6937E-01
     -8.771  0.2426E+01  0.2206E+00
     -8.708  0.3800E+01  0.4575E+00
     -8.646  0.1742E+01  0.5661E+00
     -8.584 -0.1982E+00  0.5537E+00
     -8.521  0.5327E+00  0.5869E+00
     -8.459  0.3020E+01  0.7752E+00
     -8.397  0.3739E+01  0.1008E+01
     -8.334  0.3602E+01  0.1233E+01
     -8.272  0.3543E+01  0.1454E+01
     -8.210  0.1317E+01  0.1536E+01
     -8.147 -0.1579E+00  0.1526E+01
     -8.085 -0.3840E+00  0.1502E+01
     -8.023 -0.1371E+00  0.1493E+01
     -7.960  0.3147E+01  0.1690E+01
     -7.898  0.7451E+01  0.2154E+01
     -7.836  0.4909E+01  0.2460E+01
     -7.773  0.5972E+00  0.2497E+01
     -7.711  0.1773E+01  0.2608E+01
     -7.649  0.4112E+01  0.2864E+01
     -7.586  0.2845E+01  0.3042E+01
     -7.524  0.2652E+01  0.3207E+01
     -7.462  0.3373E+01  0.3417E+01
     -7.399  0.1352E+01  0.3501E+01
     -7.337  0.2129E+01  0.3634E+01
     -7.275  0.7758E+01  0.4118E+01
     -7.212  0.1171E+02  0.4848E+01
     -7.150  0.9469E+01  0.5438E+01
     -7.088  0.5336E+01  0.5771E+01
     -7.025  0.3591E+01  0.5994E+01
     -6.963  0.3674E+01  0.6223E+01
     -6.901  0.2557E+01  0.6383E+01
     -6.838  0.1967E+01  0.6505E+01
     -6.776  0.3083E+01  0.6698E+01
     -6.714  0.4319E+01  0.6967E+01
     -6.651  0.1025E+02  0.7606E+01
     -6.589  0.1676E+02  0.8651E+01
     -6.527  0.1640E+02  0.9674E+01
     -6.464  0.1263E+02  0.1046E+02
     -6.402  0.9688E+01  0.1106E+02
     -6.340  0.9463E+01  0.1165E+02
     -6.277  0.1409E+02  0.1253E+02
     -6.215  0.1942E+02  0.1374E+02
     -6.152  0.2660E+02  0.1540E+02
     -6.090  0.3581E+02  0.1763E+02
     -6.028  0.3419E+02  0.1977E+02
     -5.965  0.3144E+02  0.2173E+02
     -5.903  0.3395E+02  0.2384E+02
     -5.841  0.3382E+02  0.2595E+02
     -5.778  0.2708E+02  0.2764E+02
     -5.716  0.2464E+02  0.2917E+02
     -5.654  0.3499E+02  0.3136E+02
     -5.591  0.4371E+02  0.3408E+02
     -5.529  0.4451E+02  0.3686E+02
     -5.467  0.4912E+02  0.3992E+02
     -5.404  0.5953E+02  0.4363E+02
     -5.342  0.6336E+02  0.4758E+02
     -5.280  0.5724E+02  0.5115E+02
     -5.217  0.4738E+02  0.5410E+02
     -5.155  0.4369E+02  0.5682E+02
     -5.093  0.4852E+02  0.5985E+02
     -5.030  0.6858E+02  0.6412E+02
     -4.968  0.6721E+02  0.6831E+02
     -4.906  0.3550E+02  0.7053E+02
     -4.843  0.2487E+02  0.7208E+02
     -4.781  0.4127E+02  0.7465E+02
     -4.719  0.4247E+02  0.7730E+02
     -4.656  0.2379E+02  0.7878E+02
     -4.594  0.2000E+02  0.8003E+02
     -4.532  0.3722E+02  0.8235E+02
     -4.469  0.5651E+02  0.8587E+02
     -4.407  0.6188E+02  0.8973E+02
     -4.345  0.5288E+02  0.9302E+02
     -4.282  0.4489E+02  0.9582E+02
     -4.220  0.4278E+02  0.9849E+02
     -4.158  0.4821E+02  0.1015E+03
     -4.095  0.5976E+02  0.1052E+03
     -4.033  0.5770E+02  0.1088E+03
     -3.971  0.4678E+02  0.1117E+03
     -3.908  0.4325E+02  0.1144E+03
     -3.846  0.4104E+02  0.1170E+03
     -3.784  0.3566E+02  0.1192E+03
     -3.721  0.4167E+02  0.1218E+03
     -3.659  0.5927E+02  0.1255E+03
     -3.597  0.6176E+02  0.1294E+03
     -3.534  0.5571E+02  0.1328E+03
     -3.472  0.5761E+02  0.1364E+03
     -3.410  0.6893E+02  0.1407E+03
     -3.347  0.7694E+02  0.1455E+03
     -3.285  0.7357E+02  0.1501E+03
     -3.223  0.6819E+02  0.1543E+03
     -3.160  0.7492E+02  0.1590E+03
     -3.098  0.8831E+02  0.1645E+03
     -3.036  0.8380E+02  0.1697E+03
     -2.973  0.7681E+02  0.1745E+03
     -2.911  0.7641E+02  0.1793E+03
     -2.849  0.7361E+02  0.1839E+03
     -2.786  0.8750E+02  0.1893E+03
     -2.724  0.1049E+03  0.1959E+03
     -2.661  0.1011E+03  0.2022E+03
     -2.599  0.7576E+02  0.2069E+03
     -2.537  0.6076E+02  0.2107E+03
     -2.474  0.6662E+02  0.2148E+03
     -2.412  0.6069E+02  0.2186E+03
     -2.350  0.3986E+02  0.2211E+03
     -2.287  0.2649E+02  0.2228E+03
     -2.225  0.2838E+02  0.2245E+03
     -2.163  0.3434E+02  0.2267E+03
     -2.100  0.4653E+02  0.2296E+03
     -2.038  0.6895E+02  0.2339E+03
     -1.976  0.8937E+02  0.2394E+03
     -1.913  0.9061E+02  0.2451E+03
     -1.851  0.7398E+02  0.2497E+03
     -1.789  0.5450E+02  0.2531E+03
     -1.726  0.4554E+02  0.2559E+03
     -1.664  0.4400E+02  0.2587E+03
     -1.602  0.4725E+02  0.2616E+03
     -1.539  0.5611E+02  0.2651E+03
     -1.477  0.5906E+02  0.2688E+03
     -1.415  0.5850E+02  0.2725E+03
     -1.352  0.6083E+02  0.2763E+03
     -1.290  0.5632E+02  0.2798E+03
     -1.228  0.4932E+02  0.2828E+03
     -1.165  0.6004E+02  0.2866E+03
     -1.103  0.7865E+02  0.2915E+03
     -1.041  0.8574E+02  0.2968E+03
     -0.978  0.8071E+02  0.3019E+03
     -0.916  0.6365E+02  0.3058E+03
     -0.854  0.5596E+02  0.3093E+03
     -0.791  0.5494E+02  0.3127E+03
     -0.729  0.4558E+02  0.3156E+03
     -0.667  0.4372E+02  0.3183E+03
     -0.604  0.5914E+02  0.3220E+03
     -0.542  0.6546E+02  0.3261E+03
     -0.480  0.5918E+02  0.3298E+03
     -0.417  0.6154E+02  0.3336E+03
     -0.355  0.7509E+02  0.3383E+03
     -0.293  0.9223E+02  0.3440E+03
     -0.230  0.8588E+02  0.3494E+03
     -0.168  0.6035E+02  0.3531E+03
     -0.106  0.6918E+02  0.3575E+03
     -0.043  0.9719E+02  0.3635E+03
      0.019  0.7567E+02  0.3682E+03
      0.081  0.3689E+02  0.3705E+03
      0.144  0.4356E+02  0.3733E+03
      0.206  0.5844E+02  0.3769E+03
      0.268  0.4642E+02  0.3798E+03
      0.331  0.3900E+02  0.3822E+03
      0.393  0.3200E+02  0.3842E+03
      0.455  0.1849E+02  0.3854E+03
      0.518  0.7568E+01  0.3858E+03
      0.580  0.3263E+01  0.3860E+03
      0.642  0.4857E+01  0.3863E+03
      0.705  0.8535E+01  0.3869E+03
      0.767  0.1323E+02  0.3877E+03
      0.830  0.1272E+02  0.3885E+03
      0.892  0.8503E+01  0.3890E+03
      0.954  0.1056E+02  0.3897E+03
      1.017  0.1141E+02  0.3904E+03
      1.079  0.5509E+01  0.3907E+03
      1.141  0.4365E+01  0.3910E+03
      1.204  0.9367E+01  0.3916E+03
      1.266  0.1229E+02  0.3924E+03
      1.328  0.1184E+02  0.3931E+03
      1.391  0.9933E+01  0.3937E+03
      1.453  0.1026E+02  0.3944E+03
      1.515  0.2261E+02  0.3958E+03
      1.578  0.2803E+02  0.3975E+03
      1.640  0.2056E+02  0.3988E+03
      1.702  0.1669E+02  0.3998E+03
      1.765  0.1174E+02  0.4006E+03
      1.827  0.3281E+01  0.4008E+03
      1.889  0.3213E+01  0.4010E+03
      1.952  0.7256E+01  0.4014E+03
      2.014  0.6580E+01  0.4018E+03
      2.076  0.3954E+01  0.4021E+03
      2.139  0.3435E+01  0.4023E+03
      2.201  0.7041E+01  0.4027E+03
      2.263  0.1069E+02  0.4034E+03
      2.326  0.1237E+02  0.4042E+03
      2.388  0.1468E+02  0.4051E+03
      2.450  0.2050E+02  0.4064E+03
      2.513  0.2096E+02  0.4077E+03
      2.575  0.1147E+02  0.4084E+03
      2.637  0.6456E+01  0.4088E+03
      2.700  0.7725E+01  0.4093E+03
      2.762  0.1308E+02  0.4101E+03
      2.824  0.1761E+02  0.4112E+03
      2.887  0.1512E+02  0.4121E+03
      2.949  0.1145E+02  0.4128E+03
      3.011  0.8899E+01  0.4134E+03
      3.074  0.1245E+02  0.4142E+03
      3.136  0.1540E+02  0.4151E+03
      3.198  0.1138E+02  0.4158E+03
      3.261  0.8945E+01  0.4164E+03
      3.323  0.8047E+01  0.4169E+03
      3.385  0.6321E+01  0.4173E+03
      3.448  0.5839E+01  0.4177E+03
      3.510  0.7038E+01  0.4181E+03
      3.572  0.8690E+01  0.4186E+03
      3.635  0.1384E+02  0.4195E+03
      3.697  0.2103E+02  0.4208E+03
      3.759  0.2039E+02  0.4221E+03
      3.822  0.1210E+02  0.4228E+03
      3.884  0.5225E+01  0.4232E+03
      3.946  0.4507E+01  0.4234E+03
      4.009  0.7408E+01  0.4239E+03
      4.071  0.9671E+01  0.4245E+03
      4.134  0.7964E+01  0.4250E+03
      4.196  0.3458E+01  0.4252E+03
      4.258  0.2217E+01  0.4254E+03
      4.321  0.5795E+01  0.4257E+03
      4.383  0.1676E+02  0.4268E+03
      4.445  0.2697E+02  0.4284E+03
      4.508  0.2098E+02  0.4298E+03
      4.570  0.9801E+01  0.4304E+03
      4.632  0.7344E+01  0.4308E+03
      4.695  0.9407E+01  0.4314E+03
      4.757  0.1188E+02  0.4322E+03
      4.819  0.1050E+02  0.4328E+03
      4.882  0.6991E+01  0.4332E+03
      4.944  0.8420E+01  0.4338E+03
      5.006  0.1430E+02  0.4347E+03
      5.069  0.1168E+02  0.4354E+03
      5.131  0.8069E+01  0.4359E+03
      5.193  0.1212E+02  0.4366E+03
      5.256  0.1401E+02  0.4375E+03
      5.318  0.1221E+02  0.4383E+03
      5.380  0.7263E+01  0.4387E+03
      5.443  0.7087E+01  0.4392E+03
      5.505  0.1682E+02  0.4402E+03
      5.567  0.2272E+02  0.4416E+03
      5.630  0.2106E+02  0.4430E+03
      5.692  0.2204E+02  0.4443E+03
      5.754  0.2507E+02  0.4459E+03
      5.817  0.2009E+02  0.4471E+03
      5.879  0.1376E+02  0.4480E+03
      5.941  0.1867E+02  0.4492E+03
      6.004  0.2996E+02  0.4510E+03
      6.066  0.3210E+02  0.4530E+03
      6.128  0.1983E+02  0.4543E+03
      6.191  0.1120E+02  0.4550E+03
      6.253  0.1671E+02  0.4560E+03
      6.315  0.2719E+02  0.4577E+03
      6.378  0.3015E+02  0.4596E+03
      6.440  0.1928E+02  0.4608E+03
      6.502  0.1206E+02  0.4615E+03
      6.565  0.1930E+02  0.4627E+03
      6.627  0.2871E+02  0.4645E+03
      6.689  0.3048E+02  0.4664E+03
      6.752  0.2807E+02  0.4682E+03
      6.814  0.1939E+02  0.4694E+03
      6.876  0.1333E+02  0.4702E+03
      6.939  0.1707E+02  0.4713E+03
      7.001  0.1780E+02  0.4724E+03
      7.063  0.1396E+02  0.4733E+03
      7.126  0.1711E+02  0.4743E+03
      7.188  0.2338E+02  0.4758E+03
      7.250  0.2355E+02  0.4773E+03
      7.313  0.1483E+02  0.4782E+03
      7.375  0.4912E+01  0.4785E+03
      7.437  0.1063E+01  0.4785E+03
      7.500  0.3771E+01  0.4788E+03
      7.562  0.7046E+01  0.4792E+03
      7.625  0.7165E+01  0.4797E+03
      7.687  0.3835E+01  0.4799E+03
      7.749  0.6482E+00  0.4799E+03
      7.812  0.2932E+00  0.4800E+03
      7.874  0.4511E+00  0.4800E+03
      7.936  0.1126E+00  0.4800E+03
      7.999 -0.3126E-01  0.4800E+03
      8.061 -0.1279E-01  0.4800E+03
      8.123 -0.1310E-02  0.4800E+03
      8.186 -0.5191E-04  0.4800E+03
      8.248 -0.8730E-06  0.4800E+03
      8.310 -0.6448E-08  0.4800E+03
      8.373 -0.2126E-10  0.4800E+03
      8.435 -0.3163E-13  0.4800E+03
      8.497  0.0000E+00  0.4800E+03
      8.560  0.0000E+00  0.4800E+03
      8.622  0.0000E+00  0.4800E+03
      8.684  0.0000E+00  0.4800E+03
      8.747  0.0000E+00  0.4800E+03
      8.809  0.0000E+00  0.4800E+03
