   37   37    1    1
  0.4190497E+02  0.8468310E-09  0.8468310E-09  0.2496566E-08  0.5000000E-15
  1.000000000000000E-004
  CAR 
 unknown system                          
    361     13    240
 
  0.1276756E-14  0.1276756E-14  0.1276756E-14  0.4000000E-01
      1         -8.892856   1.000000
      2         -7.645620   1.000000
      3         -6.669534   1.000000
      4         -6.495723   1.000000
      5         -6.471887   1.000000
      6         -6.467616   1.000000
      7         -6.457498   1.000000
      8         -6.454339   1.000000
      9         -6.446836   1.000000
     10         -6.440849   1.000000
     11         -6.036292   1.000000
     12         -5.919962   1.000000
     13         -5.916775   1.000000
     14         -5.909631   1.000000
     15         -5.904065   1.000000
     16         -5.902056   1.000000
     17         -5.714786   1.000000
     18         -5.468692   1.000000
     19         -5.454940   1.000000
     20         -5.452693   1.000000
     21         -5.449866   1.000000
     22         -5.444757   1.000000
     23         -5.365386   1.000000
     24         -5.234955   1.000000
     25         -5.228612   1.000000
     26         -5.226216   1.000000
     27         -5.221339   1.000000
     28         -5.216073   1.000000
     29         -5.107625   1.000000
     30         -5.024498   1.000000
     31         -5.022115   1.000000
     32         -5.016386   1.000000
     33         -5.014942   1.000000
     34         -5.007191   1.000000
     35         -4.979522   1.000000
     36         -4.977791   1.000000
     37         -4.963766   1.000000
     38         -4.962149   1.000000
     39         -4.936833   1.000000
     40         -4.921666   1.000000
     41         -4.758424   1.000000
     42         -4.376600   1.000000
     43         -4.374621   1.000000
     44         -4.365362   1.000000
     45         -4.342266   1.000000
     46         -4.317942   1.000000
     47         -4.313484   1.000000
     48         -4.306426   1.000000
     49         -4.298180   1.000000
     50         -4.295279   1.000000
     51         -4.181847   1.000000
     52         -4.138155   1.000000
     53         -4.114976   1.000000
     54         -4.047284   1.000000
     55         -3.978525   1.000000
     56         -3.578072   1.000000
     57         -3.575556   1.000000
     58         -3.562358   1.000000
     59         -3.561449   1.000000
     60         -3.559196   1.000000
     61         -3.513285   1.000000
     62         -3.485583   1.000000
     63         -3.379275   1.000000
     64         -3.375313   1.000000
     65         -3.373749   1.000000
     66         -3.366934   1.000000
     67         -3.362235   1.000000
     68         -3.359584   1.000000
     69         -3.340524   1.000000
     70         -3.327463   1.000000
     71         -3.312947   1.000000
     72         -3.309904   1.000000
     73         -3.299768   1.000000
     74         -3.295273   1.000000
     75         -3.267371   1.000000
     76         -3.266093   1.000000
     77         -3.234335   1.000000
     78         -3.153098   1.000000
     79         -3.148805   1.000000
     80         -3.139732   1.000000
     81         -3.132964   1.000000
     82         -3.129172   1.000000
     83         -3.091166   1.000000
     84         -2.940413   1.000000
     85         -2.933162   1.000000
     86         -2.929814   1.000000
     87         -2.927478   1.000000
     88         -2.914579   1.000000
     89         -2.907832   1.000000
     90         -2.903955   1.000000
     91         -2.895725   1.000000
     92         -2.828220   1.000000
     93         -2.814277   1.000000
     94         -2.766188   1.000000
     95         -2.753925   1.000000
     96         -2.738215   1.000000
     97         -2.728431   1.000000
     98         -2.717293   1.000000
     99         -2.685262   1.000000
    100         -2.681006   1.000000
    101         -2.638022   1.000000
    102         -2.532217   1.000000
    103         -2.525862   1.000000
    104         -2.513648   1.000000
    105         -2.501114   1.000000
    106         -2.499664   1.000000
    107         -2.494944   1.000000
    108         -2.210184   1.000000
    109         -2.016811   1.000000
    110         -2.007461   1.000000
    111         -1.996426   1.000000
    112         -1.993910   1.000000
    113         -1.985937   1.000000
    114         -1.982602   1.000000
    115         -1.981055   1.000000
    116         -1.962184   1.000000
    117         -1.948122   1.000000
    118         -1.946339   1.000000
    119         -1.943746   1.000000
    120         -1.871852   1.000000
    121         -1.855144   1.000000
    122         -1.821949   1.000000
    123         -1.733353   1.000000
    124         -1.724531   1.000000
    125         -1.708924   1.000000
    126         -1.704180   1.000000
    127         -1.703040   1.000000
    128         -1.593737   1.000000
    129         -1.591212   1.000000
    130         -1.531394   1.000000
    131         -1.530236   1.000000
    132         -1.511335   1.000000
    133         -1.499779   1.000000
    134         -1.383684   1.000000
    135         -1.287027   1.000000
    136         -1.263132   1.000000
    137         -1.262606   1.000000
    138         -1.248054   1.000000
    139         -1.247865   1.000000
    140         -1.242725   1.000000
    141         -1.178142   1.000000
    142         -1.175497   1.000000
    143         -1.028497   1.000000
    144         -1.023132   1.000000
    145         -1.016840   1.000000
    146         -1.012698   1.000000
    147         -1.010085   1.000000
    148         -0.951708   1.000000
    149         -0.866606   1.000000
    150         -0.856960   1.000000
    151         -0.836035   1.000000
    152         -0.827406   1.000000
    153         -0.824587   1.000000
    154         -0.817013   1.000000
    155         -0.806299   1.000000
    156         -0.797650   1.000000
    157         -0.797098   1.000000
    158         -0.793636   1.000000
    159         -0.788564   1.000000
    160         -0.714860   1.000000
    161         -0.695459   1.000000
    162         -0.681570   1.000000
    163         -0.668365   1.000000
    164         -0.663073   1.000000
    165         -0.655800   1.000000
    166         -0.639112   1.000000
    167         -0.636280   1.000000
    168         -0.595676   1.000000
    169         -0.588500   1.000000
    170         -0.558766   1.000000
    171         -0.553864   1.000000
    172         -0.549616   1.000000
    173         -0.538982   1.000000
    174         -0.534109   1.000000
    175         -0.530324   1.000000
    176         -0.450391   1.000000
    177         -0.441532   1.000001
    178         -0.435942   1.000001
    179         -0.431723   1.000002
    180         -0.430297   1.000002
    181         -0.423332   1.000003
    182         -0.417959   1.000005
    183         -0.344311   1.000339
    184         -0.323356   1.000931
    185         -0.314320   1.001395
    186         -0.313596   1.001439
    187         -0.305562   1.002026
    188         -0.300247   1.002520
    189         -0.106845   0.799374
    190         -0.099086   0.745694
    191         -0.016079   0.116742
    192         -0.004682   0.063469
    193          0.009751   0.014483
    194          0.014865   0.001772
    195          0.015482   0.000390
    196          0.019959  -0.008691
    197          0.410521  -0.000000
    198          0.820222  -0.000000
    199          0.878458  -0.000000
    200          0.888069  -0.000000
    201          0.905079  -0.000000
    202          0.908802  -0.000000
    203          0.909855  -0.000000
    204          2.575179  -0.000000
    205          3.178397   0.000000
    206          3.186143   0.000000
    207          3.213335   0.000000
    208          3.219376   0.000000
    209          3.236356   0.000000
    210          4.430802   0.000000
    211          4.754664   0.000000
    212          4.784255   0.000000
    213          4.821401   0.000000
    214          4.823242   0.000000
    215          4.828243   0.000000
    216          4.871429   0.000000
    217          4.982403   0.000000
    218          5.106388   0.000000
    219          5.493455   0.000000
    220          5.523402   0.000000
    221          5.812065   0.000000
    222          5.820250   0.000000
    223          5.849460   0.000000
    224          5.857569   0.000000
    225          5.866467   0.000000
    226          6.156404   0.000000
    227          6.467665   0.000000
    228          6.617975   0.000000
    229          6.630899   0.000000
    230          6.634296   0.000000
    231          6.779522   0.000000
    232          6.903366   0.000000
    233          7.129984   0.000000
    234          7.138595   0.000000
    235          7.157418   0.000000
    236          7.163601   0.000000
    237          7.165112   0.000000
    238          7.173423   0.000000
    239          7.303152   0.000000
    240          7.808956   0.000000
 
  0.2000000E+00  0.1278043E-14  0.1276756E-14  0.8000000E-01
      1         -8.744708   1.000000
      2         -7.502824   1.000000
      3         -6.981046   1.000000
      4         -6.608069   1.000000
      5         -6.563863   1.000000
      6         -6.491704   1.000000
      7         -6.350833   1.000000
      8         -6.284044   1.000000
      9         -6.234096   1.000000
     10         -6.219274   1.000000
     11         -6.092013   1.000000
     12         -6.006264   1.000000
     13         -5.909771   1.000000
     14         -5.845008   1.000000
     15         -5.840671   1.000000
     16         -5.828403   1.000000
     17         -5.661087   1.000000
     18         -5.543605   1.000000
     19         -5.421605   1.000000
     20         -5.414885   1.000000
     21         -5.407921   1.000000
     22         -5.369531   1.000000
     23         -5.330598   1.000000
     24         -5.312405   1.000000
     25         -5.272987   1.000000
     26         -5.247866   1.000000
     27         -5.227962   1.000000
     28         -5.213943   1.000000
     29         -5.153646   1.000000
     30         -5.120392   1.000000
     31         -5.106639   1.000000
     32         -5.033236   1.000000
     33         -5.017397   1.000000
     34         -5.007864   1.000000
     35         -5.001076   1.000000
     36         -4.866471   1.000000
     37         -4.805674   1.000000
     38         -4.797191   1.000000
     39         -4.779736   1.000000
     40         -4.755294   1.000000
     41         -4.711596   1.000000
     42         -4.499028   1.000000
     43         -4.496585   1.000000
     44         -4.471967   1.000000
     45         -4.424722   1.000000
     46         -4.409820   1.000000
     47         -4.390033   1.000000
     48         -4.308383   1.000000
     49         -4.215643   1.000000
     50         -4.163771   1.000000
     51         -4.123273   1.000000
     52         -4.113894   1.000000
     53         -4.088153   1.000000
     54         -4.055870   1.000000
     55         -3.989411   1.000000
     56         -3.834587   1.000000
     57         -3.741038   1.000000
     58         -3.728124   1.000000
     59         -3.679459   1.000000
     60         -3.658883   1.000000
     61         -3.632879   1.000000
     62         -3.585039   1.000000
     63         -3.563011   1.000000
     64         -3.547174   1.000000
     65         -3.527233   1.000000
     66         -3.520387   1.000000
     67         -3.475666   1.000000
     68         -3.451725   1.000000
     69         -3.405030   1.000000
     70         -3.374757   1.000000
     71         -3.362720   1.000000
     72         -3.331612   1.000000
     73         -3.268632   1.000000
     74         -3.261232   1.000000
     75         -3.248736   1.000000
     76         -3.185800   1.000000
     77         -3.180888   1.000000
     78         -3.143994   1.000000
     79         -3.123660   1.000000
     80         -3.089750   1.000000
     81         -3.074947   1.000000
     82         -3.066764   1.000000
     83         -3.037336   1.000000
     84         -2.992865   1.000000
     85         -2.966616   1.000000
     86         -2.952190   1.000000
     87         -2.945984   1.000000
     88         -2.936929   1.000000
     89         -2.915178   1.000000
     90         -2.899590   1.000000
     91         -2.857167   1.000000
     92         -2.812587   1.000000
     93         -2.800896   1.000000
     94         -2.796743   1.000000
     95         -2.779744   1.000000
     96         -2.760948   1.000000
     97         -2.747099   1.000000
     98         -2.712070   1.000000
     99         -2.705291   1.000000
    100         -2.682031   1.000000
    101         -2.603464   1.000000
    102         -2.552704   1.000000
    103         -2.531466   1.000000
    104         -2.520145   1.000000
    105         -2.510739   1.000000
    106         -2.499823   1.000000
    107         -2.494412   1.000000
    108         -2.482450   1.000000
    109         -2.443001   1.000000
    110         -2.426172   1.000000
    111         -2.417208   1.000000
    112         -2.410900   1.000000
    113         -2.228662   1.000000
    114         -2.096004   1.000000
    115         -2.055833   1.000000
    116         -2.008816   1.000000
    117         -2.000017   1.000000
    118         -1.983271   1.000000
    119         -1.975669   1.000000
    120         -1.959432   1.000000
    121         -1.938662   1.000000
    122         -1.894484   1.000000
    123         -1.807014   1.000000
    124         -1.783050   1.000000
    125         -1.740964   1.000000
    126         -1.666468   1.000000
    127         -1.644404   1.000000
    128         -1.599040   1.000000
    129         -1.590648   1.000000
    130         -1.575105   1.000000
    131         -1.537346   1.000000
    132         -1.520974   1.000000
    133         -1.515228   1.000000
    134         -1.435386   1.000000
    135         -1.414002   1.000000
    136         -1.399558   1.000000
    137         -1.383271   1.000000
    138         -1.372921   1.000000
    139         -1.326937   1.000000
    140         -1.190599   1.000000
    141         -1.176488   1.000000
    142         -1.165906   1.000000
    143         -1.144673   1.000000
    144         -1.133894   1.000000
    145         -1.116019   1.000000
    146         -1.078613   1.000000
    147         -1.029965   1.000000
    148         -1.005432   1.000000
    149         -0.987284   1.000000
    150         -0.975379   1.000000
    151         -0.944641   1.000000
    152         -0.909839   1.000000
    153         -0.902314   1.000000
    154         -0.894586   1.000000
    155         -0.851850   1.000000
    156         -0.785697   1.000000
    157         -0.765458   1.000000
    158         -0.749738   1.000000
    159         -0.710543   1.000000
    160         -0.655616   1.000000
    161         -0.633795   1.000000
    162         -0.618104   1.000000
    163         -0.602711   1.000000
    164         -0.583596   1.000000
    165         -0.560274   1.000000
    166         -0.536630   1.000000
    167         -0.480061   1.000000
    168         -0.461124   1.000000
    169         -0.420428   1.000004
    170         -0.396057   1.000018
    171         -0.386322   1.000033
    172         -0.377690   1.000055
    173         -0.345850   1.000314
    174         -0.344098   1.000343
    175         -0.337488   1.000476
    176         -0.332074   1.000619
    177         -0.325572   1.000841
    178         -0.269002   1.007873
    179         -0.259292   1.010651
    180         -0.124999   0.903540
    181         -0.113964   0.844000
    182         -0.096299   0.725259
    183         -0.078853   0.586854
    184         -0.069932   0.511866
    185         -0.059741   0.425944
    186         -0.031496   0.209149
    187         -0.009753   0.085554
    188         -0.001240   0.049949
    189          0.012806   0.006615
    190          0.087139  -0.025070
    191          0.117357  -0.012273
    192          0.136845  -0.006694
    193          0.176601  -0.001435
    194          0.298052  -0.000001
    195          0.309309  -0.000001
    196          0.314008  -0.000000
    197          0.363364  -0.000000
    198          0.665365  -0.000000
    199          0.762087  -0.000000
    200          1.217846  -0.000000
    201          1.474593  -0.000000
    202          1.489689  -0.000000
    203          1.612823  -0.000000
    204          2.319294  -0.000000
    205          2.768285   0.000000
    206          2.927027   0.000000
    207          3.464556   0.000000
    208          3.655442   0.000000
    209          3.668085   0.000000
    210          3.761086   0.000000
    211          3.957059   0.000000
    212          4.379859   0.000000
    213          4.617802   0.000000
    214          4.690591   0.000000
    215          4.962263   0.000000
    216          4.989523   0.000000
    217          5.007479   0.000000
    218          5.167911   0.000000
    219          5.229830   0.000000
    220          5.471919   0.000000
    221          5.619258   0.000000
    222          5.726587   0.000000
    223          5.832683   0.000000
    224          5.923926   0.000000
    225          6.061873   0.000000
    226          6.214918   0.000000
    227          6.272698   0.000000
    228          6.331763   0.000000
    229          6.352987   0.000000
    230          6.617032   0.000000
    231          6.699717   0.000000
    232          6.729287   0.000000
    233          6.787957   0.000000
    234          6.839079   0.000000
    235          6.928503   0.000000
    236          7.061441   0.000000
    237          7.225259   0.000000
    238          7.486854   0.000000
    239          7.572149   0.000000
    240          7.617464   0.000000
 
  0.2000000E+00  0.2000000E+00  0.1276756E-14  0.8000000E-01
      1         -8.744746   1.000000
      2         -7.502949   1.000000
      3         -6.981940   1.000000
      4         -6.607759   1.000000
      5         -6.563918   1.000000
      6         -6.490577   1.000000
      7         -6.351168   1.000000
      8         -6.286111   1.000000
      9         -6.231926   1.000000
     10         -6.219060   1.000000
     11         -6.092654   1.000000
     12         -6.005689   1.000000
     13         -5.906999   1.000000
     14         -5.846731   1.000000
     15         -5.843504   1.000000
     16         -5.827975   1.000000
     17         -5.661388   1.000000
     18         -5.542379   1.000000
     19         -5.422179   1.000000
     20         -5.414228   1.000000
     21         -5.407194   1.000000
     22         -5.370172   1.000000
     23         -5.330527   1.000000
     24         -5.313525   1.000000
     25         -5.272926   1.000000
     26         -5.246479   1.000000
     27         -5.229275   1.000000
     28         -5.215563   1.000000
     29         -5.155395   1.000000
     30         -5.118739   1.000000
     31         -5.104738   1.000000
     32         -5.035716   1.000000
     33         -5.017590   1.000000
     34         -5.007027   1.000000
     35         -5.000869   1.000000
     36         -4.866891   1.000000
     37         -4.805564   1.000000
     38         -4.796007   1.000000
     39         -4.781081   1.000000
     40         -4.752641   1.000000
     41         -4.711124   1.000000
     42         -4.499704   1.000000
     43         -4.494401   1.000000
     44         -4.471528   1.000000
     45         -4.425097   1.000000
     46         -4.409213   1.000000
     47         -4.389346   1.000000
     48         -4.310884   1.000000
     49         -4.214421   1.000000
     50         -4.163526   1.000000
     51         -4.123515   1.000000
     52         -4.114832   1.000000
     53         -4.088805   1.000000
     54         -4.055462   1.000000
     55         -3.988018   1.000000
     56         -3.832265   1.000000
     57         -3.740563   1.000000
     58         -3.728708   1.000000
     59         -3.677628   1.000000
     60         -3.655834   1.000000
     61         -3.632152   1.000000
     62         -3.581686   1.000000
     63         -3.566900   1.000000
     64         -3.548284   1.000000
     65         -3.528057   1.000000
     66         -3.521039   1.000000
     67         -3.476549   1.000000
     68         -3.451126   1.000000
     69         -3.403078   1.000000
     70         -3.372531   1.000000
     71         -3.360052   1.000000
     72         -3.332702   1.000000
     73         -3.271480   1.000000
     74         -3.266663   1.000000
     75         -3.256222   1.000000
     76         -3.185215   1.000000
     77         -3.178711   1.000000
     78         -3.142964   1.000000
     79         -3.125064   1.000000
     80         -3.086795   1.000000
     81         -3.069674   1.000000
     82         -3.063809   1.000000
     83         -3.042220   1.000000
     84         -2.992427   1.000000
     85         -2.967865   1.000000
     86         -2.951366   1.000000
     87         -2.947057   1.000000
     88         -2.936781   1.000000
     89         -2.913729   1.000000
     90         -2.899419   1.000000
     91         -2.857032   1.000000
     92         -2.814071   1.000000
     93         -2.803566   1.000000
     94         -2.793421   1.000000
     95         -2.778894   1.000000
     96         -2.760901   1.000000
     97         -2.747785   1.000000
     98         -2.711696   1.000000
     99         -2.707601   1.000000
    100         -2.684265   1.000000
    101         -2.603958   1.000000
    102         -2.552988   1.000000
    103         -2.531914   1.000000
    104         -2.520065   1.000000
    105         -2.513560   1.000000
    106         -2.497936   1.000000
    107         -2.495751   1.000000
    108         -2.481337   1.000000
    109         -2.439123   1.000000
    110         -2.426805   1.000000
    111         -2.419200   1.000000
    112         -2.411529   1.000000
    113         -2.225467   1.000000
    114         -2.094422   1.000000
    115         -2.057476   1.000000
    116         -2.011038   1.000000
    117         -1.996985   1.000000
    118         -1.983366   1.000000
    119         -1.978012   1.000000
    120         -1.959723   1.000000
    121         -1.938716   1.000000
    122         -1.894320   1.000000
    123         -1.807596   1.000000
    124         -1.784696   1.000000
    125         -1.741791   1.000000
    126         -1.670599   1.000000
    127         -1.644992   1.000000
    128         -1.596004   1.000000
    129         -1.586523   1.000000
    130         -1.580826   1.000000
    131         -1.539516   1.000000
    132         -1.521829   1.000000
    133         -1.515673   1.000000
    134         -1.436707   1.000000
    135         -1.412507   1.000000
    136         -1.396893   1.000000
    137         -1.383053   1.000000
    138         -1.374116   1.000000
    139         -1.326535   1.000000
    140         -1.188629   1.000000
    141         -1.177025   1.000000
    142         -1.167074   1.000000
    143         -1.146196   1.000000
    144         -1.132770   1.000000
    145         -1.116986   1.000000
    146         -1.076218   1.000000
    147         -1.029332   1.000000
    148         -1.004030   1.000000
    149         -0.986473   1.000000
    150         -0.976246   1.000000
    151         -0.945996   1.000000
    152         -0.909888   1.000000
    153         -0.899773   1.000000
    154         -0.896433   1.000000
    155         -0.849440   1.000000
    156         -0.785989   1.000000
    157         -0.765977   1.000000
    158         -0.748985   1.000000
    159         -0.709384   1.000000
    160         -0.656761   1.000000
    161         -0.635071   1.000000
    162         -0.618935   1.000000
    163         -0.603670   1.000000
    164         -0.585067   1.000000
    165         -0.563225   1.000000
    166         -0.537743   1.000000
    167         -0.479705   1.000000
    168         -0.460486   1.000000
    169         -0.419198   1.000004
    170         -0.396287   1.000018
    171         -0.387458   1.000031
    172         -0.376774   1.000058
    173         -0.344732   1.000332
    174         -0.344322   1.000339
    175         -0.336164   1.000508
    176         -0.334537   1.000550
    177         -0.324450   1.000885
    178         -0.270981   1.007380
    179         -0.261743   1.009893
    180         -0.125729   0.907053
    181         -0.116693   0.859843
    182         -0.095415   0.718665
    183         -0.077388   0.574644
    184         -0.068287   0.497950
    185         -0.057110   0.404056
    186         -0.030310   0.201263
    187         -0.007222   0.074205
    188          0.000314   0.044229
    189          0.015823  -0.000359
    190          0.086643  -0.025299
    191          0.118136  -0.012004
    192          0.136054  -0.006875
    193          0.176057  -0.001470
    194          0.299107  -0.000001
    195          0.309699  -0.000001
    196          0.314942  -0.000000
    197          0.360620  -0.000000
    198          0.668654  -0.000000
    199          0.765729  -0.000000
    200          1.216525  -0.000000
    201          1.473872  -0.000000
    202          1.488788  -0.000000
    203          1.611455  -0.000000
    204          2.316417  -0.000000
    205          2.771211   0.000000
    206          2.929683   0.000000
    207          3.464078   0.000000
    208          3.655408   0.000000
    209          3.666522   0.000000
    210          3.761192   0.000000
    211          3.958189   0.000000
    212          4.377974   0.000000
    213          4.617267   0.000000
    214          4.687792   0.000000
    215          4.962879   0.000000
    216          4.988948   0.000000
    217          5.008165   0.000000
    218          5.168504   0.000000
    219          5.229854   0.000000
    220          5.474666   0.000000
    221          5.619205   0.000000
    222          5.724875   0.000000
    223          5.833825   0.000000
    224          5.926654   0.000000
    225          6.062576   0.000000
    226          6.213962   0.000000
    227          6.272766   0.000000
    228          6.333566   0.000000
    229          6.355311   0.000000
    230          6.617668   0.000000
    231          6.700062   0.000000
    232          6.727933   0.000000
    233          6.786888   0.000000
    234          6.839161   0.000000
    235          6.928642   0.000000
    236          7.060604   0.000000
    237          7.220378   0.000000
    238          7.485745   0.000000
    239          7.571691   0.000000
    240          7.616495   0.000000
 
  0.1276756E-14  0.2000000E+00  0.1276756E-14  0.8000000E-01
      1         -8.744417   1.000000
      2         -7.501455   1.000000
      3         -6.969301   1.000000
      4         -6.630076   1.000000
      5         -6.569705   1.000000
      6         -6.475990   1.000000
      7         -6.350362   1.000000
      8         -6.268630   1.000000
      9         -6.250295   1.000000
     10         -6.222759   1.000000
     11         -6.072559   1.000000
     12         -6.007710   1.000000
     13         -5.931051   1.000000
     14         -5.849832   1.000000
     15         -5.842332   1.000000
     16         -5.828665   1.000000
     17         -5.654230   1.000000
     18         -5.512089   1.000000
     19         -5.422574   1.000000
     20         -5.418168   1.000000
     21         -5.405992   1.000000
     22         -5.395826   1.000000
     23         -5.338009   1.000000
     24         -5.305470   1.000000
     25         -5.277347   1.000000
     26         -5.229060   1.000000
     27         -5.225112   1.000000
     28         -5.218201   1.000000
     29         -5.181550   1.000000
     30         -5.127605   1.000000
     31         -5.092848   1.000000
     32         -5.031020   1.000000
     33         -5.023418   1.000000
     34         -5.006432   1.000000
     35         -5.004874   1.000000
     36         -4.880348   1.000000
     37         -4.807218   1.000000
     38         -4.795589   1.000000
     39         -4.776701   1.000000
     40         -4.771814   1.000000
     41         -4.686947   1.000000
     42         -4.503862   1.000000
     43         -4.495473   1.000000
     44         -4.427983   1.000000
     45         -4.423952   1.000000
     46         -4.399369   1.000000
     47         -4.389138   1.000000
     48         -4.312218   1.000000
     49         -4.210720   1.000000
     50         -4.201254   1.000000
     51         -4.126002   1.000000
     52         -4.122980   1.000000
     53         -4.066991   1.000000
     54         -4.051929   1.000000
     55         -4.011848   1.000000
     56         -3.828529   1.000000
     57         -3.742143   1.000000
     58         -3.736342   1.000000
     59         -3.686229   1.000000
     60         -3.657580   1.000000
     61         -3.627530   1.000000
     62         -3.579804   1.000000
     63         -3.566122   1.000000
     64         -3.551282   1.000000
     65         -3.524148   1.000000
     66         -3.523413   1.000000
     67         -3.458557   1.000000
     68         -3.449419   1.000000
     69         -3.397668   1.000000
     70         -3.363603   1.000000
     71         -3.362612   1.000000
     72         -3.346438   1.000000
     73         -3.273861   1.000000
     74         -3.260405   1.000000
     75         -3.251577   1.000000
     76         -3.188055   1.000000
     77         -3.181884   1.000000
     78         -3.170081   1.000000