 vasp.6.4.2 20Jul23 (build Mar 01 2024 16:46:03) complex                        
  
 executed on             LinuxIFC date 2025.01.14  21:10:15
 running   48 mpi-ranks, on    1 nodes
 distrk:  each k-point on   48 cores,    1 groups
 distr:  one band on NCORE=   1 cores,   48 groups


--------------------------------------------------------------------------------------------------------


 INCAR:
   ENCUT = 680.290000
   SIGMA = 0.100000
   ZAB_VDW = -1.886700
   EDIFF = 1.00e-05
   ALGO = Fast
   GGA = BF
   IBRION = -1
   ISMEAR = 1
   ISPIN = 1
   ISYM = 0
   LUSE_VDW = .TRUE.
   LREAL = Auto

 POTCAR:    PAW_PBE Pt 04Feb2005                  
 POTCAR:    PAW_PBE H 15Jun2001                   
 -----------------------------------------------------------------------------
|                                                                             |
|           W    W    AA    RRRRR   N    N  II  N    N   GGGG   !!!           |
|           W    W   A  A   R    R  NN   N  II  NN   N  G    G  !!!           |
|           W    W  A    A  R    R  N N  N  II  N N  N  G       !!!           |
|           W WW W  AAAAAA  RRRRR   N  N N  II  N  N N  G  GGG   !            |
|           WW  WW  A    A  R   R   N   NN  II  N   NN  G    G                |
|           W    W  A    A  R    R  N    N  II  N    N   GGGG   !!!           |
|                                                                             |
|     For optimal performance we recommend to set                             |
|       NCORE = 2 up to number-of-cores-per-socket                            |
|     NCORE specifies how many cores store one orbital (NPAR=cpu/NCORE).      |
|     This setting can greatly improve the performance of VASP for DFT.       |
|     The default, NCORE=1 might be grossly inefficient on modern             |
|     multi-core architectures or massively parallel machines. Do your        |
|     own testing! More info at https://www.vasp.at/wiki/index.php/NCORE      |
|     Unfortunately you need to use the default for GW and RPA                |
|     calculations (for HF NCORE is supported but not extensively tested      |
|     yet).                                                                   |
|                                                                             |
 -----------------------------------------------------------------------------

 -----------------------------------------------------------------------------
|                                                                             |
|               ----> ADVICE to this user running VASP <----                  |
|                                                                             |
|     You have switched on vdW-DFT.                                           |
|     This routine was written and supplied by Jiri Klimes. We recommend      |
|     that you carefully read and cite the following publications:            |
|       J. Klimes, D.R. Bowler, A. Michelides                                 |
|          J. Phys.: Cond Matt. 22 022201 (2010)                              |
|       J. Klimes, D.R. Bowler, A. Michelides                                 |
|          Phys. Rev. B. 83, 195131 (2011)                                    |
|     and references therein.                                                 |
|                                                                             |
 -----------------------------------------------------------------------------

 POTCAR:    PAW_PBE Pt 04Feb2005                  
   SHA256 =  3ed90460adef76debcff1cfb73ee1349b515b1a3db03439735b44de3a8db7dc8 Pt/POTCAR             
   COPYR  = (c) Copyright 04Feb2005 Georg Kresse                                                    
   COPYR  = This file is part of the software VASP. Any use, copying, and all other rights are regul
   COPYR  = If you do not have a valid VASP license, you may not use, copy or distribute this file. 
   VRHFIN =Pt: s1d9                                                                                 
   LEXCH  = PE                                                                                      
   EATOM  =   729.1176 eV,   53.5886 Ry                                                             
                                                                                                    
   TITEL  = PAW_PBE Pt 04Feb2005                                                                    
   LULTRA =        F    use ultrasoft PP ?                                                          
   IUNSCR =        1    unscreen: 0-lin 1-nonlin 2-no                                               
   RPACOR =    2.330    partial core radius                                                         
   POMASS =  195.080; ZVAL   =   10.000    mass and valenz                                          
   RCORE  =    2.600    outmost cutoff radius                                                       
   RWIGS  =    2.750; RWIGS  =    1.455    wigner-seitz radius (au A)                               
   ENMAX  =  230.283; ENMIN  =  172.712 eV                                                          
   ICORE  =        3    local potential                                                             
   LCOR   =        T    correct aug charges                                                         
   LPAW   =        T    paw PP                                                                      
   EAUG   =  358.966                                                                                
   DEXC   =    0.000                                                                                
   RMAX   =    2.658    core radius for proj-oper                                                   
   RAUG   =    1.300    factor for augmentation sphere                                              
   RDEP   =    2.761    radius for radial grids                                                     
   RDEPT  =    2.203    core radius for aug-charge                                                  
                                                                                                    
   Atomic configuration                                                                             
   16 entries                                                                                       
     n  l   j            E        occ.                                                              
     1  0  0.50    -78401.1885   2.0000                                                             
     2  0  0.50    -13770.7750   2.0000                                                             
     2  1  1.50    -11931.0468   6.0000                                                             
     3  0  0.50     -3234.7234   2.0000                                                             
     3  1  1.50     -2699.2216   6.0000                                                             
     3  2  2.50     -2119.5714  10.0000                                                             
     4  0  0.50      -695.1528   2.0000                                                             
     4  1  1.50      -519.6034   6.0000                                                             
     4  2  2.50      -306.6786  10.0000                                                             
     4  3  3.50       -70.1041  14.0000                                                             
     5  0  0.50      -101.7747   2.0000                                                             
     5  1  1.50       -55.9873   6.0000                                                             
     5  2  2.50        -6.1423   9.0000                                                             
     6  0  0.50        -5.6573   1.0000                                                             
     6  1  1.50        -6.8029   0.0000                                                             
     5  3  2.50        -1.3606   0.0000                                                             
   Description                                                                                      
     l       E           TYP  RCUT    TYP  RCUT                                                     
     2     -6.1423404     23  2.500                                                                 
     2     -7.5029230     23  2.500                                                                 
     0     -5.6573207     23  2.500                                                                 
     0      0.7416693     23  2.500                                                                 
     1     -2.7211652     23  2.600                                                                 
     1     20.4087390     23  2.600                                                                 
     3     -1.3605826     23  2.500                                                                 
  local pseudopotential read in
  partial core-charges read in
  partial kinetic energy density read in
  atomic valenz-charges read in
  non local Contribution for L=           2  read in
    real space projection operators read in
  non local Contribution for L=           2  read in
    real space projection operators read in
  non local Contribution for L=           0  read in
    real space projection operators read in
  non local Contribution for L=           0  read in
    real space projection operators read in
  non local Contribution for L=           1  read in
    real space projection operators read in
  non local Contribution for L=           1  read in
    real space projection operators read in
    PAW grid and wavefunctions read in
 
   number of l-projection  operators is LMAX  =           6
   number of lm-projection operators is LMMAX =          18
 
 POTCAR:    PAW_PBE H 15Jun2001                   
   SHA256 =  030f79b5d3ab3cf0e668861823c8fb652ff669f3e15e46930bd03bfd63a607b6 H/POTCAR              
   COPYR  = (c) Copyright 15Jun2001 Georg Kresse                                                    
   COPYR  = This file is part of the software VASP. Any use, copying, and all other rights are regul
   COPYR  = If you do not have a valid VASP license, you may not use, copy or distribute this file. 
   VRHFIN =H: ultrasoft test                                                                        
   LEXCH  = PE                                                                                      
   EATOM  =    12.4884 eV,    0.9179 Ry                                                             
                                                                                                    
   TITEL  = PAW_PBE H 15Jun2001                                                                     
   LULTRA =        F    use ultrasoft PP ?                                                          
   IUNSCR =        0    unscreen: 0-lin 1-nonlin 2-no                                               
   RPACOR =    0.000    partial core radius                                                         
   POMASS =    1.000; ZVAL   =    1.000    mass and valenz                                          
   RCORE  =    1.100    outmost cutoff radius                                                       
   RWIGS  =    0.700; RWIGS  =    0.370    wigner-seitz radius (au A)                               
   ENMAX  =  250.000; ENMIN  =  200.000 eV                                                          
   RCLOC  =    0.701    cutoff for local pot                                                        
   LCOR   =        T    correct aug charges                                                         
   LPAW   =        T    paw PP                                                                      
   EAUG   =  400.000                                                                                
   RMAX   =    1.123    core radius for proj-oper                                                   
   RAUG   =    1.200    factor for augmentation sphere                                              
   RDEP   =    1.112    radius for radial grids                                                     
   RDEPT  =    0.926    core radius for aug-charge                                                  
                                                                                                    
   Atomic configuration                                                                             
    2 entries                                                                                       
     n  l   j            E        occ.                                                              
     1  0  0.50        -6.4927   1.0000                                                             
     2  1  0.50        -3.4015   0.0000                                                             
   Description                                                                                      
     l       E           TYP  RCUT    TYP  RCUT                                                     
     0     -6.4927494     23  1.100                                                                 
     0      6.8029130     23  1.100                                                                 
     1     -4.0817478     23  1.100                                                                 
  local pseudopotential read in
  atomic valenz-charges read in
  non local Contribution for L=           0  read in
    real space projection operators read in
  non local Contribution for L=           0  read in
    real space projection operators read in
  non local Contribution for L=           1  read in
    real space projection operators read in
    PAW grid and wavefunctions read in
 
   number of l-projection  operators is LMAX  =           3
   number of lm-projection operators is LMMAX =           5
 
 Optimization of the real space projectors (new method)

 maximal supplied QI-value         = 14.36
 optimisation between [QCUT,QGAM] = [ 13.36, 26.71] = [ 49.96,199.83] Ry 
 Optimized for a Real-space Cutoff    1.42 Angstroem

   l    n(q)    QCUT    max X(q) W(low)/X(q) W(high)/X(q)  e(spline) 
   2     11    13.357    66.195    0.16E-03    0.81E-04    0.36E-06
   2     11    13.357    64.643    0.16E-03    0.82E-04    0.36E-06
   0     11    13.357    95.520    0.60E-04    0.72E-05    0.55E-06
   0     11    13.357    63.403    0.58E-04    0.70E-05    0.53E-06
   1     11    13.357    19.961    0.21E-03    0.56E-03    0.21E-05
   1     11    13.357    13.289    0.17E-03    0.46E-03    0.17E-05
 Optimization of the real space projectors (new method)

 maximal supplied QI-value         = 34.20
 optimisation between [QCUT,QGAM] = [ 13.34, 26.68] = [ 49.83,199.32] Ry 
 Optimized for a Real-space Cutoff    0.91 Angstroem

   l    n(q)    QCUT    max X(q) W(low)/X(q) W(high)/X(q)  e(spline) 
   0      7    13.340    19.460    0.48E-03    0.16E-03    0.16E-06
   0      7    13.340    12.209    0.46E-03    0.14E-03    0.15E-06
   1      7    13.340     4.655    0.46E-03    0.87E-03    0.11E-06
 -----------------------------------------------------------------------------
|                                                                             |
|               ----> ADVICE to this user running VASP <----                  |
|                                                                             |
|     You enforced a specific xc type in the INCAR file but a different       |
|     type was found in the POTCAR file.                                      |
|     I HOPE YOU KNOW WHAT YOU ARE DOING!                                     |
|                                                                             |
 -----------------------------------------------------------------------------

  PAW_PBE Pt 04Feb2005                  :
 energy of atom  1       EATOM= -729.1176
 kinetic energy error for atom=    0.0010 (will be added to EATOM!!)
  PAW_PBE H 15Jun2001                   :
 energy of atom  2       EATOM=  -12.4884
 kinetic energy error for atom=    0.0002 (will be added to EATOM!!)
 
 
 POSCAR: Pt H
  positions in cartesian coordinates
  No initial velocities read in
 exchange correlation table for  LEXCH =       17
   RHO(1)=    0.500       N(1)  =     2000
   RHO(2)=  100.500       N(2)  =     4000
 


--------------------------------------------------------------------------------------------------------


 ion  position               nearest neighbor table
   1  0.000  0.000  0.340-   3 2.81   7 2.81   6 2.82   8 2.82  12 2.82  16 2.82   2 2.83   4 2.83
                            10 2.83
   2  0.334  0.000  0.340-   8 2.81   9 2.82  17 2.82   1 2.83   3 2.83   4 2.83   5 2.83  10 2.83
                            11 2.83
   3  0.668  0.000  0.340-   7 2.81   1 2.81   9 2.81  18 2.82   5 2.83   2 2.83   6 2.83  11 2.83
                            12 2.83
   4  0.000  0.334  0.340-   6 2.81   9 2.82  15 2.82   5 2.83   2 2.83   1 2.83   7 2.83  10 2.83
                            13 2.83
   5  0.334  0.334  0.340-   3 2.83   4 2.83   6 2.83   7 2.83   2 2.83   8 2.83  11 2.83  13 2.83
                            14 2.83
   6  0.668  0.334  0.340-   4 2.81   1 2.82   5 2.83   8 2.83   3 2.83   9 2.83  12 2.83  14 2.83
                            15 2.83
   7  0.000  0.668  0.340-   3 2.81   1 2.81   9 2.81  18 2.82   5 2.83   8 2.83   4 2.83  13 2.83
                            16 2.83
   8  0.334  0.668  0.340-   2 2.81   1 2.82   6 2.83   7 2.83   9 2.83   5 2.83  14 2.83  16 2.83
                            17 2.83
   9  0.668  0.668  0.340-   3 2.81   7 2.81   4 2.82   2 2.82   8 2.83   6 2.83  15 2.83  17 2.83
                            18 2.83
  10  0.111  0.111  0.433-  26 2.81  19 2.81  12 2.81  16 2.81  20 2.82  17 2.82  15 2.82  11 2.83
                            13 2.83   4 2.83   2 2.83   1 2.83
  11  0.445  0.111  0.433-  27 2.80  21 2.80  20 2.81  17 2.81  18 2.82  13 2.83  10 2.83  12 2.83
                            14 2.83   5 2.83   3 2.83   2 2.83
  12  0.779  0.111  0.433-  21 2.80  25 2.80  16 2.81  10 2.81  18 2.81  19 2.81   1 2.82  14 2.83
                            11 2.83  15 2.83   6 2.83   3 2.83
  13  0.111  0.445  0.433-  23 2.81  20 2.81  15 2.81  18 2.82  22 2.82  14 2.83  11 2.83  10 2.83
                            16 2.83   7 2.83   5 2.83   4 2.83
  14  0.445  0.445  0.433-  21 2.80  23 2.80  24 2.80  16 2.83  12 2.83  13 2.83  15 2.83  17 2.83
                            11 2.83   8 2.83   6 2.83   5 2.83
  15  0.779  0.445  0.433-  24 2.80  19 2.81  13 2.81  10 2.82   4 2.82  22 2.82  17 2.83  14 2.83
                            18 2.83  12 2.83   9 2.83   6 2.83
  16  0.111  0.779  0.433-  25 2.80  23 2.80  12 2.81  10 2.81  18 2.81  26 2.82   1 2.82  14 2.83
                            17 2.83  13 2.83   8 2.83   7 2.83
  17  0.445  0.779  0.433-  24 2.80  27 2.80  11 2.81  26 2.81  10 2.82   2 2.82  15 2.83  16 2.83
                            18 2.83  14 2.83   9 2.83   8 2.83
  18  0.779  0.779  0.433-  25 2.81  27 2.81  12 2.81  16 2.81  13 2.82  11 2.82   3 2.82   7 2.82
                            17 2.83  15 2.83   9 2.83  22 2.84
  19  0.890  0.223  0.525-  10 2.81  22 2.81  15 2.81  12 2.81  25 2.82  26 2.82  21 2.82  24 2.82
                            20 2.83  33 2.84  28 2.85  31 2.89
  20  0.224  0.223  0.525-  11 2.81  13 2.81  22 2.81  26 2.82  10 2.82  21 2.82  27 2.82  23 2.82
                            19 2.83  32 2.84  29 2.85  31 2.89
  21  0.557  0.223  0.524-  14 2.80  12 2.80  11 2.80  20 2.82  19 2.82  27 2.82  25 2.82  23 2.82
                            24 2.83  32 2.84  33 2.84  30 2.85
  22  0.891  0.555  0.526-  20 2.81  19 2.81  13 2.82  23 2.82  15 2.82  24 2.83  36 2.83  34 2.83
                            27 2.84  25 2.84  18 2.84  31 2.84
  23  0.223  0.557  0.524-  14 2.80  16 2.80  13 2.81  24 2.82  25 2.82  22 2.82  20 2.82  21 2.82
                            26 2.83  32 2.84  35 2.84  34 2.85
  24  0.556  0.557  0.524-  17 2.80  14 2.80  15 2.80  23 2.82  27 2.82  19 2.82  26 2.82  22 2.83
                            21 2.83  33 2.84  35 2.84  36 2.85
  25  0.890  0.890  0.525-  16 2.80  12 2.80  18 2.81  19 2.82  26 2.82  23 2.82  21 2.82  27 2.83
                            34 2.83  28 2.83  22 2.84  30 2.84
  26  0.223  0.891  0.525-  10 2.81  17 2.81  16 2.82  20 2.82  19 2.82  25 2.82  27 2.82  24 2.82
                            23 2.83  35 2.83  28 2.85  29 2.85
  27  0.557  0.890  0.524-  11 2.80  17 2.80  18 2.81  24 2.82  20 2.82  26 2.82  21 2.82  25 2.83
                            36 2.83  29 2.84  22 2.84  30 2.85
  28  0.000  0.999  0.618-  34 2.79  30 2.81  35 2.82  25 2.83  33 2.84  26 2.85  19 2.85  31 2.86
                            29 2.86
  29  0.338  1.000  0.618-  36 2.79  30 2.81  35 2.82  27 2.84  32 2.84  26 2.85  20 2.85  31 2.86
                            28 2.86
  30  0.668  0.002  0.618-  29 2.81  28 2.81  33 2.81  32 2.81  36 2.82  34 2.82  25 2.84  21 2.85
                            27 2.85
  31  0.000  0.337  0.620-  37 1.59  34 2.83  36 2.83  32 2.84  33 2.84  22 2.84  29 2.86  28 2.86
                            19 2.89  20 2.89
  32  0.336  0.335  0.617-  33 2.79  35 2.81  30 2.81  34 2.83  29 2.84  21 2.84  31 2.84  23 2.84
                            20 2.84
  33  0.666  0.335  0.617-  32 2.79  35 2.81  30 2.81  36 2.84  19 2.84  28 2.84  21 2.84  31 2.84
                            24 2.84
  34  0.001  0.670  0.618-  28 2.79  35 2.82  30 2.82  31 2.83  25 2.83  22 2.83  32 2.83  36 2.84
                            23 2.85
  35  0.335  0.668  0.618-  32 2.81  33 2.81  34 2.82  36 2.82  28 2.82  29 2.82  26 2.83  24 2.84
                            23 2.84
  36  0.666  0.670  0.618-  29 2.79  35 2.82  30 2.82  31 2.83  22 2.83  27 2.83  33 2.84  34 2.84
                            24 2.85
  37  0.060  0.218  0.673-  31 1.59
 

IMPORTANT INFORMATION: All symmetrisations will be switched off!
NOSYMM: (Re-)initialisation of all symmetry stuff for point group C_1.


----------------------------------------------------------------------------------------

                                     Primitive cell                                     

  volume of cell :    1550.4837

  direct lattice vectors                    reciprocal lattice vectors
     8.468310000  0.000000000  0.000000000     0.118087316 -0.068177744  0.000000000
     4.234155000  7.333771587  0.000000000     0.000000000  0.136355488  0.000000000
     0.000000000  0.000000000 24.965661990     0.000000000  0.000000000  0.040055016

  length of vectors
     8.468310000  8.468310000 24.965661990     0.136355488  0.136355488  0.040055016

  position of ions in fractional coordinates (direct lattice)
     0.000000000  0.000000000  0.340467639
     0.334001368  0.000000000  0.340467639
     0.668002736  0.000000000  0.340467639
     1.000000000  0.334001368  0.340467639
     0.334001368  0.334001368  0.340467639
     0.668002736  0.334001368  0.340467639
     1.000000000  0.668002736  0.340467639
     0.334001368  0.668002736  0.340467639
     0.668002736  0.668002736  0.340467639
     0.111333789  0.111333789  0.432970737
     0.445335157  0.111333789  0.432970737
     0.779336525  0.111333789  0.432970737
     0.111333789  0.445335157  0.432970737
     0.445335157  0.445335157  0.432970737
     0.779336525  0.445335157  0.432970737
     0.111333789  0.779336525  0.432970737
     0.445335157  0.779336525  0.432970737
     0.779336525  0.779336525  0.432970737
     0.889845374  0.223384569  0.524739656
     0.223640199  0.223299506  0.524670073
     0.556769135  0.223184810  0.524170418
     0.891222951  0.554543838  0.525627567
     0.223380068  0.556910349  0.524299328
     0.556438689  0.556965773  0.524244694
     0.890353207  0.890214689  0.524586289
     0.223127981  0.890699861  0.524805497
     0.556688352  0.889995854  0.524458995
     0.000172959  0.999495436  0.618065326
     0.337530540  0.999597314  0.618019283
     0.667529409  0.002103853  0.617844497
     0.000231707  0.336710991  0.619904888
     0.335931418  0.335296033  0.617467716
     0.665959925  0.335254713  0.617400088
     0.001131197  0.669946839  0.617714249
     0.334616846  0.667981237  0.617559091
     0.666157624  0.670064846  0.617634883
     0.059647799  0.217778689  0.673158090

  ion indices of the primitive-cell ions
   primitive index   ion index
                 1           1
                 2           2
                 3           3
                 4           4
                 5           5
                 6           6
                 7           7
                 8           8
                 9           9
                10          10
                11          11
                12          12
                13          13
                14          14
                15          15
                16          16
                17          17
                18          18
                19          19
                20          20
                21          21
                22          22
                23          23
                24          24
                25          25
                26          26
                27          27
                28          28
                29          29
                30          30
                31          31
                32          32
                33          33
                34          34
                35          35
                36          36
                37          37

----------------------------------------------------------------------------------------

 
 
 KPOINTS: KPOINTS created by Atomic Simulation Env

Automatic generation of k-mesh.
 Grid dimensions read from file:
 generate k-points for:    5    5    1

 Generating k-lattice:

  Cartesian coordinates                     Fractional coordinates (reciprocal lattice)
     0.023617463 -0.013635549  0.000000000     0.200000000 -0.000000000  0.000000000
     0.000000000  0.027271098  0.000000000     0.000000000  0.200000000  0.000000000
     0.000000000  0.000000000  0.040055016     0.000000000  0.000000000  1.000000000

  Length of vectors
     0.027271098  0.027271098  0.040055016

  Shift w.r.t. Gamma in fractional coordinates (k-lattice)
     0.000000000  0.000000000  0.000000000

 
 Subroutine IBZKPT returns following result:
 ===========================================
 
 Found     13 irreducible k-points:
 
 Following reciprocal coordinates:
            Coordinates               Weight
  0.000000  0.000000  0.000000      1.000000
  0.200000  0.000000  0.000000      2.000000
  0.200000  0.200000  0.000000      2.000000
  0.000000  0.200000  0.000000      2.000000
  0.400000  0.000000  0.000000      2.000000
  0.400000  0.400000  0.000000      2.000000
  0.000000  0.400000  0.000000      2.000000
  0.400000  0.200000  0.000000      2.000000
  0.200000  0.400000  0.000000      2.000000
 -0.200000  0.200000  0.000000      2.000000
 -0.400000  0.200000  0.000000      2.000000
  0.400000 -0.400000  0.000000      2.000000
 -0.200000  0.400000  0.000000      2.000000
 
 Following cartesian coordinates:
            Coordinates               Weight
  0.000000  0.000000  0.000000      1.000000
  0.023617 -0.013636  0.000000      2.000000
  0.023617  0.013636  0.000000      2.000000
  0.000000  0.027271  0.000000      2.000000
  0.047235 -0.027271  0.000000      2.000000
  0.047235  0.027271  0.000000      2.000000
  0.000000  0.054542  0.000000      2.000000
  0.047235  0.000000  0.000000      2.000000
  0.023617  0.040907  0.000000      2.000000
 -0.023617  0.040907  0.000000      2.000000
 -0.047235  0.054542  0.000000      2.000000
  0.047235 -0.081813  0.000000      2.000000
 -0.023617  0.068178  0.000000      2.000000
 


--------------------------------------------------------------------------------------------------------




 Dimension of arrays:
   k-points           NKPTS =     13   k-points in BZ     NKDIM =     13   number of bands    NBANDS=    240
   number of dos      NEDOS =    301   number of ions     NIONS =     37
   non local maximal  LDIM  =      6   non local SUM 2l+1 LMDIM =     18
   total plane-waves  NPLWV = 466560
   max r-space proj   IRMAX =   3679   max aug-charges    IRDMAX=  18423
   dimension x,y,z NGX =    54 NGY =   54 NGZ =  160
   dimension x,y,z NGXF=   108 NGYF=  108 NGZF=  320
   support grid    NGXF=   108 NGYF=  108 NGZF=  320
   ions per type =              36   1
   NGX,Y,Z   is equivalent  to a cutoff of  10.60, 10.60, 10.65 a.u.
   NGXF,Y,Z  is equivalent  to a cutoff of  21.20, 21.20, 21.31 a.u.

 SYSTEM =  unknown system                          
 POSCAR =  Pt H                                    

 Startparameter for this run:
   NWRITE =      2    write-flag & timer
   PREC   = normal    normal or accurate (medium, high low for compatibility)
   ISTART =      1    job   : 0-new  1-cont  2-samecut
   ICHARG =      0    charge: 1-file 2-atom 10-const
   ISPIN  =      1    spin polarized calculation?
   LNONCOLLINEAR =      F non collinear calculations
   LSORBIT =      F    spin-orbit coupling
   INIWAV =      1    electr: 0-lowe 1-rand  2-diag
   LASPH  =      F    aspherical Exc in radial PAW
 Electronic Relaxation 1
   ENCUT  =  680.3 eV  50.00 Ry    7.07 a.u.  18.01 18.01 53.09*2*pi/ulx,y,z
   ENINI  =  680.3     initial cutoff
   ENAUG  =  400.0 eV  augmentation charge cutoff
   NELM   =     60;   NELMIN=  2; NELMDL=  0     # of ELM steps 
   EDIFF  = 0.1E-04   stopping-criterion for ELM
   LREAL  =      T    real-space projection
   NLSPLINE    = F    spline interpolate recip. space projectors
   LCOMPAT=      F    compatible to vasp.4.4
   GGA_COMPAT  = T    GGA compatible to vasp.4.4-vasp.4.6
   LMAXPAW     = -100 max onsite density
   LMAXMIX     =    2 max onsite mixed and CHGCAR
   VOSKOWN=      0    Vosko Wilk Nusair interpolation
   ROPT   =   -0.00050  -0.00050
 Ionic relaxation
   EDIFFG = 0.1E-03   stopping-criterion for IOM
   NSW    =      0    number of steps for IOM
   NBLOCK =      1;   KBLOCK =      1    inner block; outer block 
   IBRION =     -1    ionic relax: 0-MD 1-quasi-New 2-CG
   NFREE  =      0    steps in history (QN), initial steepest desc. (CG)
   ISIF   =      2    stress and relaxation
   IWAVPR =     10    prediction:  0-non 1-charg 2-wave 3-comb
   ISYM   =      0    0-nonsym 1-usesym 2-fastsym
   LCORR  =      T    Harris-Foulkes like correction to forces

   POTIM  = 0.5000    time-step for ionic-motion
   TEIN   =    0.0    initial temperature
   TEBEG  =    0.0;   TEEND  =   0.0 temperature during run
   SMASS  =  -3.00    Nose mass-parameter (am)
   estimated Nose-frequenzy (Omega)   =  0.10E-29 period in steps = 0.13E+47 mass=  -0.164E-26a.u.
   SCALEE = 1.0000    scale energy and forces
   NPACO  =    256;   APACO  = 10.0  distance and # of slots for P.C.
   PSTRESS=    0.0 pullay stress

  Mass of Ions in am
   POMASS = 195.08  1.00
  Ionic Valenz
   ZVAL   =  10.00  1.00
  Atomic Wigner-Seitz radii
   RWIGS  =  -1.00 -1.00
  virtual crystal weights 
   VCA    =   1.00  1.00
   NELECT =     361.0000    total number of electrons
   NUPDOWN=      -1.0000    fix difference up-down

 DOS related values:
   EMIN   =  10.00;   EMAX   =-10.00  energy-range for DOS
   EFERMI =   0.00;   METHOD = LEGACY      
   ISMEAR =     1;   SIGMA  =   0.10  broadening in eV -4-tet -1-fermi 0-gaus

 Electronic relaxation 2 (details)
   IALGO  =     68    algorithm
   LDIAG  =      T    sub-space diagonalisation (order eigenvalues)
   LSUBROT=      F    optimize rotation matrix (better conditioning)
   TURBO    =      0    0=normal 1=particle mesh
   IRESTART =      0    0=no restart 2=restart with 2 vectors
   NREBOOT  =      0    no. of reboots
   NMIN     =      0    reboot dimension
   EREF     =   0.00    reference energy to select bands
   IMIX   =      4    mixing-type and parameters
     AMIX     =   0.40;   BMIX     =  1.00
     AMIX_MAG =   1.60;   BMIX_MAG =  1.00
     AMIN     =   0.10
     WC   =   100.;   INIMIX=   1;  MIXPRE=   1;  MAXMIX= -45

 Intra band minimization:
   WEIMIN = 0.0000     energy-eigenvalue tresh-hold
   EBREAK =  0.10E-07  absolut break condition
   DEPER  =   0.30     relativ break condition  

   TIME   =   0.40     timestep for ELM

  volume/ion in A,a.u.               =      41.90       282.79
  Fermi-wavevector in a.u.,A,eV,Ry     =   1.007136  1.903211 13.800704  1.014323
  Thomas-Fermi vector in A             =   2.139922
 
 Write flags
   LWAVE        =      T    write WAVECAR
   LDOWNSAMPLE  =      F    k-point downsampling of WAVECAR
   LCHARG       =      T    write CHGCAR
   LVTOT        =      F    write LOCPOT, total local potential
   LVHAR        =      F    write LOCPOT, Hartree potential only
   LELF         =      F    write electronic localiz. function (ELF)
   LORBIT       =      0    0 simple, 1 ext, 2 COOP (PROOUT), +10 PAW based schemes


 Dipole corrections
   LMONO  =      F    monopole corrections only (constant potential shift)
   LDIPOL =      F    correct potential (dipole corrections)
   IDIPOL =      0    1-x, 2-y, 3-z, 4-all directions 
   EPSILON=  1.0000000 bulk dielectric constant

 Exchange correlation treatment:
   GGA     =    BF    GGA type
   LEXCH   =    17    internal setting for exchange type
   LIBXC   =     F    Libxc                    
   VOSKOWN =     0    Vosko Wilk Nusair interpolation
   LHFCALC =     F    Hartree Fock is set to
   LHFONE  =     F    Hartree Fock one center treatment
   AEXX    =    0.0000 exact exchange contribution

 vdW DFT:
   LUSE_VDW   =     T    switch on vdW DFT
   IVDW_NL    =     1    kernel type
   LSPIN_VDW  =     F    use spin-polarized vdW DFT
   Zab_VDW    =******    correlation parameter
   PARAM1     =0.1234
   PARAM2     =1.0000
   PARAM3     =0.0000
   -- rVV10 --
   BPARAM     = 6.3000
   CPARAM     = 0.0093

 Linear response parameters
   LEPSILON=     F    determine dielectric tensor
   LRPA    =     F    only Hartree local field effects (RPA)
   LNABLA  =     F    use nabla operator in PAW spheres
   LVEL    =     F    velocity operator in full k-point grid
   CSHIFT  =0.1000    complex shift for real part using Kramers Kronig
   OMEGAMAX=  -1.0    maximum frequency
   DEG_THRESHOLD= 0.2000000E-02 threshold for treating states as degnerate
   RTIME   =   -0.100 relaxation time in fs
  (WPLASMAI=    0.000 imaginary part of plasma frequency in eV, 0.658/RTIME)
   DFIELD  = 0.0000000 0.0000000 0.0000000 field for delta impulse in time
 
  Optional k-point grid parameters
   LKPOINTS_OPT  =     F    use optional k-point grid
   KPOINTS_OPT_MODE=     1    mode for optional k-point grid
 
 Orbital magnetization related:
   ORBITALMAG=     F  switch on orbital magnetization
   LCHIMAG   =     F  perturbation theory with respect to B field
   DQ        =  0.001000  dq finite difference perturbation B field
   LLRAUG    =     F  two centre corrections for induced B field
   LBONE     =     F  B-component reconstruction in AE one-centre
   LVGVCALC  =     T  calculate vGv susceptibility
   LVGVAPPL  =     F  apply vGv susceptibility instead of pGv for G=0

 Random number generation:
   RANDOM_GENERATOR = DEFAULT
   PCG_SEED         = not used


--------------------------------------------------------------------------------------------------------


 Static calculation
 charge density and potential will be updated during run
 non-spin polarized calculation
 RMM-DIIS sequential band-by-band and
  variant of blocked Davidson during initial phase
 perform sub-space diagonalisation
    before iterative eigenvector-optimisation
 modified Broyden-mixing scheme, WC =      100.0
 initial mixing is a Kerker type mixing with AMIX =  0.4000 and BMIX =      1.0000
 Hartree-type preconditioning will be used
 using additional bands           59
 real space projection scheme for non local part
 use partial core corrections
 calculate Harris-corrections to forces 
   (improved forces if not selfconsistent)
 use gradient corrections 
 use of overlap-Matrix (Vanderbilt PP)
 Methfessel and Paxton  Order N= 1 SIGMA  =   0.10


--------------------------------------------------------------------------------------------------------


  energy-cutoff  :      680.29
  volume of cell :     1550.48
      direct lattice vectors                 reciprocal lattice vectors
     8.468310000  0.000000000  0.000000000     0.118087316 -0.068177744  0.000000000
     4.234155000  7.333771587  0.000000000     0.000000000  0.136355488  0.000000000
     0.000000000  0.000000000 24.965661990     0.000000000  0.000000000  0.040055016

  length of vectors
     8.468310000  8.468310000 24.965661990     0.136355488  0.136355488  0.040055016


 
 old parameters found on file WAVECAR:
  energy-cutoff  :      680.29
  volume of cell :     1550.48
      direct lattice vectors                 reciprocal lattice vectors
     8.468310000  0.000000000  0.000000000     0.118087316 -0.068177744  0.000000000
     4.234155000  7.333771587  0.000000000     0.000000000  0.136355488  0.000000000
     0.000000000  0.000000000 24.965661990     0.000000000  0.000000000  0.040055016

  length of vectors

 
 k-points in units of 2pi/SCALE and weight: KPOINTS created by Atomic Simulation Env
   0.00000000  0.00000000  0.00000000       0.040
   0.02361746 -0.01363555  0.00000000       0.080
   0.02361746  0.01363555  0.00000000       0.080
   0.00000000  0.02727110  0.00000000       0.080
   0.04723493 -0.02727110  0.00000000       0.080
   0.04723493  0.02727110  0.00000000       0.080
   0.00000000  0.05454220  0.00000000       0.080
   0.04723493  0.00000000  0.00000000       0.080
   0.02361746  0.04090665  0.00000000       0.080
  -0.02361746  0.04090665  0.00000000       0.080
  -0.04723493  0.05454220  0.00000000       0.080
   0.04723493 -0.08181329  0.00000000       0.080
  -0.02361746  0.06817774  0.00000000       0.080
 
 k-points in reciprocal lattice and weights: KPOINTS created by Atomic Simulation Env
   0.00000000  0.00000000  0.00000000       0.040
   0.20000000  0.00000000  0.00000000       0.080
   0.20000000  0.20000000  0.00000000       0.080
   0.00000000  0.20000000  0.00000000       0.080
   0.40000000  0.00000000  0.00000000       0.080
   0.40000000  0.40000000  0.00000000       0.080
   0.00000000  0.40000000  0.00000000       0.080
   0.40000000  0.20000000  0.00000000       0.080
   0.20000000  0.40000000  0.00000000       0.080
  -0.20000000  0.20000000  0.00000000       0.080
  -0.40000000  0.20000000  0.00000000       0.080
   0.40000000 -0.40000000  0.00000000       0.080
  -0.20000000  0.40000000  0.00000000       0.080
 
 position of ions in fractional coordinates (direct lattice) 
   0.00000000  0.00000000  0.34046764
   0.33400137  0.00000000  0.34046764
   0.66800274  0.00000000  0.34046764
   0.00000000  0.33400137  0.34046764
   0.33400137  0.33400137  0.34046764
   0.66800274  0.33400137  0.34046764
   0.00000000  0.66800274  0.34046764
   0.33400137  0.66800274  0.34046764
   0.66800274  0.66800274  0.34046764
   0.11133379  0.11133379  0.43297074
   0.44533516  0.11133379  0.43297074
   0.77933653  0.11133379  0.43297074
   0.11133379  0.44533516  0.43297074
   0.44533516  0.44533516  0.43297074
   0.77933653  0.44533516  0.43297074
   0.11133379  0.77933653  0.43297074
   0.44533516  0.77933653  0.43297074
   0.77933653  0.77933653  0.43297074
   0.88984537  0.22338457  0.52473966
   0.22364020  0.22329951  0.52467007
   0.55676914  0.22318481  0.52417042
   0.89122295  0.55454384  0.52562757
   0.22338007  0.55691035  0.52429933
   0.55643869  0.55696577  0.52424469
   0.89035321  0.89021469  0.52458629
   0.22312798  0.89069986  0.52480550
   0.55668835  0.88999585  0.52445900
   0.00017296  0.99949544  0.61806533
   0.33753054  0.99959731  0.61801928
   0.66752941  0.00210385  0.61784450
   0.00023171  0.33671099  0.61990489
   0.33593142  0.33529603  0.61746772
   0.66595992  0.33525471  0.61740009
   0.00113120  0.66994684  0.61771425
   0.33461685  0.66798124  0.61755909
   0.66615762  0.67006485  0.61763488
   0.05964780  0.21777869  0.67315809
 
 position of ions in cartesian coordinates  (Angst):
   0.00000000  0.00000000  8.50000000
   2.82842712  0.00000000  8.50000000
   5.65685425  0.00000000  8.50000000
   1.41421356  2.44948974  8.50000000
   4.24264069  2.44948974  8.50000000
   7.07106781  2.44948974  8.50000000
   2.82842712  4.89897949  8.50000000
   5.65685425  4.89897949  8.50000000
   8.48528137  4.89897949  8.50000000
   1.41421356  0.81649658 10.80940108
   4.24264069  0.81649658 10.80940108
   7.07106781  0.81649658 10.80940108
   2.82842712  3.26598632 10.80940108
   5.65685425  3.26598632 10.80940108
   8.48528137  3.26598632 10.80940108
   4.24264069  5.71547607 10.80940108
   7.07106781  5.71547607 10.80940108
   9.89949494  5.71547607 10.80940108
   8.48133137  1.63825140 13.10047287
   2.83933925  1.63762757 13.09873569
   5.65989272  1.63678642 13.08626148
   9.89517679  4.06689784 13.12264016
   4.24969640  4.08425329 13.08947980
   7.07037472  4.08465976 13.08811584
  11.30909394  6.52863119 13.09664397
   5.66087818  6.53218933 13.10211664
   8.48258993  6.52702630 13.09346600
   4.23348327  7.33007123 15.43041003
   7.09076321  7.33081838 15.42926053
   5.66175401  0.01542918 15.42489688
   1.42764869  2.46936150 15.47633591
   4.26446676  2.45898452 15.41549029
   7.05907551  2.45868149 15.41380191
   2.84623809  4.91323709 15.42164514
   5.66197527  4.89882181 15.41777153
   8.47838768  4.91410253 15.41966371
   1.42722477  1.59713916 16.80583734
 


--------------------------------------------------------------------------------------------------------


 k-point   1 :   0.0000 0.0000 0.0000  plane waves:   62399
 k-point   2 :   0.2000 0.0000 0.0000  plane waves:   62407
 k-point   3 :   0.2000 0.2000 0.0000  plane waves:   62407
 k-point   4 :   0.0000 0.2000 0.0000  plane waves:   62407
 k-point   5 :   0.4000 0.0000 0.0000  plane waves:   62451
 k-point   6 :   0.4000 0.4000 0.0000  plane waves:   62451
 k-point   7 :   0.0000 0.4000 0.0000  plane waves:   62451
 k-point   8 :   0.4000 0.2000 0.0000  plane waves:   62510
 k-point   9 :   0.2000 0.4000 0.0000  plane waves:   62510
 k-point  10 :  -0.2000 0.2000 0.0000  plane waves:   62510
 k-point  11 :  -0.4000 0.2000 0.0000  plane waves:   62498
 k-point  12 :   0.4000-0.4000 0.0000  plane waves:   62498
 k-point  13 :  -0.2000 0.4000 0.0000  plane waves:   62498

 maximum and minimum number of plane-waves per node :     62510    62399

 maximum number of plane-waves:     62510
 maximum index in each direction: 
   IXMAX=   18   IYMAX=   18   IZMAX=   53
   IXMIN=  -18   IYMIN=  -18   IZMIN=  -53


 serial   3D FFT for wavefunctions
 parallel 3D FFT for charge:
    minimum data exchange during FFTs selected (reduces bandwidth)


 total amount of memory used by VASP MPI-rank0   148546. kBytes
=======================================================================

   base      :      30000. kBytes
   nonlr-proj:      22473. kBytes
   fftplans  :       5213. kBytes
   grid      :      24541. kBytes
   one-center:        575. kBytes
   wavefun   :      65744. kBytes
 
     INWAV:  cpu time      7.2655: real time     11.6218
 Broyden mixing: mesh for mixing (old mesh)
   NGX = 37   NGY = 37   NGZ =107
  (NGX  =108   NGY  =108   NGZ  =320)
  gives a total of 146483 points

 charge density for first step will be calculated from the start-wavefunctions


--------------------------------------------------------------------------------------------------------


 Maximum index for non-local projection operator         3550
 Maximum index for augmentation-charges         1172 (set IRDMAX)


--------------------------------------------------------------------------------------------------------


 initial charge from wavefunction
 First call to EWALD:  gamma=   0.153
 Maximum number of real-space cells 4x 4x 2
 Maximum number of reciprocal cells 2x 2x 5

    FEWALD:  cpu time      0.0038: real time      0.0039


--------------------------------------- Ionic step        1  -------------------------------------------




--------------------------------------- Iteration      1(   1)  ---------------------------------------


vdW kernel read from vdw_kernel.bindat
  0.0000  0.2424  0.5071  0.7962  1.1119  1.4567  1.8333  2.2446  2.6937  3.1842
  3.7199  4.3049  4.9438  5.6415  6.4036  7.2358  8.1446  9.1372 10.2212 11.4050
 12.6979 14.1099 15.6519 17.3360 19.1751 21.1837 23.3773 25.7729 28.3892 31.2465
 34.3669 37.7748 41.4965 45.5611 50.0000
 
    POTLOK:  cpu time      2.9167: real time      2.9410
    SETDIJ:  cpu time      0.0055: real time      0.0055
     EDDAV:  cpu time     15.6482: real time     15.8248
       DOS:  cpu time      0.0010: real time      0.0010
    CHARGE:  cpu time      0.7639: real time      0.7698
    MIXING:  cpu time      0.0031: real time      0.0031
    --------------------------------------------
      LOOP:  cpu time     19.3383: real time     19.5454

 eigenvalue-minimisations  :  6720
 total energy-change (2. order) :-0.1046339E+03  (-0.3096132E+00)
 number of electron     360.9999936 magnetization 
 augmentation part      114.1497150 magnetization 

 Broyden mixing:
  rms(total) = 0.32670E+00    rms(broyden)= 0.32670E+00
  rms(prec ) = 0.42060E+00
  weight for this iteration     100.00

 Free energy of the ion-electron system (eV)
  ---------------------------------------------------
  alpha Z        PSCENC =       797.33612757
  Ewald energy   TEWEN  =    132352.43571804
  -Hartree energ DENC   =   -159748.37206353
  -exchange      EXHF   =         0.00000000
  -V(xc)+E(xc)   XCENC  =        89.59204108
  PAW double counting   =     32178.37847049   -31181.02695100
  entropy T*S    EENTRO =        -0.08670729
  eigenvalues    EBANDS =     -1089.69370750
  atomic energy  EATOM  =     26496.80315902
  Solvation  Ediel_sol  =         0.00000000
  ---------------------------------------------------
  free energy    TOTEN  =      -104.63391311 eV

  energy without entropy =     -104.54720583  energy(sigma->0) =     -104.60501068


--------------------------------------------------------------------------------------------------------




--------------------------------------- Iteration      1(   2)  ---------------------------------------


    POTLOK:  cpu time      2.2849: real time      2.3090
    SETDIJ:  cpu time      0.0060: real time      0.0061
    EDDIAG:  cpu time      2.7535: real time      2.7748
  RMM-DIIS:  cpu time      8.4908: real time      8.5529
    ORTHCH:  cpu time      0.5052: real time      0.5098
       DOS:  cpu time      0.0015: real time      0.0015
    CHARGE:  cpu time      0.7640: real time      0.7708
    MIXING:  cpu time      0.0026: real time      0.0027
    --------------------------------------------
      LOOP:  cpu time     14.8086: real time     14.9275

 eigenvalue-minimisations  :  6755
 total energy-change (2. order) :-0.4033739E+01  (-0.1622223E+00)
 number of electron     360.9999937 magnetization 
 augmentation part      113.9806991 magnetization 

 Broyden mixing:
  rms(total) = 0.21545E+01    rms(broyden)= 0.21545E+01
  rms(prec ) = 0.30145E+01
  weight for this iteration     100.00

 eigenvalues of (default mixing * dielectric matrix)
  average eigenvalue GAMMA=   0.1113
  0.1113

 Free energy of the ion-electron system (eV)
  ---------------------------------------------------
  alpha Z        PSCENC =       797.33612757
  Ewald energy   TEWEN  =    132352.43571804
  -Hartree energ DENC   =   -159762.82310654
  -exchange      EXHF   =         0.00000000
  -V(xc)+E(xc)   XCENC  =        89.57334552
  PAW double counting   =     32181.75575773   -31184.36859342
  entropy T*S    EENTRO =        -0.00299162
  eigenvalues    EBANDS =     -1079.37706886
  atomic energy  EATOM  =     26496.80315902
  Solvation  Ediel_sol  =         0.00000000
  ---------------------------------------------------
  free energy    TOTEN  =      -108.66765256 eV

  energy without entropy =     -108.66466094  energy(sigma->0) =     -108.66665535


--------------------------------------------------------------------------------------------------------




--------------------------------------- Iteration      1(   3)  ---------------------------------------


    POTLOK:  cpu time      2.3175: real time      2.3325
    SETDIJ:  cpu time      0.0044: real time      0.0044
    EDDIAG:  cpu time      2.9174: real time      2.9406
  RMM-DIIS:  cpu time      8.7543: real time      8.8185
    ORTHCH:  cpu time      0.5548: real time      0.5593
       DOS:  cpu time      0.0012: real time      0.0012
    CHARGE:  cpu time      0.7562: real time      0.7634
    MIXING:  cpu time      0.0022: real time      0.0022
    --------------------------------------------
      LOOP:  cpu time     15.3079: real time     15.4221

 eigenvalue-minimisations  :  6841
 total energy-change (2. order) : 0.3695242E+01  (-0.5978324E-01)
 number of electron     360.9999936 magnetization 
 augmentation part      114.1105922 magnetization 

 Broyden mixing:
  rms(total) = 0.72785E+00    rms(broyden)= 0.72785E+00
  rms(prec ) = 0.86912E+00
  weight for this iteration     100.00

 eigenvalues of (default mixing * dielectric matrix)
  average eigenvalue GAMMA=   0.1449
  0.1900  0.0999

 Free energy of the ion-electron system (eV)
  ---------------------------------------------------
  alpha Z        PSCENC =       797.33612757
  Ewald energy   TEWEN  =    132352.43571804
  -Hartree energ DENC   =   -159760.50694690
  -exchange      EXHF   =         0.00000000
  -V(xc)+E(xc)   XCENC  =        89.56088018
  PAW double counting   =     32184.79164973   -31187.48094738
  entropy T*S    EENTRO =        -0.06907659
  eigenvalues    EBANDS =     -1077.84297466
  atomic energy  EATOM  =     26496.80315902
  Solvation  Ediel_sol  =         0.00000000
  ---------------------------------------------------
  free energy    TOTEN  =      -104.97241100 eV

  energy without entropy =     -104.90333441  energy(sigma->0) =     -104.94938547


--------------------------------------------------------------------------------------------------------




--------------------------------------- Iteration      1(   4)  ---------------------------------------


    POTLOK:  cpu time      2.3844: real time      2.4538
    SETDIJ:  cpu time      0.0044: real time      0.0045
    EDDIAG:  cpu time      2.8503: real time      2.8725
  RMM-DIIS:  cpu time      7.7728: real time      7.8275
    ORTHCH:  cpu time      0.6759: real time      0.6820
       DOS:  cpu time      0.0009: real time      0.0009
    CHARGE:  cpu time      0.7625: real time      0.7684
    MIXING:  cpu time      0.0022: real time      0.0022
    --------------------------------------------
      LOOP:  cpu time     14.4533: real time     14.6119

 eigenvalue-minimisations  :  6443
 total energy-change (2. order) : 0.4430682E+00  (-0.1671160E-01)
 number of electron     360.9999937 magnetization 
 augmentation part      114.1359975 magnetization 

 Broyden mixing:
  rms(total) = 0.19748E+00    rms(broyden)= 0.19748E+00
  rms(prec ) = 0.24466E+00
  weight for this iteration     100.00

 eigenvalues of (default mixing * dielectric matrix)
  average eigenvalue GAMMA=   0.2234
  0.2906  0.2906  0.0890

 Free energy of the ion-electron system (eV)
  ---------------------------------------------------
  alpha Z        PSCENC =       797.33612757
  Ewald energy   TEWEN  =    132352.43571804
  -Hartree energ DENC   =   -159752.53973037
  -exchange      EXHF   =         0.00000000
  -V(xc)+E(xc)   XCENC  =        89.58338572
  PAW double counting   =     32183.41733709   -31186.13922405
  entropy T*S    EENTRO =        -0.08843412
  eigenvalues    EBANDS =     -1085.33768165
  atomic energy  EATOM  =     26496.80315902
  Solvation  Ediel_sol  =         0.00000000
  ---------------------------------------------------
  free energy    TOTEN  =      -104.52934277 eV

  energy without entropy =     -104.44090865  energy(sigma->0) =     -104.49986473


--------------------------------------------------------------------------------------------------------




--------------------------------------- Iteration      1(   5)  ---------------------------------------


    POTLOK:  cpu time      2.4456: real time      2.4599
    SETDIJ:  cpu time      0.0044: real time      0.0044
    EDDIAG:  cpu time      2.8934: real time      2.9159
  RMM-DIIS:  cpu time      8.4939: real time      8.5510
    ORTHCH:  cpu time      0.6031: real time      0.6079
       DOS:  cpu time      0.0008: real time      0.0008
    CHARGE:  cpu time      0.7512: real time      0.7585
    MIXING:  cpu time      0.0023: real time      0.0023
    --------------------------------------------
      LOOP:  cpu time     15.1945: real time     15.3007

 eigenvalue-minimisations  :  6828
 total energy-change (2. order) : 0.2603756E-01  (-0.4506013E-02)
 number of electron     360.9999937 magnetization 
 augmentation part      114.1345464 magnetization 

 Broyden mixing:
  rms(total) = 0.12845E+00    rms(broyden)= 0.12845E+00
  rms(prec ) = 0.14701E+00
  weight for this iteration     100.00

 eigenvalues of (default mixing * dielectric matrix)
  average eigenvalue GAMMA=   0.2852
  0.4199  0.4199  0.0900  0.2112

 Free energy of the ion-electron system (eV)
  ---------------------------------------------------
  alpha Z        PSCENC =       797.33612757
  Ewald energy   TEWEN  =    132352.43571804
  -Hartree energ DENC   =   -159752.72771064
  -exchange      EXHF   =         0.00000000
  -V(xc)+E(xc)   XCENC  =        89.59077494
  PAW double counting   =     32180.88815627   -31183.56868619
  entropy T*S    EENTRO =        -0.08961667
  eigenvalues    EBANDS =     -1085.17122754
  atomic energy  EATOM  =     26496.80315902
  Solvation  Ediel_sol  =         0.00000000
  ---------------------------------------------------
  free energy    TOTEN  =      -104.50330520 eV

  energy without entropy =     -104.41368853  energy(sigma->0) =     -104.47343298


--------------------------------------------------------------------------------------------------------




--------------------------------------- Iteration      1(   6)  ---------------------------------------


    POTLOK:  cpu time      2.4219: real time      2.4395
    SETDIJ:  cpu time      0.0052: real time      0.0053
    EDDIAG:  cpu time      2.7394: real time      2.7628
  RMM-DIIS:  cpu time      8.7749: real time      8.8469
    ORTHCH:  cpu time      0.6789: real time      0.6848
       DOS:  cpu time      0.0009: real time      0.0009
    CHARGE:  cpu time      0.7523: real time      0.7590
    MIXING:  cpu time      0.0042: real time      0.0042
    --------------------------------------------
      LOOP:  cpu time     15.3778: real time     15.5034

 eigenvalue-minimisations  :  7008
 total energy-change (2. order) : 0.9433737E-02  (-0.1323508E-02)
 number of electron     360.9999937 magnetization 
 augmentation part      114.1375509 magnetization 

 Broyden mixing:
  rms(total) = 0.43493E-01    rms(broyden)= 0.43493E-01
  rms(prec ) = 0.46766E-01
  weight for this iteration     100.00

 eigenvalues of (default mixing * dielectric matrix)
  average eigenvalue GAMMA=   0.3861
  0.6561  0.6561  0.0900  0.3108  0.2178

 Free energy of the ion-electron system (eV)
  ---------------------------------------------------
  alpha Z        PSCENC =       797.33612757
  Ewald energy   TEWEN  =    132352.43571804
  -Hartree energ DENC   =   -159752.12433075
  -exchange      EXHF   =         0.00000000
  -V(xc)+E(xc)   XCENC  =        89.59990364
  PAW double counting   =     32178.17873863   -31180.82699732
  entropy T*S    EENTRO =        -0.08982090
  eigenvalues    EBANDS =     -1085.80636939
  atomic energy  EATOM  =     26496.80315902
  Solvation  Ediel_sol  =         0.00000000
  ---------------------------------------------------
  free energy    TOTEN  =      -104.49387147 eV

  energy without entropy =     -104.40405056  energy(sigma->0) =     -104.46393117


--------------------------------------------------------------------------------------------------------




--------------------------------------- Iteration      1(   7)  ---------------------------------------


    POTLOK:  cpu time      2.4444: real time      2.4965
    SETDIJ:  cpu time      0.0045: real time      0.0045
    EDDIAG:  cpu time      2.7641: real time      2.7848
  RMM-DIIS:  cpu time     11.4361: real time     11.5044
    ORTHCH:  cpu time      0.5638: real time      0.5682
       DOS:  cpu time      0.0009: real time      0.0009
    CHARGE:  cpu time      0.7574: real time      0.7628
    MIXING:  cpu time      0.0051: real time      0.0052
    --------------------------------------------
      LOOP:  cpu time     17.9762: real time     18.1272

 eigenvalue-minimisations  :  6950
 total energy-change (2. order) :-0.1045773E-02  (-0.5357377E-03)
 number of electron     360.9999937 magnetization 
 augmentation part      114.1415626 magnetization 

 Broyden mixing:
  rms(total) = 0.56263E-01    rms(broyden)= 0.56263E-01
  rms(prec ) = 0.61885E-01
  weight for this iteration     100.00

 eigenvalues of (default mixing * dielectric matrix)
  average eigenvalue GAMMA=   0.5093
  1.5410  0.6136  0.0900  0.3423  0.2608  0.2080

 Free energy of the ion-electron system (eV)
  ---------------------------------------------------
  alpha Z        PSCENC =       797.33612757
  Ewald energy   TEWEN  =    132352.43571804
  -Hartree energ DENC   =   -159750.99012183
  -exchange      EXHF   =         0.00000000
  -V(xc)+E(xc)   XCENC  =        89.60607896
  PAW double counting   =     32176.89368214   -31179.52949018
  entropy T*S    EENTRO =        -0.09036747
  eigenvalues    EBANDS =     -1086.95970347
  atomic energy  EATOM  =     26496.80315902
  Solvation  Ediel_sol  =         0.00000000
  ---------------------------------------------------
  free energy    TOTEN  =      -104.49491724 eV

  energy without entropy =     -104.40454977  energy(sigma->0) =     -104.46479475


--------------------------------------------------------------------------------------------------------




--------------------------------------- Iteration      1(   8)  ---------------------------------------


    POTLOK:  cpu time      2.3073: real time      2.3213
    SETDIJ:  cpu time      0.0042: real time      0.0042
    EDDIAG:  cpu time      2.8582: real time      2.8800
  RMM-DIIS:  cpu time      8.8498: real time      8.9069
    ORTHCH:  cpu time      0.5560: real time      0.5608
       DOS:  cpu time      0.0010: real time      0.0009
    CHARGE:  cpu time      0.7594: real time      0.7655
    MIXING:  cpu time      0.0038: real time      0.0038
    --------------------------------------------
      LOOP:  cpu time     15.3397: real time     15.4435

 eigenvalue-minimisations  :  6889
 total energy-change (2. order) : 0.1206284E-02  (-0.2642995E-03)
 number of electron     360.9999937 magnetization 
 augmentation part      114.1367410 magnetization 

 Broyden mixing:
  rms(total) = 0.32021E-01    rms(broyden)= 0.32021E-01
  rms(prec ) = 0.35134E-01
  weight for this iteration     100.00

 eigenvalues of (default mixing * dielectric matrix)
  average eigenvalue GAMMA=   0.5405
  1.8679  0.6372  0.0900  0.4066  0.3536  0.2280  0.2001

 Free energy of the ion-electron system (eV)
  ---------------------------------------------------
  alpha Z        PSCENC =       797.33612757
  Ewald energy   TEWEN  =    132352.43571804
  -Hartree energ DENC   =   -159752.20734953
  -exchange      EXHF   =         0.00000000
  -V(xc)+E(xc)   XCENC  =        89.60451306
  PAW double counting   =     32176.60157528   -31179.22621746
  entropy T*S    EENTRO =        -0.09009626
  eigenvalues    EBANDS =     -1085.75114066
  atomic energy  EATOM  =     26496.80315902
  Solvation  Ediel_sol  =         0.00000000
  ---------------------------------------------------
  free energy    TOTEN  =      -104.49371096 eV

  energy without entropy =     -104.40361470  energy(sigma->0) =     -104.46367887


--------------------------------------------------------------------------------------------------------




--------------------------------------- Iteration      1(   9)  ---------------------------------------


    POTLOK:  cpu time      2.3178: real time      2.3563
    SETDIJ:  cpu time      0.0043: real time      0.0043
    EDDIAG:  cpu time      2.8731: real time      2.8954
  RMM-DIIS:  cpu time      8.7888: real time      8.8466
    ORTHCH:  cpu time      0.5033: real time      0.5084
       DOS:  cpu time      0.0009: real time      0.0009
    CHARGE:  cpu time      0.7510: real time      0.7569
    MIXING:  cpu time      0.0026: real time      0.0026
    --------------------------------------------
      LOOP:  cpu time     15.2417: real time     15.3715

 eigenvalue-minimisations  :  6857
 total energy-change (2. order) : 0.5507967E-03  (-0.1068777E-03)
 number of electron     360.9999937 magnetization 
 augmentation part      114.1388289 magnetization 

 Broyden mixing:
  rms(total) = 0.14816E-01    rms(broyden)= 0.14816E-01
  rms(prec ) = 0.15796E-01
  weight for this iteration     100.00

 eigenvalues of (default mixing * dielectric matrix)
  average eigenvalue GAMMA=   0.6624
  2.3394  1.2117  0.5758  0.0900  0.3316  0.3316  0.2220  0.1976

 Free energy of the ion-electron system (eV)
  ---------------------------------------------------
  alpha Z        PSCENC =       797.33612757
  Ewald energy   TEWEN  =    132352.43571804
  -Hartree energ DENC   =   -159751.64287401
  -exchange      EXHF   =         0.00000000
  -V(xc)+E(xc)   XCENC  =        89.60690097
  PAW double counting   =     32176.09009049   -31178.70985270
  entropy T*S    EENTRO =        -0.09030907
  eigenvalues    EBANDS =     -1086.32212046
  atomic energy  EATOM  =     26496.80315902
  Solvation  Ediel_sol  =         0.00000000
  ---------------------------------------------------
  free energy    TOTEN  =      -104.49316016 eV

  energy without entropy =     -104.40285108  energy(sigma->0) =     -104.46305713


--------------------------------------------------------------------------------------------------------




--------------------------------------- Iteration      1(  10)  ---------------------------------------


    POTLOK:  cpu time      2.3454: real time      2.3596
    SETDIJ:  cpu time      0.0043: real time      0.0043
    EDDIAG:  cpu time      2.7460: real time      2.7675
  RMM-DIIS:  cpu time      8.9168: real time      8.9747
    ORTHCH:  cpu time      0.4778: real time      0.4818
       DOS:  cpu time      0.0009: real time      0.0009
    CHARGE:  cpu time      0.7598: real time      0.7662
    MIXING:  cpu time      0.0029: real time      0.0029
    --------------------------------------------
      LOOP:  cpu time     15.2538: real time     15.3579

 eigenvalue-minimisations  :  6963
 total energy-change (2. order) : 0.9968317E-05  (-0.3616282E-04)
 number of electron     360.9999937 magnetization 
 augmentation part      114.1385921 magnetization 

 Broyden mixing:
  rms(total) = 0.12188E-01    rms(broyden)= 0.12188E-01
  rms(prec ) = 0.13257E-01
  weight for this iteration     100.00

 eigenvalues of (default mixing * dielectric matrix)
  average eigenvalue GAMMA=   0.6396
  2.4466  1.2663  0.5821  0.0900  0.3475  0.3475  0.2585  0.2195  0.1988

 Free energy of the ion-electron system (eV)
  ---------------------------------------------------
  alpha Z        PSCENC =       797.33612757
  Ewald energy   TEWEN  =    132352.43571804
  -Hartree energ DENC   =   -159751.52255305
  -exchange      EXHF   =         0.00000000
  -V(xc)+E(xc)   XCENC  =        89.60780089
  PAW double counting   =     32175.62497373   -31178.23540845
  entropy T*S    EENTRO =        -0.09039045
  eigenvalues    EBANDS =     -1086.45257750
  atomic energy  EATOM  =     26496.80315902
  Solvation  Ediel_sol  =         0.00000000
  ---------------------------------------------------
  free energy    TOTEN  =      -104.49315019 eV

  energy without entropy =     -104.40275974  energy(sigma->0) =     -104.46302004


--------------------------------------------------------------------------------------------------------




--------------------------------------- Iteration      1(  11)  ---------------------------------------


    POTLOK:  cpu time      2.4058: real time      2.4558
    SETDIJ:  cpu time      0.0143: real time      0.0144
    EDDIAG:  cpu time      3.0075: real time      3.0311
  RMM-DIIS:  cpu time      8.9188: real time      8.9761
    ORTHCH:  cpu time      0.6394: real time      0.6444
       DOS:  cpu time      0.0009: real time      0.0009
    CHARGE:  cpu time      0.7628: real time      0.7688
    MIXING:  cpu time      0.0038: real time      0.0038
    --------------------------------------------
      LOOP:  cpu time     15.7533: real time     15.8953

 eigenvalue-minimisations  :  6949
 total energy-change (2. order) : 0.9174953E-04  (-0.1173726E-04)
 number of electron     360.9999937 magnetization 
 augmentation part      114.1382262 magnetization 

 Broyden mixing:
  rms(total) = 0.51928E-02    rms(broyden)= 0.51928E-02
  rms(prec ) = 0.56350E-02
  weight for this iteration     100.00

 eigenvalues of (default mixing * dielectric matrix)
  average eigenvalue GAMMA=   0.6447
  2.5093  1.3039  0.6863  0.5240  0.0900  0.3785  0.2994  0.1975  0.2190  0.2394

 Free energy of the ion-electron system (eV)
  ---------------------------------------------------
  alpha Z        PSCENC =       797.33612757
  Ewald energy   TEWEN  =    132352.43571804
  -Hartree energ DENC   =   -159751.57867282
  -exchange      EXHF   =         0.00000000
  -V(xc)+E(xc)   XCENC  =        89.60752120
  PAW double counting   =     32175.60319557   -31178.21270644
  entropy T*S    EENTRO =        -0.09033790
  eigenvalues    EBANDS =     -1086.39706268
  atomic energy  EATOM  =     26496.80315902
  Solvation  Ediel_sol  =         0.00000000
  ---------------------------------------------------
  free energy    TOTEN  =      -104.49305844 eV

  energy without entropy =     -104.40272054  energy(sigma->0) =     -104.46294581


--------------------------------------------------------------------------------------------------------




--------------------------------------- Iteration      1(  12)  ---------------------------------------


    POTLOK:  cpu time      2.3270: real time      2.3419
    SETDIJ:  cpu time      0.0043: real time      0.0043
    EDDIAG:  cpu time      2.6767: real time      2.6967
  RMM-DIIS:  cpu time      7.7716: real time      7.8195
    ORTHCH:  cpu time      0.4684: real time      0.4720
       DOS:  cpu time      0.0009: real time      0.0009
    --------------------------------------------
      LOOP:  cpu time     13.2489: real time     13.3353

 eigenvalue-minimisations  :  5710
 total energy-change (2. order) : 0.3022520E-05  (-0.4173172E-05)
 number of electron     360.9999937 magnetization 
 augmentation part      114.1382262 magnetization 

 Free energy of the ion-electron system (eV)
  ---------------------------------------------------
  alpha Z        PSCENC =       797.33612757
  Ewald energy   TEWEN  =    132352.43571804
  -Hartree energ DENC   =   -159751.44489461
  -exchange      EXHF   =         0.00000000
  -V(xc)+E(xc)   XCENC  =        89.60758020
  PAW double counting   =     32175.57629964   -31178.18580138
  entropy T*S    EENTRO =        -0.09037207
  eigenvalues    EBANDS =     -1086.53087182
  atomic energy  EATOM  =     26496.80315902
  Solvation  Ediel_sol  =         0.00000000
  ---------------------------------------------------
  free energy    TOTEN  =      -104.49305542 eV

  energy without entropy =     -104.40268335  energy(sigma->0) =     -104.46293140


--------------------------------------------------------------------------------------------------------




 average (electrostatic) potential at core
  the test charge radii are     1.2059  0.5201
  (the norm of the test charge is              1.0000)
       1 -73.5416       2 -73.5298       3 -73.5150       4 -73.5269       5 -73.5134
       6 -73.5216       7 -73.5407       8 -73.5254       9 -73.5370      10 -73.9829
      11 -73.9683      12 -73.9755      13 -73.9781      14 -73.9830      15 -73.9809
      16 -73.9903      17 -73.9867      18 -73.9218      19 -73.9413      20 -73.9367
      21 -73.9766      22 -73.9284      23 -73.9629      24 -73.9661      25 -73.9813
      26 -73.9520      27 -73.9804      28 -73.5139      29 -73.5135      30 -73.5335
      31 -73.9170      32 -73.5167      33 -73.5187      34 -73.5405      35 -73.5385
      36 -73.5412      37 -38.0817
 
 
 
 E-fermi :  -0.0685     XC(G=0):  -5.8769     alpha+bet : -5.8354

 Fermi energy:        -0.0685293798

 k-point     1 :       0.0000    0.0000    0.0000
  band No.  band energies     occupation 
      1      -8.8929      2.00000
      2      -7.6456      2.00000
      3      -6.6695      2.00000
      4      -6.4957      2.00000
      5      -6.4719      2.00000
      6      -6.4676      2.00000
      7      -6.4575      2.00000
      8      -6.4543      2.00000
      9      -6.4468      2.00000
     10      -6.4408      2.00000
     11      -6.0363      2.00000
     12      -5.9200      2.00000
     13      -5.9168      2.00000
     14      -5.9096      2.00000
     15      -5.9041      2.00000
     16      -5.9021      2.00000
     17      -5.7148      2.00000
     18      -5.4687      2.00000
     19      -5.4549      2.00000
     20      -5.4527      2.00000
     21      -5.4499      2.00000
     22      -5.4448      2.00000
     23      -5.3654      2.00000
     24      -5.2350      2.00000
     25      -5.2286      2.00000
     26      -5.2262      2.00000
     27      -5.2213      2.00000
     28      -5.2161      2.00000
     29      -5.1076      2.00000
     30      -5.0245      2.00000
     31      -5.0221      2.00000
     32      -5.0164      2.00000
     33      -5.0149      2.00000
     34      -5.0072      2.00000
     35      -4.9795      2.00000
     36      -4.9778      2.00000
     37      -4.9638      2.00000
     38      -4.9621      2.00000
     39      -4.9368      2.00000
     40      -4.9217      2.00000
     41      -4.7584      2.00000
     42      -4.3766      2.00000
     43      -4.3746      2.00000
     44      -4.3654      2.00000
     45      -4.3423      2.00000
     46      -4.3179      2.00000
     47      -4.3135      2.00000
     48      -4.3064      2.00000
     49      -4.2982      2.00000
     50      -4.2953      2.00000
     51      -4.1818      2.00000
     52      -4.1382      2.00000
     53      -4.1150      2.00000
     54      -4.0473      2.00000
     55      -3.9785      2.00000
     56      -3.5781      2.00000
     57      -3.5756      2.00000
     58      -3.5624      2.00000
     59      -3.5614      2.00000
     60      -3.5592      2.00000
     61      -3.5133      2.00000
     62      -3.4856      2.00000
     63      -3.3793      2.00000
     64      -3.3753      2.00000
     65      -3.3737      2.00000
     66      -3.3669      2.00000
     67      -3.3622      2.00000
     68      -3.3596      2.00000
     69      -3.3405      2.00000
     70      -3.3275      2.00000
     71      -3.3129      2.00000
     72      -3.3099      2.00000
     73      -3.2998      2.00000
     74      -3.2953      2.00000
     75      -3.2674      2.00000
     76      -3.2661      2.00000
     77      -3.2343      2.00000
     78      -3.1531      2.00000
     79      -3.1488      2.00000
     80      -3.1397      2.00000
     81      -3.1330      2.00000
     82      -3.1292      2.00000
     83      -3.0912      2.00000
     84      -2.9404      2.00000
     85      -2.9332      2.00000
     86      -2.9298      2.00000
     87      -2.9275      2.00000
     88      -2.9146      2.00000
     89      -2.9078      2.00000
     90      -2.9040      2.00000
     91      -2.8957      2.00000
     92      -2.8282      2.00000
     93      -2.8143      2.00000
     94      -2.7662      2.00000
     95      -2.7539      2.00000
     96      -2.7382      2.00000
     97      -2.7284      2.00000
     98      -2.7173      2.00000
     99      -2.6853      2.00000
    100      -2.6810      2.00000
    101      -2.6380      2.00000
    102      -2.5322      2.00000
    103      -2.5259      2.00000
    104      -2.5136      2.00000
    105      -2.5011      2.00000
    106      -2.4997      2.00000
    107      -2.4949      2.00000
    108      -2.2102      2.00000
    109      -2.0168      2.00000
    110      -2.0075      2.00000
    111      -1.9964      2.00000
    112      -1.9939      2.00000
    113      -1.9859      2.00000
    114      -1.9826      2.00000
    115      -1.9811      2.00000
    116      -1.9622      2.00000
    117      -1.9481      2.00000
    118      -1.9463      2.00000
    119      -1.9437      2.00000
    120      -1.8719      2.00000
    121      -1.8551      2.00000
    122      -1.8219      2.00000
    123      -1.7334      2.00000
    124      -1.7245      2.00000
    125      -1.7089      2.00000
    126      -1.7042      2.00000
    127      -1.7030      2.00000
    128      -1.5937      2.00000
    129      -1.5912      2.00000
    130      -1.5314      2.00000
    131      -1.5302      2.00000
    132      -1.5113      2.00000
    133      -1.4998      2.00000
    134      -1.3837      2.00000
    135      -1.2870      2.00000
    136      -1.2631      2.00000
    137      -1.2626      2.00000
    138      -1.2481      2.00000
    139      -1.2479      2.00000
    140      -1.2427      2.00000
    141      -1.1781      2.00000
    142      -1.1755      2.00000
    143      -1.0285      2.00000
    144      -1.0231      2.00000
    145      -1.0168      2.00000
    146      -1.0127      2.00000
    147      -1.0101      2.00000
    148      -0.9517      2.00000
    149      -0.8666      2.00000
    150      -0.8570      2.00000
    151      -0.8360      2.00000
    152      -0.8274      2.00000
    153      -0.8246      2.00000
    154      -0.8170      2.00000
    155      -0.8063      2.00000
    156      -0.7976      2.00000
    157      -0.7971      2.00000
    158      -0.7936      2.00000
    159      -0.7886      2.00000
    160      -0.7149      2.00000
    161      -0.6955      2.00000
    162      -0.6816      2.00000
    163      -0.6684      2.00000
    164      -0.6631      2.00000
    165      -0.6558      2.00000
    166      -0.6391      2.00000
    167      -0.6363      2.00000
    168      -0.5957      2.00000
    169      -0.5885      2.00000
    170      -0.5588      2.00000
    171      -0.5539      2.00000
    172      -0.5496      2.00000
    173      -0.5390      2.00000
    174      -0.5341      2.00000
    175      -0.5303      2.00000
    176      -0.4504      2.00000
    177      -0.4415      2.00000
    178      -0.4359      2.00000
    179      -0.4317      2.00000
    180      -0.4303      2.00000
    181      -0.4233      2.00001
    182      -0.4180      2.00001
    183      -0.3443      2.00068
    184      -0.3234      2.00186
    185      -0.3143      2.00279
    186      -0.3136      2.00288
    187      -0.3056      2.00405
    188      -0.3002      2.00504
    189      -0.1068      1.59875
    190      -0.0991      1.49139
    191      -0.0161      0.23348
    192      -0.0047      0.12694
    193       0.0098      0.02897
    194       0.0149      0.00354
    195       0.0155      0.00078
    196       0.0200     -0.01738
    197       0.4105     -0.00000
    198       0.8202     -0.00000
    199       0.8785     -0.00000
    200       0.8881     -0.00000
    201       0.9051     -0.00000
    202       0.9088     -0.00000
    203       0.9099     -0.00000
    204       2.5752     -0.00000
    205       3.1784      0.00000
    206       3.1861      0.00000
    207       3.2133      0.00000
    208       3.2194      0.00000
    209       3.2364      0.00000
    210       4.4308      0.00000
    211       4.7547      0.00000
    212       4.7843      0.00000
    213       4.8214      0.00000
    214       4.8232      0.00000
    215       4.8282      0.00000
    216       4.8714      0.00000
    217       4.9824      0.00000
    218       5.1064      0.00000
    219       5.4935      0.00000
    220       5.5234      0.00000
    221       5.8121      0.00000
    222       5.8203      0.00000
    223       5.8495      0.00000
    224       5.8576      0.00000
    225       5.8665      0.00000
    226       6.1564      0.00000
    227       6.4677      0.00000
    228       6.6180      0.00000
    229       6.6309      0.00000
    230       6.6343      0.00000
    231       6.7795      0.00000
    232       6.9034      0.00000
    233       7.1300      0.00000
    234       7.1386      0.00000
    235       7.1574      0.00000
    236       7.1636      0.00000
    237       7.1651      0.00000
    238       7.1734      0.00000
    239       7.3032      0.00000
    240       7.8090      0.00000

 k-point     2 :       0.2000    0.0000    0.0000
  band No.  band energies     occupation 
      1      -8.7447      2.00000
      2      -7.5028      2.00000
      3      -6.9810      2.00000
      4      -6.6081      2.00000
      5      -6.5639      2.00000
      6      -6.4917      2.00000
      7      -6.3508      2.00000
      8      -6.2840      2.00000
      9      -6.2341      2.00000
     10      -6.2193      2.00000
     11      -6.0920      2.00000
     12      -6.0063      2.00000
     13      -5.9098      2.00000
     14      -5.8450      2.00000
     15      -5.8407      2.00000
     16      -5.8284      2.00000
     17      -5.6611      2.00000
     18      -5.5436      2.00000
     19      -5.4216      2.00000
     20      -5.4149      2.00000
     21      -5.4079      2.00000
     22      -5.3695      2.00000
     23      -5.3306      2.00000
     24      -5.3124      2.00000
     25      -5.2730      2.00000
     26      -5.2479      2.00000
     27      -5.2280      2.00000
     28      -5.2139      2.00000
     29      -5.1536      2.00000
     30      -5.1204      2.00000
     31      -5.1066      2.00000
     32      -5.0332      2.00000
     33      -5.0174      2.00000
     34      -5.0079      2.00000
     35      -5.0011      2.00000
     36      -4.8665      2.00000
     37      -4.8057      2.00000
     38      -4.7972      2.00000
     39      -4.7797      2.00000
     40      -4.7553      2.00000
     41      -4.7116      2.00000
     42      -4.4990      2.00000
     43      -4.4966      2.00000
     44      -4.4720      2.00000
     45      -4.4247      2.00000
     46      -4.4098      2.00000
     47      -4.3900      2.00000
     48      -4.3084      2.00000
     49      -4.2156      2.00000
     50      -4.1638      2.00000
     51      -4.1233      2.00000
     52      -4.1139      2.00000
     53      -4.0882      2.00000
     54      -4.0559      2.00000
     55      -3.9894      2.00000
     56      -3.8346      2.00000
     57      -3.7410      2.00000
     58      -3.7281      2.00000
     59      -3.6795      2.00000
     60      -3.6589      2.00000
     61      -3.6329      2.00000
     62      -3.5850      2.00000
     63      -3.5630      2.00000
     64      -3.5472      2.00000
     65      -3.5272      2.00000
     66      -3.5204      2.00000
     67      -3.4757      2.00000
     68      -3.4517      2.00000
     69      -3.4050      2.00000
     70      -3.3748      2.00000
     71      -3.3627      2.00000
     72      -3.3316      2.00000
     73      -3.2686      2.00000
     74      -3.2612      2.00000
     75      -3.2487      2.00000
     76      -3.1858      2.00000
     77      -3.1809      2.00000
[...]
    148      -1.1119      2.00000
    149      -1.0836      2.00000
    150      -1.0725      2.00000
    151      -1.0521      2.00000
    152      -1.0319      2.00000
    153      -1.0219      2.00000
    154      -0.9203      2.00000
    155      -0.8539      2.00000
    156      -0.7926      2.00000
    157      -0.7430      2.00000
    158      -0.7055      2.00000
    159      -0.6232      2.00000
    160      -0.6101      2.00000
    161      -0.5950      2.00000
    162      -0.5423      2.00000
    163      -0.4900      2.00000
    164      -0.4847      2.00000
    165      -0.4375      2.00000
    166      -0.3794      2.00010
    167      -0.3196      2.00220
    168      -0.2958      2.00601
    169      -0.2749      2.01296
    170      -0.2621      2.01959
    171      -0.2537      2.02508
    172      -0.2273      2.04728
    173      -0.2061      2.06526
    174      -0.1710      2.05499
    175      -0.1119      1.66294
    176      -0.1035      1.55434
    177      -0.0894      1.34506
    178      -0.0611      0.87415
    179      -0.0444      0.60425
    180      -0.0400      0.53840
    181      -0.0357      0.47560
    182       0.0279     -0.04195
    183       0.1350     -0.01424
    184       0.1627     -0.00514
    185       0.1690     -0.00398
    186       0.1745     -0.00314
    187       0.1797     -0.00251
    188       0.2360     -0.00014
    189       0.2834     -0.00001
    190       0.3666     -0.00000
    191       0.4772     -0.00000
    192       1.1050     -0.00000
    193       1.3392     -0.00000
    194       1.3445     -0.00000
    195       1.5232     -0.00000
    196       1.5802     -0.00000
    197       1.6786     -0.00000
    198       1.7161     -0.00000
    199       1.7213     -0.00000
    200       2.0305     -0.00000
    201       2.3397     -0.00000
    202       2.3464     -0.00000
    203       2.5310     -0.00000
    204       2.7925      0.00000
    205       2.8153      0.00000
    206       2.9161      0.00000
    207       2.9372      0.00000
    208       3.0835      0.00000
    209       3.1542      0.00000
    210       3.2500      0.00000
    211       3.2969      0.00000
    212       3.5571      0.00000
    213       3.7423      0.00000
    214       3.7620      0.00000
    215       4.1043      0.00000
    216       4.4179      0.00000
    217       4.4327      0.00000
    218       4.5964      0.00000
    219       4.7519      0.00000
    220       5.2004      0.00000
    221       5.5131      0.00000
    222       5.5574      0.00000
    223       5.6762      0.00000
    224       5.7493      0.00000
    225       5.8060      0.00000
    226       5.9004      0.00000
    227       5.9513      0.00000
    228       5.9891      0.00000
    229       6.0038      0.00000
    230       6.0564      0.00000
    231       6.2643      0.00000
    232       6.4532      0.00000
    233       6.6016      0.00000
    234       6.7207      0.00000
    235       6.8069      0.00000
    236       6.9464      0.00000
    237       6.9646      0.00000
    238       7.0619      0.00000
    239       7.2250      0.00000
    240       7.3154      0.00000


--------------------------------------------------------------------------------------------------------


 soft charge-density along one line, spin component           1
         0         1         2         3         4         5         6         7         8         9
 total charge-density along one line
 
 pseudopotential strength for first ion, spin component:           1
 -6.578   0.001   0.000  -0.010  -0.000  -6.673   0.001   0.000
  0.001  -6.464   0.000   0.000  -0.010   0.001  -6.562   0.000
  0.000   0.000  -6.453   0.001   0.000   0.000   0.000  -6.551
 -0.010   0.000   0.001  -6.464   0.001  -0.010   0.000   0.001
 -0.000  -0.010   0.000   0.001  -6.578  -0.000  -0.010   0.000
 -6.673   0.001   0.000  -0.010  -0.000  -6.751   0.001   0.000
  0.001  -6.562   0.000   0.000  -0.010   0.001  -6.644   0.000
  0.000   0.000  -6.551   0.001   0.000   0.000   0.000  -6.633
 -0.010   0.000   0.001  -6.562   0.001  -0.009   0.000   0.001
 -0.000  -0.010   0.000   0.001  -6.673  -0.000  -0.010   0.000
 -0.000  -0.000  -0.035  -0.001   0.000  -0.000  -0.000  -0.034
 -0.000  -0.000  -0.052  -0.001   0.000  -0.000  -0.000  -0.051
  0.000  -0.004   0.000  -0.000   0.000   0.000  -0.004   0.000
 -0.000  -0.000  -0.008   0.000  -0.000  -0.000  -0.000  -0.008
  0.000  -0.000  -0.000  -0.004   0.000   0.000  -0.000  -0.000
  0.000  -0.003   0.000   0.000   0.001   0.000  -0.003   0.000
  0.000  -0.000  -0.008   0.000  -0.000   0.000  -0.000  -0.008
  0.000   0.000   0.000  -0.004   0.000   0.000   0.000   0.000
 total augmentation occupancy for first ion, spin component:           1
  3.243   0.013   0.006  -0.267  -0.018  -1.907  -0.008  -0.003   0.086   0.012   0.002  -0.000   0.006   0.000  -0.041  -0.000
  0.013   4.218   0.003   0.002  -0.264  -0.008  -2.168  -0.001   0.001   0.092   0.005  -0.001  -0.244   0.001   0.001   0.014
  0.006   0.003   4.383   0.014   0.003  -0.003  -0.001  -2.563  -0.008  -0.002   0.846  -0.183  -0.002  -0.280  -0.005   0.000
 -0.267   0.002   0.014   4.223  -0.002   0.095   0.001  -0.008  -2.169   0.002   0.008  -0.004   0.001   0.003  -0.242  -0.000
 -0.018  -0.264   0.003  -0.002   3.245   0.012   0.083  -0.002   0.002  -1.908   0.001  -0.000  -0.048   0.000   0.005   0.004
 -1.907  -0.008  -0.003   0.095   0.012   2.221   0.005   0.001   0.035  -0.007  -0.002   0.000  -0.007  -0.001   0.041   0.001
 -0.008  -2.168  -0.001   0.001   0.083   0.005   1.967  -0.001  -0.004   0.038  -0.003   0.001   0.236  -0.001  -0.001  -0.019
 -0.003  -0.001  -2.563  -0.008  -0.002   0.001  -0.001   2.531   0.003   0.001  -0.709   0.126   0.003   0.337   0.005  -0.000
  0.086   0.001  -0.008  -2.169   0.002   0.035  -0.004   0.003   1.965  -0.002  -0.005   0.002  -0.001  -0.004   0.234   0.000
  0.012   0.092  -0.002   0.002  -1.908  -0.007   0.038   0.001  -0.002   2.221  -0.001   0.001   0.049  -0.000  -0.006  -0.004
  0.002   0.005   0.846   0.008   0.001  -0.002  -0.003  -0.709  -0.005  -0.001   2.507  -0.574  -0.003   0.191  -0.005   0.000
 -0.000  -0.001  -0.183  -0.004  -0.000   0.000   0.001   0.126   0.002   0.001  -0.574   0.148   0.001  -0.068   0.001  -0.000
  0.006  -0.244  -0.002   0.001  -0.048  -0.007   0.236   0.003  -0.001   0.049  -0.003   0.001   0.254  -0.000  -0.000  -0.018
  0.000   0.001  -0.280   0.003   0.000  -0.001  -0.001   0.337  -0.004  -0.000   0.191  -0.068  -0.000   0.142  -0.000   0.000
 -0.041   0.001  -0.005  -0.242   0.005   0.041  -0.001   0.005   0.234  -0.006  -0.005   0.001  -0.000  -0.000   0.254   0.000
 -0.000   0.014   0.000  -0.000   0.004   0.001  -0.019  -0.000   0.000  -0.004   0.000  -0.000  -0.018   0.000   0.000   0.001
 -0.000  -0.000   0.008   0.000  -0.000   0.000   0.000  -0.023   0.000   0.000  -0.021   0.007   0.000  -0.011   0.000  -0.000
  0.003  -0.000   0.000   0.014  -0.000  -0.003   0.000  -0.000  -0.019   0.000   0.000  -0.000   0.000   0.000  -0.018  -0.000


------------------------ aborting loop because EDIFF is reached ----------------------------------------


    CHARGE:  cpu time      0.7550: real time      0.7615
    FORLOC:  cpu time      0.0231: real time      0.0233
    FORNL :  cpu time      2.6320: real time      2.6531
    STRESS:  cpu time      7.7484: real time      7.8028
    FORCOR:  cpu time      2.3771: real time      2.3906
    FORHAR:  cpu time      0.0158: real time      0.0159
    MIXING:  cpu time      0.0049: real time      0.0050
    OFIELD:  cpu time      0.0000: real time      0.0000

  FORCE on cell =-STRESS in cart. coord.  units (eV):
  Direction    XX          YY          ZZ          XY          YZ          ZX
  --------------------------------------------------------------------------------------
  Alpha Z   797.33613   797.33613   797.33613
  Ewald  152057.52495152080.02890************    -2.06712   -21.79184    -2.13274
  Hartree158033.64843158039.37449************    -0.62339    -4.47595    -0.48942
  E(xc)   -1658.04580 -1657.74605 -1666.45949    -0.02282    -0.19633    -0.03020
  Local  ************************321570.72242     2.26465    21.89707     1.92329
  n-local   109.77839   111.18060    90.63448    -0.13027    -2.22084    -0.13287
  augment  1892.91254  1891.07097  1951.87152     0.19602     1.62030     0.29150
  Kinetic  5215.15553  5209.76257  5363.24670     0.40052     4.90905     0.59144
  Fock        0.00000     0.00000     0.00000     0.00000     0.00000     0.00000
  -------------------------------------------------------------------------------------
  Total     -32.75607   -33.08222     2.92663     0.01758    -0.25855     0.02099
  in kB     -33.84817   -34.18519     3.02420     0.01817    -0.26717     0.02169
  external pressure =      -21.67 kB  Pullay stress =        0.00 kB


 VOLUME and BASIS-vectors are now :
 -----------------------------------------------------------------------------
  energy-cutoff  :      680.29
  volume of cell :     1550.48
      direct lattice vectors                 reciprocal lattice vectors
     8.468310000  0.000000000  0.000000000     0.118087316 -0.068177744  0.000000000
     4.234155000  7.333771587  0.000000000     0.000000000  0.136355488  0.000000000
     0.000000000  0.000000000 24.965661990     0.000000000  0.000000000  0.040055016

  length of vectors
     8.468310000  8.468310000 24.965661990     0.136355488  0.136355488  0.040055016


 FORCES acting on ions
    electron-ion (+dipol)            ewald-force                    non-local-force                 convergence-correction
 -----------------------------------------------------------------------------------------------
   -.360E+01 -.211E+01 0.248E+04   0.358E+01 0.206E+01 -.248E+04   0.107E+00 0.653E-01 -.130E+01   -.458E-01 0.192E-01 -.378E-01
   -.424E+00 -.375E+01 0.248E+04   0.378E+00 0.369E+01 -.248E+04   0.296E-01 0.963E-01 -.130E+01   0.391E-01 0.204E-01 -.399E-01
   0.344E+01 -.538E+01 0.248E+04   -.344E+01 0.540E+01 -.248E+04   -.465E-01 0.411E-01 -.124E+01   0.637E-02 0.643E-01 -.167E-01
   -.343E+01 0.130E+01 0.248E+04   0.339E+01 -.123E+01 -.247E+04   0.955E-01 -.309E-01 -.126E+01   -.160E-02 -.522E-01 -.628E-01
   -.854E-01 -.189E+00 0.248E+04   0.305E-01 0.254E+00 -.247E+04   0.755E-02 -.736E-02 -.133E+01   0.563E-01 -.656E-01 -.370E-01
   0.332E+01 -.220E+01 0.248E+04   -.324E+01 0.226E+01 -.247E+04   -.754E-01 0.136E-01 -.131E+01   -.553E-01 -.722E-01 -.387E-01
   -.299E+01 0.591E+01 0.248E+04   0.291E+01 -.594E+01 -.248E+04   0.888E-01 -.878E-01 -.132E+01   0.195E-01 0.496E-01 -.645E-01
   -.125E+00 0.408E+01 0.248E+04   0.134E+00 -.405E+01 -.247E+04   -.161E-01 -.692E-01 -.131E+01   -.450E-02 -.691E-02 -.623E-01
   0.351E+01 0.223E+01 0.248E+04   -.344E+01 -.228E+01 -.247E+04   -.109E+00 -.439E-01 -.129E+01   -.149E-01 0.458E-01 -.679E-01
   -.376E+01 -.305E+01 0.836E+03   0.375E+01 0.306E+01 -.835E+03   0.963E-01 0.519E-01 -.330E+00   -.276E-02 -.165E-01 -.276E-01
   0.135E+01 -.378E+01 0.838E+03   -.134E+01 0.371E+01 -.838E+03   -.294E-01 0.113E+00 -.368E+00   0.573E-01 -.554E-02 -.388E-01
   0.177E+01 -.527E+01 0.836E+03   -.179E+01 0.521E+01 -.836E+03   -.170E-01 0.141E+00 -.344E+00   -.552E-01 -.123E-01 -.446E-01
   -.761E+00 0.124E+01 0.835E+03   0.665E+00 -.116E+01 -.835E+03   0.668E-01 -.350E-01 -.307E+00   0.414E-01 -.472E-01 -.152E-01
   0.366E+00 -.165E+00 0.840E+03   -.367E+00 0.250E+00 -.839E+03   0.105E-02 0.669E-02 -.389E+00   -.468E-02 -.927E-01 -.649E-01
   0.422E+00 -.217E+01 0.834E+03   -.332E+00 0.225E+01 -.834E+03   -.765E-01 0.136E-01 -.286E+00   -.367E-01 -.523E-01 -.200E-01
   -.295E+01 0.504E+01 0.836E+03   0.295E+01 -.509E+01 -.835E+03   0.857E-01 -.945E-01 -.325E+00   -.271E-01 0.562E-01 -.393E-01
   0.113E+00 0.300E+01 0.836E+03   -.107E+00 -.305E+01 -.836E+03   -.486E-01 -.743E-01 -.331E+00   0.201E-01 0.577E-01 -.385E-01
   0.330E+01 0.520E+01 0.831E+03   -.328E+01 -.522E+01 -.830E+03   -.979E-01 -.762E-01 -.292E+00   0.675E-02 0.116E+00 -.752E-02
   -.364E+01 -.196E+01 -.827E+03   0.377E+01 0.210E+01 0.827E+03   -.895E-01 -.937E-01 0.483E+00   -.168E-01 -.226E-01 0.565E-01
   0.336E+01 -.113E+01 -.825E+03   -.348E+01 0.127E+01 0.824E+03   0.744E-01 -.989E-01 0.484E+00   0.216E-01 -.165E-01 0.578E-01
   0.483E+00 -.674E-01 -.814E+03   -.479E+00 0.136E+00 0.813E+03   0.625E-03 0.572E-02 0.501E+00   -.487E-02 -.780E-01 0.171E-01
   0.352E+00 -.180E+01 -.835E+03   -.355E+00 0.112E+01 0.835E+03   -.696E-02 0.622E+00 -.264E+00   0.624E-02 0.129E-01 0.149E+00
   0.191E+01 0.733E+00 -.816E+03   -.190E+01 -.726E+00 0.815E+03   0.247E-01 0.120E-01 0.490E+00   -.419E-01 -.149E-01 0.834E-01
   -.218E+01 0.181E+00 -.815E+03   0.218E+01 -.171E+00 0.814E+03   -.261E-01 0.348E-02 0.500E+00   0.352E-01 -.125E-01 0.856E-01
   0.283E+01 0.226E+01 -.821E+03   -.276E+01 -.231E+01 0.821E+03   -.422E-01 -.111E-01 0.478E+00   -.516E-01 0.350E-01 0.641E-01
   -.784E+00 -.110E+01 -.825E+03   0.792E+00 0.112E+01 0.825E+03   -.454E-02 -.803E-01 0.376E+00   -.199E-02 0.476E-01 0.597E-01
   -.200E+01 0.202E+01 -.818E+03   0.193E+01 -.207E+01 0.817E+03   0.341E-01 -.311E-02 0.496E+00   0.541E-01 0.403E-01 0.687E-01
   -.737E-01 0.963E+00 -.246E+04   -.566E+00 -.167E+01 0.245E+04   0.661E+00 0.717E+00 0.145E+01   -.279E-01 0.904E-02 0.403E-01
   -.167E+00 0.124E+01 -.245E+04   0.813E+00 -.193E+01 0.245E+04   -.661E+00 0.704E+00 0.145E+01   0.305E-01 0.126E-01 0.401E-01
   0.254E+00 0.452E+00 -.246E+04   -.252E+00 -.367E+00 0.246E+04   0.205E-02 -.413E-01 0.114E+01   -.168E-02 -.434E-01 0.325E-01
   0.259E-01 -.238E+02 -.243E+04   -.246E-01 0.217E+02 0.244E+04   0.109E-03 0.189E+01 -.404E+01   0.428E-02 0.189E-01 0.568E-01
   0.107E+01 -.166E+01 -.245E+04   -.735E+00 0.173E+01 0.245E+04   -.330E+00 -.598E-01 0.129E+01   -.334E-01 -.800E-02 0.564E-01
   -.106E+01 -.214E+01 -.245E+04   0.743E+00 0.221E+01 0.245E+04   0.322E+00 -.571E-01 0.129E+01   0.293E-01 -.829E-02 0.602E-01
   0.126E+01 0.310E+01 -.246E+04   -.113E+01 -.296E+01 0.246E+04   -.104E+00 -.188E+00 0.123E+01   -.544E-01 0.512E-02 0.616E-01
   -.396E+00 0.121E+01 -.246E+04   0.400E+00 -.123E+01 0.246E+04   0.179E-02 0.110E-01 0.118E+01   -.154E-02 0.228E-02 0.898E-01
   -.716E+00 0.313E+01 -.246E+04   0.605E+00 -.300E+01 0.246E+04   0.875E-01 -.194E+00 0.123E+01   0.568E-01 0.901E-02 0.651E-01
   0.700E-02 0.138E+02 -.321E+03   -.748E-02 -.151E+02 0.323E+03   0.449E-03 0.143E+01 -.240E+01   0.166E-03 0.566E-02 -.507E-02
 -----------------------------------------------------------------------------------------------
   -.178E-01 -.459E+01 0.687E+01   -.136E-12 0.126E-12 -.347E-11   0.569E-02 0.459E+01 -.727E+01   0.543E-03 -.305E-03 0.416E+00
 
 
 POSITION                                       TOTAL-FORCE (eV/Angst)
 -----------------------------------------------------------------------------------
      0.00000      0.00000      8.50000         0.048579      0.039135     -0.121963
      2.82843      0.00000      8.50000         0.022780      0.057765     -0.085439
      5.65685      0.00000      8.50000        -0.033995      0.123250     -0.189417
      1.41421      2.44949      8.50000         0.052634     -0.016466     -0.088139
      4.24264      2.44949      8.50000         0.009261     -0.007510     -0.076868
      7.07107      2.44949      8.50000        -0.055321      0.005690     -0.089855
      2.82843      4.89898      8.50000         0.031729     -0.065684     -0.105934
      5.65685      4.89898      8.50000        -0.011153     -0.049275     -0.085495
      8.48528      4.89898      8.50000        -0.055195     -0.040493     -0.082910
      1.41421      0.81650     10.80940         0.074813      0.047084      0.146355
      4.24264      0.81650     10.80940         0.034507      0.037250     -0.009112
      7.07107      0.81650     10.80940        -0.086481      0.062700      0.022207
      2.82843      3.26599     10.80940         0.012270     -0.006460      0.156596
      5.65685      3.26599     10.80940        -0.004440     -0.001544      0.029278
      8.48528      3.26599     10.80940        -0.022681      0.042559      0.175286
      4.24264      5.71548     10.80940         0.055288     -0.092401      0.102310
      7.07107      5.71548     10.80940        -0.022116     -0.067830      0.090232
      9.89949      5.71548     10.80940        -0.076676      0.020985      0.067378
      8.48133      1.63825     13.10047         0.024170      0.025315      0.019316
      2.83934      1.63763     13.09874        -0.025505      0.019448      0.012998
      5.65989      1.63679     13.08626        -0.000028     -0.003569     -0.002247
      9.89518      4.06690     13.12264        -0.003843     -0.046843      0.065888
      4.24970      4.08425     13.08948        -0.005604      0.004181      0.006246
      7.07037      4.08466     13.08812         0.007398      0.000781      0.004046
     11.30909      6.52863     13.09664        -0.022857     -0.022629     -0.013937
      5.66088      6.53219     13.10212         0.002056     -0.010994     -0.032036
      8.48259      6.52703     13.09347         0.019288     -0.017390     -0.013468
      4.23348      7.33007     15.43041        -0.006189      0.021815     -0.023637
      7.09076      7.33082     15.42926         0.016262      0.018151     -0.015905
      5.66175      0.01543     15.42490         0.003080      0.000979     -0.001124
      1.42765      2.46936     15.47634         0.006013     -0.118200      0.194954
      4.26447      2.45898     15.41549        -0.025784      0.009425     -0.013984
      7.05908      2.45868     15.41380         0.031331      0.007701     -0.015114
      2.84624      4.91324     15.42165        -0.032908     -0.049789     -0.006670
      5.66198      4.89882     15.41777         0.005303     -0.007936      0.005882
      8.47839      4.91410     15.41966         0.033563     -0.049263     -0.005079
      1.42722      1.59714     16.80584         0.000451      0.130062     -0.020639
 -----------------------------------------------------------------------------------
    total drift:                               -0.011610     -0.002004      0.017521


--------------------------------------------------------------------------------------------------------



  FREE ENERGIE OF THE ION-ELECTRON SYSTEM (eV)
  ---------------------------------------------------
  free  energy   TOTEN  =      -104.49305542 eV

  energy  without entropy=     -104.40268335  energy(sigma->0) =     -104.46293140
 


--------------------------------------------------------------------------------------------------------


    POTLOK:  cpu time      2.2644: real time      2.2921


--------------------------------------------------------------------------------------------------------


 writing wavefunctions
     LOOP+:  cpu time    214.4256: real time    216.6801
    4ORBIT:  cpu time      0.0000: real time      0.0000

 total amount of memory used by VASP MPI-rank0   148546. kBytes
=======================================================================

   base      :      30000. kBytes
   nonlr-proj:      22473. kBytes
   fftplans  :       5213. kBytes
   grid      :      24541. kBytes
   one-center:        575. kBytes
   wavefun   :      65744. kBytes
 
  
  
 General timing and accounting informations for this job:
 ========================================================
  
                  Total CPU time used (sec):      227.726
                            User time (sec):      224.543
                          System time (sec):        3.183
                         Elapsed time (sec):      235.082
  
                   Maximum memory used (kb):      632100.
                   Average memory used (kb):          N/A
  
                          Minor page faults:       199185
                          Major page faults:          729
                 Voluntary context switches:         6037
