 running   48 mpi-ranks, on    1 nodes
 distrk:  each k-point on   48 cores,    1 groups
 distr:  one band on    1 cores,   48 groups
 vasp.6.4.2 20Jul23 (build Mar 01 2024 16:46:03) complex                        
  
 POSCAR found type information on POSCAR PtH 
 POSCAR found :  2 types and      37 ions
 Reading from existing POTCAR
 scaLAPACK will be used
 -----------------------------------------------------------------------------
|                                                                             |
|           W    W    AA    RRRRR   N    N  II  N    N   GGGG   !!!           |
|           W    W   A  A   R    R  NN   N  II  NN   N  G    G  !!!           |
|           W    W  A    A  R    R  N N  N  II  N N  N  G       !!!           |
|           W WW W  AAAAAA  RRRRR   N  N N  II  N  N N  G  GGG   !            |
|           WW  WW  A    A  R   R   N   NN  II  N   NN  G    G                |
|           W    W  A    A  R    R  N    N  II  N    N   GGGG   !!!           |
|                                                                             |
|     For optimal performance we recommend to set                             |
|       NCORE = 2 up to number-of-cores-per-socket                            |
|     NCORE specifies how many cores store one orbital (NPAR=cpu/NCORE).      |
|     This setting can greatly improve the performance of VASP for DFT.       |
|     The default, NCORE=1 might be grossly inefficient on modern             |
|     multi-core architectures or massively parallel machines. Do your        |
|     own testing! More info at https://www.vasp.at/wiki/index.php/NCORE      |
|     Unfortunately you need to use the default for GW and RPA                |
|     calculations (for HF NCORE is supported but not extensively tested      |
|     yet).                                                                   |
|                                                                             |
 -----------------------------------------------------------------------------


     **************************************************************************
     Initializing libbeef V0.1.3 with the BEEF-vdW functional.
     Citation: Wellendorff et al., PRB 85, 235149 (2012).
     **************************************************************************

 -----------------------------------------------------------------------------
|                                                                             |
|               ----> ADVICE to this user running VASP <----                  |
|                                                                             |
|     You have switched on vdW-DFT.                                           |
|     This routine was written and supplied by Jiri Klimes. We recommend      |
|     that you carefully read and cite the following publications:            |
|       J. Klimes, D.R. Bowler, A. Michelides                                 |
|          J. Phys.: Cond Matt. 22 022201 (2010)                              |
|       J. Klimes, D.R. Bowler, A. Michelides                                 |
|          Phys. Rev. B. 83, 195131 (2011)                                    |
|     and references therein.                                                 |
|                                                                             |
 -----------------------------------------------------------------------------

 Reading from existing POTCAR
 -----------------------------------------------------------------------------
|                                                                             |
|               ----> ADVICE to this user running VASP <----                  |
|                                                                             |
|     You enforced a specific xc type in the INCAR file but a different       |
|     type was found in the POTCAR file.                                      |
|     I HOPE YOU KNOW WHAT YOU ARE DOING!                                     |
|                                                                             |
 -----------------------------------------------------------------------------

 LDA part: xc-table for Pade appr. of Perdew
 found WAVECAR, reading the header
 POSCAR, INCAR and KPOINTS ok, starting setup
 FFT: planning ... GRIDC
 FFT: planning ... GRID_SOFT
 FFT: planning ... GRID
 reading WAVECAR
 the WAVECAR file was read successfully
 initial charge from wavefunction
 entering main loop
       N       E                     dE             d eps       ncg     rms          rms(c)
Total vdW correction in eV:     51.9840276
DAV:   1    -0.104633913113E+03   -0.10463E+03   -0.30961E+00  6720   0.297E+00    0.327E+00
Total vdW correction in eV:     51.9834818
RMM:   2    -0.108667652557E+03   -0.40337E+01   -0.16222E+00  6755   0.196E+00    0.215E+01
Total vdW correction in eV:     51.9813293
RMM:   3    -0.104972411001E+03    0.36952E+01   -0.59783E-01  6841   0.134E+00    0.728E+00
Total vdW correction in eV:     51.9815624
RMM:   4    -0.104529342765E+03    0.44307E+00   -0.16712E-01  6443   0.714E-01    0.197E+00
Total vdW correction in eV:     51.9832066
RMM:   5    -0.104503305204E+03    0.26038E-01   -0.45060E-02  6828   0.332E-01    0.128E+00
Total vdW correction in eV:     51.9847065
RMM:   6    -0.104493871467E+03    0.94337E-02   -0.13235E-02  7008   0.188E-01    0.435E-01
Total vdW correction in eV:     51.9851979
RMM:   7    -0.104494917240E+03   -0.10458E-02   -0.53574E-03  6950   0.119E-01    0.563E-01
Total vdW correction in eV:     51.9853785
RMM:   8    -0.104493710956E+03    0.12063E-02   -0.26430E-03  6889   0.895E-02    0.320E-01
Total vdW correction in eV:     51.9855409
RMM:   9    -0.104493160159E+03    0.55080E-03   -0.10688E-03  6857   0.573E-02    0.148E-01
Total vdW correction in eV:     51.9857737
RMM:  10    -0.104493150191E+03    0.99683E-05   -0.36163E-04  6963   0.337E-02    0.122E-01
Total vdW correction in eV:     51.9857982
RMM:  11    -0.104493058442E+03    0.91750E-04   -0.11737E-04  6949   0.191E-02    0.519E-02
Total vdW correction in eV:     51.9858242
RMM:  12    -0.104493055419E+03    0.30225E-05   -0.41732E-05  5710   0.108E-02
Total vdW correction in eV:     51.9860882
Total vdW correction in eV:     51.9858519
   1 F= -.10449306E+03 E0= -.10446293E+03  d E =-.903721E-01
 writing wavefunctions
