<?xml version="1.0" encoding="ISO-8859-1"?>
<modeling>
 <generator>
  <i name="program" type="string">vasp </i>
  <i name="version" type="string">6.4.2  </i>
  <i name="subversion" type="string">20Jul23 (build Mar 01 2024 16:46:03) complex                          parallel </i>
  <i name="platform" type="string">LinuxIFC </i>
  <i name="date" type="string">2025 01 14 </i>
  <i name="time" type="string">21:10:15 </i>
 </generator>
 <incar>
  <i type="string" name="ALGO">Fast</i>
  <i type="int" name="ISPIN">     1</i>
  <i type="int" name="IBRION">    -1</i>
  <i name="EDIFF">      0.00001000</i>
  <i type="int" name="ISYM">     0</i>
  <i name="ENCUT">    680.29000000</i>
  <i type="string" name="LREAL">Auto</i>
  <i type="int" name="ISMEAR">     1</i>
  <i name="SIGMA">      0.10000000</i>
  <i type="string" name="GGA">BF</i>
  <i type="logical" name="LUSE_VDW"> T  </i>
  <i name="Zab_VDW">     -1.88670000</i>
 </incar>
 <primitive_cell>
  <structure name="primitive_cell" >
   <crystal>
    <varray name="basis" >
     <v>       8.46831000       0.00000000       0.00000000 </v>
     <v>       4.23415500       7.33377159       0.00000000 </v>
     <v>       0.00000000       0.00000000      24.96566199 </v>
    </varray>
    <i name="volume">   1550.48373159 </i>
    <varray name="rec_basis" >
     <v>       0.11808732      -0.06817774       0.00000000 </v>
     <v>       0.00000000       0.13635549       0.00000000 </v>
     <v>       0.00000000       0.00000000       0.04005502 </v>
    </varray>
   </crystal>
   <varray name="positions" >
    <v>       0.00000000       0.00000000       0.34046764 </v>
    <v>       0.33400137       0.00000000       0.34046764 </v>
    <v>       0.66800274       0.00000000       0.34046764 </v>
    <v>       1.00000000       0.33400137       0.34046764 </v>
    <v>       0.33400137       0.33400137       0.34046764 </v>
    <v>       0.66800274       0.33400137       0.34046764 </v>
    <v>       1.00000000       0.66800274       0.34046764 </v>
    <v>       0.33400137       0.66800274       0.34046764 </v>
    <v>       0.66800274       0.66800274       0.34046764 </v>
    <v>       0.11133379       0.11133379       0.43297074 </v>
    <v>       0.44533516       0.11133379       0.43297074 </v>
    <v>       0.77933653       0.11133379       0.43297074 </v>
    <v>       0.11133379       0.44533516       0.43297074 </v>
    <v>       0.44533516       0.44533516       0.43297074 </v>
    <v>       0.77933653       0.44533516       0.43297074 </v>
    <v>       0.11133379       0.77933653       0.43297074 </v>
    <v>       0.44533516       0.77933653       0.43297074 </v>
    <v>       0.77933653       0.77933653       0.43297074 </v>
    <v>       0.88984537       0.22338457       0.52473966 </v>
    <v>       0.22364020       0.22329951       0.52467007 </v>
    <v>       0.55676914       0.22318481       0.52417042 </v>
    <v>       0.89122295       0.55454384       0.52562757 </v>
    <v>       0.22338007       0.55691035       0.52429933 </v>
    <v>       0.55643869       0.55696577       0.52424469 </v>
    <v>       0.89035321       0.89021469       0.52458629 </v>
    <v>       0.22312798       0.89069986       0.52480550 </v>
    <v>       0.55668835       0.88999585       0.52445900 </v>
    <v>       0.00017296       0.99949544       0.61806533 </v>
    <v>       0.33753054       0.99959731       0.61801928 </v>
    <v>       0.66752941       0.00210385       0.61784450 </v>
    <v>       0.00023171       0.33671099       0.61990489 </v>
    <v>       0.33593142       0.33529603       0.61746772 </v>
    <v>       0.66595992       0.33525471       0.61740009 </v>
    <v>       0.00113120       0.66994684       0.61771425 </v>
    <v>       0.33461685       0.66798124       0.61755909 </v>
    <v>       0.66615762       0.67006485       0.61763488 </v>
    <v>       0.05964780       0.21777869       0.67315809 </v>
   </varray>
  </structure>
  <varray name="primitive_index" >
   <v type="int" >        1 </v>
   <v type="int" >        2 </v>
   <v type="int" >        3 </v>
   <v type="int" >        4 </v>
   <v type="int" >        5 </v>
   <v type="int" >        6 </v>
   <v type="int" >        7 </v>
   <v type="int" >        8 </v>
   <v type="int" >        9 </v>
   <v type="int" >       10 </v>
   <v type="int" >       11 </v>
   <v type="int" >       12 </v>
   <v type="int" >       13 </v>
   <v type="int" >       14 </v>
   <v type="int" >       15 </v>
   <v type="int" >       16 </v>
   <v type="int" >       17 </v>
   <v type="int" >       18 </v>
   <v type="int" >       19 </v>
   <v type="int" >       20 </v>
   <v type="int" >       21 </v>
   <v type="int" >       22 </v>
   <v type="int" >       23 </v>
   <v type="int" >       24 </v>
   <v type="int" >       25 </v>
   <v type="int" >       26 </v>
   <v type="int" >       27 </v>
   <v type="int" >       28 </v>
   <v type="int" >       29 </v>
   <v type="int" >       30 </v>
   <v type="int" >       31 </v>
   <v type="int" >       32 </v>
   <v type="int" >       33 </v>
   <v type="int" >       34 </v>
   <v type="int" >       35 </v>
   <v type="int" >       36 </v>
   <v type="int" >       37 </v>
  </varray>
 </primitive_cell>
 <kpoints>
  <generation param="Monkhorst-Pack">
   <v type="int" name="divisions">       5        5        1 </v>
   <v name="usershift">      0.00000000       0.00000000       0.00000000 </v>
   <v name="genvec1">      0.20000000      -0.00000000       0.00000000 </v>
   <v name="genvec2">      0.00000000       0.20000000       0.00000000 </v>
   <v name="genvec3">      0.00000000       0.00000000       1.00000000 </v>
   <v name="shift">      0.00000000       0.00000000       0.00000000 </v>
  </generation>
  <varray name="kpointlist" >
   <v>       0.00000000       0.00000000       0.00000000 </v>
   <v>       0.20000000       0.00000000       0.00000000 </v>
   <v>       0.20000000       0.20000000       0.00000000 </v>
   <v>       0.00000000       0.20000000       0.00000000 </v>
   <v>       0.40000000       0.00000000       0.00000000 </v>
   <v>       0.40000000       0.40000000       0.00000000 </v>
   <v>       0.00000000       0.40000000       0.00000000 </v>
   <v>       0.40000000       0.20000000       0.00000000 </v>
   <v>       0.20000000       0.40000000       0.00000000 </v>
   <v>      -0.20000000       0.20000000       0.00000000 </v>
   <v>      -0.40000000       0.20000000       0.00000000 </v>
   <v>       0.40000000      -0.40000000       0.00000000 </v>
   <v>      -0.20000000       0.40000000       0.00000000 </v>
  </varray>
  <varray name="weights" >
   <v>       0.04000000 </v>
   <v>       0.08000000 </v>
   <v>       0.08000000 </v>
   <v>       0.08000000 </v>
   <v>       0.08000000 </v>
   <v>       0.08000000 </v>
   <v>       0.08000000 </v>
   <v>       0.08000000 </v>
   <v>       0.08000000 </v>
   <v>       0.08000000 </v>
   <v>       0.08000000 </v>
   <v>       0.08000000 </v>
   <v>       0.08000000 </v>
  </varray>
 </kpoints>
 <parameters>
  <separator name="general" >
   <i type="string" name="SYSTEM">unknown system</i>
   <i type="logical" name="LCOMPAT"> F  </i>
  </separator>
  <separator name="electronic" >
   <i type="string" name="PREC">normal</i>
   <i name="ENMAX">    680.29000000</i>
   <i name="ENAUG">    400.00000000</i>
   <i name="EDIFF">      0.00001000</i>
   <i type="int" name="IALGO">    68</i>
   <i type="int" name="IWAVPR">    10</i>
   <i type="int" name="NBANDS">   240</i>
   <i type="int" name="NBANDSLOW">    -1</i>
   <i type="int" name="NBANDSHIGH">    -1</i>
   <i name="NELECT">    361.00000000</i>
   <i type="int" name="TURBO">     0</i>
   <i type="int" name="IRESTART">     0</i>
   <i type="int" name="NREBOOT">     0</i>
   <i type="int" name="NMIN">     0</i>
   <i name="EREF">      0.00000000</i>
   <separator name="electronic smearing" >
    <i type="int" name="ISMEAR">     1</i>
    <i name="SIGMA">      0.10000000</i>
    <i name="KSPACING">      0.50000000</i>
    <i type="logical" name="KGAMMA"> T  </i>
    <i type="logical" name="KBLOWUP"> T  </i>
   </separator>
   <separator name="electronic projectors" >
    <i type="logical" name="LREAL"> T  </i>
    <v name="ROPT">     -0.00050000     -0.00050000</v>
    <i type="int" name="LMAXPAW">  -100</i>
    <i type="int" name="LMAXMIX">     2</i>
    <i type="logical" name="NLSPLINE"> F  </i>
   </separator>
   <separator name="electronic startup" >
    <i type="int" name="ISTART">     1</i>
    <i type="int" name="ICHARG">     0</i>
    <i type="int" name="INIWAV">     1</i>
   </separator>
   <separator name="electronic spin" >
    <i type="int" name="ISPIN">     1</i>
    <i type="logical" name="LNONCOLLINEAR"> F  </i>
    <v name="MAGMOM">      1.00000000      1.00000000      1.00000000      1.00000000      1.00000000      1.00000000      1.00000000      1.00000000      1.00000000      1.00000000      1.00000000      1.00000000      1.00000000      1.00000000      1.00000000      1.00000000      1.00000000      1.00000000      1.00000000      1.00000000
      1.00000000      1.00000000      1.00000000      1.00000000      1.00000000      1.00000000      1.00000000      1.00000000      1.00000000      1.00000000      1.00000000      1.00000000      1.00000000      1.00000000      1.00000000      1.00000000      1.00000000</v>
    <i name="NUPDOWN">     -1.00000000</i>
    <i type="logical" name="LSORBIT"> F  </i>
    <v name="SAXIS">      0.00000000      0.00000000      1.00000000</v>
    <i type="logical" name="LSPIRAL"> F  </i>
    <v name="QSPIRAL">      0.00000000      0.00000000      0.00000000</v>
    <i type="logical" name="LZEROZ"> F  </i>
   </separator>
   <separator name="electronic exchange-correlation" >
    <i type="logical" name="LASPH"> F  </i>
    <i type="logical" name="LMETAGGA"> F  </i>
   </separator>
   <separator name="electronic convergence" >
    <i type="int" name="NELM">    60</i>
    <i type="int" name="NELMDL">     0</i>
    <i type="int" name="NELMIN">     2</i>
    <i name="ENINI">    680.29000000</i>
    <separator name="electronic convergence detail" >
     <i type="logical" name="LDIAG"> T  </i>
     <i type="logical" name="LSUBROT"> F  </i>
     <i name="WEIMIN">      0.00000000</i>
     <i name="EBREAK">      0.00000001</i>
     <i name="DEPER">      0.30000000</i>
     <i type="int" name="NRMM">     4</i>
     <i name="TIME">      0.40000000</i>
    </separator>
   </separator>
   <separator name="electronic mixer" >
    <i name="AMIX">      0.40000000</i>
    <i name="BMIX">      1.00000000</i>
    <i name="AMIN">      0.10000000</i>
    <i name="AMIX_MAG">      1.60000000</i>
    <i name="BMIX_MAG">      1.00000000</i>
    <separator name="electronic mixer details" >
     <i type="int" name="IMIX">     4</i>
     <i type="logical" name="MIXFIRST"> F  </i>
     <i type="int" name="MAXMIX">   -45</i>
     <i name="WC">    100.00000000</i>
     <i type="int" name="INIMIX">     1</i>
     <i type="int" name="MIXPRE">     1</i>
     <i type="int" name="MREMOVE">     5</i>
    </separator>
   </separator>
   <separator name="electronic dipolcorrection" >
    <i type="logical" name="LDIPOL"> F  </i>
    <i type="logical" name="LMONO"> F  </i>
    <i type="int" name="IDIPOL">     0</i>
    <i name="EPSILON">      1.00000000</i>
    <v name="DIPOL">   -100.00000000   -100.00000000   -100.00000000</v>
    <i name="EFIELD">      0.00000000</i>
   </separator>
  </separator>
  <separator name="grids" >
   <i type="int" name="NGX">    54</i>
   <i type="int" name="NGY">    54</i>
   <i type="int" name="NGZ">   160</i>
   <i type="int" name="NGXF">   108</i>
   <i type="int" name="NGYF">   108</i>
   <i type="int" name="NGZF">   320</i>
   <i type="logical" name="ADDGRID"> F  </i>
  </separator>
  <separator name="ionic" >
   <i type="int" name="NSW">     0</i>
   <i type="int" name="IBRION">    -1</i>
   <i type="int" name="MDALGO">     0</i>
   <i type="int" name="ISIF">     2</i>
   <i name="PSTRESS">      0.00000000</i>
   <i name="EDIFFG">      0.00010000</i>
   <i type="int" name="NFREE">     0</i>
   <i name="POTIM">      0.50000000</i>
   <i name="SMASS">     -3.00000000</i>
   <i name="SCALEE">      1.00000000</i>
  </separator>
  <separator name="ionic md" >
   <i name="TEBEG">      0.00010000</i>
   <i name="TEEND">      0.00010000</i>
   <i type="int" name="NBLOCK">     1</i>
   <i type="int" name="KBLOCK">     1</i>
   <i type="int" name="NPACO">   256</i>
   <i name="APACO">     10.00000000</i>
  </separator>
  <separator name="symmetry" >
   <i type="int" name="ISYM">     0</i>
   <i name="SYMPREC">      0.00001000</i>
  </separator>
  <separator name="dos" >
   <i type="int" name="LORBIT">     0</i>
   <v name="RWIGS">     -1.00000000     -1.00000000</v>
   <i type="int" name="NEDOS">   301</i>
   <i name="EMIN">     10.00000000</i>
   <i name="EMAX">    -10.00000000</i>
   <i name="EFERMI">      0.00000000</i>
  </separator>
  <separator name="writing" >
   <i type="int" name="NWRITE">     2</i>
   <i type="logical" name="LWAVE"> T  </i>
   <i type="logical" name="LDOWNSAMPLE"> F  </i>
   <i type="logical" name="LCHARG"> T  </i>
   <i type="logical" name="LPARD"> F  </i>
   <i type="logical" name="LVTOT"> F  </i>
   <i type="logical" name="LVHAR"> F  </i>
   <i type="logical" name="LELF"> F  </i>
   <i type="logical" name="LOPTICS"> F  </i>
   <v name="STM">      0.00000000      0.00000000      0.00000000      0.00000000      0.00000000      0.00000000      0.00000000</v>
  </separator>
  <separator name="performance" >
   <i type="int" name="NPAR">    48</i>
   <i type="int" name="NSIM">     4</i>
   <i type="int" name="NBLK">    -1</i>
   <i type="logical" name="LPLANE"> T  </i>
   <i type="logical" name="LSCALAPACK"> T  </i>
   <i type="logical" name="LSCAAWARE"> F  </i>
   <i type="logical" name="LSCALU"> F  </i>
   <i type="logical" name="LASYNC"> F  </i>
   <i type="logical" name="LORBITALREAL"> F  </i>
  </separator>
  <separator name="miscellaneous" >
   <i type="int" name="IDIOT">     3</i>
   <i type="int" name="PHON_NSTRUCT">    -1</i>
   <i type="logical" name="LMUSIC"> F  </i>
   <v name="POMASS">    195.08000000      1.00000000</v>
   <v name="DARWINR">      0.00000000      0.00000000</v>
   <v name="DARWINV">      1.00000000      1.00000000</v>
   <i type="logical" name="LCORR"> T  </i>
  </separator>
  <i type="logical" name="GGA_COMPAT"> T  </i>
  <i type="logical" name="LBERRY"> F  </i>
  <i type="int" name="ICORELEVEL">     0</i>
  <i type="logical" name="LDAU"> F  </i>
  <i type="int" name="I_CONSTRAINED_M">     0</i>
  <separator name="electronic exchange-correlation" >
   <i type="string" name="GGA">BF</i>
   <i type="int" name="VOSKOWN">     0</i>
   <i type="logical" name="LHFCALC"> F  </i>
   <i type="string" name="PRECFOCK"></i>
   <i type="logical" name="LSYMGRAD"> F  </i>
   <i type="logical" name="LHFONE"> F  </i>
   <i type="logical" name="LRHFCALC"> F  </i>
   <i type="logical" name="LTHOMAS"> F  </i>
   <i type="logical" name="LMODELHF"> F  </i>
   <i type="logical" name="LFOCKACE"> F  </i>
   <i name="ENCUT4O">     -1.00000000</i>
   <i type="int" name="EXXOEP">     0</i>
   <i type="int" name="FOURORBIT">     0</i>
   <i name="AEXX">      0.00000000</i>
   <i name="HFALPHA">      0.00000000</i>
   <i name="MCALPHA">      0.00000000</i>
   <i name="ALDAX">      1.00000000</i>
   <i name="AGGAX">      1.00000000</i>
   <i name="ALDAC">      1.00000000</i>
   <i name="AGGAC">      1.00000000</i>
   <i type="int" name="NKREDX">     1</i>
   <i type="int" name="NKREDY">     1</i>
   <i type="int" name="NKREDZ">     1</i>
   <i type="logical" name="SHIFTRED"> F  </i>
   <i type="logical" name="ODDONLY"> F  </i>
   <i type="logical" name="EVENONLY"> F  </i>
   <i type="int" name="LMAXFOCK">     0</i>
   <i type="int" name="NMAXFOCKAE">     0</i>
   <i type="logical" name="LFOCKAEDFT"> F  </i>
   <i name="HFSCREEN">      0.00000000</i>
   <i name="HFSCREENC">      0.00000000</i>
   <i type="int" name="NBANDSGWLOW">     0</i>
  </separator>
  <separator name="vdW DFT" >
   <i type="logical" name="LUSE_VDW"> T  </i>
   <i type="int" name="IVDW_NL">     1</i>
   <i type="logical" name="LSPIN_VDW"> F  </i>
   <i name="Zab_VDW">     -1.88670000</i>
   <i name="PARAM1">      0.12340000</i>
   <i name="PARAM2">      1.00000000</i>
   <i name="PARAM3">      0.00000000</i>
  </separator>
  <separator name="model GW" >
   <i type="int" name="MODEL_GW">     0</i>
   <i name="MODEL_EPS0">     25.14297943</i>
   <i name="MODEL_ALPHA">      1.00000000</i>
  </separator>
  <separator name="linear response parameters" >
   <i type="logical" name="LEPSILON"> F  </i>
   <i type="logical" name="LRPA"> F  </i>
   <i type="logical" name="LNABLA"> F  </i>
   <i type="logical" name="LVEL"> F  </i>
   <i name="CSHIFT">      0.10000000</i>
   <i name="OMEGAMAX">     -1.00000000</i>
   <i name="DEG_THRESHOLD">      0.00200000</i>
   <i name="RTIME">     -0.10000000</i>
   <i name="WPLASMAI">      0.00000000</i>
   <v name="DFIELD">      0.00000000      0.00000000      0.00000000</v>
   <v name="WPLASMA">      0.00000000      0.00000000      0.00000000      0.00000000      0.00000000      0.00000000      0.00000000      0.00000000      0.00000000</v>
  </separator>
  <separator name="orbital magnetization" >
   <i type="logical" name="NUCIND"> F  </i>
   <v name="MAGPOS">      0.00000000      0.00000000      0.00000000</v>
   <i type="logical" name="LNICSALL"> T  </i>
   <i type="logical" name="ORBITALMAG"> F  </i>
   <i type="logical" name="LMAGBLOCH"> F  </i>
   <i type="logical" name="LCHIMAG"> F  </i>
   <i type="logical" name="LGAUGE"> T  </i>
   <i type="int" name="MAGATOM">     0</i>
   <v name="MAGDIPOL">      0.00000000      0.00000000      0.00000000</v>
   <v name="AVECCONST">      0.00000000      0.00000000      0.00000000</v>
  </separator>
  <separator name="response functions" >
   <i type="logical" name="LALL_IN_ONE"> F  </i>
   <i type="int" name="IALL_IN_ONE">    -1</i>
   <i type="int" name="NBANDS_WAVE">    -1</i>
   <i type="logical" name="LFINITE_TEMPERATURE"> F  </i>
   <i type="logical" name="LADDER"> F  </i>
   <i type="logical" name="LRPAFORCE"> F  </i>
   <i type="logical" name="LFXC"> F  </i>
   <i type="logical" name="LHARTREE"> T  </i>
   <i type="int" name="IBSE">     0</i>
   <v type="int" name="KPOINT">    -1     0     0     0</v>
   <i type="logical" name="LTCTC"> F  </i>
   <i type="logical" name="LTCTE"> F  </i>
   <i type="logical" name="LTETE"> F  </i>
   <i type="logical" name="LTRIPLET"> F  </i>
   <i type="logical" name="LFXCEPS"> F  </i>
   <i type="logical" name="LFXHEG"> F  </i>
   <i type="int" name="NATURALO">     2</i>
   <i type="logical" name="LHOLEGF"> F  </i>
   <i type="logical" name="L2ORDER"> F  </i>
   <i type="logical" name="LDMP1"> F  </i>
   <i type="logical" name="LMP2LT"> F  </i>
   <i type="logical" name="LSMP2LT"> F  </i>
   <i type="logical" name="LGWLF"> F  </i>
   <i name="ENCUTGW">     -1.60000002</i>
   <i name="ENCUTGWSOFT">     -1.60000002</i>
   <i name="ENCUTLF">     -1.00000000</i>
   <i type="logical" name="LESF_SPLINES"> F  </i>
   <i type="int" name="LMAXMP2">    -1</i>
   <i name="SCISSOR">      0.00000000</i>
   <i type="int" name="NOMEGA">     0</i>
   <i type="int" name="NOMEGAR">     0</i>
   <i type="int" name="NBANDSGW">    -1</i>
   <i type="int" name="NBANDSO">    -1</i>
   <i type="int" name="NBANDSV">    -1</i>
   <i type="int" name="NELMGW">     1</i>
   <i type="int" name="NELMHF">     1</i>
   <i type="int" name="DIM">     3</i>
   <i type="int" name="IESPILON">     4</i>
   <i type="int" name="ANTIRES">     0</i>
   <i name="OMEGAMAX">    -30.00000000</i>
   <i name="OMEGAMIN">    -30.00000000</i>
   <i name="OMEGATL">   -200.00000000</i>
   <i type="int" name="OMEGAGRID">     0</i>
   <i name="CSHIFT">     -0.10000000</i>
   <i type="logical" name="LSELFENERGY"> F  </i>
   <i type="logical" name="LSPECTRAL"> F  </i>
   <i type="logical" name="LSPECTRALGW"> F  </i>
   <i type="logical" name="LSINGLES"> F  </i>
   <i type="logical" name="LFERMIGW"> F  </i>
   <i type="logical" name="ODDONLYGW"> F  </i>
   <i type="logical" name="EVENONLYGW"> F  </i>
   <i type="int" name="NKREDLFX">     1</i>
   <i type="int" name="NKREDLFY">     1</i>
   <i type="int" name="NKREDLFZ">     1</i>
   <i type="int" name="MAXMEM">  2800</i>
   <i type="int" name="TELESCOPE">     0</i>
   <i type="int" name="NTAUPAR">    -1</i>
   <i type="int" name="NOMEGAPAR">    -1</i>
   <i name="DAMP_NEWTON">      0.80000001</i>
   <i name="LAMBDA">      1.00000000</i>
  </separator>
  <separator name="External order field" >
   <i name="OFIELD_KAPPA">      0.00000000</i>
   <v name="OFIELD_K">      0.00000000      0.00000000      0.00000000</v>
   <i name="OFIELD_Q6_NEAR">      0.00000000</i>
   <i name="OFIELD_Q6_FAR">      0.00000000</i>
   <i name="OFIELD_A">      0.00000000</i>
  </separator>
  <separator name="optional k-points parameters" >
   <i type="int" name="KPOINTS_OPT_MODE">     1</i>
   <i type="logical" name="LKPOINTS_OPT"> F  </i>
  </separator>
 </parameters>
 <atominfo>
  <atoms>      37 </atoms>
  <types>       2 </types>
  <array name="atoms" >
   <dimension dim="1">ion</dimension>
   <field type="string">element</field>
   <field type="int">atomtype</field>
   <set>
    <rc><c>Pt</c><c>   1</c></rc>
    <rc><c>Pt</c><c>   1</c></rc>
    <rc><c>Pt</c><c>   1</c></rc>
    <rc><c>Pt</c><c>   1</c></rc>
    <rc><c>Pt</c><c>   1</c></rc>
    <rc><c>Pt</c><c>   1</c></rc>
    <rc><c>Pt</c><c>   1</c></rc>
    <rc><c>Pt</c><c>   1</c></rc>
    <rc><c>Pt</c><c>   1</c></rc>
    <rc><c>Pt</c><c>   1</c></rc>
    <rc><c>Pt</c><c>   1</c></rc>
    <rc><c>Pt</c><c>   1</c></rc>
    <rc><c>Pt</c><c>   1</c></rc>
    <rc><c>Pt</c><c>   1</c></rc>
    <rc><c>Pt</c><c>   1</c></rc>
    <rc><c>Pt</c><c>   1</c></rc>
    <rc><c>Pt</c><c>   1</c></rc>
    <rc><c>Pt</c><c>   1</c></rc>
    <rc><c>Pt</c><c>   1</c></rc>
    <rc><c>Pt</c><c>   1</c></rc>
    <rc><c>Pt</c><c>   1</c></rc>
    <rc><c>Pt</c><c>   1</c></rc>
    <rc><c>Pt</c><c>   1</c></rc>
    <rc><c>Pt</c><c>   1</c></rc>
    <rc><c>Pt</c><c>   1</c></rc>
    <rc><c>Pt</c><c>   1</c></rc>
    <rc><c>Pt</c><c>   1</c></rc>
    <rc><c>Pt</c><c>   1</c></rc>
    <rc><c>Pt</c><c>   1</c></rc>
    <rc><c>Pt</c><c>   1</c></rc>
    <rc><c>Pt</c><c>   1</c></rc>
    <rc><c>Pt</c><c>   1</c></rc>
    <rc><c>Pt</c><c>   1</c></rc>
    <rc><c>Pt</c><c>   1</c></rc>
    <rc><c>Pt</c><c>   1</c></rc>
    <rc><c>Pt</c><c>   1</c></rc>
    <rc><c>H </c><c>   2</c></rc>
   </set>
  </array>
  <array name="atomtypes" >
   <dimension dim="1">type</dimension>
   <field type="int">atomspertype</field>
   <field type="string">element</field>
   <field>mass</field>
   <field>valence</field>
   <field type="string">pseudopotential</field>
   <set>
    <rc><c>  36</c><c>Pt</c><c>    195.08000000</c><c>     10.00000000</c><c>  PAW_PBE Pt 04Feb2005                  </c></rc>
    <rc><c>   1</c><c>H </c><c>      1.00000000</c><c>      1.00000000</c><c>  PAW_PBE H 15Jun2001                   </c></rc>
   </set>
  </array>
 </atominfo>
 <structure name="initialpos" >
  <crystal>
   <varray name="basis" >
    <v>       8.46831000       0.00000000       0.00000000 </v>
    <v>       4.23415500       7.33377159       0.00000000 </v>
    <v>       0.00000000       0.00000000      24.96566199 </v>
   </varray>
   <i name="volume">   1550.48373159 </i>
   <varray name="rec_basis" >
    <v>       0.11808732      -0.06817774       0.00000000 </v>
    <v>       0.00000000       0.13635549       0.00000000 </v>
    <v>       0.00000000       0.00000000       0.04005502 </v>
   </varray>
  </crystal>
  <varray name="positions" >
   <v>       0.00000000       0.00000000       0.34046764 </v>
   <v>       0.33400137       0.00000000       0.34046764 </v>
   <v>       0.66800274       0.00000000       0.34046764 </v>
   <v>       0.00000000       0.33400137       0.34046764 </v>
   <v>       0.33400137       0.33400137       0.34046764 </v>
   <v>       0.66800274       0.33400137       0.34046764 </v>
   <v>       0.00000000       0.66800274       0.34046764 </v>
   <v>       0.33400137       0.66800274       0.34046764 </v>
   <v>       0.66800274       0.66800274       0.34046764 </v>
   <v>       0.11133379       0.11133379       0.43297074 </v>
   <v>       0.44533516       0.11133379       0.43297074 </v>
   <v>       0.77933653       0.11133379       0.43297074 </v>
   <v>       0.11133379       0.44533516       0.43297074 </v>
   <v>       0.44533516       0.44533516       0.43297074 </v>
   <v>       0.77933653       0.44533516       0.43297074 </v>
   <v>       0.11133379       0.77933653       0.43297074 </v>
   <v>       0.44533516       0.77933653       0.43297074 </v>
   <v>       0.77933653       0.77933653       0.43297074 </v>
   <v>       0.88984537       0.22338457       0.52473966 </v>
   <v>       0.22364020       0.22329951       0.52467007 </v>
   <v>       0.55676914       0.22318481       0.52417042 </v>
   <v>       0.89122295       0.55454384       0.52562757 </v>
   <v>       0.22338007       0.55691035       0.52429933 </v>
   <v>       0.55643869       0.55696577       0.52424469 </v>
   <v>       0.89035321       0.89021469       0.52458629 </v>
   <v>       0.22312798       0.89069986       0.52480550 </v>
   <v>       0.55668835       0.88999585       0.52445900 </v>
   <v>       0.00017296       0.99949544       0.61806533 </v>
   <v>       0.33753054       0.99959731       0.61801928 </v>
   <v>       0.66752941       0.00210385       0.61784450 </v>
   <v>       0.00023171       0.33671099       0.61990489 </v>
   <v>       0.33593142       0.33529603       0.61746772 </v>
   <v>       0.66595992       0.33525471       0.61740009 </v>
   <v>       0.00113120       0.66994684       0.61771425 </v>
   <v>       0.33461685       0.66798124       0.61755909 </v>
   <v>       0.66615762       0.67006485       0.61763488 </v>
   <v>       0.05964780       0.21777869       0.67315809 </v>
  </varray>
  <varray name="selective"  type="logical" >
   <v type="logical" >  F  F  F </v>
   <v type="logical" >  F  F  F </v>
   <v type="logical" >  F  F  F </v>
   <v type="logical" >  F  F  F </v>
   <v type="logical" >  F  F  F </v>
   <v type="logical" >  F  F  F </v>
   <v type="logical" >  F  F  F </v>
   <v type="logical" >  F  F  F </v>
   <v type="logical" >  F  F  F </v>
   <v type="logical" >  F  F  F </v>
   <v type="logical" >  F  F  F </v>
   <v type="logical" >  F  F  F </v>
   <v type="logical" >  F  F  F </v>
   <v type="logical" >  F  F  F </v>
   <v type="logical" >  F  F  F </v>
   <v type="logical" >  F  F  F </v>
   <v type="logical" >  F  F  F </v>
   <v type="logical" >  F  F  F </v>
   <v type="logical" >  T  T  T </v>
   <v type="logical" >  T  T  T </v>
   <v type="logical" >  T  T  T </v>
   <v type="logical" >  T  T  T </v>
   <v type="logical" >  T  T  T </v>
   <v type="logical" >  T  T  T </v>
   <v type="logical" >  T  T  T </v>
   <v type="logical" >  T  T  T </v>
   <v type="logical" >  T  T  T </v>
   <v type="logical" >  T  T  T </v>
   <v type="logical" >  T  T  T </v>
   <v type="logical" >  T  T  T </v>
   <v type="logical" >  T  T  T </v>
   <v type="logical" >  T  T  T </v>
   <v type="logical" >  T  T  T </v>
   <v type="logical" >  T  T  T </v>
   <v type="logical" >  T  T  T </v>
   <v type="logical" >  T  T  T </v>
   <v type="logical" >  T  T  T </v>
  </varray>
  <nose>
   <v>      -3.00000000       0.00000000       0.00010000       0.00010000 </v>
  </nose>
 </structure>
 <calculation>
  <scstep>
   <time name="dav">   15.65   15.82</time>
   <time name="total">   19.34   19.55</time>
   <energy>
    <i name="alphaZ">    797.33612757 </i>
    <i name="ewald"> 132352.43571804 </i>
    <i name="hartreedc">-159748.37206353 </i>
    <i name="XCdc">     89.59204108 </i>
    <i name="pawpsdc">  32178.37847049 </i>
    <i name="pawaedc"> -31181.02695100 </i>
    <i name="eentropy">     -0.08670729 </i>
    <i name="bandstr">  -1089.69370750 </i>
    <i name="atom">  26496.80315902 </i>
    <i name="e_fr_energy">   -104.63391311 </i>
    <i name="e_wo_entrp">   -104.54720583 </i>
    <i name="e_0_energy">   -104.60501068 </i>
   </energy>
  </scstep>
  <scstep>
   <time name="diag">    2.75    2.77</time>
   <time name="diis">    8.49    8.55</time>
   <time name="orth">    0.51    0.51</time>
   <time name="total">   14.81   14.93</time>
   <energy>
    <i name="e_fr_energy">   -108.66765256 </i>
    <i name="e_wo_entrp">   -108.66466094 </i>
    <i name="e_0_energy">   -108.66665535 </i>
   </energy>
  </scstep>
  <scstep>
   <time name="diag">    2.92    2.94</time>
   <time name="diis">    8.75    8.82</time>
   <time name="orth">    0.55    0.56</time>
   <time name="total">   15.31   15.42</time>
   <energy>
    <i name="e_fr_energy">   -104.97241100 </i>
    <i name="e_wo_entrp">   -104.90333441 </i>
    <i name="e_0_energy">   -104.94938547 </i>
   </energy>
  </scstep>
  <scstep>
   <time name="diag">    2.85    2.87</time>
   <time name="diis">    7.77    7.83</time>
   <time name="orth">    0.68    0.68</time>
   <time name="total">   14.45   14.61</time>
   <energy>
    <i name="e_fr_energy">   -104.52934277 </i>
    <i name="e_wo_entrp">   -104.44090865 </i>
    <i name="e_0_energy">   -104.49986473 </i>
   </energy>
  </scstep>
  <scstep>
   <time name="diag">    2.89    2.92</time>
   <time name="diis">    8.49    8.55</time>
   <time name="orth">    0.60    0.61</time>
   <time name="total">   15.19   15.30</time>
   <energy>
    <i name="e_fr_energy">   -104.50330520 </i>
    <i name="e_wo_entrp">   -104.41368853 </i>
    <i name="e_0_energy">   -104.47343298 </i>
   </energy>
  </scstep>
  <scstep>
   <time name="diag">    2.74    2.76</time>
   <time name="diis">    8.77    8.85</time>
   <time name="orth">    0.68    0.68</time>
   <time name="total">   15.38   15.50</time>
   <energy>
    <i name="e_fr_energy">   -104.49387147 </i>
    <i name="e_wo_entrp">   -104.40405056 </i>
    <i name="e_0_energy">   -104.46393117 </i>
   </energy>
  </scstep>
  <scstep>
   <time name="diag">    2.76    2.78</time>
   <time name="diis">   11.44   11.50</time>
   <time name="orth">    0.56    0.57</time>
   <time name="total">   17.98   18.13</time>
   <energy>
    <i name="e_fr_energy">   -104.49491724 </i>
    <i name="e_wo_entrp">   -104.40454977 </i>
    <i name="e_0_energy">   -104.46479475 </i>
   </energy>
  </scstep>
  <scstep>
   <time name="diag">    2.86    2.88</time>
   <time name="diis">    8.85    8.91</time>
   <time name="orth">    0.56    0.56</time>
   <time name="total">   15.34   15.44</time>
   <energy>
    <i name="e_fr_energy">   -104.49371096 </i>
    <i name="e_wo_entrp">   -104.40361470 </i>
    <i name="e_0_energy">   -104.46367887 </i>
   </energy>
  </scstep>
  <scstep>
   <time name="diag">    2.87    2.90</time>
   <time name="diis">    8.79    8.85</time>
   <time name="orth">    0.50    0.51</time>
   <time name="total">   15.24   15.37</time>
   <energy>
    <i name="e_fr_energy">   -104.49316016 </i>
    <i name="e_wo_entrp">   -104.40285108 </i>
    <i name="e_0_energy">   -104.46305713 </i>
   </energy>
  </scstep>
  <scstep>
   <time name="diag">    2.75    2.77</time>
   <time name="diis">    8.92    8.97</time>
   <time name="orth">    0.48    0.48</time>
   <time name="total">   15.25   15.36</time>
   <energy>
    <i name="e_fr_energy">   -104.49315019 </i>
    <i name="e_wo_entrp">   -104.40275974 </i>
    <i name="e_0_energy">   -104.46302004 </i>
   </energy>
  </scstep>
  <scstep>
   <time name="diag">    3.01    3.03</time>
   <time name="diis">    8.92    8.98</time>
   <time name="orth">    0.64    0.64</time>
   <time name="total">   15.75   15.90</time>
   <energy>
    <i name="e_fr_energy">   -104.49305844 </i>
    <i name="e_wo_entrp">   -104.40272054 </i>
    <i name="e_0_energy">   -104.46294581 </i>
   </energy>
  </scstep>
  <scstep>
   <time name="diag">    2.68    2.70</time>
   <time name="diis">    7.77    7.82</time>
   <time name="orth">    0.47    0.47</time>
   <time name="total">   13.25   13.34</time>
   <energy>
    <i name="alphaZ">    797.33612757 </i>
    <i name="ewald"> 132352.43571804 </i>
    <i name="hartreedc">-159751.44489461 </i>
    <i name="XCdc">     89.60758020 </i>
    <i name="pawpsdc">  32175.57629964 </i>
    <i name="pawaedc"> -31178.18580138 </i>
    <i name="eentropy">     -0.09037207 </i>
    <i name="bandstr">  -1086.53087182 </i>
    <i name="atom">  26496.80315902 </i>
    <i name="e_fr_energy">   -104.49305542 </i>
    <i name="e_wo_entrp">   -104.40268335 </i>
    <i name="e_0_energy">   -104.46293140 </i>
   </energy>
  </scstep>
  <structure>
   <crystal>
    <varray name="basis" >
     <v>       8.46831000       0.00000000       0.00000000 </v>
     <v>       4.23415500       7.33377159       0.00000000 </v>
     <v>       0.00000000       0.00000000      24.96566199 </v>
    </varray>
    <i name="volume">   1550.48373159 </i>
    <varray name="rec_basis" >
     <v>       0.11808732      -0.06817774       0.00000000 </v>
     <v>       0.00000000       0.13635549       0.00000000 </v>
     <v>       0.00000000       0.00000000       0.04005502 </v>
    </varray>
   </crystal>
   <varray name="positions" >
    <v>       0.00000000       0.00000000       0.34046764 </v>
    <v>       0.33400137       0.00000000       0.34046764 </v>
    <v>       0.66800274       0.00000000       0.34046764 </v>
    <v>       0.00000000       0.33400137       0.34046764 </v>
    <v>       0.33400137       0.33400137       0.34046764 </v>
    <v>       0.66800274       0.33400137       0.34046764 </v>
    <v>       0.00000000       0.66800274       0.34046764 </v>
    <v>       0.33400137       0.66800274       0.34046764 </v>
    <v>       0.66800274       0.66800274       0.34046764 </v>
    <v>       0.11133379       0.11133379       0.43297074 </v>
    <v>       0.44533516       0.11133379       0.43297074 </v>
    <v>       0.77933653       0.11133379       0.43297074 </v>
    <v>       0.11133379       0.44533516       0.43297074 </v>
    <v>       0.44533516       0.44533516       0.43297074 </v>
    <v>       0.77933653       0.44533516       0.43297074 </v>
    <v>       0.11133379       0.77933653       0.43297074 </v>
    <v>       0.44533516       0.77933653       0.43297074 </v>
    <v>       0.77933653       0.77933653       0.43297074 </v>
    <v>       0.88984537       0.22338457       0.52473966 </v>
    <v>       0.22364020       0.22329951       0.52467007 </v>
    <v>       0.55676914       0.22318481       0.52417042 </v>
    <v>       0.89122295       0.55454384       0.52562757 </v>
    <v>       0.22338007       0.55691035       0.52429933 </v>
    <v>       0.55643869       0.55696577       0.52424469 </v>
    <v>       0.89035321       0.89021469       0.52458629 </v>
    <v>       0.22312798       0.89069986       0.52480550 </v>
    <v>       0.55668835       0.88999585       0.52445900 </v>
    <v>       0.00017296       0.99949544       0.61806533 </v>
    <v>       0.33753054       0.99959731       0.61801928 </v>
    <v>       0.66752941       0.00210385       0.61784450 </v>
    <v>       0.00023171       0.33671099       0.61990489 </v>
    <v>       0.33593142       0.33529603       0.61746772 </v>
    <v>       0.66595992       0.33525471       0.61740009 </v>
    <v>       0.00113120       0.66994684       0.61771425 </v>
    <v>       0.33461685       0.66798124       0.61755909 </v>
    <v>       0.66615762       0.67006485       0.61763488 </v>
    <v>       0.05964780       0.21777869       0.67315809 </v>
   </varray>
  </structure>
  <varray name="forces" >
   <v>       0.04857853       0.03913547      -0.12196250 </v>
   <v>       0.02278047       0.05776520      -0.08543868 </v>
   <v>      -0.03399518       0.12324955      -0.18941720 </v>
   <v>       0.05263369      -0.01646579      -0.08813852 </v>
   <v>       0.00926070      -0.00750970      -0.07686830 </v>
   <v>      -0.05532129       0.00568956      -0.08985503 </v>
   <v>       0.03172933      -0.06568436      -0.10593369 </v>
   <v>      -0.01115326      -0.04927534      -0.08549458 </v>
   <v>      -0.05519458      -0.04049334      -0.08291033 </v>
   <v>       0.07481279       0.04708413       0.14635533 </v>
   <v>       0.03450681       0.03725000      -0.00911193 </v>
   <v>      -0.08648097       0.06269960       0.02220745 </v>
   <v>       0.01227012      -0.00645965       0.15659599 </v>
   <v>      -0.00443957      -0.00154359       0.02927810 </v>
   <v>      -0.02268115       0.04255919       0.17528595 </v>
   <v>       0.05528842      -0.09240137       0.10230973 </v>
   <v>      -0.02211599      -0.06783023       0.09023169 </v>
   <v>      -0.07667570       0.02098494       0.06737785 </v>
   <v>       0.02417047       0.02531533       0.01931612 </v>
   <v>      -0.02550470       0.01944788       0.01299832 </v>
   <v>      -0.00002822      -0.00356854      -0.00224744 </v>
   <v>      -0.00384322      -0.04684323       0.06588799 </v>
   <v>      -0.00560353       0.00418070       0.00624587 </v>
   <v>       0.00739766       0.00078072       0.00404643 </v>
   <v>      -0.02285748      -0.02262880      -0.01393665 </v>
   <v>       0.00205636      -0.01099372      -0.03203639 </v>
   <v>       0.01928760      -0.01739030      -0.01346819 </v>
   <v>      -0.00618881       0.02181531      -0.02363729 </v>
   <v>       0.01626165       0.01815085      -0.01590535 </v>
   <v>       0.00308001       0.00097916      -0.00112427 </v>
   <v>       0.00601336      -0.11819987       0.19495400 </v>
   <v>      -0.02578373       0.00942486      -0.01398375 </v>
   <v>       0.03133107       0.00770145      -0.01511438 </v>
   <v>      -0.03290849      -0.04978874      -0.00667048 </v>
   <v>       0.00530320      -0.00793649       0.00588218 </v>
   <v>       0.03356305      -0.04926328      -0.00507865 </v>
   <v>       0.00045056       0.13006244      -0.02063938 </v>
  </varray>
  <varray name="stress" >
   <v>     -33.84816562       0.01816600       0.02169376 </v>
   <v>       0.01816591     -34.18519244      -0.26717085 </v>
   <v>       0.02169375      -0.26717088       3.02420392 </v>
  </varray>
  <energy>
   <i name="e_fr_energy">   -104.49305542 </i>
   <i name="e_wo_entrp">   -104.40268335 </i>
   <i name="e_0_energy">   -104.46293140 </i>
  </energy>
  <time name="totalsc">  214.43  216.68</time>
  <eigenvalues>
   <array>
    <dimension dim="1">band</dimension>
    <dimension dim="2">kpoint</dimension>
    <dimension dim="3">spin</dimension>
    <field>eigene</field>
    <field>occ</field>
    <set>
     <set comment="spin 1">
      <set comment="kpoint 1">
       <r>   -8.8929    1.0000 </r>
       <r>   -7.6456    1.0000 </r>
       <r>   -6.6695    1.0000 </r>
       <r>   -6.4957    1.0000 </r>
       <r>   -6.4719    1.0000 </r>
       <r>   -6.4676    1.0000 </r>
       <r>   -6.4575    1.0000 </r>
       <r>   -6.4543    1.0000 </r>
       <r>   -6.4468    1.0000 </r>
       <r>   -6.4408    1.0000 </r>
       <r>   -6.0363    1.0000 </r>
       <r>   -5.9200    1.0000 </r>
       <r>   -5.9168    1.0000 </r>
       <r>   -5.9096    1.0000 </r>
       <r>   -5.9041    1.0000 </r>
       <r>   -5.9021    1.0000 </r>
       <r>   -5.7148    1.0000 </r>
       <r>   -5.4687    1.0000 </r>
       <r>   -5.4549    1.0000 </r>
       <r>   -5.4527    1.0000 </r>
       <r>   -5.4499    1.0000 </r>
       <r>   -5.4448    1.0000 </r>
       <r>   -5.3654    1.0000 </r>
       <r>   -5.2350    1.0000 </r>
       <r>   -5.2286    1.0000 </r>
       <r>   -5.2262    1.0000 </r>
       <r>   -5.2213    1.0000 </r>
       <r>   -5.2161    1.0000 </r>
       <r>   -5.1076    1.0000 </r>
       <r>   -5.0245    1.0000 </r>
       <r>   -5.0221    1.0000 </r>
       <r>   -5.0164    1.0000 </r>
       <r>   -5.0149    1.0000 </r>
       <r>   -5.0072    1.0000 </r>
       <r>   -4.9795    1.0000 </r>
       <r>   -4.9778    1.0000 </r>
       <r>   -4.9638    1.0000 </r>
       <r>   -4.9621    1.0000 </r>
       <r>   -4.9368    1.0000 </r>
       <r>   -4.9217    1.0000 </r>
       <r>   -4.7584    1.0000 </r>
       <r>   -4.3766    1.0000 </r>
       <r>   -4.3746    1.0000 </r>
       <r>   -4.3654    1.0000 </r>
       <r>   -4.3423    1.0000 </r>
       <r>   -4.3179    1.0000 </r>
       <r>   -4.3135    1.0000 </r>
       <r>   -4.3064    1.0000 </r>
       <r>   -4.2982    1.0000 </r>
       <r>   -4.2953    1.0000 </r>
       <r>   -4.1818    1.0000 </r>
       <r>   -4.1382    1.0000 </r>
       <r>   -4.1150    1.0000 </r>
       <r>   -4.0473    1.0000 </r>
       <r>   -3.9785    1.0000 </r>
       <r>   -3.5781    1.0000 </r>
       <r>   -3.5756    1.0000 </r>
       <r>   -3.5624    1.0000 </r>
       <r>   -3.5614    1.0000 </r>
       <r>   -3.5592    1.0000 </r>
       <r>   -3.5133    1.0000 </r>
       <r>   -3.4856    1.0000 </r>
       <r>   -3.3793    1.0000 </r>
       <r>   -3.3753    1.0000 </r>
       <r>   -3.3737    1.0000 </r>
       <r>   -3.3669    1.0000 </r>
       <r>   -3.3622    1.0000 </r>
       <r>   -3.3596    1.0000 </r>
       <r>   -3.3405    1.0000 </r>
       <r>   -3.3275    1.0000 </r>
       <r>   -3.3129    1.0000 </r>
       <r>   -3.3099    1.0000 </r>
       <r>   -3.2998    1.0000 </r>
       <r>   -3.2953    1.0000 </r>
       <r>   -3.2674    1.0000 </r>
       <r>   -3.2661    1.0000 </r>
       <r>   -3.2343    1.0000 </r>
       <r>   -3.1531    1.0000 </r>
       <r>   -3.1488    1.0000 </r>
       <r>   -3.1397    1.0000 </r>
       <r>   -3.1330    1.0000 </r>
       <r>   -3.1292    1.0000 </r>
       <r>   -3.0912    1.0000 </r>
       <r>   -2.9404    1.0000 </r>
       <r>   -2.9332    1.0000 </r>
       <r>   -2.9298    1.0000 </r>
       <r>   -2.9275    1.0000 </r>
       <r>   -2.9146    1.0000 </r>
       <r>   -2.9078    1.0000 </r>
       <r>   -2.9040    1.0000 </r>
       <r>   -2.8957    1.0000 </r>
       <r>   -2.8282    1.0000 </r>
       <r>   -2.8143    1.0000 </r>
       <r>   -2.7662    1.0000 </r>
       <r>   -2.7539    1.0000 </r>
       <r>   -2.7382    1.0000 </r>
       <r>   -2.7284    1.0000 </r>
       <r>   -2.7173    1.0000 </r>
       <r>   -2.6853    1.0000 </r>
       <r>   -2.6810    1.0000 </r>
       <r>   -2.6380    1.0000 </r>
       <r>   -2.5322    1.0000 </r>
       <r>   -2.5259    1.0000 </r>
       <r>   -2.5136    1.0000 </r>
       <r>   -2.5011    1.0000 </r>
       <r>   -2.4997    1.0000 </r>
       <r>   -2.4949    1.0000 </r>
       <r>   -2.2102    1.0000 </r>
       <r>   -2.0168    1.0000 </r>
       <r>   -2.0075    1.0000 </r>
       <r>   -1.9964    1.0000 </r>
       <r>   -1.9939    1.0000 </r>
       <r>   -1.9859    1.0000 </r>
       <r>   -1.9826    1.0000 </r>
       <r>   -1.9811    1.0000 </r>
       <r>   -1.9622    1.0000 </r>
       <r>   -1.9481    1.0000 </r>
       <r>   -1.9463    1.0000 </r>
       <r>   -1.9437    1.0000 </r>
       <r>   -1.8719    1.0000 </r>
       <r>   -1.8551    1.0000 </r>
       <r>   -1.8219    1.0000 </r>
       <r>   -1.7334    1.0000 </r>
       <r>   -1.7245    1.0000 </r>
       <r>   -1.7089    1.0000 </r>
       <r>   -1.7042    1.0000 </r>
       <r>   -1.7030    1.0000 </r>
       <r>   -1.5937    1.0000 </r>
       <r>   -1.5912    1.0000 </r>
       <r>   -1.5314    1.0000 </r>
       <r>   -1.5302    1.0000 </r>
       <r>   -1.5113    1.0000 </r>
       <r>   -1.4998    1.0000 </r>
       <r>   -1.3837    1.0000 </r>
       <r>   -1.2870    1.0000 </r>
       <r>   -1.2631    1.0000 </r>
       <r>   -1.2626    1.0000 </r>
       <r>   -1.2481    1.0000 </r>
       <r>   -1.2479    1.0000 </r>
       <r>   -1.2427    1.0000 </r>
       <r>   -1.1781    1.0000 </r>
       <r>   -1.1755    1.0000 </r>
       <r>   -1.0285    1.0000 </r>
       <r>   -1.0231    1.0000 </r>
       <r>   -1.0168    1.0000 </r>
       <r>   -1.0127    1.0000 </r>
       <r>   -1.0101    1.0000 </r>
       <r>   -0.9517    1.0000 </r>
       <r>   -0.8666    1.0000 </r>
       <r>   -0.8570    1.0000 </r>
       <r>   -0.8360    1.0000 </r>
       <r>   -0.8274    1.0000 </r>
       <r>   -0.8246    1.0000 </r>
       <r>   -0.8170    1.0000 </r>
       <r>   -0.8063    1.0000 </r>
       <r>   -0.7976    1.0000 </r>
       <r>   -0.7971    1.0000 </r>
       <r>   -0.7936    1.0000 </r>
       <r>   -0.7886    1.0000 </r>
       <r>   -0.7149    1.0000 </r>
       <r>   -0.6955    1.0000 </r>
       <r>   -0.6816    1.0000 </r>
       <r>   -0.6684    1.0000 </r>
       <r>   -0.6631    1.0000 </r>
       <r>   -0.6558    1.0000 </r>
       <r>   -0.6391    1.0000 </r>
       <r>   -0.6363    1.0000 </r>
       <r>   -0.5957    1.0000 </r>
       <r>   -0.5885    1.0000 </r>
       <r>   -0.5588    1.0000 </r>
       <r>   -0.5539    1.0000 </r>
       <r>   -0.5496    1.0000 </r>
       <r>   -0.5390    1.0000 </r>
       <r>   -0.5341    1.0000 </r>
       <r>   -0.5303    1.0000 </r>
       <r>   -0.4504    1.0000 </r>
       <r>   -0.4415    1.0000 </r>
       <r>   -0.4359    1.0000 </r>
       <r>   -0.4317    1.0000 </r>
       <r>   -0.4303    1.0000 </r>
       <r>   -0.4233    1.0000 </r>
       <r>   -0.4180    1.0000 </r>
       <r>   -0.3443    1.0003 </r>
       <r>   -0.3234    1.0009 </r>
       <r>   -0.3143    1.0014 </r>
       <r>   -0.3136    1.0014 </r>
       <r>   -0.3056    1.0020 </r>
       <r>   -0.3002    1.0025 </r>
       <r>   -0.1068    0.7994 </r>
       <r>   -0.0991    0.7457 </r>
       <r>   -0.0161    0.1167 </r>
       <r>   -0.0047    0.0635 </r>
       <r>    0.0098    0.0145 </r>
       <r>    0.0149    0.0018 </r>
       <r>    0.0155    0.0004 </r>
       <r>    0.0200   -0.0087 </r>
       <r>    0.4105   -0.0000 </r>
       <r>    0.8202   -0.0000 </r>
       <r>    0.8785   -0.0000 </r>
       <r>    0.8881   -0.0000 </r>
       <r>    0.9051   -0.0000 </r>
       <r>    0.9088   -0.0000 </r>
       <r>    0.9099   -0.0000 </r>
       <r>    2.5752   -0.0000 </r>
       <r>    3.1784    0.0000 </r>
       <r>    3.1861    0.0000 </r>
       <r>    3.2133    0.0000 </r>
       <r>    3.2194    0.0000 </r>
       <r>    3.2364    0.0000 </r>
       <r>    4.4308    0.0000 </r>
       <r>    4.7547    0.0000 </r>
       <r>    4.7843    0.0000 </r>
       <r>    4.8214    0.0000 </r>
       <r>    4.8232    0.0000 </r>
       <r>    4.8282    0.0000 </r>
       <r>    4.8714    0.0000 </r>
       <r>    4.9824    0.0000 </r>
       <r>    5.1064    0.0000 </r>
       <r>    5.4935    0.0000 </r>
       <r>    5.5234    0.0000 </r>
       <r>    5.8121    0.0000 </r>
       <r>    5.8203    0.0000 </r>
       <r>    5.8495    0.0000 </r>
       <r>    5.8576    0.0000 </r>
       <r>    5.8665    0.0000 </r>
       <r>    6.1564    0.0000 </r>
       <r>    6.4677    0.0000 </r>
       <r>    6.6180    0.0000 </r>
       <r>    6.6309    0.0000 </r>
       <r>    6.6343    0.0000 </r>
       <r>    6.7795    0.0000 </r>
       <r>    6.9034    0.0000 </r>
       <r>    7.1300    0.0000 </r>
       <r>    7.1386    0.0000 </r>
       <r>    7.1574    0.0000 </r>
       <r>    7.1636    0.0000 </r>
       <r>    7.1651    0.0000 </r>
       <r>    7.1734    0.0000 </r>
       <r>    7.3032    0.0000 </r>
       <r>    7.8090    0.0000 </r>
      </set>
      <set comment="kpoint 2">
       <r>   -8.7447    1.0000 </r>
       <r>   -7.5028    1.0000 </r>
       <r>   -6.9810    1.0000 </r>
       <r>   -6.6081    1.0000 </r>
       <r>   -6.5639    1.0000 </r>
       <r>   -6.4917    1.0000 </r>
       <r>   -6.3508    1.0000 </r>
       <r>   -6.2840    1.0000 </r>
       <r>   -6.2341    1.0000 </r>
       <r>   -6.2193    1.0000 </r>
       <r>   -6.0920    1.0000 </r>
       <r>   -6.0063    1.0000 </r>
       <r>   -5.9098    1.0000 </r>
       <r>   -5.8450    1.0000 </r>
       <r>   -5.8407    1.0000 </r>
       <r>   -5.8284    1.0000 </r>
       <r>   -5.6611    1.0000 </r>
       <r>   -5.5436    1.0000 </r>
       <r>   -5.4216    1.0000 </r>
       <r>   -5.4149    1.0000 </r>
       <r>   -5.4079    1.0000 </r>
       <r>   -5.3695    1.0000 </r>
       <r>   -5.3306    1.0000 </r>
       <r>   -5.3124    1.0000 </r>
       <r>   -5.2730    1.0000 </r>
       <r>   -5.2479    1.0000 </r>
       <r>   -5.2280    1.0000 </r>
       <r>   -5.2139    1.0000 </r>
       <r>   -5.1536    1.0000 </r>
       <r>   -5.1204    1.0000 </r>
       <r>   -5.1066    1.0000 </r>
       <r>   -5.0332    1.0000 </r>
       <r>   -5.0174    1.0000 </r>
       <r>   -5.0079    1.0000 </r>
       <r>   -5.0011    1.0000 </r>
       <r>   -4.8665    1.0000 </r>
       <r>   -4.8057    1.0000 </r>
       <r>   -4.7972    1.0000 </r>
       <r>   -4.7797    1.0000 </r>
       <r>   -4.7553    1.0000 </r>
       <r>   -4.7116    1.0000 </r>
       <r>   -4.4990    1.0000 </r>
       <r>   -4.4966    1.0000 </r>
       <r>   -4.4720    1.0000 </r>
       <r>   -4.4247    1.0000 </r>
       <r>   -4.4098    1.0000 </r>
       <r>   -4.3900    1.0000 </r>
       <r>   -4.3084    1.0000 </r>
       <r>   -4.2156    1.0000 </r>
       <r>   -4.1638    1.0000 </r>
       <r>   -4.1233    1.0000 </r>
       <r>   -4.1139    1.0000 </r>
       <r>   -4.0882    1.0000 </r>
       <r>   -4.0559    1.0000 </r>
       <r>   -3.9894    1.0000 </r>
       <r>   -3.8346    1.0000 </r>
       <r>   -3.7410    1.0000 </r>
       <r>   -3.7281    1.0000 </r>
       <r>   -3.6795    1.0000 </r>
       <r>   -3.6589    1.0000 </r>
       <r>   -3.6329    1.0000 </r>
       <r>   -3.5850    1.0000 </r>
       <r>   -3.5630    1.0000 </r>
       <r>   -3.5472    1.0000 </r>
       <r>   -3.5272    1.0000 </r>
       <r>   -3.5204    1.0000 </r>
       <r>   -3.4757    1.0000 </r>
       <r>   -3.4517    1.0000 </r>
       <r>   -3.4050    1.0000 </r>
       <r>   -3.3748    1.0000 </r>
       <r>   -3.3627    1.0000 </r>
       <r>   -3.3316    1.0000 </r>
       <r>   -3.2686    1.0000 </r>
       <r>   -3.2612    1.0000 </r>
       <r>   -3.2487    1.0000 </r>
       <r>   -3.1858    1.0000 </r>
       <r>   -3.1809    1.0000 </r>
       <r>   -3.1440    1.0000 </r>
       <r>   -3.1237    1.0000 </r>
       <r>   -3.0897    1.0000 </r>
       <r>   -3.0749    1.0000 </r>
       <r>   -3.0668    1.0000 </r>
       <r>   -3.0373    1.0000 </r>
       <r>   -2.9929    1.0000 </r>
       <r>   -2.9666    1.0000 </r>
       <r>   -2.9522    1.0000 </r>
       <r>   -2.9460    1.0000 </r>
       <r>   -2.9369    1.0000 </r>
       <r>   -2.9152    1.0000 </r>
       <r>   -2.8996    1.0000 </r>
       <r>   -2.8572    1.0000 </r>
       <r>   -2.8126    1.0000 </r>
       <r>   -2.8009    1.0000 </r>
       <r>   -2.7967    1.0000 </r>
       <r>   -2.7797    1.0000 </r>
       <r>   -2.7609    1.0000 </r>
       <r>   -2.7471    1.0000 </r>
       <r>   -2.7121    1.0000 </r>
       <r>   -2.7053    1.0000 </r>
       <r>   -2.6820    1.0000 </r>
       <r>   -2.6035    1.0000 </r>
       <r>   -2.5527    1.0000 </r>
       <r>   -2.5315    1.0000 </r>
       <r>   -2.5201    1.0000 </r>
       <r>   -2.5107    1.0000 </r>
       <r>   -2.4998    1.0000 </r>
       <r>   -2.4944    1.0000 </r>
       <r>   -2.4825    1.0000 </r>
       <r>   -2.4430    1.0000 </r>
       <r>   -2.4262    1.0000 </r>
       <r>   -2.4172    1.0000 </r>
       <r>   -2.4109    1.0000 </r>
       <r>   -2.2287    1.0000 </r>
       <r>   -2.0960    1.0000 </r>
       <r>   -2.0558    1.0000 </r>
       <r>   -2.0088    1.0000 </r>
       <r>   -2.0000    1.0000 </r>
       <r>   -1.9833    1.0000 </r>
       <r>   -1.9757    1.0000 </r>
       <r>   -1.9594    1.0000 </r>
       <r>   -1.9387    1.0000 </r>
       <r>   -1.8945    1.0000 </r>
       <r>   -1.8070    1.0000 </r>
       <r>   -1.7831    1.0000 </r>
       <r>   -1.7410    1.0000 </r>
       <r>   -1.6665    1.0000 </r>
       <r>   -1.6444    1.0000 </r>
       <r>   -1.5990    1.0000 </r>
       <r>   -1.5906    1.0000 </r>
       <r>   -1.5751    1.0000 </r>
       <r>   -1.5373    1.0000 </r>
       <r>   -1.5210    1.0000 </r>
       <r>   -1.5152    1.0000 </r>
       <r>   -1.4354    1.0000 </r>
       <r>   -1.4140    1.0000 </r>
       <r>   -1.3996    1.0000 </r>
       <r>   -1.3833    1.0000 </r>
       <r>   -1.3729    1.0000 </r>
       <r>   -1.3269    1.0000 </r>
       <r>   -1.1906    1.0000 </r>
       <r>   -1.1765    1.0000 </r>
       <r>   -1.1659    1.0000 </r>
       <r>   -1.1447    1.0000 </r>
       <r>   -1.1339    1.0000 </r>
       <r>   -1.1160    1.0000 </r>
       <r>   -1.0786    1.0000 </r>
       <r>   -1.0300    1.0000 </r>
       <r>   -1.0054    1.0000 </r>
       <r>   -0.9873    1.0000 </r>
       <r>   -0.9754    1.0000 </r>
       <r>   -0.9446    1.0000 </r>
       <r>   -0.9098    1.0000 </r>
       <r>   -0.9023    1.0000 </r>
       <r>   -0.8946    1.0000 </r>
       <r>   -0.8519    1.0000 </r>
       <r>   -0.7857    1.0000 </r>
       <r>   -0.7655    1.0000 </r>
       <r>   -0.7497    1.0000 </r>
       <r>   -0.7105    1.0000 </r>
       <r>   -0.6556    1.0000 </r>
       <r>   -0.6338    1.0000 </r>
       <r>   -0.6181    1.0000 </r>
       <r>   -0.6027    1.0000 </r>
       <r>   -0.5836    1.0000 </r>
       <r>   -0.5603    1.0000 </r>
       <r>   -0.5366    1.0000 </r>
       <r>   -0.4801    1.0000 </r>
       <r>   -0.4611    1.0000 </r>
       <r>   -0.4204    1.0000 </r>
       <r>   -0.3961    1.0000 </r>
       <r>   -0.3863    1.0000 </r>
       <r>   -0.3777    1.0001 </r>
       <r>   -0.3458    1.0003 </r>
       <r>   -0.3441    1.0003 </r>
       <r>   -0.3375    1.0005 </r>
       <r>   -0.3321    1.0006 </r>
       <r>   -0.3256    1.0008 </r>
       <r>   -0.2690    1.0079 </r>
       <r>   -0.2593    1.0107 </r>
       <r>   -0.1250    0.9035 </r>
       <r>   -0.1140    0.8440 </r>
       <r>   -0.0963    0.7253 </r>
       <r>   -0.0789    0.5869 </r>
       <r>   -0.0699    0.5119 </r>
       <r>   -0.0597    0.4259 </r>
       <r>   -0.0315    0.2091 </r>
       <r>   -0.0098    0.0856 </r>
       <r>   -0.0012    0.0499 </r>
       <r>    0.0128    0.0066 </r>
       <r>    0.0871   -0.0251 </r>
       <r>    0.1174   -0.0123 </r>
       <r>    0.1368   -0.0067 </r>
       <r>    0.1766   -0.0014 </r>
       <r>    0.2981   -0.0000 </r>
       <r>    0.3093   -0.0000 </r>
       <r>    0.3140   -0.0000 </r>
       <r>    0.3634   -0.0000 </r>
       <r>    0.6654   -0.0000 </r>
       <r>    0.7621   -0.0000 </r>
       <r>    1.2178   -0.0000 </r>
       <r>    1.4746   -0.0000 </r>
       <r>    1.4897   -0.0000 </r>
       <r>    1.6128   -0.0000 </r>
       <r>    2.3193   -0.0000 </r>
       <r>    2.7683    0.0000 </r>
       <r>    2.9270    0.0000 </r>
       <r>    3.4646    0.0000 </r>
       <r>    3.6554    0.0000 </r>
       <r>    3.6681    0.0000 </r>
       <r>    3.7611    0.0000 </r>
       <r>    3.9571    0.0000 </r>
       <r>    4.3799    0.0000 </r>
       <r>    4.6178    0.0000 </r>
       <r>    4.6906    0.0000 </r>
       <r>    4.9623    0.0000 </r>
       <r>    4.9895    0.0000 </r>
       <r>    5.0075    0.0000 </r>
       <r>    5.1679    0.0000 </r>
       <r>    5.2298    0.0000 </r>
       <r>    5.4719    0.0000 </r>
       <r>    5.6193    0.0000 </r>
       <r>    5.7266    0.0000 </r>
       <r>    5.8327    0.0000 </r>
       <r>    5.9239    0.0000 </r>
       <r>    6.0619    0.0000 </r>
       <r>    6.2149    0.0000 </r>
       <r>    6.2727    0.0000 </r>
       <r>    6.3318    0.0000 </r>
       <r>    6.3530    0.0000 </r>
       <r>    6.6170    0.0000 </r>
       <r>    6.6997    0.0000 </r>
       <r>    6.7293    0.0000 </r>
       <r>    6.7880    0.0000 </r>
       <r>    6.8391    0.0000 </r>
       <r>    6.9285    0.0000 </r>
       <r>    7.0614    0.0000 </r>
       <r>    7.2253    0.0000 </r>
       <r>    7.4869    0.0000 </r>
       <r>    7.5721    0.0000 </r>
       <r>    7.6175    0.0000 </r>
      </set>
      <set comment="kpoint 3">
       <r>   -8.7447    1.0000 </r>
       <r>   -7.5029    1.0000 </r>
       <r>   -6.9819    1.0000 </r>
       <r>   -6.6078    1.0000 </r>
       <r>   -6.5639    1.0000 </r>
       <r>   -6.4906    1.0000 </r>
       <r>   -6.3512    1.0000 </r>
       <r>   -6.2861    1.0000 </r>
       <r>   -6.2319    1.0000 </r>
       <r>   -6.2191    1.0000 </r>
       <r>   -6.0927    1.0000 </r>
       <r>   -6.0057    1.0000 </r>
       <r>   -5.9070    1.0000 </r>
       <r>   -5.8467    1.0000 </r>
       <r>   -5.8435    1.0000 </r>
       <r>   -5.8280    1.0000 </r>
       <r>   -5.6614    1.0000 </r>
       <r>   -5.5424    1.0000 </r>
       <r>   -5.4222    1.0000 </r>
       <r>   -5.4142    1.0000 </r>
       <r>   -5.4072    1.0000 </r>
       <r>   -5.3702    1.0000 </r>
       <r>   -5.3305    1.0000 </r>
       <r>   -5.3135    1.0000 </r>
       <r>   -5.2729    1.0000 </r>
       <r>   -5.2465    1.0000 </r>
       <r>   -5.2293    1.0000 </r>
       <r>   -5.2156    1.0000 </r>
       <r>   -5.1554    1.0000 </r>
       <r>   -5.1187    1.0000 </r>
       <r>   -5.1047    1.0000 </r>
       <r>   -5.0357    1.0000 </r>
       <r>   -5.0176    1.0000 </r>
       <r>   -5.0070    1.0000 </r>
       <r>   -5.0009    1.0000 </r>
       <r>   -4.8669    1.0000 </r>
       <r>   -4.8056    1.0000 </r>
       <r>   -4.7960    1.0000 </r>
       <r>   -4.7811    1.0000 </r>
       <r>   -4.7526    1.0000 </r>
       <r>   -4.7111    1.0000 </r>
       <r>   -4.4997    1.0000 </r>
       <r>   -4.4944    1.0000 </r>
       <r>   -4.4715    1.0000 </r>
       <r>   -4.4251    1.0000 </r>
       <r>   -4.4092    1.0000 </r>
       <r>   -4.3893    1.0000 </r>
       <r>   -4.3109    1.0000 </r>
       <r>   -4.2144    1.0000 </r>
       <r>   -4.1635    1.0000 </r>
       <r>   -4.1235    1.0000 </r>
       <r>   -4.1148    1.0000 </r>
       <r>   -4.0888    1.0000 </r>
       <r>   -4.0555    1.0000 </r>
       <r>   -3.9880    1.0000 </r>
       <r>   -3.8323    1.0000 </r>
       <r>   -3.7406    1.0000 </r>
       <r>   -3.7287    1.0000 </r>
       <r>   -3.6776    1.0000 </r>
       <r>   -3.6558    1.0000 </r>
       <r>   -3.6322    1.0000 </r>
       <r>   -3.5817    1.0000 </r>
       <r>   -3.5669    1.0000 </r>
       <r>   -3.5483    1.0000 </r>
       <r>   -3.5281    1.0000 </r>
       <r>   -3.5210    1.0000 </r>
       <r>   -3.4765    1.0000 </r>
       <r>   -3.4511    1.0000 </r>
       <r>   -3.4031    1.0000 </r>
       <r>   -3.3725    1.0000 </r>
       <r>   -3.3601    1.0000 </r>
       <r>   -3.3327    1.0000 </r>
       <r>   -3.2715    1.0000 </r>
       <r>   -3.2667    1.0000 </r>
       <r>   -3.2562    1.0000 </r>
       <r>   -3.1852    1.0000 </r>
       <r>   -3.1787    1.0000 </r>
       <r>   -3.1430    1.0000 </r>
       <r>   -3.1251    1.0000 </r>
       <r>   -3.0868    1.0000 </r>
       <r>   -3.0697    1.0000 </r>
       <r>   -3.0638    1.0000 </r>
       <r>   -3.0422    1.0000 </r>
       <r>   -2.9924    1.0000 </r>
       <r>   -2.9679    1.0000 </r>
       <r>   -2.9514    1.0000 </r>
       <r>   -2.9471    1.0000 </r>
       <r>   -2.9368    1.0000 </r>
       <r>   -2.9137    1.0000 </r>
       <r>   -2.8994    1.0000 </r>
       <r>   -2.8570    1.0000 </r>
       <r>   -2.8141    1.0000 </r>
       <r>   -2.8036    1.0000 </r>
       <r>   -2.7934    1.0000 </r>
       <r>   -2.7789    1.0000 </r>
       <r>   -2.7609    1.0000 </r>
       <r>   -2.7478    1.0000 </r>
       <r>   -2.7117    1.0000 </r>
       <r>   -2.7076    1.0000 </r>
       <r>   -2.6843    1.0000 </r>
       <r>   -2.6040    1.0000 </r>
       <r>   -2.5530    1.0000 </r>
       <r>   -2.5319    1.0000 </r>
       <r>   -2.5201    1.0000 </r>
       <r>   -2.5136    1.0000 </r>
       <r>   -2.4979    1.0000 </r>
       <r>   -2.4958    1.0000 </r>
       <r>   -2.4813    1.0000 </r>
       <r>   -2.4391    1.0000 </r>
       <r>   -2.4268    1.0000 </r>
       <r>   -2.4192    1.0000 </r>
       <r>   -2.4115    1.0000 </r>
       <r>   -2.2255    1.0000 </r>
       <r>   -2.0944    1.0000 </r>
       <r>   -2.0575    1.0000 </r>
       <r>   -2.0110    1.0000 </r>
       <r>   -1.9970    1.0000 </r>
       <r>   -1.9834    1.0000 </r>
       <r>   -1.9780    1.0000 </r>
       <r>   -1.9597    1.0000 </r>
       <r>   -1.9387    1.0000 </r>
       <r>   -1.8943    1.0000 </r>
       <r>   -1.8076    1.0000 </r>
       <r>   -1.7847    1.0000 </r>
       <r>   -1.7418    1.0000 </r>
       <r>   -1.6706    1.0000 </r>
       <r>   -1.6450    1.0000 </r>
       <r>   -1.5960    1.0000 </r>
       <r>   -1.5865    1.0000 </r>
       <r>   -1.5808    1.0000 </r>
       <r>   -1.5395    1.0000 </r>
       <r>   -1.5218    1.0000 </r>
       <r>   -1.5157    1.0000 </r>
       <r>   -1.4367    1.0000 </r>
       <r>   -1.4125    1.0000 </r>
       <r>   -1.3969    1.0000 </r>
       <r>   -1.3831    1.0000 </r>
       <r>   -1.3741    1.0000 </r>
       <r>   -1.3265    1.0000 </r>
       <r>   -1.1886    1.0000 </r>
       <r>   -1.1770    1.0000 </r>
       <r>   -1.1671    1.0000 </r>
       <r>   -1.1462    1.0000 </r>
       <r>   -1.1328    1.0000 </r>
       <r>   -1.1170    1.0000 </r>
       <r>   -1.0762    1.0000 </r>
       <r>   -1.0293    1.0000 </r>
       <r>   -1.0040    1.0000 </r>
       <r>   -0.9865    1.0000 </r>
       <r>   -0.9762    1.0000 </r>
       <r>   -0.9460    1.0000 </r>
       <r>   -0.9099    1.0000 </r>
       <r>   -0.8998    1.0000 </r>
       <r>   -0.8964    1.0000 </r>
       <r>   -0.8494    1.0000 </r>
       <r>   -0.7860    1.0000 </r>
       <r>   -0.7660    1.0000 </r>
       <r>   -0.7490    1.0000 </r>
       <r>   -0.7094    1.0000 </r>
       <r>   -0.6568    1.0000 </r>
       <r>   -0.6351    1.0000 </r>
       <r>   -0.6189    1.0000 </r>
       <r>   -0.6037    1.0000 </r>
       <r>   -0.5851    1.0000 </r>
       <r>   -0.5632    1.0000 </r>
       <r>   -0.5377    1.0000 </r>
       <r>   -0.4797    1.0000 </r>
       <r>   -0.4605    1.0000 </r>
       <r>   -0.4192    1.0000 </r>
       <r>   -0.3963    1.0000 </r>
       <r>   -0.3875    1.0000 </r>
       <r>   -0.3768    1.0001 </r>
       <r>   -0.3447    1.0003 </r>
       <r>   -0.3443    1.0003 </r>
       <r>   -0.3362    1.0005 </r>
       <r>   -0.3345    1.0005 </r>
       <r>   -0.3244    1.0009 </r>
       <r>   -0.2710    1.0074 </r>
       <r>   -0.2617    1.0099 </r>
       <r>   -0.1257    0.9071 </r>
       <r>   -0.1167    0.8598 </r>
       <r>   -0.0954    0.7187 </r>
       <r>   -0.0774    0.5746 </r>
       <r>   -0.0683    0.4980 </r>
       <r>   -0.0571    0.4041 </r>
       <r>   -0.0303    0.2013 </r>
       <r>   -0.0072    0.0742 </r>
       <r>    0.0003    0.0442 </r>
       <r>    0.0158   -0.0004 </r>
       <r>    0.0866   -0.0253 </r>
       <r>    0.1181   -0.0120 </r>
       <r>    0.1361   -0.0069 </r>
       <r>    0.1761   -0.0015 </r>
       <r>    0.2991   -0.0000 </r>
       <r>    0.3097   -0.0000 </r>
       <r>    0.3149   -0.0000 </r>
       <r>    0.3606   -0.0000 </r>
       <r>    0.6687   -0.0000 </r>
       <r>    0.7657   -0.0000 </r>
       <r>    1.2165   -0.0000 </r>
       <r>    1.4739   -0.0000 </r>
       <r>    1.4888   -0.0000 </r>
       <r>    1.6115   -0.0000 </r>
       <r>    2.3164   -0.0000 </r>
       <r>    2.7712    0.0000 </r>
       <r>    2.9297    0.0000 </r>
       <r>    3.4641    0.0000 </r>
       <r>    3.6554    0.0000 </r>
       <r>    3.6665    0.0000 </r>
       <r>    3.7612    0.0000 </r>
       <r>    3.9582    0.0000 </r>
       <r>    4.3780    0.0000 </r>
       <r>    4.6173    0.0000 </r>
       <r>    4.6878    0.0000 </r>
       <r>    4.9629    0.0000 </r>
       <r>    4.9889    0.0000 </r>
       <r>    5.0082    0.0000 </r>
       <r>    5.1685    0.0000 </r>
       <r>    5.2299    0.0000 </r>
       <r>    5.4747    0.0000 </r>
       <r>    5.6192    0.0000 </r>
       <r>    5.7249    0.0000 </r>
       <r>    5.8338    0.0000 </r>
       <r>    5.9267    0.0000 </r>
       <r>    6.0626    0.0000 </r>
       <r>    6.2140    0.0000 </r>
       <r>    6.2728    0.0000 </r>
       <r>    6.3336    0.0000 </r>
       <r>    6.3553    0.0000 </r>
       <r>    6.6177    0.0000 </r>
       <r>    6.7001    0.0000 </r>
       <r>    6.7279    0.0000 </r>
       <r>    6.7869    0.0000 </r>
       <r>    6.8392    0.0000 </r>
       <r>    6.9286    0.0000 </r>
       <r>    7.0606    0.0000 </r>
       <r>    7.2204    0.0000 </r>
       <r>    7.4857    0.0000 </r>
       <r>    7.5717    0.0000 </r>
       <r>    7.6165    0.0000 </r>
      </set>
      <set comment="kpoint 4">
       <r>   -8.7444    1.0000 </r>
       <r>   -7.5015    1.0000 </r>
       <r>   -6.9693    1.0000 </r>
       <r>   -6.6301    1.0000 </r>
       <r>   -6.5697    1.0000 </r>
       <r>   -6.4760    1.0000 </r>
       <r>   -6.3504    1.0000 </r>
       <r>   -6.2686    1.0000 </r>
       <r>   -6.2503    1.0000 </r>
       <r>   -6.2228    1.0000 </r>
       <r>   -6.0726    1.0000 </r>
       <r>   -6.0077    1.0000 </r>
       <r>   -5.9311    1.0000 </r>
       <r>   -5.8498    1.0000 </r>
       <r>   -5.8423    1.0000 </r>
       <r>   -5.8287    1.0000 </r>
       <r>   -5.6542    1.0000 </r>
       <r>   -5.5121    1.0000 </r>
       <r>   -5.4226    1.0000 </r>
       <r>   -5.4182    1.0000 </r>
       <r>   -5.4060    1.0000 </r>
       <r>   -5.3958    1.0000 </r>
       <r>   -5.3380    1.0000 </r>
       <r>   -5.3055    1.0000 </r>
       <r>   -5.2773    1.0000 </r>
       <r>   -5.2291    1.0000 </r>
       <r>   -5.2251    1.0000 </r>
       <r>   -5.2182    1.0000 </r>
       <r>   -5.1815    1.0000 </r>
       <r>   -5.1276    1.0000 </r>
       <r>   -5.0928    1.0000 </r>
       <r>   -5.0310    1.0000 </r>
       <r>   -5.0234    1.0000 </r>
       <r>   -5.0064    1.0000 </r>
       <r>   -5.0049    1.0000 </r>
       <r>   -4.8803    1.0000 </r>
       <r>   -4.8072    1.0000 </r>
       <r>   -4.7956    1.0000 </r>
       <r>   -4.7767    1.0000 </r>
       <r>   -4.7718    1.0000 </r>
       <r>   -4.6869    1.0000 </r>
       <r>   -4.5039    1.0000 </r>
       <r>   -4.4955    1.0000 </r>
       <r>   -4.4280    1.0000 </r>
       <r>   -4.4240    1.0000 </r>
       <r>   -4.3994    1.0000 </r>
       <r>   -4.3891    1.0000 </r>
       <r>   -4.3122    1.0000 </r>
       <r>   -4.2107    1.0000 </r>
       <r>   -4.2013    1.0000 </r>
       <r>   -4.1260    1.0000 </r>
       <r>   -4.1230    1.0000 </r>
       <r>   -4.0670    1.0000 </r>
       <r>   -4.0519    1.0000 </r>
       <r>   -4.0118    1.0000 </r>
       <r>   -3.8285    1.0000 </r>
       <r>   -3.7421    1.0000 </r>
       <r>   -3.7363    1.0000 </r>
       <r>   -3.6862    1.0000 </r>
       <r>   -3.6576    1.0000 </r>
       <r>   -3.6275    1.0000 </r>
       <r>   -3.5798    1.0000 </r>
       <r>   -3.5661    1.0000 </r>
       <r>   -3.5513    1.0000 </r>
       <r>   -3.5241    1.0000 </r>
       <r>   -3.5234    1.0000 </r>
       <r>   -3.4586    1.0000 </r>
       <r>   -3.4494    1.0000 </r>
       <r>   -3.3977    1.0000 </r>
       <r>   -3.3636    1.0000 </r>
       <r>   -3.3626    1.0000 </r>
       <r>   -3.3464    1.0000 </r>
       <r>   -3.2739    1.0000 </r>
       <r>   -3.2604    1.0000 </r>
       <r>   -3.2516    1.0000 </r>
       <r>   -3.1881    1.0000 </r>
       <r>   -3.1819    1.0000 </r>
       <r>   -3.1701    1.0000 </r>
       <r>   -3.1190    1.0000 </r>
       <r>   -3.0919    1.0000 </r>
       <r>   -3.0782    1.0000 </r>
       <r>   -3.0630    1.0000 </r>
       <r>   -3.0395    1.0000 </r>
       <r>   -2.9879    1.0000 </r>
       <r>   -2.9706    1.0000 </r>
       <r>   -2.9546    1.0000 </r>
       <r>   -2.9443    1.0000 </r>
       <r>   -2.9344    1.0000 </r>
       <r>   -2.9251    1.0000 </r>
       <r>   -2.8888    1.0000 </r>
       <r>   -2.8555    1.0000 </r>
       <r>   -2.8202    1.0000 </r>
       <r>   -2.8060    1.0000 </r>
       <r>   -2.7949    1.0000 </r>
       <r>   -2.7652    1.0000 </r>
       <r>   -2.7621    1.0000 </r>
       <r>   -2.7272    1.0000 </r>
       <r>   -2.7130    1.0000 </r>
       <r>   -2.7067    1.0000 </r>
       <r>   -2.6938    1.0000 </r>
       <r>   -2.6006    1.0000 </r>
       <r>   -2.5538    1.0000 </r>
       <r>   -2.5291    1.0000 </r>
       <r>   -2.5110    1.0000 </r>
       <r>   -2.5004    1.0000 </r>
       <r>   -2.4994    1.0000 </r>
       <r>   -2.4925    1.0000 </r>
       <r>   -2.4869    1.0000 </r>
       <r>   -2.4371    1.0000 </r>
       <r>   -2.4303    1.0000 </r>
       <r>   -2.4137    1.0000 </r>
       <r>   -2.4039    1.0000 </r>
       <r>   -2.1889    1.0000 </r>
       <r>   -2.1088    1.0000 </r>
       <r>   -2.0774    1.0000 </r>
       <r>   -2.0296    1.0000 </r>
       <r>   -1.9868    1.0000 </r>
       <r>   -1.9832    1.0000 </r>
       <r>   -1.9768    1.0000 </r>
       <r>   -1.9432    1.0000 </r>
       <r>   -1.9383    1.0000 </r>
       <r>   -1.8542    1.0000 </r>
       <r>   -1.7919    1.0000 </r>
       <r>   -1.7834    1.0000 </r>
       <r>   -1.7814    1.0000 </r>
       <r>   -1.6663    1.0000 </r>
       <r>   -1.6451    1.0000 </r>
       <r>   -1.6047    1.0000 </r>
       <r>   -1.5862    1.0000 </r>
       <r>   -1.5765    1.0000 </r>
       <r>   -1.5398    1.0000 </r>
       <r>   -1.5275    1.0000 </r>
       <r>   -1.5130    1.0000 </r>
       <r>   -1.4841    1.0000 </r>
       <r>   -1.4317    1.0000 </r>
       <r>   -1.3950    1.0000 </r>
       <r>   -1.3802    1.0000 </r>
       <r>   -1.3756    1.0000 </r>
       <r>   -1.3523    1.0000 </r>
       <r>   -1.1846    1.0000 </r>
       <r>   -1.1782    1.0000 </r>
       <r>   -1.1654    1.0000 </r>
       <r>   -1.1394    1.0000 </r>
       <r>   -1.1364    1.0000 </r>
       <r>   -1.1118    1.0000 </r>
       <r>   -1.0775    1.0000 </r>
       <r>   -1.0275    1.0000 </r>
       <r>   -0.9978    1.0000 </r>
       <r>   -0.9824    1.0000 </r>
       <r>   -0.9767    1.0000 </r>
       <r>   -0.9252    1.0000 </r>
       <r>   -0.9091    1.0000 </r>
       <r>   -0.8983    1.0000 </r>
       <r>   -0.8924    1.0000 </r>
       <r>   -0.8300    1.0000 </r>
       <r>   -0.7818    1.0000 </r>
       <r>   -0.7730    1.0000 </r>
       <r>   -0.7504    1.0000 </r>
       <r>   -0.7148    1.0000 </r>
       <r>   -0.6524    1.0000 </r>
       <r>   -0.6258    1.0000 </r>
       <r>   -0.6096    1.0000 </r>
       <r>   -0.5988    1.0000 </r>
       <r>   -0.5812    1.0000 </r>
       <r>   -0.5775    1.0000 </r>
       <r>   -0.5367    1.0000 </r>
       <r>   -0.4787    1.0000 </r>
       <r>   -0.4661    1.0000 </r>
       <r>   -0.4394    1.0000 </r>
       <r>   -0.3980    1.0000 </r>
       <r>   -0.3867    1.0000 </r>
       <r>   -0.3779    1.0001 </r>
       <r>   -0.3452    1.0003 </r>
       <r>   -0.3424    1.0004 </r>
       <r>   -0.3411    1.0004 </r>
       <r>   -0.3326    1.0006 </r>
       <r>   -0.3263    1.0008 </r>
       <r>   -0.2695    1.0077 </r>
       <r>   -0.2602    1.0104 </r>
       <r>   -0.1399    0.9646 </r>
       <r>   -0.1059    0.7934 </r>
       <r>   -0.0936    0.7052 </r>
       <r>   -0.0781    0.5803 </r>
       <r>   -0.0626    0.4499 </r>
       <r>   -0.0592    0.4217 </r>
       <r>   -0.0256    0.1709 </r>
       <r>   -0.0059    0.0685 </r>
       <r>    0.0057    0.0264 </r>
       <r>    0.0112    0.0106 </r>
       <r>    0.1102   -0.0149 </r>
       <r>    0.1139   -0.0135 </r>
       <r>    0.1401   -0.0060 </r>
       <r>    0.1450   -0.0050 </r>
       <r>    0.3009   -0.0000 </r>
       <r>    0.3034   -0.0000 </r>
       <r>    0.3163   -0.0000 </r>
       <r>    0.3602   -0.0000 </r>
       <r>    0.6811   -0.0000 </r>
       <r>    0.7652   -0.0000 </r>
       <r>    1.1979   -0.0000 </r>
       <r>    1.4815   -0.0000 </r>
       <r>    1.4885   -0.0000 </r>
       <r>    1.6109   -0.0000 </r>
       <r>    2.3370   -0.0000 </r>
       <r>    2.7224    0.0000 </r>
       <r>    2.9274    0.0000 </r>
       <r>    3.4751    0.0000 </r>
       <r>    3.6575    0.0000 </r>
       <r>    3.6640    0.0000 </r>
       <r>    3.7633    0.0000 </r>
       <r>    3.9938    0.0000 </r>
       <r>    4.3668    0.0000 </r>
       <r>    4.6241    0.0000 </r>
       <r>    4.7096    0.0000 </r>
       <r>    4.9654    0.0000 </r>
       <r>    4.9951    0.0000 </r>
       <r>    4.9978    0.0000 </r>
       <r>    5.1118    0.0000 </r>
       <r>    5.2305    0.0000 </r>
       <r>    5.4785    0.0000 </r>
       <r>    5.6506    0.0000 </r>
       <r>    5.7338    0.0000 </r>
       <r>    5.9015    0.0000 </r>
       <r>    5.9165    0.0000 </r>
       <r>    5.9882    0.0000 </r>
       <r>    6.1717    0.0000 </r>
       <r>    6.2681    0.0000 </r>
       <r>    6.3274    0.0000 </r>
       <r>    6.3586    0.0000 </r>
       <r>    6.5427    0.0000 </r>
       <r>    6.7180    0.0000 </r>
       <r>    6.7384    0.0000 </r>
       <r>    6.7894    0.0000 </r>
       <r>    6.8967    0.0000 </r>
       <r>    6.9235    0.0000 </r>
       <r>    7.0722    0.0000 </r>
       <r>    7.2773    0.0000 </r>
       <r>    7.5025    0.0000 </r>
       <r>    7.5411    0.0000 </r>
       <r>    7.6304    0.0000 </r>
      </set>
      <set comment="kpoint 5">
       <r>   -8.3188    1.0000 </r>
       <r>   -7.6808    1.0000 </r>
       <r>   -7.1066    1.0000 </r>
       <r>   -6.6369    1.0000 </r>
       <r>   -6.5935    1.0000 </r>
       <r>   -6.5425    1.0000 </r>
       <r>   -6.2779    1.0000 </r>
       <r>   -6.1268    1.0000 </r>
       <r>   -6.0955    1.0000 </r>
       <r>   -5.9677    1.0000 </r>
       <r>   -5.8971    1.0000 </r>
       <r>   -5.8780    1.0000 </r>
       <r>   -5.8139    1.0000 </r>
       <r>   -5.7125    1.0000 </r>
       <r>   -5.6724    1.0000 </r>
       <r>   -5.6647    1.0000 </r>
       <r>   -5.6549    1.0000 </r>
       <r>   -5.6219    1.0000 </r>
       <r>   -5.5228    1.0000 </r>
       <r>   -5.4927    1.0000 </r>
       <r>   -5.4775    1.0000 </r>
       <r>   -5.4507    1.0000 </r>
       <r>   -5.4365    1.0000 </r>
       <r>   -5.4115    1.0000 </r>
       <r>   -5.3564    1.0000 </r>
       <r>   -5.3212    1.0000 </r>
       <r>   -5.3143    1.0000 </r>
       <r>   -5.1739    1.0000 </r>
       <r>   -5.0549    1.0000 </r>
       <r>   -5.0513    1.0000 </r>
       <r>   -5.0445    1.0000 </r>
       <r>   -5.0338    1.0000 </r>
       <r>   -5.0262    1.0000 </r>
       <r>   -4.9594    1.0000 </r>
       <r>   -4.7967    1.0000 </r>
       <r>   -4.7905    1.0000 </r>
       <r>   -4.7828    1.0000 </r>
       <r>   -4.7603    1.0000 </r>
       <r>   -4.7381    1.0000 </r>
       <r>   -4.6811    1.0000 </r>
       <r>   -4.5612    1.0000 </r>
       <r>   -4.4733    1.0000 </r>
       <r>   -4.4686    1.0000 </r>
       <r>   -4.4576    1.0000 </r>
       <r>   -4.4434    1.0000 </r>
       <r>   -4.3953    1.0000 </r>
       <r>   -4.3491    1.0000 </r>
       <r>   -4.3247    1.0000 </r>
       <r>   -4.3131    1.0000 </r>
       <r>   -4.2959    1.0000 </r>
       <r>   -4.2535    1.0000 </r>
       <r>   -4.1729    1.0000 </r>
       <r>   -4.1007    1.0000 </r>
       <r>   -4.0828    1.0000 </r>
       <r>   -4.0755    1.0000 </r>
       <r>   -4.0276    1.0000 </r>
       <r>   -3.9432    1.0000 </r>
       <r>   -3.9138    1.0000 </r>
       <r>   -3.8806    1.0000 </r>
       <r>   -3.8651    1.0000 </r>
       <r>   -3.8351    1.0000 </r>
       <r>   -3.7180    1.0000 </r>
       <r>   -3.6698    1.0000 </r>
       <r>   -3.6523    1.0000 </r>
       <r>   -3.6445    1.0000 </r>
       <r>   -3.6267    1.0000 </r>
       <r>   -3.5463    1.0000 </r>
       <r>   -3.5344    1.0000 </r>
       <r>   -3.5127    1.0000 </r>
       <r>   -3.4301    1.0000 </r>
       <r>   -3.4045    1.0000 </r>
       <r>   -3.3956    1.0000 </r>
       <r>   -3.3544    1.0000 </r>
       <r>   -3.2976    1.0000 </r>
       <r>   -3.2939    1.0000 </r>
       <r>   -3.2652    1.0000 </r>
       <r>   -3.2540    1.0000 </r>
       <r>   -3.2219    1.0000 </r>
       <r>   -3.2075    1.0000 </r>
       <r>   -3.1665    1.0000 </r>
       <r>   -3.1575    1.0000 </r>
       <r>   -3.1462    1.0000 </r>
       <r>   -3.1335    1.0000 </r>
       <r>   -3.1237    1.0000 </r>
       <r>   -3.1086    1.0000 </r>
       <r>   -3.0979    1.0000 </r>
       <r>   -3.0258    1.0000 </r>
       <r>   -2.9955    1.0000 </r>
       <r>   -2.9831    1.0000 </r>
       <r>   -2.9756    1.0000 </r>
       <r>   -2.9598    1.0000 </r>
       <r>   -2.9584    1.0000 </r>
       <r>   -2.9433    1.0000 </r>
       <r>   -2.8728    1.0000 </r>
       <r>   -2.8034    1.0000 </r>
       <r>   -2.7880    1.0000 </r>
       <r>   -2.7444    1.0000 </r>
       <r>   -2.7327    1.0000 </r>
       <r>   -2.7091    1.0000 </r>
       <r>   -2.6888    1.0000 </r>
       <r>   -2.6699    1.0000 </r>
       <r>   -2.6503    1.0000 </r>
       <r>   -2.5761    1.0000 </r>
       <r>   -2.5343    1.0000 </r>
       <r>   -2.5000    1.0000 </r>
       <r>   -2.4925    1.0000 </r>
       <r>   -2.4482    1.0000 </r>
       <r>   -2.4248    1.0000 </r>
       <r>   -2.4017    1.0000 </r>
       <r>   -2.2786    1.0000 </r>
       <r>   -2.2563    1.0000 </r>
       <r>   -2.2186    1.0000 </r>
       <r>   -2.1685    1.0000 </r>
       <r>   -2.1323    1.0000 </r>
       <r>   -2.0959    1.0000 </r>
       <r>   -2.0652    1.0000 </r>
       <r>   -2.0620    1.0000 </r>
       <r>   -2.0513    1.0000 </r>
       <r>   -2.0403    1.0000 </r>
       <r>   -2.0245    1.0000 </r>
       <r>   -1.9804    1.0000 </r>
       <r>   -1.9513    1.0000 </r>
       <r>   -1.9349    1.0000 </r>
       <r>   -1.9176    1.0000 </r>
       <r>   -1.9140    1.0000 </r>
       <r>   -1.8919    1.0000 </r>
       <r>   -1.8732    1.0000 </r>
       <r>   -1.8471    1.0000 </r>
       <r>   -1.8183    1.0000 </r>
       <r>   -1.7308    1.0000 </r>
       <r>   -1.6989    1.0000 </r>
       <r>   -1.6934    1.0000 </r>
       <r>   -1.6363    1.0000 </r>
       <r>   -1.6171    1.0000 </r>
       <r>   -1.5071    1.0000 </r>
       <r>   -1.4982    1.0000 </r>
       <r>   -1.4348    1.0000 </r>
       <r>   -1.3912    1.0000 </r>
       <r>   -1.3692    1.0000 </r>
       <r>   -1.3025    1.0000 </r>
       <r>   -1.2399    1.0000 </r>
       <r>   -1.2173    1.0000 </r>
       <r>   -1.1788    1.0000 </r>
       <r>   -1.1488    1.0000 </r>
       <r>   -1.1306    1.0000 </r>
       <r>   -1.1214    1.0000 </r>
       <r>   -1.1068    1.0000 </r>
       <r>   -1.0604    1.0000 </r>
       <r>   -1.0342    1.0000 </r>
       <r>   -1.0168    1.0000 </r>
       <r>   -0.9870    1.0000 </r>
       <r>   -0.9451    1.0000 </r>
       <r>   -0.8993    1.0000 </r>
       <r>   -0.8692    1.0000 </r>
       <r>   -0.8498    1.0000 </r>
       <r>   -0.8457    1.0000 </r>
       <r>   -0.8277    1.0000 </r>
       <r>   -0.7644    1.0000 </r>
       <r>   -0.7323    1.0000 </r>
       <r>   -0.6501    1.0000 </r>
       <r>   -0.5981    1.0000 </r>
       <r>   -0.5847    1.0000 </r>
       <r>   -0.5581    1.0000 </r>
       <r>   -0.5386    1.0000 </r>
       <r>   -0.5094    1.0000 </r>
       <r>   -0.4551    1.0000 </r>
       <r>   -0.4373    1.0000 </r>
       <r>   -0.3967    1.0000 </r>
       <r>   -0.3385    1.0005 </r>
       <r>   -0.3350    1.0005 </r>
       <r>   -0.3286    1.0007 </r>
       <r>   -0.2772    1.0060 </r>
       <r>   -0.2535    1.0126 </r>
       <r>   -0.2415    1.0173 </r>
       <r>   -0.2193    1.0273 </r>
       <r>   -0.1343    0.9441 </r>
       <r>   -0.1051    0.7877 </r>
[...]
       <r>    6.9464    0.0000 </r>
       <r>    6.9646    0.0000 </r>
       <r>    7.0619    0.0000 </r>
       <r>    7.2250    0.0000 </r>
       <r>    7.3154    0.0000 </r>
      </set>
     </set>
    </set>
   </array>
  </eigenvalues>
  <separator name="orbital magnetization" >
   <v name="MAGDIPOLOUT">      0.00000000      0.00000000      0.00000000</v>
  </separator>
  <dos>
   <i name="efermi">     -0.06852938 </i>
   <total>
    <array>
     <dimension dim="1">gridpoints</dimension>
     <dimension dim="2">spin</dimension>
     <field>energy</field>
     <field>total</field>
     <field>integrated</field>
     <set>
      <set comment="spin 1">
       <r>    -9.8929     0.0000     0.0000 </r>
       <r>    -9.8305     0.0000     0.0000 </r>
       <r>    -9.7682     0.0000     0.0000 </r>
       <r>    -9.7058    -0.0000    -0.0000 </r>
       <r>    -9.6435    -0.0000    -0.0000 </r>
       <r>    -9.5812    -0.0000    -0.0000 </r>
       <r>    -9.5188    -0.0000    -0.0000 </r>
       <r>    -9.4565    -0.0000    -0.0000 </r>
       <r>    -9.3941    -0.0000    -0.0000 </r>
       <r>    -9.3318    -0.0000    -0.0000 </r>
       <r>    -9.2695    -0.0000    -0.0000 </r>
       <r>    -9.2071    -0.0001    -0.0000 </r>
       <r>    -9.1448    -0.0013    -0.0001 </r>
       <r>    -9.0824    -0.0129    -0.0009 </r>
       <r>    -9.0201    -0.0335    -0.0030 </r>
       <r>    -8.9578     0.0843     0.0023 </r>
       <r>    -8.8954     0.3670     0.0252 </r>
       <r>    -8.8331     0.7091     0.0694 </r>
       <r>    -8.7707     2.4260     0.2206 </r>
       <r>    -8.7084     3.7996     0.4575 </r>
       <r>    -8.6461     1.7424     0.5661 </r>
       <r>    -8.5837    -0.1982     0.5537 </r>
       <r>    -8.5214     0.5327     0.5869 </r>
       <r>    -8.4591     3.0201     0.7752 </r>
       <r>    -8.3967     3.7394     1.0083 </r>
       <r>    -8.3344     3.6018     1.2329 </r>
       <r>    -8.2720     3.5428     1.4537 </r>
       <r>    -8.2097     1.3170     1.5358 </r>
       <r>    -8.1474    -0.1579     1.5260 </r>
       <r>    -8.0850    -0.3840     1.5020 </r>
       <r>    -8.0227    -0.1371     1.4935 </r>
       <r>    -7.9603     3.1472     1.6897 </r>
       <r>    -7.8980     7.4509     2.1542 </r>
       <r>    -7.8357     4.9091     2.4602 </r>
       <r>    -7.7733     0.5972     2.4974 </r>
       <r>    -7.7110     1.7725     2.6079 </r>
       <r>    -7.6486     4.1118     2.8643 </r>
       <r>    -7.5863     2.8450     3.0416 </r>
       <r>    -7.5240     2.6522     3.2069 </r>
       <r>    -7.4616     3.3732     3.4172 </r>
       <r>    -7.3993     1.3516     3.5015 </r>
       <r>    -7.3369     2.1294     3.6342 </r>
       <r>    -7.2746     7.7579     4.1179 </r>
       <r>    -7.2123    11.7060     4.8476 </r>
       <r>    -7.1499     9.4688     5.4379 </r>
       <r>    -7.0876     5.3364     5.7706 </r>
       <r>    -7.0252     3.5910     5.9944 </r>
       <r>    -6.9629     3.6736     6.2234 </r>
       <r>    -6.9006     2.5566     6.3828 </r>
       <r>    -6.8382     1.9669     6.5054 </r>
       <r>    -6.7759     3.0829     6.6976 </r>
       <r>    -6.7135     4.3188     6.9668 </r>
       <r>    -6.6512    10.2515     7.6059 </r>
       <r>    -6.5889    16.7648     8.6510 </r>
       <r>    -6.5265    16.4020     9.6735 </r>
       <r>    -6.4642    12.6290    10.4608 </r>
       <r>    -6.4019     9.6884    11.0648 </r>
       <r>    -6.3395     9.4629    11.6547 </r>
       <r>    -6.2772    14.0941    12.5333 </r>
       <r>    -6.2148    19.4197    13.7439 </r>
       <r>    -6.1525    26.6031    15.4023 </r>
       <r>    -6.0902    35.8106    17.6347 </r>
       <r>    -6.0278    34.1870    19.7659 </r>
       <r>    -5.9655    31.4446    21.7262 </r>
       <r>    -5.9031    33.9480    23.8425 </r>
       <r>    -5.8408    33.8151    25.9505 </r>
       <r>    -5.7785    27.0812    27.6387 </r>
       <r>    -5.7161    24.6399    29.1747 </r>
       <r>    -5.6538    34.9946    31.3563 </r>
       <r>    -5.5914    43.7113    34.0812 </r>
       <r>    -5.5291    44.5078    36.8558 </r>
       <r>    -5.4668    49.1231    39.9181 </r>
       <r>    -5.4044    59.5326    43.6293 </r>
       <r>    -5.3421    63.3550    47.5789 </r>
       <r>    -5.2797    57.2372    51.1470 </r>
       <r>    -5.2174    47.3806    54.1007 </r>
       <r>    -5.1551    43.6882    56.8242 </r>
       <r>    -5.0927    48.5184    59.8488 </r>
       <r>    -5.0304    68.5839    64.1242 </r>
       <r>    -4.9680    67.2064    68.3138 </r>
       <r>    -4.9057    35.5040    70.5271 </r>
       <r>    -4.8434    24.8703    72.0775 </r>
       <r>    -4.7810    41.2650    74.6500 </r>
       <r>    -4.7187    42.4695    77.2975 </r>
       <r>    -4.6563    23.7893    78.7805 </r>
       <r>    -4.5940    19.9984    80.0272 </r>
       <r>    -4.5317    37.2218    82.3476 </r>
       <r>    -4.4693    56.5087    85.8703 </r>
       <r>    -4.4070    61.8773    89.7277 </r>
       <r>    -4.3447    52.8815    93.0243 </r>
       <r>    -4.2823    44.8896    95.8227 </r>
       <r>    -4.2200    42.7811    98.4896 </r>
       <r>    -4.1576    48.2098   101.4950 </r>
       <r>    -4.0953    59.7615   105.2205 </r>
       <r>    -4.0330    57.7025   108.8176 </r>
       <r>    -3.9706    46.7769   111.7337 </r>
       <r>    -3.9083    43.2464   114.4296 </r>
       <r>    -3.8459    41.0429   116.9882 </r>
       <r>    -3.7836    35.6580   119.2111 </r>
       <r>    -3.7213    41.6686   121.8087 </r>
       <r>    -3.6589    59.2713   125.5036 </r>
       <r>    -3.5966    61.7581   129.3536 </r>
       <r>    -3.5342    55.7121   132.8267 </r>
       <r>    -3.4719    57.6101   136.4180 </r>
       <r>    -3.4096    68.9298   140.7151 </r>
       <r>    -3.3472    76.9375   145.5113 </r>
       <r>    -3.2849    73.5699   150.0976 </r>
       <r>    -3.2225    68.1874   154.3484 </r>
       <r>    -3.1602    74.9205   159.0189 </r>
       <r>    -3.0979    88.3103   164.5241 </r>
       <r>    -3.0355    83.7978   169.7480 </r>
       <r>    -2.9732    76.8060   174.5360 </r>
       <r>    -2.9108    76.4113   179.2995 </r>
       <r>    -2.8485    73.6120   183.8884 </r>
       <r>    -2.7862    87.5050   189.3434 </r>
       <r>    -2.7238   104.8883   195.8821 </r>
       <r>    -2.6615   101.0929   202.1841 </r>
       <r>    -2.5991    75.7584   206.9069 </r>
       <r>    -2.5368    60.7550   210.6943 </r>
       <r>    -2.4745    66.6203   214.8474 </r>
       <r>    -2.4121    60.6931   218.6309 </r>
       <r>    -2.3498    39.8581   221.1157 </r>
       <r>    -2.2875    26.4864   222.7668 </r>
       <r>    -2.2251    28.3788   224.5359 </r>
       <r>    -2.1628    34.3432   226.6769 </r>
       <r>    -2.1004    46.5347   229.5778 </r>
       <r>    -2.0381    68.9495   233.8761 </r>
       <r>    -1.9758    89.3707   239.4474 </r>
       <r>    -1.9134    90.6146   245.0962 </r>
       <r>    -1.8511    73.9819   249.7082 </r>
       <r>    -1.7887    54.5026   253.1059 </r>
       <r>    -1.7264    45.5432   255.9450 </r>
       <r>    -1.6641    43.9951   258.6877 </r>
       <r>    -1.6017    47.2513   261.6333 </r>
       <r>    -1.5394    56.1141   265.1314 </r>
       <r>    -1.4770    59.0572   268.8130 </r>
       <r>    -1.4147    58.4999   272.4598 </r>
       <r>    -1.3524    60.8264   276.2517 </r>
       <r>    -1.2900    56.3219   279.7628 </r>
       <r>    -1.2277    49.3219   282.8375 </r>
       <r>    -1.1653    60.0377   286.5802 </r>
       <r>    -1.1030    78.6462   291.4829 </r>
       <r>    -1.0407    85.7356   296.8277 </r>
       <r>    -0.9783    80.7106   301.8591 </r>
       <r>    -0.9160    63.6458   305.8267 </r>
       <r>    -0.8536    55.9553   309.3150 </r>
       <r>    -0.7913    54.9382   312.7398 </r>
       <r>    -0.7290    45.5793   315.5812 </r>
       <r>    -0.6666    43.7159   318.3064 </r>
       <r>    -0.6043    59.1432   321.9933 </r>
       <r>    -0.5419    65.4582   326.0740 </r>
       <r>    -0.4796    59.1843   329.7635 </r>
       <r>    -0.4173    61.5394   333.5998 </r>
       <r>    -0.3549    75.0902   338.2809 </r>
       <r>    -0.2926    92.2264   344.0302 </r>
       <r>    -0.2303    85.8821   349.3840 </r>
       <r>    -0.1679    60.3549   353.1465 </r>
       <r>    -0.1056    69.1824   357.4593 </r>
       <r>    -0.0432    97.1862   363.5178 </r>
       <r>     0.0191    75.6688   368.2350 </r>
       <r>     0.0814    36.8933   370.5349 </r>
       <r>     0.1438    43.5612   373.2505 </r>
       <r>     0.2061    58.4421   376.8937 </r>
       <r>     0.2685    46.4233   379.7877 </r>
       <r>     0.3308    38.9990   382.2189 </r>
       <r>     0.3931    32.0048   384.2140 </r>
       <r>     0.4555    18.4929   385.3669 </r>
       <r>     0.5178     7.5683   385.8387 </r>
       <r>     0.5802     3.2630   386.0421 </r>
       <r>     0.6425     4.8574   386.3449 </r>
       <r>     0.7048     8.5348   386.8770 </r>
       <r>     0.7672    13.2269   387.7015 </r>
       <r>     0.8295    12.7244   388.4947 </r>
       <r>     0.8919     8.5034   389.0248 </r>
       <r>     0.9542    10.5559   389.6829 </r>
       <r>     1.0165    11.4139   390.3944 </r>
       <r>     1.0789     5.5090   390.7379 </r>
       <r>     1.1412     4.3653   391.0100 </r>
       <r>     1.2036     9.3668   391.5939 </r>
       <r>     1.2659    12.2924   392.3602 </r>
       <r>     1.3282    11.8353   393.0980 </r>
       <r>     1.3906     9.9331   393.7172 </r>
       <r>     1.4529    10.2627   394.3570 </r>
       <r>     1.5152    22.6130   395.7667 </r>
       <r>     1.5776    28.0347   397.5144 </r>
       <r>     1.6399    20.5580   398.7959 </r>
       <r>     1.7023    16.6938   399.8366 </r>
       <r>     1.7646    11.7388   400.5684 </r>
       <r>     1.8269     3.2813   400.7729 </r>
       <r>     1.8893     3.2134   400.9733 </r>
       <r>     1.9516     7.2558   401.4256 </r>
       <r>     2.0140     6.5795   401.8357 </r>
       <r>     2.0763     3.9535   402.0822 </r>
       <r>     2.1386     3.4354   402.2964 </r>
       <r>     2.2010     7.0409   402.7353 </r>
       <r>     2.2633    10.6851   403.4014 </r>
       <r>     2.3257    12.3687   404.1725 </r>
       <r>     2.3880    14.6835   405.0878 </r>
       <r>     2.4503    20.4965   406.3656 </r>
       <r>     2.5127    20.9573   407.6720 </r>
       <r>     2.5750    11.4739   408.3873 </r>
       <r>     2.6374     6.4559   408.7898 </r>
       <r>     2.6997     7.7253   409.2713 </r>
       <r>     2.7620    13.0785   410.0867 </r>
       <r>     2.8244    17.6086   411.1844 </r>
       <r>     2.8867    15.1174   412.1268 </r>
       <r>     2.9491    11.4497   412.8405 </r>
       <r>     3.0114     8.8988   413.3953 </r>
       <r>     3.0737    12.4539   414.1717 </r>
       <r>     3.1361    15.3972   415.1315 </r>
       <r>     3.1984    11.3819   415.8410 </r>
       <r>     3.2608     8.9449   416.3987 </r>
       <r>     3.3231     8.0467   416.9003 </r>
       <r>     3.3854     6.3209   417.2943 </r>
       <r>     3.4478     5.8391   417.6583 </r>
       <r>     3.5101     7.0376   418.0971 </r>
       <r>     3.5724     8.6901   418.6388 </r>
       <r>     3.6348    13.8389   419.5015 </r>
       <r>     3.6971    21.0341   420.8128 </r>
       <r>     3.7595    20.3936   422.0841 </r>
       <r>     3.8218    12.1002   422.8384 </r>
       <r>     3.8841     5.2253   423.1641 </r>
       <r>     3.9465     4.5074   423.4451 </r>
       <r>     4.0088     7.4079   423.9069 </r>
       <r>     4.0712     9.6706   424.5098 </r>
       <r>     4.1335     7.9635   425.0062 </r>
       <r>     4.1958     3.4576   425.2218 </r>
       <r>     4.2582     2.2165   425.3599 </r>
       <r>     4.3205     5.7952   425.7212 </r>
       <r>     4.3829    16.7640   426.7663 </r>
       <r>     4.4452    26.9671   428.4474 </r>
       <r>     4.5075    20.9754   429.7550 </r>
       <r>     4.5699     9.8007   430.3660 </r>
       <r>     4.6322     7.3443   430.8238 </r>
       <r>     4.6946     9.4072   431.4102 </r>
       <r>     4.7569    11.8769   432.1506 </r>
       <r>     4.8192    10.5029   432.8054 </r>
       <r>     4.8816     6.9913   433.2412 </r>
       <r>     4.9439     8.4204   433.7661 </r>
       <r>     5.0063    14.2984   434.6575 </r>
       <r>     5.0686    11.6751   435.3853 </r>
       <r>     5.1309     8.0689   435.8883 </r>
       <r>     5.1933    12.1169   436.6437 </r>
       <r>     5.2556    14.0052   437.5168 </r>
       <r>     5.3180    12.2108   438.2780 </r>
       <r>     5.3803     7.2631   438.7307 </r>
       <r>     5.4426     7.0868   439.1725 </r>
       <r>     5.5050    16.8189   440.2210 </r>
       <r>     5.5673    22.7175   441.6372 </r>
       <r>     5.6296    21.0608   442.9501 </r>
       <r>     5.6920    22.0367   444.3239 </r>
       <r>     5.7543    25.0653   445.8864 </r>
       <r>     5.8167    20.0883   447.1387 </r>
       <r>     5.8790    13.7571   447.9963 </r>
       <r>     5.9413    18.6721   449.1603 </r>
       <r>     6.0037    29.9620   451.0282 </r>
       <r>     6.0660    32.1046   453.0295 </r>
       <r>     6.1284    19.8255   454.2654 </r>
       <r>     6.1907    11.1951   454.9633 </r>
       <r>     6.2530    16.7115   456.0051 </r>
       <r>     6.3154    27.1902   457.7002 </r>
       <r>     6.3777    30.1511   459.5798 </r>
       <r>     6.4401    19.2797   460.7816 </r>
       <r>     6.5024    12.0643   461.5337 </r>
       <r>     6.5647    19.3013   462.7370 </r>
       <r>     6.6271    28.7124   464.5269 </r>
       <r>     6.6894    30.4752   466.4267 </r>
       <r>     6.7518    28.0693   468.1765 </r>
       <r>     6.8141    19.3921   469.3854 </r>
       <r>     6.8764    13.3270   470.2162 </r>
       <r>     6.9388    17.0723   471.2805 </r>
       <r>     7.0011    17.7976   472.3900 </r>
       <r>     7.0635    13.9594   473.2602 </r>
       <r>     7.1258    17.1057   474.3265 </r>
       <r>     7.1881    23.3815   475.7841 </r>
       <r>     7.2505    23.5475   477.2521 </r>
       <r>     7.3128    14.8289   478.1765 </r>
       <r>     7.3752     4.9121   478.4827 </r>
       <r>     7.4375     1.0627   478.5489 </r>
       <r>     7.4998     3.7707   478.7840 </r>
       <r>     7.5622     7.0464   479.2233 </r>
       <r>     7.6245     7.1654   479.6700 </r>
       <r>     7.6868     3.8347   479.9090 </r>
       <r>     7.7492     0.6482   479.9494 </r>
       <r>     7.8115     0.2932   479.9677 </r>
       <r>     7.8739     0.4511   479.9958 </r>
       <r>     7.9362     0.1126   480.0028 </r>
       <r>     7.9985    -0.0313   480.0009 </r>
       <r>     8.0609    -0.0128   480.0001 </r>
       <r>     8.1232    -0.0013   480.0000 </r>
       <r>     8.1856    -0.0001   480.0000 </r>
       <r>     8.2479    -0.0000   480.0000 </r>
       <r>     8.3102    -0.0000   480.0000 </r>
       <r>     8.3726    -0.0000   480.0000 </r>
       <r>     8.4349    -0.0000   480.0000 </r>
       <r>     8.4973     0.0000   480.0000 </r>
       <r>     8.5596     0.0000   480.0000 </r>
       <r>     8.6219     0.0000   480.0000 </r>
       <r>     8.6843     0.0000   480.0000 </r>
       <r>     8.7466     0.0000   480.0000 </r>
       <r>     8.8090     0.0000   480.0000 </r>
      </set>
     </set>
    </array>
   </total>
  </dos>
 </calculation>
 <structure name="finalpos" >
  <crystal>
   <varray name="basis" >
    <v>       8.46831000       0.00000000       0.00000000 </v>
    <v>       4.23415500       7.33377159       0.00000000 </v>
    <v>       0.00000000       0.00000000      24.96566199 </v>
   </varray>
   <i name="volume">   1550.48373159 </i>
   <varray name="rec_basis" >
    <v>       0.11808732      -0.06817774       0.00000000 </v>
    <v>       0.00000000       0.13635549       0.00000000 </v>
    <v>       0.00000000       0.00000000       0.04005502 </v>
   </varray>
  </crystal>
  <varray name="positions" >
   <v>       0.00000000       0.00000000       0.34046764 </v>
   <v>       0.33400137       0.00000000       0.34046764 </v>
   <v>       0.66800274       0.00000000       0.34046764 </v>
   <v>       0.00000000       0.33400137       0.34046764 </v>
   <v>       0.33400137       0.33400137       0.34046764 </v>
   <v>       0.66800274       0.33400137       0.34046764 </v>
   <v>       0.00000000       0.66800274       0.34046764 </v>
   <v>       0.33400137       0.66800274       0.34046764 </v>
   <v>       0.66800274       0.66800274       0.34046764 </v>
   <v>       0.11133379       0.11133379       0.43297074 </v>
   <v>       0.44533516       0.11133379       0.43297074 </v>
   <v>       0.77933653       0.11133379       0.43297074 </v>
   <v>       0.11133379       0.44533516       0.43297074 </v>
   <v>       0.44533516       0.44533516       0.43297074 </v>
   <v>       0.77933653       0.44533516       0.43297074 </v>
   <v>       0.11133379       0.77933653       0.43297074 </v>
   <v>       0.44533516       0.77933653       0.43297074 </v>
   <v>       0.77933653       0.77933653       0.43297074 </v>
   <v>       0.88984537       0.22338457       0.52473966 </v>
   <v>       0.22364020       0.22329951       0.52467007 </v>
   <v>       0.55676914       0.22318481       0.52417042 </v>
   <v>       0.89122295       0.55454384       0.52562757 </v>
   <v>       0.22338007       0.55691035       0.52429933 </v>
   <v>       0.55643869       0.55696577       0.52424469 </v>
   <v>       0.89035321       0.89021469       0.52458629 </v>
   <v>       0.22312798       0.89069986       0.52480550 </v>
   <v>       0.55668835       0.88999585       0.52445900 </v>
   <v>       0.00017296       0.99949544       0.61806533 </v>
   <v>       0.33753054       0.99959731       0.61801928 </v>
   <v>       0.66752941       0.00210385       0.61784450 </v>
   <v>       0.00023171       0.33671099       0.61990489 </v>
   <v>       0.33593142       0.33529603       0.61746772 </v>
   <v>       0.66595992       0.33525471       0.61740009 </v>
   <v>       0.00113120       0.66994684       0.61771425 </v>
   <v>       0.33461685       0.66798124       0.61755909 </v>
   <v>       0.66615762       0.67006485       0.61763488 </v>
   <v>       0.05964780       0.21777869       0.67315809 </v>
  </varray>
  <varray name="selective"  type="logical" >
   <v type="logical" >  F  F  F </v>
   <v type="logical" >  F  F  F </v>
   <v type="logical" >  F  F  F </v>
   <v type="logical" >  F  F  F </v>
   <v type="logical" >  F  F  F </v>
   <v type="logical" >  F  F  F </v>
   <v type="logical" >  F  F  F </v>
   <v type="logical" >  F  F  F </v>
   <v type="logical" >  F  F  F </v>
   <v type="logical" >  F  F  F </v>
   <v type="logical" >  F  F  F </v>
   <v type="logical" >  F  F  F </v>
   <v type="logical" >  F  F  F </v>
   <v type="logical" >  F  F  F </v>
   <v type="logical" >  F  F  F </v>
   <v type="logical" >  F  F  F </v>
   <v type="logical" >  F  F  F </v>
   <v type="logical" >  F  F  F </v>
   <v type="logical" >  T  T  T </v>
   <v type="logical" >  T  T  T </v>
   <v type="logical" >  T  T  T </v>
   <v type="logical" >  T  T  T </v>
   <v type="logical" >  T  T  T </v>
   <v type="logical" >  T  T  T </v>
   <v type="logical" >  T  T  T </v>
   <v type="logical" >  T  T  T </v>
   <v type="logical" >  T  T  T </v>
   <v type="logical" >  T  T  T </v>
   <v type="logical" >  T  T  T </v>
   <v type="logical" >  T  T  T </v>
   <v type="logical" >  T  T  T </v>
   <v type="logical" >  T  T  T </v>
   <v type="logical" >  T  T  T </v>
   <v type="logical" >  T  T  T </v>
   <v type="logical" >  T  T  T </v>
   <v type="logical" >  T  T  T </v>
   <v type="logical" >  T  T  T </v>
  </varray>
  <nose>
   <v>      -3.00000000       0.00000000       0.00010000       0.00010000 </v>
  </nose>
 </structure>
</modeling>
