unknown system                          
           1
     8.468310    0.000000    0.000000
     4.234155    7.333772    0.000000
     0.000000    0.000000   24.965662
   Pt   H 
    36     1
Direct configuration=     1
   0.00000000  0.00000000  0.34046764
   0.33400137  0.00000000  0.34046764
   0.66800274  0.00000000  0.34046764
   0.00000000  0.33400137  0.34046764
   0.33400137  0.33400137  0.34046764
   0.66800274  0.33400137  0.34046764
   0.00000000  0.66800274  0.34046764
   0.33400137  0.66800274  0.34046764
   0.66800274  0.66800274  0.34046764
   0.11133379  0.11133379  0.43297074
   0.44533516  0.11133379  0.43297074
   0.77933653  0.11133379  0.43297074
   0.11133379  0.44533516  0.43297074
   0.44533516  0.44533516  0.43297074
   0.77933653  0.44533516  0.43297074
   0.11133379  0.77933653  0.43297074
   0.44533516  0.77933653  0.43297074
   0.77933653  0.77933653  0.43297074
   0.88984537  0.22338457  0.52473966
   0.22364020  0.22329951  0.52467007
   0.55676914  0.22318481  0.52417042
   0.89122295  0.55454384  0.52562757
   0.22338007  0.55691035  0.52429933
   0.55643869  0.55696577  0.52424469
   0.89035321  0.89021469  0.52458629
   0.22312798  0.89069986  0.52480550
   0.55668835  0.88999585  0.52445900
   0.00017296  0.99949544  0.61806533
   0.33753054  0.99959731  0.61801928
   0.66752941  0.00210385  0.61784450
   0.00023171  0.33671099  0.61990489
   0.33593142  0.33529603  0.61746772
   0.66595992  0.33525471  0.61740009
   0.00113120  0.66994684  0.61771425
   0.33461685  0.66798124  0.61755909
   0.66615762  0.67006485  0.61763488
   0.05964780  0.21777869  0.67315809
