
     Program PWSCF v.7.1 starts on  7Dec2025 at 20:37:32 
        Git branch: heads/qe-7.1
        Last git commit: 48ba0178f8fede6d020eb786884699a9f063f55d-dirty
        Last git commit date: Fri Jan 27 14:22:33 2023 +0000
        Last git commit subject: Merge branch 'fix_hubbard' into 'develop'

     This program is part of the open-source Quantum ESPRESSO suite
     for quantum simulation of materials; please cite
         "P. Giannozzi et al., J. Phys.:Condens. Matter 21 395502 (2009);
         "P. Giannozzi et al., J. Phys.:Condens. Matter 29 465901 (2017);
         "P. Giannozzi et al., J. Chem. Phys. 152 154105 (2020);
          URL http://www.quantum-espresso.org", 
     in publications or presentations arising from this work. More details at
     http://www.quantum-espresso.org/quote

     Parallel version (MPI), running on    96 processors

     MPI processes distributed on     2 nodes
     119705 MiB available memory on the printing compute node when the environment starts

     Reading input from espresso.pwi
Warning: card &CELL ignored
Warning: card / ignored
Warning: card &FCP ignored
Warning: card / ignored
Warning: card &RISM ignored
Warning: card / ignored

     Current dimensions of program PWSCF are:
     Max number of different atomic species (ntypx) = 10
     Max number of k-points (npk) =  40000
     Max angular momentum in pseudopotentials (lmaxx) =  4
     file Co.pbe-n-kjpaw_psl.1.0.0.UPF: wavefunction(s)  4S 3D renormalized
     file C.pbe-n-kjpaw_psl.1.0.0.UPF: wavefunction(s)  2S 2P renormalized
     file O.pbe-nl-kjpaw_psl.1.0.0.UPF: wavefunction(s)  2S 2P renormalized
     file H.pbe-kjpaw_psl.1.0.0.UPF: wavefunction(s)  1S renormalized

     **************************************************************************
     Initializing libbeef V0.1.2 with the BEEF-vdW functional.
     Citation: Wellendorff et al., PRB 85, 235149 (2012).
     **************************************************************************


     IMPORTANT: XC functional enforced from input :
     Exchange-correlation= BEEF-VDW
                           (   1   4  43  14   2   0   0)
     Any further DFT definition will be discarded
     Please, verify this is what you really want


     R & G space division:  proc/nbgrp/npool/nimage =      96
     Subspace diagonalization in iterative solution of the eigenvalue problem:
     one sub-group per band group will be used
     custom distributed-memory algorithm (size of sub-group:  2*  2 procs)


     Parallelization info
     --------------------
     sticks:   dense  smooth     PW     G-vecs:    dense   smooth      PW
     Min          43      28      7                 7829     4248     595
     Max          44      29      8                 7845     4281     630
     Sum        4153    2773    757               752179   409445   59217

     Using Slab Decomposition



     bravais-lattice index     =            0
     lattice parameter (alat)  =      14.1729  a.u.
     unit-cell volume          =    8574.3059 (a.u.)^3
     number of atoms/cell      =           39
     number of atomic types    =            4
     number of electrons       =       335.00
     number of Kohn-Sham states=          202
     kinetic-energy cutoff     =      50.0000  Ry
     charge density cutoff     =     300.0000  Ry
     scf convergence threshold =      1.0E-08
     mixing beta               =       0.7000
     number of iterations used =            8  local-TF  mixing
     Exchange-correlation= BEEF-VDW
                           (   1   4  43  14   2   0   0)

     celldm(1)=  14.172946  celldm(2)=   0.000000  celldm(3)=   0.000000
     celldm(4)=   0.000000  celldm(5)=   0.000000  celldm(6)=   0.000000

     crystal axes: (cart. coord. in units of alat)
               a(1) = (   1.000000   0.000000   0.000000 )  
               a(2) = (   0.500000   0.866025   0.000000 )  
               a(3) = (   0.000000   0.000000   3.477667 )  

     reciprocal axes: (cart. coord. in units 2 pi/alat)
               b(1) = (  1.000000 -0.577350  0.000000 )  
               b(2) = (  0.000000  1.154701  0.000000 )  
               b(3) = (  0.000000  0.000000  0.287549 )  


     PseudoPot. # 1 for Co read from file:
     /users/kbadger1/espresso/pseudo/pslibrary.1.0.0/pbe/PSEUDOPOTENTIALS/Co.pbe-n-kjpaw_psl.1.0.0.UPF
     MD5 check sum: 88af6ec42553d4236c267fdfcb472151
     Pseudo is Projector augmented-wave + core cor, Zval =  9.0
     Generated using 'atomic' code by A. Dal Corso  v.7.0
     Shape of augmentation charge: PSQ
     Using radial grid of 1193 points,  6 beta functions with: 
                l(1) =   0
                l(2) =   0
                l(3) =   1
                l(4) =   1
                l(5) =   2
                l(6) =   2
     Q(r) pseudized with 0 coefficients 


     PseudoPot. # 2 for C  read from file:
     /users/kbadger1/espresso/pseudo/pslibrary.1.0.0/pbe/PSEUDOPOTENTIALS/C.pbe-n-kjpaw_psl.1.0.0.UPF
     MD5 check sum: 6408e75cdba28732cea38a4db8498ce4
     Pseudo is Projector augmented-wave + core cor, Zval =  4.0
     Generated using 'atomic' code by A. Dal Corso  v.7.0
     Shape of augmentation charge: PSQ
     Using radial grid of 1073 points,  4 beta functions with: 
                l(1) =   0
                l(2) =   0
                l(3) =   1
                l(4) =   1
     Q(r) pseudized with 0 coefficients 


     PseudoPot. # 3 for O  read from file:
     /users/kbadger1/espresso/pseudo/pslibrary.1.0.0/pbe/PSEUDOPOTENTIALS/O.pbe-nl-kjpaw_psl.1.0.0.UPF
     MD5 check sum: f0439fab3598ca4e468f064226030408
     Pseudo is Projector augmented-wave + core cor, Zval =  6.0
     Generated using 'atomic' code by A. Dal Corso  v.7.0
     Shape of augmentation charge: PSQ
     Using radial grid of 1095 points,  4 beta functions with: 
                l(1) =   0
                l(2) =   0
                l(3) =   1
                l(4) =   1
     Q(r) pseudized with 0 coefficients 


     PseudoPot. # 4 for H  read from file:
     /users/kbadger1/espresso/pseudo/pslibrary.1.0.0/pbe/PSEUDOPOTENTIALS/H.pbe-kjpaw_psl.1.0.0.UPF
     MD5 check sum: fe4c6fa958fa6d3815bf5d2419cbf1df
     Pseudo is Projector augmented-wave, Zval =  1.0
     Generated using 'atomic' code by A. Dal Corso  v.7.0
     Shape of augmentation charge: PSQ
     Using radial grid of  929 points,  2 beta functions with: 
                l(1) =   0
                l(2) =   0
     Q(r) pseudized with 0 coefficients 


     atomic species   valence    mass     pseudopotential
        Co             9.00    58.93319     Co( 1.00)
        C              4.00    12.00000     C ( 1.00)
        O              6.00    15.99491     O ( 1.00)
        H              1.00     1.00783     H ( 1.00)

     Starting magnetic structure 
     atomic species   magnetization
        Co           1.000
        C            1.000
        O            0.000
        H            0.000

     No symmetry found



   Cartesian axes

     site n.     atom                  positions (alat units)
         1           Co  tau(   1) = (   0.0000000   0.1924501   1.3333333  )
         2           Co  tau(   2) = (   0.3333333   0.1924501   1.3333333  )
         3           Co  tau(   3) = (   0.6666667   0.1924501   1.3333333  )
         4           Co  tau(   4) = (   0.1666667   0.4811252   1.3333333  )
         5           Co  tau(   5) = (   0.5000000   0.4811252   1.3333333  )
         6           Co  tau(   6) = (   0.8333333   0.4811252   1.3333333  )
         7           Co  tau(   7) = (   0.3333333   0.7698004   1.3333333  )
         8           Co  tau(   8) = (   0.6666667   0.7698004   1.3333333  )
         9           Co  tau(   9) = (   1.0000000   0.7698004   1.3333333  )
        10           Co  tau(  10) = (   0.0000000   0.0000000   1.6036667  )
        11           Co  tau(  11) = (   0.3333333   0.0000000   1.6036667  )
        12           Co  tau(  12) = (   0.6666667   0.0000000   1.6036667  )
        13           Co  tau(  13) = (   0.1666667   0.2886751   1.6036667  )
        14           Co  tau(  14) = (   0.5000000   0.2886751   1.6036667  )
        15           Co  tau(  15) = (   0.8333333   0.2886751   1.6036667  )
        16           Co  tau(  16) = (   0.3333333   0.5773503   1.6036667  )
        17           Co  tau(  17) = (   0.6666667   0.5773503   1.6036667  )
        18           Co  tau(  18) = (   1.0000000   0.5773503   1.6036667  )
        19           Co  tau(  19) = (   0.0000000   0.1924501   1.8740000  )
        20           Co  tau(  20) = (   0.3333333   0.1924501   1.8740000  )
        21           Co  tau(  21) = (   0.6666667   0.1924501   1.8740000  )
        22           Co  tau(  22) = (   0.1666667   0.4811252   1.8740000  )
        23           Co  tau(  23) = (   0.5000000   0.4811252   1.8740000  )
        24           Co  tau(  24) = (   0.8333333   0.4811252   1.8740000  )
        25           Co  tau(  25) = (   0.3333333   0.7698004   1.8740000  )
        26           Co  tau(  26) = (   0.6666667   0.7698004   1.8740000  )
        27           Co  tau(  27) = (   1.0000000   0.7698004   1.8740000  )
        28           Co  tau(  28) = (   0.0000000   0.0000000   2.1443333  )
        29           Co  tau(  29) = (   0.3333333   0.0000000   2.1443333  )
        30           Co  tau(  30) = (   0.6666667   0.0000000   2.1443333  )
        31           Co  tau(  31) = (   0.1666667   0.2886751   2.1443333  )
        32           Co  tau(  32) = (   0.5000000   0.2886751   2.1443333  )
        33           Co  tau(  33) = (   0.8333333   0.2886751   2.1443333  )
        34           Co  tau(  34) = (   0.3333333   0.5773503   2.1443333  )
        35           Co  tau(  35) = (   0.6666667   0.5773503   2.1443333  )
        36           Co  tau(  36) = (   1.0000000   0.5773503   2.1443333  )
        37           C   tau(  37) = (   0.3447016   0.1873951   2.3256647  )
        38           O   tau(  38) = (   0.3280170   0.1859463   2.4839470  )
        39           H   tau(  39) = (   0.6232911   0.4068733   2.2849320  )

     number of k points=    13  Marzari-Vanderbilt smearing, width (Ry)=  0.0010
                       cart. coord. in units 2pi/alat
        k(    1) = (   0.0000000   0.0000000   0.0000000), wk =   0.0400000
        k(    2) = (   0.0000000   0.2309401   0.0000000), wk =   0.0800000
        k(    3) = (   0.0000000   0.4618802   0.0000000), wk =   0.0800000
        k(    4) = (   0.2000000  -0.1154701   0.0000000), wk =   0.0800000
        k(    5) = (   0.2000000   0.1154701   0.0000000), wk =   0.0800000
        k(    6) = (   0.2000000   0.3464102   0.0000000), wk =   0.0800000
        k(    7) = (   0.2000000  -0.5773503   0.0000000), wk =   0.0800000
        k(    8) = (   0.2000000  -0.3464102   0.0000000), wk =   0.0800000
        k(    9) = (   0.4000000  -0.2309401   0.0000000), wk =   0.0800000
        k(   10) = (   0.4000000   0.0000000   0.0000000), wk =   0.0800000
        k(   11) = (   0.4000000   0.2309401   0.0000000), wk =   0.0800000
        k(   12) = (   0.4000000  -0.6928203   0.0000000), wk =   0.0800000
        k(   13) = (   0.4000000  -0.4618802   0.0000000), wk =   0.0800000

     Dense  grid:   752179 G-vectors     FFT dimensions: (  80,  80, 288)

     Smooth grid:   409445 G-vectors     FFT dimensions: (  64,  64, 225)

     Estimated max dynamical RAM per process >      99.02 MB

     Estimated total dynamical RAM >       9.28 GB
     Generating pointlists ...
     new r_m :   0.0913 (alat units)  1.2933 (a.u.) for type    1
     new r_m :   0.0657 (alat units)  0.9305 (a.u.) for type    2
     new r_m :   0.0657 (alat units)  0.9305 (a.u.) for type    3
     new r_m :   0.0913 (alat units)  1.2933 (a.u.) for type    4

     Initial potential from superposition of free atoms

     starting charge     334.9897, renormalised to     335.0000

     negative rho (up, down):  3.058E-03 4.522E-04


     %%%%%%%%%%%%%%%%%%%%%%%%%%%%%%%%%%%%%%%%%%%%%%%%%%%%%%%%%%%%%%%%%%%%%%%%
     %                                                                      %
     % You are using vdW-DF, which was implemented by the Thonhauser group. %
     % Please cite the following two papers that made this development      %
     % possible and the two reviews that describe the various versions:     %
     %                                                                      %
     %   T. Thonhauser et al., PRL 115, 136402 (2015).                      %
     %   T. Thonhauser et al., PRB 76, 125112 (2007).                       %
     %   K. Berland et al., Rep. Prog. Phys. 78, 066501 (2015).             %
     %   D.C. Langreth et al., J. Phys.: Condens. Matter 21, 084203 (2009). %
     %                                                                      %
     % If you are calculating stress with vdW-DF, please also cite:         %
     %                                                                      %
     %   R. Sabatini et al., J. Phys.: Condens. Matter 24, 424209 (2012).   %
     %   C.M. Frostenson et al., Electr. Struct. 4, 014001 (2022).          %
     %                                                                      %
     %%%%%%%%%%%%%%%%%%%%%%%%%%%%%%%%%%%%%%%%%%%%%%%%%%%%%%%%%%%%%%%%%%%%%%%%

     %%%%%%%%%%%%%%%%%%%%%%%%%%%%%%%%%%%%%%%%%%%%%%%%%%%%%%%%%%%%%%%%%%%%%%%%
     %                                                                      %
     %  vdW-DF NEWS:                                                        %
     %                                                                      %
     %  * vdW-DF3 is now available. DOI: 10.1021/acs.jctc.0c00471           %
     %    use with input_dft = 'vdW-DF3-opt1' or 'vdW-DF3-opt2'             %
     %                                                                      %
     %  * Unscreened and range-separated hybrid vdW-DF-cx functionals       %
     %    DOI: 10.1063/1.4986522 and 10.1088/1361-648X/ac2ad2               %
     %    use with input_dft = 'vdW-DF-cx0'    and 'vdW-DF-ahcx'            %
     %  * Unscreened and range-separated hybrid vdW-DF2-b86r functionals    %
     %    DOI: 10.1063/1.4986522 and DOI: 10.1103/PhysRevX.12.041003        %
     %    use with input_dft = 'vdW-DF2-br0' and 'vdW-DF2-ahbr'             %
     %                                                                      %
     %%%%%%%%%%%%%%%%%%%%%%%%%%%%%%%%%%%%%%%%%%%%%%%%%%%%%%%%%%%%%%%%%%%%%%%%


     Starting wfcs are  333 randomized atomic wfcs
     Checking if some PAW data can be deallocated... 

     total cpu time spent up to now is       18.3 secs

     per-process dynamical memory:   231.0 Mb

     Self-consistent Calculation

     iteration #  1     ecut=    50.00 Ry     beta= 0.70
     Davidson diagonalization with overlap
     ethr =  1.00E-02,  avg # of iterations =  2.0

     negative rho (up, down):  3.352E-05 9.988E-08

     total cpu time spent up to now is       44.9 secs

     total energy              =   -6053.13011422 Ry
     estimated scf accuracy    <      38.96174430 Ry

     total magnetization       =    69.00 Bohr mag/cell
     absolute magnetization    =    81.25 Bohr mag/cell

     iteration #  2     ecut=    50.00 Ry     beta= 0.70
     Davidson diagonalization with overlap
     ethr =  1.00E-02,  avg # of iterations =  1.0

     negative rho (up, down):  4.937E-06 2.980E-08

     total cpu time spent up to now is       58.6 secs

     total energy              =   -6052.69023344 Ry
     estimated scf accuracy    <      24.10587122 Ry

     total magnetization       =    69.00 Bohr mag/cell
     absolute magnetization    =    76.86 Bohr mag/cell

     iteration #  3     ecut=    50.00 Ry     beta= 0.70
     Davidson diagonalization with overlap
     ethr =  7.20E-03,  avg # of iterations =  1.3

     negative rho (up, down):  2.993E-08 0.000E+00

     total cpu time spent up to now is       76.3 secs

     total energy              =   -6055.20130148 Ry
     estimated scf accuracy    <      85.55978578 Ry

     total magnetization       =    66.12 Bohr mag/cell
     absolute magnetization    =    73.53 Bohr mag/cell

     iteration #  4     ecut=    50.00 Ry     beta= 0.70
     Davidson diagonalization with overlap
     ethr =  7.20E-03,  avg # of iterations =  1.0

     total cpu time spent up to now is       92.4 secs

     total energy              =   -6056.46682352 Ry
     estimated scf accuracy    <       5.81339240 Ry

     total magnetization       =    60.30 Bohr mag/cell
     absolute magnetization    =    70.11 Bohr mag/cell

     iteration #  5     ecut=    50.00 Ry     beta= 0.70
     Davidson diagonalization with overlap
     ethr =  1.74E-03,  avg # of iterations =  1.2

     total cpu time spent up to now is      110.2 secs

     total energy              =   -6056.44795317 Ry
     estimated scf accuracy    <       2.21451285 Ry

     total magnetization       =    60.41 Bohr mag/cell
     absolute magnetization    =    69.78 Bohr mag/cell

     iteration #  6     ecut=    50.00 Ry     beta= 0.70
     Davidson diagonalization with overlap
     ethr =  6.61E-04,  avg # of iterations =  2.0

     total cpu time spent up to now is      130.7 secs

     total energy              =   -6056.55158900 Ry
     estimated scf accuracy    <       0.82646635 Ry

     total magnetization       =    59.89 Bohr mag/cell
     absolute magnetization    =    69.00 Bohr mag/cell

     iteration #  7     ecut=    50.00 Ry     beta= 0.70
     Davidson diagonalization with overlap
     ethr =  2.47E-04,  avg # of iterations =  4.2

     total cpu time spent up to now is      151.1 secs

     total energy              =   -6056.58166003 Ry
     estimated scf accuracy    <       0.58302099 Ry

     total magnetization       =    60.06 Bohr mag/cell
     absolute magnetization    =    68.81 Bohr mag/cell

     iteration #  8     ecut=    50.00 Ry     beta= 0.70
     Davidson diagonalization with overlap
     ethr =  1.74E-04,  avg # of iterations =  1.5

     total cpu time spent up to now is      168.7 secs

     total energy              =   -6056.60568179 Ry
     estimated scf accuracy    <       0.16102583 Ry

     total magnetization       =    60.12 Bohr mag/cell
     absolute magnetization    =    68.70 Bohr mag/cell

     iteration #  9     ecut=    50.00 Ry     beta= 0.70
     Davidson diagonalization with overlap
     c_bands:  3 eigenvalues not converged
     ethr =  4.81E-05,  avg # of iterations =  8.7

     total cpu time spent up to now is      197.2 secs

     total energy              =   -6056.61108269 Ry
     estimated scf accuracy    <       0.10987371 Ry

     total magnetization       =    60.28 Bohr mag/cell
     absolute magnetization    =    68.52 Bohr mag/cell

     iteration # 10     ecut=    50.00 Ry     beta= 0.70
     Davidson diagonalization with overlap
     c_bands:  2 eigenvalues not converged
     ethr =  3.28E-05,  avg # of iterations =  3.8

     total cpu time spent up to now is      213.5 secs

     total energy              =   -6056.61580685 Ry
     estimated scf accuracy    <       0.15649820 Ry

     total magnetization       =    60.42 Bohr mag/cell
     absolute magnetization    =    68.48 Bohr mag/cell

     iteration # 11     ecut=    50.00 Ry     beta= 0.70
     Davidson diagonalization with overlap
     ethr =  3.28E-05,  avg # of iterations =  1.7

     total cpu time spent up to now is      235.1 secs

     total energy              =   -6056.61264324 Ry
     estimated scf accuracy    <       0.10385242 Ry

     total magnetization       =    60.40 Bohr mag/cell
     absolute magnetization    =    68.39 Bohr mag/cell

     iteration # 12     ecut=    50.00 Ry     beta= 0.70
     Davidson diagonalization with overlap
     ethr =  3.10E-05,  avg # of iterations =  1.9

     total cpu time spent up to now is      252.6 secs

     total energy              =   -6056.61310021 Ry
     estimated scf accuracy    <       0.08330996 Ry

     total magnetization       =    60.33 Bohr mag/cell
     absolute magnetization    =    68.24 Bohr mag/cell

     iteration # 13     ecut=    50.00 Ry     beta= 0.70
     Davidson diagonalization with overlap
     ethr =  2.49E-05,  avg # of iterations =  1.5

     total cpu time spent up to now is      269.2 secs

     total energy              =   -6056.61287715 Ry
     estimated scf accuracy    <       0.11323680 Ry

     total magnetization       =    60.39 Bohr mag/cell
     absolute magnetization    =    68.22 Bohr mag/cell

     iteration # 14     ecut=    50.00 Ry     beta= 0.70
     Davidson diagonalization with overlap
     ethr =  2.49E-05,  avg # of iterations =  1.2

     negative rho (up, down):  9.600E-03 7.923E-03

     total cpu time spent up to now is      286.7 secs

     total energy              =   -6056.60677722 Ry
     estimated scf accuracy    <       0.07954302 Ry

     total magnetization       =    60.38 Bohr mag/cell
     absolute magnetization    =    68.18 Bohr mag/cell

     iteration # 15     ecut=    50.00 Ry     beta= 0.70
     Davidson diagonalization with overlap
     ethr =  2.37E-05,  avg # of iterations =  1.3

     negative rho (up, down):  1.600E-02 1.433E-02

     total cpu time spent up to now is      304.1 secs

     total energy              =   -6056.60440013 Ry
     estimated scf accuracy    <       0.02621928 Ry

     total magnetization       =    60.33 Bohr mag/cell
     absolute magnetization    =    68.13 Bohr mag/cell

     iteration # 16     ecut=    50.00 Ry     beta= 0.70
     Davidson diagonalization with overlap
     c_bands:  1 eigenvalues not converged
     c_bands:  1 eigenvalues not converged
     c_bands:  3 eigenvalues not converged
     c_bands:  4 eigenvalues not converged
     c_bands:  4 eigenvalues not converged
     c_bands:  2 eigenvalues not converged
     c_bands:  2 eigenvalues not converged
     ethr =  7.83E-06,  avg # of iterations =  9.0

     negative rho (up, down):  1.741E-02 1.573E-02

     total cpu time spent up to now is      333.0 secs

     total energy              =   -6056.60501290 Ry
     estimated scf accuracy    <       0.03398143 Ry

     total magnetization       =    60.32 Bohr mag/cell
     absolute magnetization    =    68.06 Bohr mag/cell

     iteration # 17     ecut=    50.00 Ry     beta= 0.70
     Davidson diagonalization with overlap
     ethr =  7.83E-06,  avg # of iterations =  2.0

     negative rho (up, down):  1.244E-02 1.094E-02

     total cpu time spent up to now is      351.2 secs

     total energy              =   -6056.60534590 Ry
     estimated scf accuracy    <       0.01624077 Ry

     total magnetization       =    60.34 Bohr mag/cell
     absolute magnetization    =    68.05 Bohr mag/cell

     iteration # 18     ecut=    50.00 Ry     beta= 0.70
     Davidson diagonalization with overlap
     c_bands:  1 eigenvalues not converged
     ethr =  4.85E-06,  avg # of iterations =  2.4

     negative rho (up, down):  9.539E-03 8.185E-03

     total cpu time spent up to now is      373.9 secs

     total energy              =   -6056.60477997 Ry
     estimated scf accuracy    <       0.00870637 Ry

     total magnetization       =    60.35 Bohr mag/cell
     absolute magnetization    =    68.05 Bohr mag/cell

     iteration # 19     ecut=    50.00 Ry     beta= 0.70
     Davidson diagonalization with overlap
     c_bands:  1 eigenvalues not converged
     ethr =  2.60E-06,  avg # of iterations =  5.1

     negative rho (up, down):  1.467E-02 1.347E-02

     total cpu time spent up to now is      391.4 secs

     total energy              =   -6056.60238817 Ry
     estimated scf accuracy    <       0.02094203 Ry

     total magnetization       =    60.36 Bohr mag/cell
     absolute magnetization    =    68.05 Bohr mag/cell

     iteration # 20     ecut=    50.00 Ry     beta= 0.70
     Davidson diagonalization with overlap
     ethr =  2.60E-06,  avg # of iterations =  1.8

     negative rho (up, down):  2.023E-02 1.919E-02

     total cpu time spent up to now is      409.9 secs

     total energy              =   -6056.60203430 Ry
     estimated scf accuracy    <       0.01194921 Ry

     total magnetization       =    60.36 Bohr mag/cell
     absolute magnetization    =    68.01 Bohr mag/cell

     iteration # 21     ecut=    50.00 Ry     beta= 0.70
     Davidson diagonalization with overlap
     ethr =  2.60E-06,  avg # of iterations =  1.5

     negative rho (up, down):  1.576E-02 1.488E-02

     total cpu time spent up to now is      424.6 secs

     total energy              =   -6056.60234182 Ry
     estimated scf accuracy    <       0.00176987 Ry

     total magnetization       =    60.36 Bohr mag/cell
     absolute magnetization    =    68.00 Bohr mag/cell

     iteration # 22     ecut=    50.00 Ry     beta= 0.70
     Davidson diagonalization with overlap
     c_bands:  1 eigenvalues not converged
     c_bands:  1 eigenvalues not converged
     ethr =  5.28E-07,  avg # of iterations =  7.2

     negative rho (up, down):  1.384E-02 1.302E-02

     total cpu time spent up to now is      452.4 secs

     total energy              =   -6056.60237498 Ry
     estimated scf accuracy    <       0.00335920 Ry

     total magnetization       =    60.36 Bohr mag/cell
     absolute magnetization    =    68.00 Bohr mag/cell

     iteration # 23     ecut=    50.00 Ry     beta= 0.70
     Davidson diagonalization with overlap
     ethr =  5.28E-07,  avg # of iterations =  1.9

     negative rho (up, down):  1.168E-02 1.093E-02

     total cpu time spent up to now is      473.7 secs

     total energy              =   -6056.60241117 Ry
     estimated scf accuracy    <       0.00344341 Ry

     total magnetization       =    60.36 Bohr mag/cell
     absolute magnetization    =    68.00 Bohr mag/cell

     iteration # 24     ecut=    50.00 Ry     beta= 0.70
     Davidson diagonalization with overlap
     ethr =  5.28E-07,  avg # of iterations =  1.4

     negative rho (up, down):  7.923E-03 7.175E-03

     total cpu time spent up to now is      492.0 secs

     total energy              =   -6056.60250261 Ry
     estimated scf accuracy    <       0.00063251 Ry

     total magnetization       =    60.36 Bohr mag/cell
     absolute magnetization    =    68.01 Bohr mag/cell

     iteration # 25     ecut=    50.00 Ry     beta= 0.70
     Davidson diagonalization with overlap
     ethr =  1.89E-07,  avg # of iterations =  2.0

     negative rho (up, down):  6.253E-03 5.522E-03

     total cpu time spent up to now is      509.9 secs

     total energy              =   -6056.60258527 Ry
     estimated scf accuracy    <       0.00110396 Ry

     total magnetization       =    60.36 Bohr mag/cell
     absolute magnetization    =    68.01 Bohr mag/cell

     iteration # 26     ecut=    50.00 Ry     beta= 0.70
     Davidson diagonalization with overlap
     ethr =  1.89E-07,  avg # of iterations =  1.4

     negative rho (up, down):  4.764E-03 3.964E-03

     total cpu time spent up to now is      527.6 secs

     total energy              =   -6056.60257660 Ry
     estimated scf accuracy    <       0.00045676 Ry

     total magnetization       =    60.37 Bohr mag/cell
     absolute magnetization    =    68.01 Bohr mag/cell

     iteration # 27     ecut=    50.00 Ry     beta= 0.70
     Davidson diagonalization with overlap
     ethr =  1.36E-07,  avg # of iterations =  1.2

     negative rho (up, down):  3.955E-03 3.067E-03

     total cpu time spent up to now is      544.4 secs

     total energy              =   -6056.60260904 Ry
     estimated scf accuracy    <       0.00019160 Ry

     total magnetization       =    60.37 Bohr mag/cell
     absolute magnetization    =    68.01 Bohr mag/cell

     iteration # 28     ecut=    50.00 Ry     beta= 0.70
     Davidson diagonalization with overlap
     ethr =  5.72E-08,  avg # of iterations =  3.1

     negative rho (up, down):  3.156E-03 2.142E-03

     total cpu time spent up to now is      563.4 secs

     total energy              =   -6056.60262208 Ry
     estimated scf accuracy    <       0.00019245 Ry

     total magnetization       =    60.37 Bohr mag/cell
     absolute magnetization    =    68.01 Bohr mag/cell

     iteration # 29     ecut=    50.00 Ry     beta= 0.70
     Davidson diagonalization with overlap
     ethr =  5.72E-08,  avg # of iterations =  1.1

     negative rho (up, down):  2.423E-03 1.301E-03

     total cpu time spent up to now is      583.2 secs

     total energy              =   -6056.60264482 Ry
     estimated scf accuracy    <       0.00009506 Ry

     total magnetization       =    60.37 Bohr mag/cell
     absolute magnetization    =    68.01 Bohr mag/cell

     iteration # 30     ecut=    50.00 Ry     beta= 0.70
     Davidson diagonalization with overlap
     ethr =  2.84E-08,  avg # of iterations =  1.9

     negative rho (up, down):  2.513E-03 1.387E-03

     total cpu time spent up to now is      598.3 secs

     total energy              =   -6056.60264939 Ry
     estimated scf accuracy    <       0.00001920 Ry

     total magnetization       =    60.37 Bohr mag/cell
     absolute magnetization    =    68.01 Bohr mag/cell

     iteration # 31     ecut=    50.00 Ry     beta= 0.70
     Davidson diagonalization with overlap
     ethr =  5.73E-09,  avg # of iterations =  7.0

     negative rho (up, down):  2.410E-03 1.312E-03

     total cpu time spent up to now is      624.8 secs

     total energy              =   -6056.60265359 Ry
     estimated scf accuracy    <       0.00003652 Ry

     total magnetization       =    60.37 Bohr mag/cell
     absolute magnetization    =    68.01 Bohr mag/cell

     iteration # 32     ecut=    50.00 Ry     beta= 0.70
     Davidson diagonalization with overlap
     ethr =  5.73E-09,  avg # of iterations =  2.0

     negative rho (up, down):  2.404E-03 1.283E-03

     total cpu time spent up to now is      646.3 secs

     total energy              =   -6056.60265385 Ry
     estimated scf accuracy    <       0.00001425 Ry

     total magnetization       =    60.37 Bohr mag/cell
     absolute magnetization    =    68.01 Bohr mag/cell

     iteration # 33     ecut=    50.00 Ry     beta= 0.70
     Davidson diagonalization with overlap
     ethr =  4.25E-09,  avg # of iterations =  1.1

     negative rho (up, down):  2.409E-03 1.303E-03

     total cpu time spent up to now is      660.2 secs

     total energy              =   -6056.60265512 Ry
     estimated scf accuracy    <       0.00000798 Ry

     total magnetization       =    60.37 Bohr mag/cell
     absolute magnetization    =    68.01 Bohr mag/cell

     iteration # 34     ecut=    50.00 Ry     beta= 0.70
     Davidson diagonalization with overlap
     ethr =  2.38E-09,  avg # of iterations =  1.5

     negative rho (up, down):  2.344E-03 1.273E-03

     total cpu time spent up to now is      681.8 secs

     total energy              =   -6056.60265521 Ry
     estimated scf accuracy    <       0.00000310 Ry

     total magnetization       =    60.37 Bohr mag/cell
     absolute magnetization    =    68.01 Bohr mag/cell

     iteration # 35     ecut=    50.00 Ry     beta= 0.70
     Davidson diagonalization with overlap
     ethr =  9.26E-10,  avg # of iterations =  3.6

     negative rho (up, down):  2.362E-03 1.270E-03

     total cpu time spent up to now is      702.1 secs

     total energy              =   -6056.60265568 Ry
     estimated scf accuracy    <       0.00000145 Ry

     total magnetization       =    60.37 Bohr mag/cell
     absolute magnetization    =    68.01 Bohr mag/cell

     iteration # 36     ecut=    50.00 Ry     beta= 0.70
     Davidson diagonalization with overlap
     ethr =  4.33E-10,  avg # of iterations =  4.4

     negative rho (up, down):  2.342E-03 1.260E-03

     total cpu time spent up to now is      723.5 secs

     total energy              =   -6056.60265559 Ry
     estimated scf accuracy    <       0.00000535 Ry

     total magnetization       =    60.37 Bohr mag/cell
     absolute magnetization    =    68.01 Bohr mag/cell

     iteration # 37     ecut=    50.00 Ry     beta= 0.70
     Davidson diagonalization with overlap
     ethr =  4.33E-10,  avg # of iterations =  1.8

     negative rho (up, down):  2.332E-03 1.253E-03

     total cpu time spent up to now is      742.0 secs

     total energy              =   -6056.60265570 Ry
     estimated scf accuracy    <       0.00000095 Ry

     total magnetization       =    60.37 Bohr mag/cell
     absolute magnetization    =    68.01 Bohr mag/cell

     iteration # 38     ecut=    50.00 Ry     beta= 0.70
     Davidson diagonalization with overlap
     ethr =  2.85E-10,  avg # of iterations =  1.8

     negative rho (up, down):  2.328E-03 1.243E-03

     total cpu time spent up to now is      763.0 secs

     total energy              =   -6056.60265581 Ry
     estimated scf accuracy    <       0.00000033 Ry

     total magnetization       =    60.37 Bohr mag/cell
     absolute magnetization    =    68.00 Bohr mag/cell

     iteration # 39     ecut=    50.00 Ry     beta= 0.70
     Davidson diagonalization with overlap
     ethr =  9.72E-11,  avg # of iterations =  5.3

     negative rho (up, down):  2.322E-03 1.235E-03

     total cpu time spent up to now is      781.8 secs

     total energy              =   -6056.60265585 Ry
     estimated scf accuracy    <       0.00000078 Ry

     total magnetization       =    60.37 Bohr mag/cell
     absolute magnetization    =    68.00 Bohr mag/cell

     iteration # 40     ecut=    50.00 Ry     beta= 0.70
     Davidson diagonalization with overlap
     ethr =  9.72E-11,  avg # of iterations =  1.9

     negative rho (up, down):  2.310E-03 1.222E-03

     total cpu time spent up to now is      802.1 secs

     total energy              =   -6056.60265586 Ry
     estimated scf accuracy    <       0.00000058 Ry

     total magnetization       =    60.37 Bohr mag/cell
     absolute magnetization    =    68.00 Bohr mag/cell

     iteration # 41     ecut=    50.00 Ry     beta= 0.70
     Davidson diagonalization with overlap
     ethr =  9.72E-11,  avg # of iterations =  1.7

     negative rho (up, down):  2.290E-03 1.203E-03

     total cpu time spent up to now is      823.1 secs

     total energy              =   -6056.60265583 Ry
     estimated scf accuracy    <       0.00000054 Ry

     total magnetization       =    60.37 Bohr mag/cell
     absolute magnetization    =    68.00 Bohr mag/cell

     iteration # 42     ecut=    50.00 Ry     beta= 0.70
     Davidson diagonalization with overlap
     ethr =  9.72E-11,  avg # of iterations =  1.8

     negative rho (up, down):  2.295E-03 1.206E-03

     total cpu time spent up to now is      838.0 secs

     total energy              =   -6056.60265587 Ry
     estimated scf accuracy    <       0.00000031 Ry

     total magnetization       =    60.37 Bohr mag/cell
     absolute magnetization    =    68.00 Bohr mag/cell

     iteration # 43     ecut=    50.00 Ry     beta= 0.70
     Davidson diagonalization with overlap
     ethr =  9.31E-11,  avg # of iterations =  1.4

     negative rho (up, down):  2.276E-03 1.186E-03

     total cpu time spent up to now is      859.2 secs

     total energy              =   -6056.60265586 Ry
     estimated scf accuracy    <       0.00000008 Ry

     total magnetization       =    60.37 Bohr mag/cell
     absolute magnetization    =    68.00 Bohr mag/cell

     iteration # 44     ecut=    50.00 Ry     beta= 0.70
     Davidson diagonalization with overlap
     ethr =  2.41E-11,  avg # of iterations =  4.5

     negative rho (up, down):  2.276E-03 1.185E-03

     total cpu time spent up to now is      880.1 secs

     total energy              =   -6056.60265587 Ry
     estimated scf accuracy    <       0.00000003 Ry

     total magnetization       =    60.37 Bohr mag/cell
     absolute magnetization    =    68.00 Bohr mag/cell

     iteration # 45     ecut=    50.00 Ry     beta= 0.70
     Davidson diagonalization with overlap
     ethr =  9.44E-12,  avg # of iterations =  4.0

     negative rho (up, down):  2.274E-03 1.183E-03

     total cpu time spent up to now is      899.9 secs

     total energy              =   -6056.60265587 Ry
     estimated scf accuracy    <       0.00000003 Ry

     total magnetization       =    60.37 Bohr mag/cell
     absolute magnetization    =    68.00 Bohr mag/cell

     iteration # 46     ecut=    50.00 Ry     beta= 0.70
     Davidson diagonalization with overlap
     ethr =  9.44E-12,  avg # of iterations =  1.6

     negative rho (up, down):  2.253E-03 1.162E-03

     Magnetic moment per site  (integrated on atomic sphere of radius R)
     atom   1 (R=0.091)  charge=  5.7137  magn=  1.6654
     atom   2 (R=0.091)  charge=  5.7167  magn=  1.6463
     atom   3 (R=0.091)  charge=  5.7148  magn=  1.6586
     atom   4 (R=0.091)  charge=  5.7144  magn=  1.6630
     atom   5 (R=0.091)  charge=  5.7147  magn=  1.6620
     atom   6 (R=0.091)  charge=  5.7142  magn=  1.6636
     atom   7 (R=0.091)  charge=  5.7139  magn=  1.6686
     atom   8 (R=0.091)  charge=  5.7136  magn=  1.6640
     atom   9 (R=0.091)  charge=  5.7143  magn=  1.6625
     atom  10 (R=0.091)  charge=  5.7104  magn=  1.6002
     atom  11 (R=0.091)  charge=  5.7108  magn=  1.5976
     atom  12 (R=0.091)  charge=  5.7101  magn=  1.6044
     atom  13 (R=0.091)  charge=  5.7108  magn=  1.5971
     atom  14 (R=0.091)  charge=  5.7109  magn=  1.5958
     atom  15 (R=0.091)  charge=  5.7105  magn=  1.6058
     atom  16 (R=0.091)  charge=  5.7104  magn=  1.6026
     atom  17 (R=0.091)  charge=  5.7105  magn=  1.6050
     atom  18 (R=0.091)  charge=  5.7107  magn=  1.6046
     atom  19 (R=0.091)  charge=  5.7101  magn=  1.5762
     atom  20 (R=0.091)  charge=  5.7089  magn=  1.6145
     atom  21 (R=0.091)  charge=  5.7110  magn=  1.5928
     atom  22 (R=0.091)  charge=  5.7100  magn=  1.5891
     atom  23 (R=0.091)  charge=  5.7110  magn=  1.5957
     atom  24 (R=0.091)  charge=  5.7086  magn=  1.6242
     atom  25 (R=0.091)  charge=  5.7096  magn=  1.5993
     atom  26 (R=0.091)  charge=  5.7102  magn=  1.5605
     atom  27 (R=0.091)  charge=  5.7104  magn=  1.5841
     atom  28 (R=0.091)  charge=  5.7114  magn=  1.6997
     atom  29 (R=0.091)  charge=  5.7249  magn=  1.3295
     atom  30 (R=0.091)  charge=  5.7136  magn=  1.7013
     atom  31 (R=0.091)  charge=  5.7243  magn=  1.4349
     atom  32 (R=0.091)  charge=  5.7270  magn=  1.0881
     atom  33 (R=0.091)  charge=  5.7141  magn=  1.6479
     atom  34 (R=0.091)  charge=  5.7142  magn=  1.7065
     atom  35 (R=0.091)  charge=  5.7130  magn=  1.5349
     atom  36 (R=0.091)  charge=  5.7118  magn=  1.6809
     atom  37 (R=0.066)  charge=  1.0532  magn= -0.0225
     atom  38 (R=0.066)  charge=  2.9339  magn= -0.0420
     atom  39 (R=0.091)  charge=  0.8619  magn= -0.0158

     total cpu time spent up to now is      918.2 secs

     End of self-consistent calculation

 ------ SPIN UP ------------


          k = 0.0000 0.0000 0.0000 ( 51087 PWs)   bands (ev):

   -21.8536  -9.2662  -7.6705  -6.5113  -5.8093  -5.6141  -5.4043  -5.1286
    -4.8437  -4.8356  -4.8316  -4.8151  -4.7899  -4.7849  -4.6328  -4.3813
    -4.3014  -4.3002  -4.2789  -4.2524  -4.2430  -4.0910  -3.7850  -3.7824
    -3.7728  -3.7598  -3.7324  -3.7013  -3.6518  -3.6504  -3.6458  -3.6399
    -3.6077  -3.5708  -3.5691  -3.4574  -3.2699  -3.2619  -3.2589  -3.2537
    -3.1990  -3.1968  -3.1906  -3.1888  -3.1837  -3.1733  -3.1680  -3.1111
    -3.0330  -3.0283  -2.9644  -2.9568  -2.9525  -2.9466  -2.9423  -2.9327
    -2.9233  -2.9121  -2.9019  -2.8807  -2.8264  -2.8142  -2.8129  -2.8085
    -2.7425  -2.5967  -2.3230  -2.2827  -2.2820  -2.2790  -2.2772  -2.1778
    -2.1515  -2.1437  -2.1324  -2.1213  -2.1104  -2.1046  -2.1007  -2.0977
    -2.0553  -2.0522  -2.0112  -1.9991  -1.9985  -1.9930  -1.9804  -1.9695
    -1.9686  -1.9568  -1.9544  -1.9485  -1.9410  -1.9269  -1.9228  -1.9138
    -1.9094  -1.9075  -1.9058  -1.9056  -1.9033  -1.8981  -1.8954  -1.8788
    -1.8710  -1.8525  -1.8433  -1.8342  -1.8292  -1.7554  -1.7506  -1.6570
    -1.5501  -1.4628  -1.4574  -1.4554  -1.4507  -1.4462  -1.4192  -1.4168
    -1.4111  -1.4090  -1.4039  -1.3628  -1.3606  -1.2347  -1.2271  -1.2152
    -1.2037  -1.1563  -1.0999  -1.0616  -1.0535  -1.0154  -0.9824  -0.9795
    -0.9683  -0.9641  -0.9627  -0.9463  -0.9111  -0.8834  -0.8404  -0.8261
    -0.7334  -0.7252  -0.7130  -0.7043  -0.6895  -0.6745  -0.6686  -0.6530
    -0.6486  -0.6448  -0.6438  -0.6403  -0.6374  -0.6259  -0.6215  -0.6176
    -0.6100  -0.6067  -0.5911  -0.5860  -0.5770  -0.5733  -0.5630  -0.5575
    -0.5415  -0.5396  -0.5322  -0.5172  -0.5130  -0.5082  -0.5046  -0.5000
    -0.4918  -0.4823  -0.4692  -0.4608  -0.4419  -0.4182  -0.4136  -0.4074
    -0.4008  -0.3997  -0.3926  -0.3849  -0.3757  -0.3414  -0.3318  -0.3230
    -0.3193  -0.3085  -0.2539  -0.2530  -0.2451  -0.2335  -0.2247  -0.2007
     0.5091   0.7208

          k = 0.0000 0.2309 0.0000 ( 51134 PWs)   bands (ev):

   -21.8536  -9.2551  -7.5299  -6.4148  -5.8477  -5.6586  -5.5271  -5.3551
    -5.1092  -5.0539  -5.0135  -4.6206  -4.5170  -4.4872  -4.4761  -4.4205
    -4.3424  -4.2973  -4.2262  -4.1997  -4.1576  -4.0572  -3.8982  -3.7830
    -3.7714  -3.7073  -3.6707  -3.6557  -3.6514  -3.6460  -3.6398  -3.6122
    -3.5895  -3.5535  -3.5235  -3.5047  -3.4981  -3.4308  -3.2923  -3.2789
    -3.2703  -3.2226  -3.2175  -3.2048  -3.1807  -3.1233  -3.0876  -3.0675
    -3.0509  -3.0442  -3.0386  -3.0084  -2.9699  -2.9148  -2.9095  -2.8811
    -2.8405  -2.8339  -2.8114  -2.8065  -2.7784  -2.7443  -2.7398  -2.7280
    -2.6971  -2.6006  -2.4030  -2.3945  -2.3676  -2.3513  -2.3377  -2.2550
    -2.2458  -2.2297  -2.2248  -2.2150  -2.2063  -2.1939  -2.1697  -2.1185
    -2.1146  -2.0979  -2.0824  -2.0445  -2.0396  -2.0363  -2.0167  -2.0103
    -2.0034  -2.0016  -1.9932  -1.9837  -1.9716  -1.9638  -1.9273  -1.8931
    -1.8837  -1.8731  -1.8257  -1.8098  -1.8050  -1.7981  -1.7930  -1.7865
    -1.7767  -1.7686  -1.7610  -1.7550  -1.7509  -1.7242  -1.7127  -1.7010
    -1.6901  -1.6771  -1.6372  -1.5967  -1.5841  -1.4991  -1.4834  -1.4761
    -1.4623  -1.4566  -1.4467  -1.4420  -1.4207  -1.3874  -1.3369  -1.2891
    -1.2530  -1.2059  -1.1879  -1.1714  -1.1609  -1.1218  -1.1019  -1.0877
    -1.0387  -1.0068  -0.9913  -0.9796  -0.9523  -0.9476  -0.9095  -0.9026
    -0.8728  -0.8640  -0.8483  -0.8297  -0.8231  -0.8057  -0.7972  -0.7863
    -0.7265  -0.7202  -0.7135  -0.7067  -0.6828  -0.6609  -0.6495  -0.6425
    -0.6352  -0.6309  -0.6242  -0.6131  -0.5942  -0.5884  -0.5785  -0.5597
    -0.5213  -0.5023  -0.4927  -0.4755  -0.4590  -0.4491  -0.4153  -0.3972
    -0.3859  -0.3772  -0.3698  -0.3623  -0.3463  -0.3368  -0.3260  -0.2864
    -0.2622  -0.2506  -0.2448  -0.2250  -0.2131  -0.1959  -0.1870  -0.1677
    -0.1172  -0.0443   0.0902   0.1321   0.1646   0.2639   0.3836   0.4084
     0.4506   0.8025

          k = 0.0000 0.4619 0.0000 ( 51204 PWs)   bands (ev):

   -21.8536  -9.2375  -7.1162  -6.4728  -6.1502  -5.8333  -5.5458  -5.3792
    -5.2077  -5.1448  -5.0911  -4.8806  -4.3493  -4.3211  -4.2873  -4.2473
    -4.2063  -4.1313  -4.1270  -4.0302  -3.9971  -3.9915  -3.9616  -3.8355
    -3.8155  -3.8082  -3.7991  -3.7968  -3.7243  -3.6973  -3.6866  -3.6129
    -3.5292  -3.5210  -3.5018  -3.4858  -3.4682  -3.4412  -3.3740  -3.3652
    -3.3548  -3.3418  -3.3090  -3.2274  -3.1402  -3.1118  -3.0470  -3.0346
    -3.0125  -2.9880  -2.9698  -2.9583  -2.9472  -2.9344  -2.9145  -2.8659
    -2.8567  -2.8343  -2.7901  -2.7639  -2.6625  -2.6453  -2.6239  -2.5996
    -2.5594  -2.5387  -2.5123  -2.5036  -2.4860  -2.4248  -2.3752  -2.3706
    -2.3681  -2.3522  -2.3455  -2.3243  -2.3110  -2.3025  -2.2789  -2.2534
    -2.2388  -2.2078  -2.1909  -2.1678  -2.1402  -2.1260  -2.0782  -2.0551
    -2.0368  -2.0252  -2.0094  -1.9779  -1.9734  -1.9369  -1.9266  -1.9173
    -1.9055  -1.8911  -1.8773  -1.8629  -1.8534  -1.8501  -1.8450  -1.8080
    -1.7949  -1.7575  -1.7376  -1.7345  -1.6740  -1.6499  -1.6330  -1.6184
    -1.5973  -1.5837  -1.5593  -1.5313  -1.5226  -1.5034  -1.5016  -1.4904
    -1.4833  -1.4739  -1.4663  -1.4589  -1.4499  -1.4431  -1.4231  -1.4175
    -1.4040  -1.3727  -1.3096  -1.2861  -1.2727  -1.2658  -1.2369  -1.2191
    -1.1980  -1.1464  -1.1229  -1.1108  -1.0763  -1.0579  -1.0305  -1.0040
    -0.9848  -0.9620  -0.9405  -0.9248  -0.9052  -0.8722  -0.8483  -0.8050
    -0.7587  -0.7389  -0.7240  -0.7140  -0.7121  -0.7008  -0.6955  -0.6827
    -0.6672  -0.6420  -0.5666  -0.5566  -0.5511  -0.5422  -0.5343  -0.5103
    -0.5072  -0.4868  -0.4817  -0.4711  -0.4651  -0.4413  -0.3796  -0.3666
    -0.3549  -0.3435  -0.3147  -0.2681  -0.2598  -0.2337  -0.2250  -0.1912
    -0.1565  -0.1478  -0.1425  -0.1247  -0.1200  -0.1158  -0.1050  -0.0607
    -0.0146   0.0089   0.4130   0.5926   0.9106   1.0713   1.1144   1.2490
     1.4666   1.5018

          k = 0.2000-0.1155 0.0000 ( 51134 PWs)   bands (ev):

   -21.8536  -9.2560  -7.5294  -6.4142  -5.8358  -5.6686  -5.5200  -5.3561
    -5.1251  -5.0430  -5.0148  -4.6443  -4.4998  -4.4883  -4.4725  -4.4202
    -4.3279  -4.2992  -4.2433  -4.1730  -4.1571  -4.0966  -3.8826  -3.7902
    -3.7766  -3.7069  -3.6656  -3.6543  -3.6518  -3.6434  -3.6337  -3.6092
    -3.6038  -3.5428  -3.5237  -3.5044  -3.5000  -3.4214  -3.2835  -3.2767
    -3.2658  -3.2217  -3.2169  -3.2072  -3.1851  -3.1168  -3.0842  -3.0735
    -3.0525  -3.0470  -3.0349  -3.0104  -2.9766  -2.9144  -2.9090  -2.8760
    -2.8468  -2.8352  -2.8115  -2.8077  -2.7797  -2.7426  -2.7406  -2.7299
    -2.7046  -2.5931  -2.4012  -2.3931  -2.3703  -2.3564  -2.3404  -2.2552
    -2.2447  -2.2272  -2.2224  -2.2136  -2.2089  -2.1985  -2.1767  -2.1202
    -2.1138  -2.0974  -2.0810  -2.0399  -2.0390  -2.0307  -2.0182  -2.0092
    -2.0016  -2.0009  -1.9940  -1.9855  -1.9765  -1.9664  -1.9366  -1.8950
    -1.8843  -1.8779  -1.8220  -1.8105  -1.8025  -1.7987  -1.7902  -1.7806
    -1.7768  -1.7692  -1.7599  -1.7550  -1.7494  -1.7217  -1.7153  -1.6997
    -1.6887  -1.6766  -1.6341  -1.5921  -1.5795  -1.4871  -1.4825  -1.4800
    -1.4682  -1.4527  -1.4460  -1.4389  -1.4178  -1.4055  -1.3648  -1.2842
    -1.2598  -1.2040  -1.1874  -1.1720  -1.1649  -1.1073  -1.0959  -1.0822
    -1.0630  -0.9944  -0.9808  -0.9742  -0.9505  -0.9426  -0.9081  -0.8990
    -0.8745  -0.8649  -0.8557  -0.8348  -0.8236  -0.8032  -0.7926  -0.7911
    -0.7285  -0.7163  -0.7149  -0.7092  -0.6885  -0.6757  -0.6482  -0.6411
    -0.6369  -0.6297  -0.6239  -0.6125  -0.5928  -0.5857  -0.5758  -0.5627
    -0.5285  -0.5072  -0.4951  -0.4768  -0.4548  -0.4430  -0.4215  -0.3938
    -0.3891  -0.3791  -0.3730  -0.3633  -0.3455  -0.3355  -0.3264  -0.2921
    -0.2619  -0.2520  -0.2449  -0.2250  -0.2159  -0.1936  -0.1866  -0.1701
    -0.1128  -0.0418   0.1020   0.1318   0.1919   0.2661   0.3904   0.4133
     0.4472   0.7656

          k = 0.2000 0.1155 0.0000 ( 51134 PWs)   bands (ev):

   -21.8536  -9.2545  -7.5308  -6.4173  -5.8755  -5.6534  -5.4495  -5.4120
    -5.0937  -5.0559  -5.0304  -4.5899  -4.5209  -4.4857  -4.4768  -4.4183
    -4.3451  -4.3142  -4.2298  -4.1987  -4.1605  -4.0452  -3.9002  -3.7879
    -3.7645  -3.7023  -3.6644  -3.6546  -3.6524  -3.6501  -3.6349  -3.6263
    -3.5686  -3.5557  -3.5357  -3.5053  -3.4991  -3.4308  -3.2975  -3.2763
    -3.2735  -3.2226  -3.2213  -3.2071  -3.1766  -3.1229  -3.0912  -3.0632
    -3.0493  -3.0459  -3.0382  -3.0183  -2.9658  -2.9157  -2.9084  -2.8816
    -2.8470  -2.8219  -2.8119  -2.8062  -2.7914  -2.7434  -2.7410  -2.7278
    -2.6776  -2.5993  -2.4036  -2.3894  -2.3675  -2.3530  -2.3418  -2.2547
    -2.2474  -2.2376  -2.2209  -2.2157  -2.2099  -2.1960  -2.1520  -2.1203
    -2.1139  -2.1004  -2.0779  -2.0420  -2.0379  -2.0345  -2.0258  -2.0096
    -2.0043  -2.0013  -1.9960  -1.9849  -1.9709  -1.9579  -1.9403  -1.8905
    -1.8830  -1.8690  -1.8229  -1.8186  -1.8079  -1.7997  -1.7913  -1.7886
    -1.7752  -1.7705  -1.7636  -1.7544  -1.7480  -1.7381  -1.7076  -1.7025
    -1.6872  -1.6833  -1.6350  -1.6007  -1.5888  -1.5119  -1.4840  -1.4726
    -1.4637  -1.4562  -1.4467  -1.4431  -1.4231  -1.3825  -1.3019  -1.2966
    -1.2517  -1.2028  -1.1881  -1.1736  -1.1572  -1.1380  -1.1024  -1.0940
    -1.0358  -1.0010  -0.9929  -0.9699  -0.9552  -0.9458  -0.9097  -0.9059
    -0.8788  -0.8641  -0.8477  -0.8301  -0.8249  -0.8074  -0.8014  -0.7863
    -0.7237  -0.7186  -0.7115  -0.6990  -0.6893  -0.6647  -0.6498  -0.6420
    -0.6380  -0.6305  -0.6241  -0.6032  -0.5946  -0.5893  -0.5798  -0.5643
    -0.5197  -0.4964  -0.4850  -0.4806  -0.4644  -0.4485  -0.4151  -0.3983
    -0.3880  -0.3771  -0.3701  -0.3598  -0.3458  -0.3345  -0.3281  -0.2856
    -0.2556  -0.2516  -0.2441  -0.2242  -0.2154  -0.1882  -0.1725  -0.1633
    -0.1155  -0.0699   0.1008   0.1312   0.1743   0.2538   0.3884   0.4092
     0.4378   0.7394

          k = 0.2000 0.3464 0.0000 ( 51202 PWs)   bands (ev):

   -21.8536  -9.2397  -7.2541  -6.2673  -6.0583  -5.9322  -5.6784  -5.4475
    -5.3713  -5.0526  -4.7695  -4.6064  -4.4979  -4.4866  -4.3355  -4.2762
    -4.2627  -4.1758  -4.1702  -4.0946  -4.0433  -3.9471  -3.9038  -3.8771
    -3.8272  -3.7840  -3.6945  -3.6833  -3.6468  -3.6435  -3.6346  -3.6137
    -3.5928  -3.5851  -3.5535  -3.5279  -3.4807  -3.4540  -3.4471  -3.3890
    -3.3045  -3.2667  -3.2193  -3.1862  -3.1714  -3.1620  -3.1077  -3.0594
    -3.0246  -2.9883  -2.9791  -2.9730  -2.9445  -2.9224  -2.9034  -2.8922
    -2.8781  -2.8450  -2.7680  -2.7069  -2.6950  -2.6716  -2.6507  -2.6366
    -2.6151  -2.5516  -2.5094  -2.4414  -2.4175  -2.3939  -2.3796  -2.3515
    -2.3362  -2.3259  -2.3232  -2.3031  -2.2764  -2.2670  -2.2621  -2.2494
    -2.2299  -2.1935  -2.1723  -2.1239  -2.0766  -2.0625  -2.0508  -2.0299
    -2.0161  -2.0001  -1.9646  -1.9612  -1.9500  -1.9265  -1.9145  -1.9069
    -1.8976  -1.8944  -1.8842  -1.8639  -1.8612  -1.8498  -1.8299  -1.8265
    -1.8031  -1.7813  -1.7523  -1.7287  -1.7213  -1.6898  -1.6786  -1.6719
    -1.6581  -1.6435  -1.6176  -1.5834  -1.5712  -1.5578  -1.5379  -1.5160
    -1.5080  -1.4989  -1.4814  -1.4670  -1.4497  -1.4438  -1.4307  -1.3722
    -1.3592  -1.3427  -1.3285  -1.2288  -1.2147  -1.1919  -1.1836  -1.1090
    -1.0745  -1.0641  -1.0534  -1.0499  -1.0381  -1.0306  -1.0065  -1.0029
    -0.9778  -0.9602  -0.9424  -0.9033  -0.8837  -0.8707  -0.8657  -0.8490
    -0.8200  -0.8048  -0.7952  -0.7861  -0.7720  -0.7489  -0.6279  -0.6182
    -0.5864  -0.5813  -0.5739  -0.5629  -0.5467  -0.5337  -0.5258  -0.5185
    -0.5032  -0.4736  -0.4491  -0.4356  -0.4138  -0.4018  -0.3583  -0.3460
    -0.3417  -0.3333  -0.3310  -0.3081  -0.2970  -0.2899  -0.2835  -0.2679
    -0.2557  -0.1814  -0.1709  -0.1696  -0.1226  -0.1206  -0.0957   0.0416
     0.1882   0.2222   0.2624   0.3669   0.5224   0.6222   0.9278   1.1203
     1.2206   1.4532

          k = 0.2000-0.5774 0.0000 ( 51262 PWs)   bands (ev):

   -21.8536  -9.2324  -6.7573  -6.6761  -6.1534  -5.9870  -5.7805  -5.4711
    -5.2353  -5.1799  -4.9389  -4.6733  -4.4734  -4.2359  -4.1948  -4.0654
    -4.0586  -4.0483  -4.0325  -4.0191  -3.9691  -3.9530  -3.9465  -3.9424
    -3.9264  -3.8503  -3.8014  -3.7908  -3.7735  -3.7648  -3.7102  -3.6231
    -3.6147  -3.6033  -3.5821  -3.5550  -3.5012  -3.4499  -3.3572  -3.3210
    -3.3133  -3.2888  -3.2307  -3.2153  -3.1879  -3.1351  -3.1035  -3.0976
    -3.0666  -3.0341  -3.0016  -2.9367  -2.9051  -2.8833  -2.8595  -2.8222
    -2.7965  -2.7400  -2.7353  -2.7272  -2.7098  -2.6985  -2.6755  -2.6230
    -2.5632  -2.5209  -2.5112  -2.5016  -2.4668  -2.4394  -2.4269  -2.3752
    -2.3707  -2.3332  -2.3195  -2.3149  -2.2996  -2.2795  -2.2665  -2.2538
    -2.2365  -2.2286  -2.2141  -2.1882  -2.1835  -2.1473  -2.1124  -2.1003
    -2.0870  -2.0641  -2.0162  -1.9863  -1.9645  -1.9459  -1.9379  -1.9283
    -1.9085  -1.8977  -1.8871  -1.8822  -1.8621  -1.8443  -1.8355  -1.7788
    -1.7737  -1.7520  -1.7433  -1.7379  -1.7196  -1.7149  -1.7060  -1.6924
    -1.6895  -1.6786  -1.6552  -1.6400  -1.5985  -1.5853  -1.5656  -1.5182
    -1.4993  -1.4918  -1.4752  -1.4360  -1.4271  -1.4152  -1.4108  -1.3806
    -1.3455  -1.3405  -1.3131  -1.2634  -1.2101  -1.2001  -1.1842  -1.1680
    -1.1407  -1.1357  -1.1335  -1.1074  -1.0853  -1.0718  -1.0587  -1.0298
    -0.9894  -0.9875  -0.9651  -0.9464  -0.9301  -0.8892  -0.8789  -0.8675
    -0.8596  -0.8358  -0.8305  -0.8133  -0.7854  -0.7642  -0.7458  -0.5903
    -0.5698  -0.5662  -0.5589  -0.5504  -0.5404  -0.5357  -0.5258  -0.4871
    -0.4846  -0.4737  -0.4625  -0.4394  -0.4021  -0.3522  -0.3392  -0.3285
    -0.3164  -0.3059  -0.2917  -0.2733  -0.2487  -0.2356  -0.2304  -0.2166
    -0.2105  -0.1712  -0.1405  -0.1348  -0.1201  -0.1101  -0.0890  -0.0571
     0.1318   0.2517   0.5033   0.8972   0.9732   1.1672   1.2291   1.5442
     1.6460   1.7167

          k = 0.2000-0.3464 0.0000 ( 51202 PWs)   bands (ev):

   -21.8536  -9.2423  -7.2501  -6.2712  -6.0030  -5.9456  -5.6804  -5.5166
    -5.3402  -5.0517  -4.7105  -4.6927  -4.4934  -4.4785  -4.3300  -4.2764
    -4.2678  -4.1746  -4.1716  -4.0603  -4.0370  -4.0195  -3.9035  -3.8779
    -3.8311  -3.7839  -3.6922  -3.6696  -3.6617  -3.6428  -3.6323  -3.6082
    -3.5932  -3.5872  -3.5400  -3.5233  -3.4840  -3.4441  -3.4311  -3.3906
    -3.3058  -3.2435  -3.2193  -3.1931  -3.1745  -3.1539  -3.0861  -3.0598
    -3.0141  -3.0033  -2.9798  -2.9640  -2.9576  -2.9264  -2.9061  -2.8895
    -2.8704  -2.8410  -2.7604  -2.7338  -2.6980  -2.6824  -2.6546  -2.6395
    -2.6166  -2.5543  -2.5067  -2.4432  -2.4132  -2.3939  -2.3787  -2.3475
    -2.3387  -2.3253  -2.3226  -2.2956  -2.2769  -2.2679  -2.2606  -2.2460
    -2.2374  -2.1962  -2.1676  -2.1464  -2.0783  -2.0663  -2.0434  -2.0261
    -2.0184  -1.9968  -1.9795  -1.9628  -1.9436  -1.9299  -1.9140  -1.9115
    -1.9007  -1.8938  -1.8835  -1.8656  -1.8543  -1.8519  -1.8307  -1.8166
    -1.8058  -1.7972  -1.7685  -1.7262  -1.7235  -1.6889  -1.6778  -1.6674
    -1.6629  -1.6464  -1.5944  -1.5823  -1.5749  -1.5476  -1.5239  -1.5207
    -1.5015  -1.4959  -1.4884  -1.4646  -1.4456  -1.4350  -1.4297  -1.3739
    -1.3603  -1.3278  -1.3121  -1.2494  -1.2093  -1.1928  -1.1673  -1.1050
    -1.0837  -1.0652  -1.0549  -1.0487  -1.0416  -1.0320  -1.0076  -0.9881
    -0.9863  -0.9662  -0.9482  -0.9043  -0.8916  -0.8790  -0.8600  -0.8517
    -0.8250  -0.8072  -0.7856  -0.7798  -0.7675  -0.7489  -0.6308  -0.6220
    -0.5962  -0.5840  -0.5736  -0.5602  -0.5445  -0.5362  -0.5341  -0.5105
    -0.5023  -0.4765  -0.4483  -0.4292  -0.4148  -0.4063  -0.3658  -0.3487
    -0.3388  -0.3369  -0.3317  -0.3090  -0.2959  -0.2914  -0.2804  -0.2713
    -0.2557  -0.1851  -0.1724  -0.1679  -0.1212  -0.1180  -0.1057   0.0618
     0.1173   0.2225   0.2384   0.4503   0.5044   0.6258   0.9913   1.1183
     1.2243   1.3958

          k = 0.4000-0.2309 0.0000 ( 51204 PWs)   bands (ev):

   -21.8536  -9.2399  -7.1139  -6.4738  -6.1462  -5.7950  -5.5717  -5.3839
    -5.2208  -5.1463  -5.1013  -4.8640  -4.3333  -4.3203  -4.2913  -4.2574
    -4.2107  -4.1323  -4.1258  -4.0522  -3.9972  -3.9927  -3.9809  -3.8299
    -3.8157  -3.8134  -3.7995  -3.7975  -3.7318  -3.6961  -3.6877  -3.5588
    -3.5281  -3.5168  -3.4996  -3.4847  -3.4752  -3.4312  -3.3719  -3.3654
    -3.3530  -3.3424  -3.2765  -3.2226  -3.1430  -3.1127  -3.0512  -3.0417
    -3.0142  -2.9949  -2.9681  -2.9572  -2.9459  -2.9401  -2.9069  -2.8637
    -2.8533  -2.8322  -2.7988  -2.7789  -2.6621  -2.6494  -2.6304  -2.6076
    -2.5590  -2.5387  -2.5123  -2.5026  -2.4848  -2.4211  -2.3744  -2.3711
    -2.3646  -2.3532  -2.3471  -2.3263  -2.3118  -2.3005  -2.2780  -2.2629
    -2.2420  -2.2054  -2.1880  -2.1706  -2.1437  -2.1173  -2.0767  -2.0471
    -2.0362  -2.0232  -1.9978  -1.9896  -1.9778  -1.9385  -1.9244  -1.9184
    -1.9111  -1.8982  -1.8790  -1.8638  -1.8510  -1.8457  -1.8436  -1.8192
    -1.8001  -1.7669  -1.7396  -1.7335  -1.6671  -1.6491  -1.6338  -1.6230
    -1.6105  -1.5846  -1.5515  -1.5342  -1.5250  -1.5008  -1.4976  -1.4911
    -1.4873  -1.4769  -1.4652  -1.4548  -1.4504  -1.4438  -1.4288  -1.4235
    -1.4169  -1.3612  -1.2967  -1.2912  -1.2759  -1.2638  -1.2340  -1.2253
    -1.1982  -1.1407  -1.1220  -1.1103  -1.0653  -1.0555  -1.0269  -0.9841
    -0.9757  -0.9650  -0.9343  -0.9220  -0.9071  -0.8807  -0.8581  -0.7880
    -0.7568  -0.7409  -0.7300  -0.7158  -0.7137  -0.7043  -0.6945  -0.6924
    -0.6703  -0.6395  -0.5650  -0.5607  -0.5478  -0.5450  -0.5369  -0.5201
    -0.5093  -0.4994  -0.4792  -0.4748  -0.4666  -0.4382  -0.3855  -0.3664
    -0.3581  -0.3461  -0.3205  -0.2665  -0.2605  -0.2343  -0.2279  -0.1908
    -0.1567  -0.1513  -0.1437  -0.1314  -0.1193  -0.1168  -0.1075  -0.0615
    -0.0151   0.0134   0.4661   0.5820   0.8883   1.0880   1.1180   1.3069
     1.4624   1.5037

          k = 0.4000 0.0000 0.0000 ( 51202 PWs)   bands (ev):

   -21.8536  -9.2412  -7.2528  -6.2702  -6.0392  -5.9357  -5.6798  -5.4618
    -5.3625  -5.0655  -4.7462  -4.6284  -4.4970  -4.4811  -4.3357  -4.2746
    -4.2678  -4.1750  -4.1703  -4.0722  -4.0438  -3.9986  -3.9018  -3.8741
    -3.8296  -3.7823  -3.6928  -3.6730  -3.6553  -3.6404  -3.6297  -3.6181
    -3.5917  -3.5861  -3.5394  -3.5204  -3.4820  -3.4480  -3.4420  -3.3811
    -3.3029  -3.2464  -3.2197  -3.1934  -3.1719  -3.1623  -3.1010  -3.0586
    -3.0221  -2.9937  -2.9836  -2.9701  -2.9494  -2.9217  -2.9147  -2.8892
    -2.8748  -2.8436  -2.7651  -2.7250  -2.6939  -2.6752  -2.6579  -2.6384
    -2.6120  -2.5535  -2.5078  -2.4401  -2.4237  -2.3941  -2.3786  -2.3478
    -2.3364  -2.3265  -2.3223  -2.2987  -2.2777  -2.2687  -2.2607  -2.2470
    -2.2407  -2.1909  -2.1694  -2.1276  -2.0758  -2.0668  -2.0425  -2.0288
    -2.0143  -1.9986  -1.9766  -1.9631  -1.9479  -1.9278  -1.9158  -1.9103
    -1.9036  -1.8947  -1.8883  -1.8634  -1.8577  -1.8515  -1.8303  -1.8234
    -1.8091  -1.7856  -1.7639  -1.7281  -1.7218  -1.6832  -1.6777  -1.6735
    -1.6631  -1.6523  -1.6124  -1.5822  -1.5710  -1.5544  -1.5425  -1.5147
    -1.5068  -1.4963  -1.4808  -1.4612  -1.4467  -1.4386  -1.4205  -1.3720
    -1.3604  -1.3389  -1.3162  -1.2402  -1.2163  -1.1912  -1.1795  -1.1056
    -1.0778  -1.0620  -1.0502  -1.0436  -1.0374  -1.0330  -1.0029  -0.9985
    -0.9788  -0.9661  -0.9430  -0.9034  -0.8911  -0.8758  -0.8662  -0.8511
    -0.8255  -0.8027  -0.7926  -0.7787  -0.7689  -0.7490  -0.6280  -0.6139
    -0.6013  -0.5846  -0.5745  -0.5633  -0.5443  -0.5374  -0.5239  -0.5135
    -0.4987  -0.4758  -0.4454  -0.4367  -0.4145  -0.4065  -0.3635  -0.3483
    -0.3407  -0.3361  -0.3325  -0.3076  -0.2958  -0.2870  -0.2845  -0.2716
    -0.2555  -0.1854  -0.1706  -0.1678  -0.1218  -0.1176  -0.0978   0.0457
     0.1420   0.2227   0.2490   0.4141   0.5098   0.6312   0.9815   1.1182
     1.2242   1.4599

          k = 0.4000 0.2309 0.0000 ( 51204 PWs)   bands (ev):

   -21.8536  -9.2357  -7.1208  -6.4791  -6.1582  -5.8669  -5.4581  -5.4110
    -5.2056  -5.1469  -5.0890  -4.8792  -4.3512  -4.3138  -4.3049  -4.2484
    -4.2018  -4.1331  -4.1268  -4.0188  -3.9978  -3.9936  -3.9159  -3.8461
    -3.8152  -3.8056  -3.7995  -3.7954  -3.7102  -3.6948  -3.6733  -3.6501
    -3.5319  -3.5268  -3.5126  -3.4846  -3.4794  -3.4332  -3.3742  -3.3663
    -3.3549  -3.3457  -3.3053  -3.2295  -3.1438  -3.1037  -3.0503  -3.0249
    -3.0194  -2.9855  -2.9715  -2.9667  -2.9551  -2.9276  -2.9060  -2.8674
    -2.8581  -2.8362  -2.8000  -2.7504  -2.6586  -2.6415  -2.6307  -2.5950
    -2.5651  -2.5352  -2.5134  -2.5105  -2.4948  -2.4262  -2.3755  -2.3712
    -2.3651  -2.3579  -2.3410  -2.3235  -2.3097  -2.3056  -2.2806  -2.2448
    -2.2241  -2.2116  -2.1970  -2.1802  -2.1324  -2.1207  -2.0765  -2.0522
    -2.0388  -2.0238  -2.0124  -1.9901  -1.9696  -1.9332  -1.9280  -1.9194
    -1.9069  -1.8922  -1.8731  -1.8651  -1.8611  -1.8492  -1.8416  -1.8131
    -1.7969  -1.7758  -1.7402  -1.7359  -1.6750  -1.6524  -1.6317  -1.6180
    -1.5863  -1.5810  -1.5504  -1.5299  -1.5225  -1.5076  -1.4984  -1.4926
    -1.4858  -1.4819  -1.4671  -1.4583  -1.4516  -1.4441  -1.4181  -1.4093
    -1.3880  -1.3809  -1.3321  -1.2893  -1.2711  -1.2589  -1.2352  -1.2242
    -1.1916  -1.1454  -1.1247  -1.1073  -1.0894  -1.0518  -1.0485  -1.0083
    -0.9832  -0.9570  -0.9378  -0.9283  -0.8992  -0.8708  -0.8511  -0.8108
    -0.7371  -0.7345  -0.7243  -0.7167  -0.7111  -0.6976  -0.6878  -0.6778
    -0.6710  -0.6575  -0.5654  -0.5599  -0.5477  -0.5423  -0.5334  -0.5071
    -0.5007  -0.4916  -0.4837  -0.4726  -0.4559  -0.4421  -0.3796  -0.3644
    -0.3558  -0.3445  -0.3086  -0.2661  -0.2625  -0.2285  -0.2265  -0.1910
    -0.1673  -0.1459  -0.1428  -0.1212  -0.1206  -0.1150  -0.0897  -0.0706
    -0.0145   0.0110   0.4075   0.6511   0.8560   1.0293   1.1192   1.1964
     1.4648   1.5717

          k = 0.4000-0.6928 0.0000 ( 51262 PWs)   bands (ev):

   -21.8536  -9.2313  -6.7710  -6.6712  -6.1554  -5.9294  -5.8786  -5.4161
    -5.2113  -5.1696  -4.9811  -4.6741  -4.4753  -4.2361  -4.1925  -4.0625
    -4.0591  -4.0361  -4.0289  -4.0024  -3.9742  -3.9521  -3.9446  -3.9399
    -3.9311  -3.8170  -3.8048  -3.7923  -3.7782  -3.7604  -3.7274  -3.6342
    -3.6142  -3.6032  -3.5895  -3.5704  -3.5015  -3.4459  -3.3539  -3.3217
    -3.3182  -3.2799  -3.2225  -3.2167  -3.1876  -3.1429  -3.1043  -3.1014
    -3.0772  -3.0199  -3.0092  -2.9364  -2.9044  -2.8793  -2.8674  -2.8166
    -2.7943  -2.7405  -2.7350  -2.7265  -2.7087  -2.7057  -2.6587  -2.6409
    -2.5587  -2.5209  -2.5137  -2.4948  -2.4815  -2.4473  -2.4281  -2.3740
    -2.3654  -2.3338  -2.3263  -2.3073  -2.3017  -2.2782  -2.2650  -2.2469
    -2.2364  -2.2248  -2.1956  -2.1919  -2.1810  -2.1705  -2.1119  -2.1016
    -2.0895  -2.0595  -2.0182  -1.9828  -1.9684  -1.9496  -1.9355  -1.9251
    -1.9068  -1.9019  -1.8974  -1.8719  -1.8582  -1.8515  -1.8379  -1.7769
    -1.7617  -1.7563  -1.7424  -1.7259  -1.7197  -1.7157  -1.6995  -1.6953
    -1.6914  -1.6800  -1.6600  -1.6493  -1.5919  -1.5843  -1.5734  -1.5302
    -1.5041  -1.4901  -1.4662  -1.4361  -1.4282  -1.4204  -1.4049  -1.3906
    -1.3443  -1.3412  -1.3082  -1.2634  -1.2121  -1.2044  -1.1893  -1.1666
    -1.1448  -1.1380  -1.1242  -1.1040  -1.0957  -1.0748  -1.0510  -1.0220
    -0.9931  -0.9845  -0.9615  -0.9436  -0.9330  -0.8961  -0.8791  -0.8768
    -0.8553  -0.8367  -0.8268  -0.8080  -0.7808  -0.7662  -0.7460  -0.5820
    -0.5734  -0.5690  -0.5612  -0.5504  -0.5453  -0.5287  -0.5261  -0.4874
    -0.4812  -0.4730  -0.4636  -0.4388  -0.4023  -0.3484  -0.3375  -0.3195
    -0.3163  -0.3066  -0.2936  -0.2521  -0.2482  -0.2390  -0.2305  -0.2205
    -0.2141  -0.1977  -0.1409  -0.1348  -0.1193  -0.1123  -0.0891  -0.0542
     0.1474   0.2573   0.5487   0.7657   1.0334   1.1635   1.2183   1.5646
     1.6699   1.7108

          k = 0.4000-0.4619 0.0000 ( 51262 PWs)   bands (ev):

   -21.8536  -9.2339  -6.7458  -6.6865  -6.1416  -6.0082  -5.7282  -5.5143
    -5.2498  -5.1835  -4.9087  -4.6769  -4.4767  -4.2389  -4.1925  -4.0800
    -4.0592  -4.0517  -4.0312  -4.0244  -3.9743  -3.9537  -3.9493  -3.9438
    -3.9215  -3.8631  -3.7998  -3.7902  -3.7705  -3.7677  -3.7064  -3.6203
    -3.6127  -3.6035  -3.5824  -3.5259  -3.4814  -3.4465  -3.3666  -3.3210
    -3.3141  -3.2732  -3.2318  -3.2160  -3.1891  -3.1379  -3.1018  -3.0986
    -3.0545  -3.0356  -3.0074  -2.9388  -2.9057  -2.8755  -2.8669  -2.8237
    -2.8057  -2.7400  -2.7327  -2.7241  -2.7092  -2.6974  -2.6768  -2.6447
    -2.5653  -2.5238  -2.5120  -2.4987  -2.4647  -2.4377  -2.4191  -2.3758
    -2.3691  -2.3313  -2.3192  -2.3150  -2.3046  -2.2857  -2.2628  -2.2589
    -2.2409  -2.2287  -2.2139  -2.1879  -2.1845  -2.1522  -2.1107  -2.0991
    -2.0827  -2.0476  -2.0140  -1.9875  -1.9695  -1.9521  -1.9383  -1.9276
    -1.9107  -1.8997  -1.8895  -1.8813  -1.8660  -1.8444  -1.8394  -1.7940
    -1.7777  -1.7558  -1.7469  -1.7372  -1.7206  -1.7144  -1.7038  -1.6921
    -1.6817  -1.6794  -1.6562  -1.6291  -1.5942  -1.5886  -1.5585  -1.5345
    -1.4959  -1.4870  -1.4573  -1.4422  -1.4274  -1.4150  -1.4107  -1.3823
    -1.3488  -1.3390  -1.3077  -1.2764  -1.2142  -1.1970  -1.1830  -1.1635
    -1.1483  -1.1406  -1.1304  -1.1040  -1.0809  -1.0684  -1.0569  -1.0334
    -0.9913  -0.9786  -0.9635  -0.9470  -0.9314  -0.8881  -0.8825  -0.8635
    -0.8578  -0.8355  -0.8344  -0.8149  -0.7824  -0.7666  -0.7400  -0.5906
    -0.5768  -0.5694  -0.5604  -0.5490  -0.5419  -0.5343  -0.5230  -0.4912
    -0.4806  -0.4708  -0.4609  -0.4421  -0.4094  -0.3604  -0.3350  -0.3318
    -0.3174  -0.3069  -0.2919  -0.2815  -0.2479  -0.2358  -0.2312  -0.2193
    -0.2146  -0.1454  -0.1421  -0.1340  -0.1211  -0.1097  -0.0893  -0.0554
     0.1204   0.2441   0.4840   0.8812   1.0538   1.1586   1.2562   1.5070
     1.6538   1.7178

 ------ SPIN DOWN ----------


          k = 0.0000 0.0000 0.0000 ( 51087 PWs)   bands (ev):

   -21.9456  -9.3541  -7.8053  -6.5850  -5.7988  -5.6110  -5.4452  -5.0310
    -4.6516  -4.6411  -4.6395  -4.6062  -4.5972  -4.5777  -4.2206  -3.7712
    -3.7686  -3.7500  -3.7247  -3.7238  -3.6584  -3.3361  -2.8314  -2.8243
    -2.8105  -2.8052  -2.7230  -2.6047  -2.3627  -2.3545  -2.3480  -2.3455
    -2.3157  -2.2270  -2.1566  -2.1545  -2.0873  -2.0598  -2.0578  -2.0574
    -1.9727  -1.9689  -1.9220  -1.9202  -1.8409  -1.8306  -1.8139  -1.8092
    -1.7648  -1.7386  -1.5587  -1.5523  -1.5502  -1.5460  -1.5345  -1.5333
    -1.5173  -1.5166  -1.4878  -1.4769  -1.4456  -1.4418  -1.4378  -1.4347
    -1.3701  -1.2735  -0.9025  -0.8823  -0.8652  -0.8616  -0.8243  -0.7575
    -0.6708  -0.6493  -0.5613  -0.5524  -0.5414  -0.5360  -0.5240  -0.5038
    -0.4832  -0.4788  -0.4612  -0.4543  -0.4434  -0.4421  -0.3970  -0.3779
    -0.3645  -0.3399  -0.3336  -0.3116  -0.3046  -0.2990  -0.2912  -0.2817
    -0.2733  -0.2728  -0.2629  -0.2545  -0.2532  -0.2369  -0.2217  -0.1746
    -0.1642  -0.1333  -0.1083  -0.0576  -0.0513  -0.0372  -0.0332  -0.0248
    -0.0211  -0.0197  -0.0153   0.0539   0.0571   0.0590   0.1044   0.1357
     0.1411   0.1461   0.1604   0.1990   0.2914   0.3494   0.3802   0.3952
     0.4440   0.4513   0.4559   0.4642   0.6271   0.6731   0.7087   0.7852
     0.7937   0.8731   0.9166   1.0066   1.0154   1.0219   1.0263   1.0314
     1.0944   1.1206   1.1699   1.1954   1.2008   1.2054   1.2111   1.2381
     1.2499   1.2541   1.2623   1.2850   1.2979   1.3085   1.3228   1.3367
     1.3451   1.3554   1.3590   1.3670   1.3755   1.4169   1.4201   1.4236
     1.4392   1.4421   1.4574   1.4689   1.4815   1.4873   1.4933   1.5271
     1.5332   1.5475   1.5514   1.5528   1.5632   1.5687   1.5752   1.6130
     1.6176   1.6216   1.6235   1.6280   1.6325   1.6418   1.6544   1.6560
     1.6611   1.7038   1.7052   1.8475   1.8519   1.8543   1.8592   1.8607
     1.8637   2.0660

          k = 0.0000 0.2309 0.0000 ( 51134 PWs)   bands (ev):

   -21.9456  -9.3431  -7.6639  -6.4820  -5.8699  -5.6614  -5.5410  -5.3941
    -5.0568  -4.9949  -4.8889  -4.4269  -4.1834  -4.0869  -4.0686  -3.9414
    -3.8319  -3.7938  -3.4781  -3.4066  -3.3371  -3.2740  -2.9795  -2.8088
    -2.7769  -2.7535  -2.6857  -2.6035  -2.4650  -2.3878  -2.3816  -2.3727
    -2.3371  -2.3049  -2.2999  -2.2944  -2.2403  -2.1977  -2.1173  -2.1166
    -2.0285  -2.0256  -1.9742  -1.8645  -1.8456  -1.8312  -1.8102  -1.7171
    -1.6885  -1.6623  -1.6182  -1.5880  -1.5691  -1.5506  -1.5368  -1.5335
    -1.5121  -1.5042  -1.4292  -1.4080  -1.4002  -1.3783  -1.3476  -1.3031
    -1.2561  -1.1691  -0.9765  -0.9302  -0.9171  -0.9126  -0.8464  -0.8015
    -0.7761  -0.7300  -0.6936  -0.6632  -0.6421  -0.5931  -0.5674  -0.5560
    -0.5231  -0.5156  -0.4980  -0.4877  -0.4848  -0.4639  -0.4461  -0.3998
    -0.3536  -0.3341  -0.3292  -0.3238  -0.3150  -0.2850  -0.2670  -0.2634
    -0.2532  -0.2427  -0.2395  -0.2330  -0.2299  -0.2277  -0.1993  -0.1763
    -0.1537  -0.1469  -0.1280  -0.1202  -0.1129  -0.1011  -0.0687  -0.0498
    -0.0366  -0.0165   0.0169   0.0507   0.0764   0.0943   0.1107   0.1248
     0.2364   0.2568   0.2749   0.3208   0.3430   0.3599   0.3813   0.4100
     0.4209   0.4300   0.4359   0.4433   0.6018   0.6797   0.7179   0.7642
     0.7780   0.7848   0.7981   0.8128   0.8493   0.8851   0.9079   0.9497
     1.0058   1.0144   1.0316   1.0724   1.0828   1.1091   1.1270   1.1455
     1.1917   1.2153   1.2395   1.2444   1.2568   1.2733   1.3105   1.3183
     1.3327   1.3503   1.3908   1.4090   1.4254   1.4311   1.4607   1.4726
     1.5012   1.5110   1.5169   1.5229   1.5418   1.5877   1.5999   1.6077
     1.6133   1.6374   1.6454   1.6762   1.6859   1.6897   1.6974   1.7011
     1.7196   1.7643   1.7710   1.7848   1.7854   1.7959   1.8058   1.8219
     1.8404   1.8453   1.8520   1.8831   1.9400   1.9551   1.9586   2.0205
     2.0367   2.0935

          k = 0.0000 0.4619 0.0000 ( 51204 PWs)   bands (ev):

   -21.9456  -9.3258  -7.2444  -6.5752  -6.1995  -5.8501  -5.5849  -5.4135
    -5.2277  -5.1576  -5.0807  -4.7234  -4.1321  -4.0432  -3.8031  -3.4764
    -3.4669  -3.4031  -3.3466  -3.1647  -3.1100  -3.0250  -2.9907  -2.8735
    -2.8668  -2.8020  -2.7634  -2.7019  -2.6616  -2.6300  -2.6062  -2.5764
    -2.5480  -2.4550  -2.3461  -2.3290  -2.2542  -2.2302  -2.1368  -2.1315
    -2.1217  -2.0906  -2.0608  -1.8438  -1.8213  -1.8132  -1.7762  -1.7255
    -1.6171  -1.6088  -1.5947  -1.5773  -1.5712  -1.5437  -1.5390  -1.5073
    -1.4993  -1.4323  -1.4267  -1.4060  -1.3782  -1.3579  -1.2203  -1.1935
    -1.0855  -1.0557  -0.9765  -0.9551  -0.9381  -0.9007  -0.8838  -0.8729
    -0.8571  -0.8264  -0.7972  -0.7815  -0.7359  -0.7121  -0.6911  -0.6507
    -0.6333  -0.6185  -0.5951  -0.5800  -0.5471  -0.5095  -0.4837  -0.4210
    -0.4112  -0.3987  -0.3730  -0.3364  -0.3065  -0.2891  -0.2690  -0.2515
    -0.2259  -0.2202  -0.2061  -0.1850  -0.1818  -0.1729  -0.1498  -0.1330
    -0.1161  -0.1039  -0.0890  -0.0725  -0.0644  -0.0600  -0.0496  -0.0253
    -0.0115   0.0096   0.0637   0.1131   0.1304   0.1378   0.1512   0.1900
     0.2016   0.2062   0.2354   0.2717   0.2894   0.3034   0.3232   0.3326
     0.3797   0.3861   0.3970   0.4100   0.4493   0.5366   0.5689   0.5903
     0.6461   0.6599   0.6946   0.7592   0.8023   0.8369   0.8565   0.8767
     0.8979   0.9183   0.9381   0.9576   0.9803   1.0770   1.1325   1.1552
     1.1673   1.1980   1.2316   1.2344   1.2696   1.2865   1.3105   1.3285
     1.3601   1.3731   1.3825   1.4428   1.4676   1.4796   1.5177   1.5250
     1.5328   1.5375   1.5614   1.5723   1.5965   1.6094   1.6205   1.6482
     1.6565   1.6872   1.7473   1.7555   1.7775   1.7812   1.7929   1.8129
     1.8219   1.8472   1.8531   1.8641   1.8827   1.8857   1.8954   1.9011
     1.9437   1.9989   2.0436   2.1075   2.1350   2.2032   2.5353   2.6019
     2.6355   2.6848

          k = 0.2000-0.1155 0.0000 ( 51134 PWs)   bands (ev):

   -21.9456  -9.3439  -7.6634  -6.4808  -5.8561  -5.6711  -5.5456  -5.3884
    -5.0696  -4.9873  -4.8862  -4.4627  -4.1212  -4.0875  -4.0638  -3.9496
    -3.8693  -3.7795  -3.4639  -3.4067  -3.3870  -3.2673  -2.9449  -2.8169
    -2.7860  -2.7342  -2.6846  -2.6266  -2.4490  -2.3890  -2.3826  -2.3623
    -2.3397  -2.3013  -2.2990  -2.2883  -2.2383  -2.2090  -2.1184  -2.1163
    -2.0275  -2.0250  -1.9635  -1.8697  -1.8448  -1.8339  -1.8247  -1.7190
    -1.6863  -1.6652  -1.6152  -1.5895  -1.5712  -1.5461  -1.5378  -1.5328
    -1.5218  -1.5046  -1.4267  -1.4085  -1.4009  -1.3833  -1.3449  -1.3001
    -1.2575  -1.1628  -0.9789  -0.9387  -0.9160  -0.9128  -0.8473  -0.8080
    -0.7567  -0.7324  -0.6953  -0.6653  -0.6409  -0.5913  -0.5687  -0.5547
    -0.5283  -0.5147  -0.4993  -0.4949  -0.4845  -0.4618  -0.4324  -0.3953
    -0.3703  -0.3336  -0.3306  -0.3179  -0.3080  -0.2904  -0.2650  -0.2583
    -0.2521  -0.2459  -0.2404  -0.2339  -0.2303  -0.2285  -0.1999  -0.1749
    -0.1558  -0.1472  -0.1315  -0.1213  -0.1070  -0.0919  -0.0703  -0.0470
    -0.0420  -0.0168   0.0095   0.0474   0.0809   0.0936   0.1143   0.1240
     0.2339   0.2584   0.2723   0.3181   0.3507   0.3540   0.3919   0.4106
     0.4225   0.4302   0.4349   0.4409   0.6072   0.6662   0.7336   0.7640
     0.7763   0.7822   0.7961   0.8090   0.8631   0.8766   0.9103   0.9480
     1.0055   1.0129   1.0385   1.0578   1.0806   1.0999   1.1256   1.1726
     1.1890   1.2170   1.2356   1.2415   1.2607   1.2664   1.3104   1.3168
     1.3275   1.3595   1.3919   1.4059   1.4213   1.4325   1.4568   1.4655
     1.4973   1.5127   1.5137   1.5206   1.5456   1.5966   1.6006   1.6080
     1.6181   1.6397   1.6442   1.6753   1.6827   1.6920   1.6960   1.6992
     1.7205   1.7640   1.7696   1.7820   1.7853   1.7959   1.8050   1.8221
     1.8426   1.8468   1.8519   1.8918   1.9404   1.9562   1.9576   2.0153
     2.0394   2.1064

          k = 0.2000 0.1155 0.0000 ( 51134 PWs)   bands (ev):

   -21.9456  -9.3425  -7.6648  -6.4847  -5.8974  -5.6513  -5.4734  -5.4421
    -5.0439  -4.9922  -4.9153  -4.3641  -4.2117  -4.0883  -4.0690  -3.9746
    -3.8280  -3.7884  -3.4828  -3.4146  -3.3177  -3.2532  -2.9891  -2.8315
    -2.7835  -2.7327  -2.7098  -2.5764  -2.4705  -2.3886  -2.3800  -2.3622
    -2.3463  -2.3113  -2.3000  -2.2973  -2.2576  -2.1783  -2.1175  -2.1136
    -2.0279  -2.0264  -1.9733  -1.8739  -1.8386  -1.8292  -1.8095  -1.7120
    -1.6933  -1.6633  -1.6117  -1.5985  -1.5714  -1.5513  -1.5345  -1.5316
    -1.5276  -1.4773  -1.4476  -1.4048  -1.3956  -1.3802  -1.3442  -1.3053
    -1.2404  -1.1798  -0.9817  -0.9369  -0.9185  -0.9086  -0.8410  -0.8129
    -0.8000  -0.6978  -0.6871  -0.6758  -0.6473  -0.5919  -0.5752  -0.5511
    -0.5306  -0.5101  -0.5013  -0.4871  -0.4817  -0.4605  -0.4558  -0.3877
    -0.3580  -0.3371  -0.3313  -0.3217  -0.3069  -0.2729  -0.2692  -0.2619
    -0.2564  -0.2430  -0.2412  -0.2360  -0.2317  -0.2278  -0.1921  -0.1821
    -0.1573  -0.1468  -0.1279  -0.1243  -0.1137  -0.0912  -0.0717  -0.0577
    -0.0344  -0.0174   0.0266   0.0650   0.0698   0.0922   0.1013   0.1240
     0.2066   0.2749   0.3013   0.3148   0.3494   0.3641   0.3763   0.4064
     0.4218   0.4265   0.4388   0.4440   0.6372   0.6685   0.7012   0.7614
     0.7820   0.7833   0.8022   0.8134   0.8538   0.8853   0.9014   0.9545
     0.9679   1.0226   1.0481   1.0663   1.0784   1.1136   1.1310   1.1349
     1.1825   1.2261   1.2330   1.2513   1.2662   1.2718   1.3114   1.3157
     1.3289   1.3608   1.3957   1.4143   1.4213   1.4322   1.4550   1.4713
     1.4945   1.5131   1.5187   1.5298   1.5354   1.5859   1.5924   1.6056
     1.6186   1.6390   1.6427   1.6765   1.6866   1.6946   1.6963   1.6996
     1.7205   1.7644   1.7709   1.7821   1.7847   1.7961   1.8059   1.8202
     1.8426   1.8460   1.8512   1.8703   1.9393   1.9535   1.9589   2.0158
     2.0429   2.0875

          k = 0.2000 0.3464 0.0000 ( 51202 PWs)   bands (ev):

   -21.9456  -9.3280  -7.3849  -6.3191  -6.1240  -6.0144  -5.6901  -5.4686
    -5.4178  -4.9773  -4.7133  -4.4366  -4.2828  -4.2678  -3.9139  -3.4534
    -3.4413  -3.4359  -3.4107  -3.2668  -3.1675  -3.1349  -3.1224  -2.9318
    -2.7721  -2.6979  -2.6885  -2.6775  -2.6033  -2.5732  -2.5443  -2.4887
    -2.4794  -2.4706  -2.4433  -2.3470  -2.3290  -2.2529  -2.0982  -2.0862
    -2.0564  -2.0033  -1.9757  -1.9611  -1.9372  -1.8070  -1.7521  -1.7383
    -1.6328  -1.6128  -1.5770  -1.5699  -1.5648  -1.5479  -1.5351  -1.5115
    -1.4972  -1.4918  -1.4296  -1.3911  -1.3447  -1.3046  -1.2155  -1.1736
    -1.1211  -1.0736  -1.0074  -0.9648  -0.9091  -0.8801  -0.8727  -0.8474
    -0.8195  -0.7882  -0.7818  -0.7330  -0.7126  -0.6960  -0.6846  -0.6603
    -0.6467  -0.6259  -0.6076  -0.5794  -0.5551  -0.4861  -0.4412  -0.4248
    -0.4200  -0.3890  -0.3664  -0.3467  -0.3322  -0.3071  -0.2964  -0.2858
    -0.2730  -0.2478  -0.2443  -0.2234  -0.2150  -0.1938  -0.1711  -0.1489
    -0.1370  -0.1231  -0.1114  -0.1012  -0.0953  -0.0833  -0.0705  -0.0550
     0.0056   0.0356   0.0404   0.0529   0.1492   0.1638   0.1835   0.2151
     0.2350   0.2539   0.2843   0.2919   0.3251   0.3524   0.3670   0.3727
     0.3775   0.4169   0.4513   0.4692   0.5172   0.5915   0.6399   0.6712
     0.7282   0.7580   0.7917   0.8167   0.8245   0.8346   0.8481   0.8724
     0.8842   0.9018   0.9041   0.9273   0.9661   1.0280   1.0556   1.0854
     1.1135   1.1313   1.1442   1.1616   1.1826   1.2357   1.2438   1.2857
     1.3245   1.4067   1.4262   1.4741   1.4922   1.5003   1.5208   1.5387
     1.5511   1.5561   1.5760   1.5851   1.6426   1.6598   1.6626   1.6691
     1.6842   1.7086   1.7241   1.7396   1.7421   1.7604   1.7656   1.7945
     1.8009   1.8048   1.8176   1.8330   1.8428   1.8615   1.8940   1.9236
     1.9405   1.9560   2.0303   2.0655   2.1745   2.2059   2.2820   2.4980
     2.5242   2.5370

          k = 0.2000-0.5774 0.0000 ( 51262 PWs)   bands (ev):

   -21.9456  -9.3208  -6.8705  -6.7976  -6.2236  -6.0287  -5.8137  -5.5158
    -5.2548  -5.2298  -4.8664  -4.5169  -4.3143  -3.7471  -3.5295  -3.4720
    -3.4693  -3.3699  -3.2254  -3.1333  -3.0655  -3.0524  -3.0476  -2.9171
    -2.9113  -2.8970  -2.8783  -2.8644  -2.7350  -2.6577  -2.5351  -2.5187
    -2.5061  -2.4818  -2.4465  -2.4331  -2.3993  -2.3302  -2.2014  -2.0710
    -1.9885  -1.9803  -1.9638  -1.9232  -1.8902  -1.8054  -1.7422  -1.7251
    -1.6947  -1.6832  -1.6727  -1.5765  -1.5316  -1.5081  -1.4963  -1.4752
    -1.4480  -1.3928  -1.3555  -1.3334  -1.2959  -1.2696  -1.2595  -1.1562
    -1.1071  -1.0437  -0.9780  -0.9603  -0.9475  -0.8934  -0.8817  -0.8404
    -0.8232  -0.8062  -0.7709  -0.7620  -0.7529  -0.6998  -0.6936  -0.6704
    -0.6489  -0.6289  -0.6241  -0.6113  -0.5974  -0.5898  -0.5530  -0.5276
    -0.5189  -0.4784  -0.4520  -0.4411  -0.4068  -0.3808  -0.3495  -0.2998
    -0.2783  -0.2523  -0.2351  -0.2092  -0.1858  -0.1784  -0.1556  -0.1462
    -0.1019  -0.0891  -0.0756  -0.0573  -0.0354  -0.0239   0.0259   0.0574
     0.0931   0.1064   0.1141   0.1230   0.1394   0.1586   0.1932   0.2177
     0.2298   0.2420   0.2914   0.3007   0.3262   0.3474   0.3703   0.3928
     0.4006   0.4162   0.4415   0.4544   0.4708   0.4854   0.5024   0.5464
     0.5915   0.6520   0.7095   0.7302   0.7626   0.7853   0.8148   0.8236
     0.8472   0.8573   0.8761   0.9328   0.9827   1.0091   1.0327   1.0586
     1.0818   1.0927   1.1383   1.1647   1.1817   1.2032   1.2232   1.2772
     1.3719   1.4077   1.4345   1.4429   1.4897   1.5354   1.5716   1.5733
     1.5825   1.5957   1.6024   1.6150   1.6400   1.6648   1.6740   1.6850
     1.7267   1.7498   1.7566   1.7696   1.7720   1.7746   1.7857   1.7883
     1.8105   1.8360   1.8471   1.8756   1.8826   1.9014   1.9066   1.9265
     1.9869   2.0682   2.2096   2.3492   2.3847   2.6483   2.7054   2.7844
     2.8308   2.9284

          k = 0.2000-0.3464 0.0000 ( 51202 PWs)   bands (ev):

   -21.9456  -9.3304  -7.3811  -6.3199  -6.0744  -6.0316  -5.6815  -5.5444
    -5.3855  -4.9923  -4.6258  -4.5589  -4.2703  -4.2458  -3.8998  -3.4490
    -3.4425  -3.4361  -3.4176  -3.3091  -3.1557  -3.1454  -3.1142  -2.9133
    -2.7706  -2.7027  -2.6910  -2.6324  -2.6087  -2.5749  -2.5727  -2.4892
    -2.4837  -2.4703  -2.4327  -2.3316  -2.2957  -2.2466  -2.0987  -2.0955
    -2.0666  -2.0226  -1.9650  -1.9544  -1.9295  -1.8070  -1.7557  -1.7324
    -1.6646  -1.6110  -1.5793  -1.5726  -1.5632  -1.5492  -1.5413  -1.5200
    -1.4956  -1.4809  -1.4341  -1.4079  -1.3627  -1.3041  -1.2091  -1.1701
    -1.1115  -1.0834  -1.0043  -0.9310  -0.9031  -0.8825  -0.8734  -0.8415
    -0.8174  -0.7958  -0.7519  -0.7279  -0.7193  -0.6984  -0.6834  -0.6571
    -0.6475  -0.6385  -0.6122  -0.6006  -0.5153  -0.4910  -0.4473  -0.4341
    -0.4196  -0.4072  -0.3653  -0.3556  -0.3212  -0.3158  -0.3005  -0.2833
    -0.2729  -0.2609  -0.2427  -0.2240  -0.2088  -0.1910  -0.1603  -0.1473
    -0.1357  -0.1306  -0.1232  -0.0936  -0.0886  -0.0763  -0.0719  -0.0539
     0.0209   0.0304   0.0413   0.0809   0.1188   0.1528   0.1905   0.2195
     0.2333   0.2508   0.2846   0.3151   0.3433   0.3531   0.3649   0.3689
     0.3783   0.4072   0.4367   0.4612   0.5030   0.5707   0.6480   0.6788
     0.7353   0.7423   0.7971   0.8140   0.8235   0.8399   0.8590   0.8670
     0.8838   0.8998   0.9125   0.9214   0.9630   1.0237   1.0558   1.0767
     1.1118   1.1319   1.1448   1.1744   1.1876   1.2272   1.2482   1.2986
     1.3132   1.3855   1.4429   1.4725   1.4913   1.5106   1.5177   1.5350
     1.5460   1.5534   1.5772   1.5859   1.6493   1.6538   1.6620   1.6704
     1.6933   1.7143   1.7198   1.7370   1.7492   1.7568   1.7662   1.7902
     1.8010   1.8079   1.8164   1.8248   1.8409   1.8486   1.8977   1.9261
[...]
     atom    8 type  1   force =    -0.00050078   -0.00212744   -0.10506888
     atom    9 type  1   force =    -0.00088097    0.00062822   -0.10447491
     atom   10 type  1   force =    -0.00004161   -0.00136271   -0.01499029
     atom   11 type  1   force =     0.00062015   -0.00234783   -0.00949979
     atom   12 type  1   force =    -0.00052141    0.00129283   -0.01160213
     atom   13 type  1   force =    -0.00074819    0.00256274   -0.01094781
     atom   14 type  1   force =     0.00162134    0.00077443   -0.00541424
     atom   15 type  1   force =    -0.00112637    0.00035085   -0.01090791
     atom   16 type  1   force =     0.00043735   -0.00133034   -0.01133944
     atom   17 type  1   force =     0.00038956    0.00023098   -0.01000871
     atom   18 type  1   force =    -0.00073507   -0.00063304   -0.01279836
     atom   19 type  1   force =    -0.00301571   -0.00383948    0.00580174
     atom   20 type  1   force =    -0.00453264   -0.00079280    0.00092274
     atom   21 type  1   force =     0.00817144   -0.00697741   -0.00166869
     atom   22 type  1   force =     0.00087786    0.00422507    0.00764421
     atom   23 type  1   force =    -0.00388532    0.00842769   -0.00095265
     atom   24 type  1   force =     0.00226640   -0.00151431    0.01255302
     atom   25 type  1   force =     0.00001337    0.00039643    0.01824832
     atom   26 type  1   force =    -0.00656844    0.00172006   -0.00314678
     atom   27 type  1   force =     0.00572928   -0.00111547    0.00774812
     atom   28 type  1   force =     0.00225173    0.00238765    0.12297115
     atom   29 type  1   force =     0.00376948    0.05178480    0.10187921
     atom   30 type  1   force =    -0.00596183    0.00611448    0.12841154
     atom   31 type  1   force =     0.04372459   -0.02327398    0.11962394
     atom   32 type  1   force =    -0.05125820   -0.03433261    0.05458643
     atom   33 type  1   force =    -0.02209648    0.01362988    0.12121261
     atom   34 type  1   force =     0.01002528   -0.01144866    0.13480226
     atom   35 type  1   force =     0.00470161    0.00928556    0.06729061
     atom   36 type  1   force =    -0.00113787   -0.00247833    0.11059013
     atom   37 type  2   force =    -0.07509015    0.00781563    0.39575856
     atom   38 type  3   force =     0.27566693    0.02766219   -2.67328939
     atom   39 type  4   force =    -0.00274663    0.00114196   -0.02271653
     The ionic contribution  to forces
     atom    1 type  1   force =    -0.00727389   -0.00047501 -111.16156521
     atom    2 type  1   force =    -0.00192815   -0.00072670 -111.18007062
     atom    3 type  1   force =     0.00920204   -0.00202369 -111.16541791
     atom    4 type  1   force =    -0.00481083    0.00751007 -111.16144575
     atom    5 type  1   force =     0.00251187    0.00843645 -111.16603925
     atom    6 type  1   force =     0.00229890    0.00059549 -111.15649016
     atom    7 type  1   force =    -0.00035357    0.00014619 -111.15344645
     atom    8 type  1   force =    -0.00437682   -0.00551981 -111.16282184
     atom    9 type  1   force =     0.00473042   -0.00794299 -111.16211813
     atom   10 type  1   force =    -0.04462958   -0.02104049  -40.09581554
     atom   11 type  1   force =    -0.00346754   -0.06620201  -40.19362507
     atom   12 type  1   force =     0.04809348   -0.03759911  -40.10255222
     atom   13 type  1   force =    -0.06296911    0.03188007  -40.18646730
     atom   14 type  1   force =     0.04619335    0.02583008  -40.21992980
     atom   15 type  1   force =     0.01677066    0.00382130  -40.09577069
     atom   16 type  1   force =    -0.01291911    0.05874133  -40.10380147
     atom   17 type  1   force =     0.01260602    0.00842553  -40.10436598
     atom   18 type  1   force =     0.00032146   -0.00385671  -40.07830098
     atom   19 type  1   force =    -0.36234157   -0.01901220   31.44424121
     atom   20 type  1   force =    -0.09474942   -0.02863183   30.39928167
     atom   21 type  1   force =     0.45666134   -0.11349895   31.26526937
     atom   22 type  1   force =    -0.23080951    0.36236566   31.45238969
     atom   23 type  1   force =     0.10488079    0.42427012   31.21654322
     atom   24 type  1   force =     0.12369080    0.03474492   31.63967595
     atom   25 type  1   force =    -0.01453856    0.00750534   31.78288791
     atom   26 type  1   force =    -0.21359742   -0.27814342   31.39227795
     atom   27 type  1   force =     0.22856765   -0.38839332   31.41623684
     atom   28 type  1   force =    -1.52922000   -0.76154316  104.05417316
     atom   29 type  1   force =    -0.19494548   -4.73876485   99.79985843
     atom   30 type  1   force =     1.65786401   -1.19080201  103.97116499
     atom   31 type  1   force =    -3.98737801    2.23775854  100.33259850
     atom   32 type  1   force =     3.07456550    1.64803721   98.87828849
     atom   33 type  1   force =     0.82151232   -0.13810432  104.10188674
     atom   34 type  1   force =    -0.41232094    1.94654672  103.98314938
     atom   35 type  1   force =     0.53404568    1.09449214  103.57331236
     atom   36 type  1   force =     0.01810761   -0.10967006  104.49777957
     atom   37 type  2   force =     0.66123633   -0.00539860   51.23390982
     atom   38 type  3   force =    -1.11657533   -0.18869523   90.08299115
     atom   39 type  4   force =     0.47534461    0.20493729   15.13212799
     The local contribution  to forces
     atom    1 type  1   force =     0.00872359    0.00092107  111.26750008
     atom    2 type  1   force =     0.00182339    0.00013699  111.29148518
     atom    3 type  1   force =    -0.01029339    0.00268136  111.27504449
     atom    4 type  1   force =     0.00376635   -0.00767842  111.26952510
     atom    5 type  1   force =    -0.00230745   -0.01031306  111.27628607
     atom    6 type  1   force =    -0.00122947    0.00004914  111.26124195
     atom    7 type  1   force =    -0.00089924   -0.00026882  111.25700492
     atom    8 type  1   force =     0.00571345    0.00696740  111.27094801
     atom    9 type  1   force =    -0.00458388    0.00705798  111.26840455
     atom   10 type  1   force =     0.04515117    0.02192546   40.09394889
     atom   11 type  1   force =     0.00198009    0.06670021   40.18396138
     atom   12 type  1   force =    -0.04714843    0.03555474   40.09717978
     atom   13 type  1   force =     0.06170523   -0.03385825   40.17794843
     atom   14 type  1   force =    -0.04643320   -0.02556621   40.20636483
     atom   15 type  1   force =    -0.01508999   -0.00483309   40.08580656
     atom   16 type  1   force =     0.01279525   -0.05696285   40.09799016
     atom   17 type  1   force =    -0.01307487   -0.00794850   40.09303676
     atom   18 type  1   force =     0.00125228    0.00468243   40.06950964
     atom   19 type  1   force =     0.36229180    0.02078490  -31.43145484
     atom   20 type  1   force =     0.10063909    0.02954314  -30.38460875
     atom   21 type  1   force =    -0.46319701    0.11648865  -31.25067007
     atom   22 type  1   force =     0.23102166   -0.36318628  -31.44251335
     atom   23 type  1   force =    -0.10344468   -0.43027835  -31.20394264
     atom   24 type  1   force =    -0.12514321   -0.03246940  -31.62899460
     atom   25 type  1   force =     0.01397100   -0.00819636  -31.77512940
     atom   26 type  1   force =     0.21696133    0.27660329  -31.37534845
     atom   27 type  1   force =    -0.23026362    0.38916637  -31.40801771
     atom   28 type  1   force =     1.52275176    0.75748652 -104.18578283
     atom   29 type  1   force =     0.18928097    4.66868796  -99.90090425
     atom   30 type  1   force =    -1.64545301    1.17604526 -104.10880084
     atom   31 type  1   force =     3.93061530   -2.20826600 -100.45227637
     atom   32 type  1   force =    -3.02301984   -1.61367778  -98.92082992
     atom   33 type  1   force =    -0.79682779    0.12377765 -104.22656595
     atom   34 type  1   force =     0.39588699   -1.92532856 -104.12700463
     atom   35 type  1   force =    -0.53447494   -1.08801470 -103.64929509
     atom   36 type  1   force =    -0.01492480    0.11412561 -104.61841730
     atom   37 type  2   force =    -0.58782441   -0.00093689  -51.62822092
     atom   38 type  3   force =     0.84471070    0.16236958  -87.42911386
     atom   39 type  4   force =    -0.46282380   -0.21185556  -15.11090028
     The core correction contribution to forces
     atom    1 type  1   force =    -0.00002496    0.00008396    0.01003255
     atom    2 type  1   force =     0.00032015    0.00001940    0.00882633
     atom    3 type  1   force =    -0.00005683   -0.00002315    0.01026017
     atom    4 type  1   force =    -0.00011521   -0.00009937    0.00997527
     atom    5 type  1   force =    -0.00018383    0.00000679    0.01024938
     atom    6 type  1   force =     0.00011039    0.00013782    0.00996376
     atom    7 type  1   force =     0.00009979    0.00009835    0.01033360
     atom    8 type  1   force =    -0.00017011   -0.00010513    0.01007801
     atom    9 type  1   force =    -0.00004309   -0.00004644    0.00997221
     atom   10 type  1   force =    -0.00015939   -0.00004261   -0.00186376
     atom   11 type  1   force =    -0.00004139   -0.00016394   -0.00195711
     atom   12 type  1   force =     0.00021583   -0.00040480   -0.00179379
     atom   13 type  1   force =    -0.00020358   -0.00006180   -0.00196295
     atom   14 type  1   force =     0.00024734    0.00016446   -0.00180051
     atom   15 type  1   force =     0.00008266    0.00011347   -0.00184814
     atom   16 type  1   force =    -0.00007294    0.00032364   -0.00166230
     atom   17 type  1   force =     0.00010995   -0.00021344   -0.00195423
     atom   18 type  1   force =     0.00003459    0.00012254   -0.00160278
     atom   19 type  1   force =     0.00006463   -0.00067394    0.00149081
     atom   20 type  1   force =    -0.00094475   -0.00067605    0.00137231
     atom   21 type  1   force =     0.00095624   -0.00089146    0.00063093
     atom   22 type  1   force =    -0.00009200    0.00078978    0.00132318
     atom   23 type  1   force =    -0.00000337    0.00102073    0.00096251
     atom   24 type  1   force =     0.00030271    0.00033719    0.00221256
     atom   25 type  1   force =    -0.00000806    0.00005826    0.00192319
     atom   26 type  1   force =    -0.00044406    0.00068018    0.00107672
     atom   27 type  1   force =     0.00081271   -0.00044189    0.00131185
     atom   28 type  1   force =     0.00214426    0.00073940   -0.00919357
     atom   29 type  1   force =     0.00075224    0.00968841   -0.00516684
     atom   30 type  1   force =    -0.00312307    0.00268843   -0.00843166
     atom   31 type  1   force =     0.00747792   -0.00425341   -0.00487284
     atom   32 type  1   force =    -0.00202028    0.00093009    0.00034449
     atom   33 type  1   force =    -0.00650831    0.00371799   -0.00686528
     atom   34 type  1   force =     0.00313283   -0.00393900   -0.00746822
     atom   35 type  1   force =    -0.00247409   -0.01036969   -0.00500344
     atom   36 type  1   force =    -0.00134659   -0.00011296   -0.01022296
     atom   37 type  2   force =     0.00093351    0.00021153   -0.00121358
     atom   38 type  3   force =    -0.00202725   -0.00021644    0.01958419
     atom   39 type  4   force =     0.00000000    0.00000000    0.00000000
     The Hubbard contrib.    to forces
     atom    1 type  1   force =     0.00000000    0.00000000    0.00000000
     atom    2 type  1   force =     0.00000000    0.00000000    0.00000000
     atom    3 type  1   force =     0.00000000    0.00000000    0.00000000
     atom    4 type  1   force =     0.00000000    0.00000000    0.00000000
     atom    5 type  1   force =     0.00000000    0.00000000    0.00000000
     atom    6 type  1   force =     0.00000000    0.00000000    0.00000000
     atom    7 type  1   force =     0.00000000    0.00000000    0.00000000
     atom    8 type  1   force =     0.00000000    0.00000000    0.00000000
     atom    9 type  1   force =     0.00000000    0.00000000    0.00000000
     atom   10 type  1   force =     0.00000000    0.00000000    0.00000000
     atom   11 type  1   force =     0.00000000    0.00000000    0.00000000
     atom   12 type  1   force =     0.00000000    0.00000000    0.00000000
     atom   13 type  1   force =     0.00000000    0.00000000    0.00000000
     atom   14 type  1   force =     0.00000000    0.00000000    0.00000000
     atom   15 type  1   force =     0.00000000    0.00000000    0.00000000
     atom   16 type  1   force =     0.00000000    0.00000000    0.00000000
     atom   17 type  1   force =     0.00000000    0.00000000    0.00000000
     atom   18 type  1   force =     0.00000000    0.00000000    0.00000000
     atom   19 type  1   force =     0.00000000    0.00000000    0.00000000
     atom   20 type  1   force =     0.00000000    0.00000000    0.00000000
     atom   21 type  1   force =     0.00000000    0.00000000    0.00000000
     atom   22 type  1   force =     0.00000000    0.00000000    0.00000000
     atom   23 type  1   force =     0.00000000    0.00000000    0.00000000
     atom   24 type  1   force =     0.00000000    0.00000000    0.00000000
     atom   25 type  1   force =     0.00000000    0.00000000    0.00000000
     atom   26 type  1   force =     0.00000000    0.00000000    0.00000000
     atom   27 type  1   force =     0.00000000    0.00000000    0.00000000
     atom   28 type  1   force =     0.00000000    0.00000000    0.00000000
     atom   29 type  1   force =     0.00000000    0.00000000    0.00000000
     atom   30 type  1   force =     0.00000000    0.00000000    0.00000000
     atom   31 type  1   force =     0.00000000    0.00000000    0.00000000
     atom   32 type  1   force =     0.00000000    0.00000000    0.00000000
     atom   33 type  1   force =     0.00000000    0.00000000    0.00000000
     atom   34 type  1   force =     0.00000000    0.00000000    0.00000000
     atom   35 type  1   force =     0.00000000    0.00000000    0.00000000
     atom   36 type  1   force =     0.00000000    0.00000000    0.00000000
     atom   37 type  2   force =     0.00000000    0.00000000    0.00000000
     atom   38 type  3   force =     0.00000000    0.00000000    0.00000000
     atom   39 type  4   force =     0.00000000    0.00000000    0.00000000
     The SCF correction term to forces
     atom    1 type  1   force =    -0.00000000    0.00000000   -0.00000000
     atom    2 type  1   force =     0.00000000    0.00000000   -0.00000000
     atom    3 type  1   force =    -0.00000000    0.00000000   -0.00000000
     atom    4 type  1   force =     0.00000000   -0.00000000   -0.00000000
     atom    5 type  1   force =    -0.00000000   -0.00000000   -0.00000000
     atom    6 type  1   force =    -0.00000000   -0.00000000   -0.00000000
     atom    7 type  1   force =    -0.00000000    0.00000000   -0.00000000
     atom    8 type  1   force =    -0.00000000   -0.00000000   -0.00000000
     atom    9 type  1   force =     0.00000000    0.00000000   -0.00000000
     atom   10 type  1   force =    -0.00000000   -0.00000000    0.00000000
     atom   11 type  1   force =    -0.00000000    0.00000000    0.00000000
     atom   12 type  1   force =     0.00000000    0.00000000    0.00000000
     atom   13 type  1   force =     0.00000000    0.00000000    0.00000000
     atom   14 type  1   force =    -0.00000000    0.00000000   -0.00000000
     atom   15 type  1   force =    -0.00000000   -0.00000000    0.00000000
     atom   16 type  1   force =     0.00000000   -0.00000000    0.00000000
     atom   17 type  1   force =    -0.00000000    0.00000000    0.00000000
     atom   18 type  1   force =     0.00000000   -0.00000000    0.00000000
     atom   19 type  1   force =    -0.00000000    0.00000000    0.00000000
     atom   20 type  1   force =     0.00000000    0.00000000    0.00000000
     atom   21 type  1   force =     0.00000000    0.00000000    0.00000000
     atom   22 type  1   force =     0.00000000    0.00000000    0.00000000
     atom   23 type  1   force =     0.00000000    0.00000000    0.00000000
     atom   24 type  1   force =    -0.00000000   -0.00000000    0.00000000
     atom   25 type  1   force =     0.00000000   -0.00000000    0.00000000
     atom   26 type  1   force =    -0.00000000   -0.00000000    0.00000000
     atom   27 type  1   force =    -0.00000000   -0.00000000    0.00000000
     atom   28 type  1   force =     0.00000000   -0.00000000    0.00000000
     atom   29 type  1   force =     0.00000000   -0.00000000    0.00000000
     atom   30 type  1   force =    -0.00000000    0.00000000    0.00000000
     atom   31 type  1   force =     0.00000000    0.00000000    0.00000000
     atom   32 type  1   force =     0.00000000    0.00000000    0.00000000
     atom   33 type  1   force =    -0.00000000    0.00000000    0.00000000
     atom   34 type  1   force =    -0.00000000   -0.00000000    0.00000000
     atom   35 type  1   force =     0.00000000   -0.00000000    0.00000000
     atom   36 type  1   force =    -0.00000000   -0.00000000    0.00000000
     atom   37 type  2   force =     0.00000329   -0.00000262    0.00004595
     atom   38 type  3   force =     0.00000365   -0.00000053    0.00001857
     atom   39 type  4   force =     0.00000145    0.00000124    0.00000529

     Total force =     0.011795     Total SCF correction =     0.000050

     Writing all to output data dir ./pwscf.save/

     init_run     :     17.52s CPU     18.00s WALL (       1 calls)
     electrons    :    886.13s CPU    900.10s WALL (       1 calls)
     forces       :      3.42s CPU      3.51s WALL (       1 calls)

     Called by init_run:
     wfcinit      :      8.94s CPU      9.26s WALL (       1 calls)
     potinit      :      7.49s CPU      7.61s WALL (       1 calls)
     hinit0       :      0.84s CPU      0.85s WALL (       1 calls)

     Called by electrons:
     c_bands      :    747.05s CPU    758.68s WALL (      46 calls)
     sum_band     :     92.00s CPU     93.38s WALL (      46 calls)
     v_of_rho     :     19.61s CPU     20.01s WALL (      47 calls)
     newd         :      2.56s CPU      2.61s WALL (      47 calls)
     PAW_pot      :     11.98s CPU     12.13s WALL (      47 calls)
     mix_rho      :     19.78s CPU     20.05s WALL (      46 calls)
     vdW_kernel   :      5.62s CPU      5.66s WALL (       1 calls)

     Called by c_bands:
     init_us_2    :      8.14s CPU      8.27s WALL (    2444 calls)
     init_us_2:cp :      8.13s CPU      8.27s WALL (    2444 calls)
     cegterg      :    721.58s CPU    732.70s WALL (    1196 calls)

     Called by *egterg:
     cdiaghg      :    190.07s CPU    191.50s WALL (    4388 calls)
     h_psi        :    342.49s CPU    350.22s WALL (    4414 calls)
     s_psi        :     34.81s CPU     35.27s WALL (    4414 calls)
     g_psi        :      0.87s CPU      0.89s WALL (    3192 calls)

     Called by h_psi:
     h_psi:calbec :     54.43s CPU     55.86s WALL (    4414 calls)
     vloc_psi     :    250.07s CPU    255.70s WALL (    4414 calls)
     add_vuspsi   :     35.80s CPU     36.40s WALL (    4414 calls)

     General routines
     calbec       :     78.98s CPU     80.78s WALL (    5714 calls)
     fft          :     11.99s CPU     12.35s WALL (    4260 calls)
     ffts         :     12.05s CPU     12.22s WALL (   18775 calls)
     fftw         :    289.82s CPU    295.78s WALL ( 1247398 calls)
     interpolate  :      0.36s CPU      0.37s WALL (      94 calls)

     Parallel routines

     PWSCF        :  15m19.08s CPU  15m39.08s WALL


   This run was terminated on:  20:53:11   7Dec2025            

=------------------------------------------------------------------------------=
   JOB DONE.
=------------------------------------------------------------------------------=
