
     Program PWSCF v.7.1 starts on  6Dec2025 at 14:24:35 
        Git branch: heads/qe-7.1
        Last git commit: 48ba0178f8fede6d020eb786884699a9f063f55d-dirty
        Last git commit date: Fri Jan 27 14:22:33 2023 +0000
        Last git commit subject: Merge branch 'fix_hubbard' into 'develop'

     This program is part of the open-source Quantum ESPRESSO suite
     for quantum simulation of materials; please cite
         "P. Giannozzi et al., J. Phys.:Condens. Matter 21 395502 (2009);
         "P. Giannozzi et al., J. Phys.:Condens. Matter 29 465901 (2017);
         "P. Giannozzi et al., J. Chem. Phys. 152 154105 (2020);
          URL http://www.quantum-espresso.org", 
     in publications or presentations arising from this work. More details at
     http://www.quantum-espresso.org/quote

     Parallel version (MPI), running on    96 processors

     MPI processes distributed on     2 nodes
     10376 MiB available memory on the printing compute node when the environment starts

     Reading input from espresso.pwi
Warning: card &CELL ignored
Warning: card / ignored
Warning: card &FCP ignored
Warning: card / ignored
Warning: card &RISM ignored
Warning: card / ignored

     Current dimensions of program PWSCF are:
     Max number of different atomic species (ntypx) = 10
     Max number of k-points (npk) =  40000
     Max angular momentum in pseudopotentials (lmaxx) =  4
     file Co.pbe-n-kjpaw_psl.1.0.0.UPF: wavefunction(s)  4S 3D renormalized
     file C.pbe-n-kjpaw_psl.1.0.0.UPF: wavefunction(s)  2S 2P renormalized
     file O.pbe-nl-kjpaw_psl.1.0.0.UPF: wavefunction(s)  2S 2P renormalized
     file H.pbe-kjpaw_psl.1.0.0.UPF: wavefunction(s)  1S renormalized

     **************************************************************************
     Initializing libbeef V0.1.2 with the BEEF-vdW functional.
     Citation: Wellendorff et al., PRB 85, 235149 (2012).
     **************************************************************************


     IMPORTANT: XC functional enforced from input :
     Exchange-correlation= BEEF-VDW
                           (   1   4  43  14   2   0   0)
     Any further DFT definition will be discarded
     Please, verify this is what you really want


     R & G space division:  proc/nbgrp/npool/nimage =      96
     Subspace diagonalization in iterative solution of the eigenvalue problem:
     one sub-group per band group will be used
     custom distributed-memory algorithm (size of sub-group:  2*  2 procs)


     Parallelization info
     --------------------
     sticks:   dense  smooth     PW     G-vecs:    dense   smooth      PW
     Min          43      23      6                 7829     3049     440
     Max          44      24      7                 7845     3068     465
     Sum        4153    2221    613               752179   293251   42993

     Using Slab Decomposition



     bravais-lattice index     =            0
     lattice parameter (alat)  =      14.1729  a.u.
     unit-cell volume          =    8574.3059 (a.u.)^3
     number of atoms/cell      =           39
     number of atomic types    =            4
     number of electrons       =       335.00
     number of Kohn-Sham states=          202
     kinetic-energy cutoff     =      40.0000  Ry
     charge density cutoff     =     300.0000  Ry
     scf convergence threshold =      1.0E-06
     mixing beta               =       0.7000
     number of iterations used =            8  local-TF  mixing
     Exchange-correlation= BEEF-VDW
                           (   1   4  43  14   2   0   0)

     celldm(1)=  14.172946  celldm(2)=   0.000000  celldm(3)=   0.000000
     celldm(4)=   0.000000  celldm(5)=   0.000000  celldm(6)=   0.000000

     crystal axes: (cart. coord. in units of alat)
               a(1) = (   1.000000   0.000000   0.000000 )  
               a(2) = (   0.500000   0.866025   0.000000 )  
               a(3) = (   0.000000   0.000000   3.477667 )  

     reciprocal axes: (cart. coord. in units 2 pi/alat)
               b(1) = (  1.000000 -0.577350  0.000000 )  
               b(2) = (  0.000000  1.154701  0.000000 )  
               b(3) = (  0.000000  0.000000  0.287549 )  


     PseudoPot. # 1 for Co read from file:
     /users/kbadger1/espresso/pseudo/pslibrary.1.0.0/pbe/PSEUDOPOTENTIALS/Co.pbe-n-kjpaw_psl.1.0.0.UPF
     MD5 check sum: 88af6ec42553d4236c267fdfcb472151
     Pseudo is Projector augmented-wave + core cor, Zval =  9.0
     Generated using 'atomic' code by A. Dal Corso  v.7.0
     Shape of augmentation charge: PSQ
     Using radial grid of 1193 points,  6 beta functions with: 
                l(1) =   0
                l(2) =   0
                l(3) =   1
                l(4) =   1
                l(5) =   2
                l(6) =   2
     Q(r) pseudized with 0 coefficients 


     PseudoPot. # 2 for C  read from file:
     /users/kbadger1/espresso/pseudo/pslibrary.1.0.0/pbe/PSEUDOPOTENTIALS/C.pbe-n-kjpaw_psl.1.0.0.UPF
     MD5 check sum: 6408e75cdba28732cea38a4db8498ce4
     Pseudo is Projector augmented-wave + core cor, Zval =  4.0
     Generated using 'atomic' code by A. Dal Corso  v.7.0
     Shape of augmentation charge: PSQ
     Using radial grid of 1073 points,  4 beta functions with: 
                l(1) =   0
                l(2) =   0
                l(3) =   1
                l(4) =   1
     Q(r) pseudized with 0 coefficients 


     PseudoPot. # 3 for O  read from file:
     /users/kbadger1/espresso/pseudo/pslibrary.1.0.0/pbe/PSEUDOPOTENTIALS/O.pbe-nl-kjpaw_psl.1.0.0.UPF
     MD5 check sum: f0439fab3598ca4e468f064226030408
     Pseudo is Projector augmented-wave + core cor, Zval =  6.0
     Generated using 'atomic' code by A. Dal Corso  v.7.0
     Shape of augmentation charge: PSQ
     Using radial grid of 1095 points,  4 beta functions with: 
                l(1) =   0
                l(2) =   0
                l(3) =   1
                l(4) =   1
     Q(r) pseudized with 0 coefficients 


     PseudoPot. # 4 for H  read from file:
     /users/kbadger1/espresso/pseudo/pslibrary.1.0.0/pbe/PSEUDOPOTENTIALS/H.pbe-kjpaw_psl.1.0.0.UPF
     MD5 check sum: fe4c6fa958fa6d3815bf5d2419cbf1df
     Pseudo is Projector augmented-wave, Zval =  1.0
     Generated using 'atomic' code by A. Dal Corso  v.7.0
     Shape of augmentation charge: PSQ
     Using radial grid of  929 points,  2 beta functions with: 
                l(1) =   0
                l(2) =   0
     Q(r) pseudized with 0 coefficients 


     atomic species   valence    mass     pseudopotential
        Co             9.00    58.93319     Co( 1.00)
        C              4.00    12.01100     C ( 1.00)
        O              6.00    15.99900     O ( 1.00)
        H              1.00     1.00800     H ( 1.00)

     Starting magnetic structure 
     atomic species   magnetization
        Co           1.000
        C            1.000
        O            0.000
        H            0.000

     No symmetry found



   Cartesian axes

     site n.     atom                  positions (alat units)
         1           Co  tau(   1) = (   0.0000000   0.1924501   1.3333333  )
         2           Co  tau(   2) = (   0.3333333   0.1924501   1.3333333  )
         3           Co  tau(   3) = (   0.6666667   0.1924501   1.3333333  )
         4           Co  tau(   4) = (   0.1666667   0.4811252   1.3333333  )
         5           Co  tau(   5) = (   0.5000000   0.4811252   1.3333333  )
         6           Co  tau(   6) = (   0.8333333   0.4811252   1.3333333  )
         7           Co  tau(   7) = (   0.3333333   0.7698004   1.3333333  )
         8           Co  tau(   8) = (   0.6666667   0.7698004   1.3333333  )
         9           Co  tau(   9) = (   1.0000000   0.7698004   1.3333333  )
        10           Co  tau(  10) = (   0.0000000   0.0000000   1.6036667  )
        11           Co  tau(  11) = (   0.3333333   0.0000000   1.6036667  )
        12           Co  tau(  12) = (   0.6666667   0.0000000   1.6036667  )
        13           Co  tau(  13) = (   0.1666667   0.2886751   1.6036667  )
        14           Co  tau(  14) = (   0.5000000   0.2886751   1.6036667  )
        15           Co  tau(  15) = (   0.8333333   0.2886751   1.6036667  )
        16           Co  tau(  16) = (   0.3333333   0.5773503   1.6036667  )
        17           Co  tau(  17) = (   0.6666667   0.5773503   1.6036667  )
        18           Co  tau(  18) = (   1.0000000   0.5773503   1.6036667  )
        19           Co  tau(  19) = (   0.0000000   0.1924501   1.8740000  )
        20           Co  tau(  20) = (   0.3333333   0.1924501   1.8740000  )
        21           Co  tau(  21) = (   0.6666667   0.1924501   1.8740000  )
        22           Co  tau(  22) = (   0.1666667   0.4811252   1.8740000  )
        23           Co  tau(  23) = (   0.5000000   0.4811252   1.8740000  )
        24           Co  tau(  24) = (   0.8333333   0.4811252   1.8740000  )
        25           Co  tau(  25) = (   0.3333333   0.7698004   1.8740000  )
        26           Co  tau(  26) = (   0.6666667   0.7698004   1.8740000  )
        27           Co  tau(  27) = (   1.0000000   0.7698004   1.8740000  )
        28           Co  tau(  28) = (   0.0000000   0.0000000   2.1443333  )
        29           Co  tau(  29) = (   0.3333333   0.0000000   2.1443333  )
        30           Co  tau(  30) = (   0.6666667   0.0000000   2.1443333  )
        31           Co  tau(  31) = (   0.1666667   0.2886751   2.1443333  )
        32           Co  tau(  32) = (   0.5000000   0.2886751   2.1443333  )
        33           Co  tau(  33) = (   0.8333333   0.2886751   2.1443333  )
        34           Co  tau(  34) = (   0.3333333   0.5773503   2.1443333  )
        35           Co  tau(  35) = (   0.6666667   0.5773503   2.1443333  )
        36           Co  tau(  36) = (   1.0000000   0.5773503   2.1443333  )
        37           C   tau(  37) = (   0.1855480  -0.0264207   2.3430711  )
        38           O   tau(  38) = (   0.0937538  -0.0412492   2.4758341  )
        39           H   tau(  39) = (   0.3487980   0.0032205   2.3704778  )

     number of k points=    13  Marzari-Vanderbilt smearing, width (Ry)=  0.0010
                       cart. coord. in units 2pi/alat
        k(    1) = (   0.0000000   0.0000000   0.0000000), wk =   0.0400000
        k(    2) = (   0.0000000   0.2309401   0.0000000), wk =   0.0800000
        k(    3) = (   0.0000000   0.4618802   0.0000000), wk =   0.0800000
        k(    4) = (   0.2000000  -0.1154701   0.0000000), wk =   0.0800000
        k(    5) = (   0.2000000   0.1154701   0.0000000), wk =   0.0800000
        k(    6) = (   0.2000000   0.3464102   0.0000000), wk =   0.0800000
        k(    7) = (   0.2000000  -0.5773503   0.0000000), wk =   0.0800000
        k(    8) = (   0.2000000  -0.3464102   0.0000000), wk =   0.0800000
        k(    9) = (   0.4000000  -0.2309401   0.0000000), wk =   0.0800000
        k(   10) = (   0.4000000   0.0000000   0.0000000), wk =   0.0800000
        k(   11) = (   0.4000000   0.2309401   0.0000000), wk =   0.0800000
        k(   12) = (   0.4000000  -0.6928203   0.0000000), wk =   0.0800000
        k(   13) = (   0.4000000  -0.4618802   0.0000000), wk =   0.0800000

     Dense  grid:   752179 G-vectors     FFT dimensions: (  80,  80, 288)

     Smooth grid:   293251 G-vectors     FFT dimensions: (  60,  60, 200)

     Estimated max dynamical RAM per process >      84.82 MB

     Estimated total dynamical RAM >       7.95 GB
     Generating pointlists ...
     new r_m :   0.0935 (alat units)  1.3253 (a.u.) for type    1
     new r_m :   0.0669 (alat units)  0.9476 (a.u.) for type    2
     new r_m :   0.0669 (alat units)  0.9476 (a.u.) for type    3
     new r_m :   0.0694 (alat units)  0.9832 (a.u.) for type    4

     Initial potential from superposition of free atoms

     starting charge     334.9897, renormalised to     335.0000

     negative rho (up, down):  3.045E-03 4.672E-04


     %%%%%%%%%%%%%%%%%%%%%%%%%%%%%%%%%%%%%%%%%%%%%%%%%%%%%%%%%%%%%%%%%%%%%%%%
     %                                                                      %
     % You are using vdW-DF, which was implemented by the Thonhauser group. %
     % Please cite the following two papers that made this development      %
     % possible and the two reviews that describe the various versions:     %
     %                                                                      %
     %   T. Thonhauser et al., PRL 115, 136402 (2015).                      %
     %   T. Thonhauser et al., PRB 76, 125112 (2007).                       %
     %   K. Berland et al., Rep. Prog. Phys. 78, 066501 (2015).             %
     %   D.C. Langreth et al., J. Phys.: Condens. Matter 21, 084203 (2009). %
     %                                                                      %
     % If you are calculating stress with vdW-DF, please also cite:         %
     %                                                                      %
     %   R. Sabatini et al., J. Phys.: Condens. Matter 24, 424209 (2012).   %
     %   C.M. Frostenson et al., Electr. Struct. 4, 014001 (2022).          %
     %                                                                      %
     %%%%%%%%%%%%%%%%%%%%%%%%%%%%%%%%%%%%%%%%%%%%%%%%%%%%%%%%%%%%%%%%%%%%%%%%

     %%%%%%%%%%%%%%%%%%%%%%%%%%%%%%%%%%%%%%%%%%%%%%%%%%%%%%%%%%%%%%%%%%%%%%%%
     %                                                                      %
     %  vdW-DF NEWS:                                                        %
     %                                                                      %
     %  * vdW-DF3 is now available. DOI: 10.1021/acs.jctc.0c00471           %
     %    use with input_dft = 'vdW-DF3-opt1' or 'vdW-DF3-opt2'             %
     %                                                                      %
     %  * Unscreened and range-separated hybrid vdW-DF-cx functionals       %
     %    DOI: 10.1063/1.4986522 and 10.1088/1361-648X/ac2ad2               %
     %    use with input_dft = 'vdW-DF-cx0'    and 'vdW-DF-ahcx'            %
     %  * Unscreened and range-separated hybrid vdW-DF2-b86r functionals    %
     %    DOI: 10.1063/1.4986522 and DOI: 10.1103/PhysRevX.12.041003        %
     %    use with input_dft = 'vdW-DF2-br0' and 'vdW-DF2-ahbr'             %
     %                                                                      %
     %%%%%%%%%%%%%%%%%%%%%%%%%%%%%%%%%%%%%%%%%%%%%%%%%%%%%%%%%%%%%%%%%%%%%%%%


     Starting wfcs are  333 randomized atomic wfcs
     Checking if some PAW data can be deallocated... 

     total cpu time spent up to now is       19.4 secs

     per-process dynamical memory:   213.6 Mb

     Self-consistent Calculation

     iteration #  1     ecut=    40.00 Ry     beta= 0.70
     Davidson diagonalization with overlap
     ethr =  1.00E-02,  avg # of iterations =  2.0

     negative rho (up, down):  5.852E-05 1.146E-06

     total cpu time spent up to now is       43.3 secs

     total energy              =   -6052.95996191 Ry
     estimated scf accuracy    <      39.66433964 Ry

     total magnetization       =    69.00 Bohr mag/cell
     absolute magnetization    =    81.36 Bohr mag/cell

     iteration #  2     ecut=    40.00 Ry     beta= 0.70
     Davidson diagonalization with overlap
     ethr =  1.00E-02,  avg # of iterations =  1.0

     negative rho (up, down):  2.334E-05 6.754E-07

     total cpu time spent up to now is       55.1 secs

     total energy              =   -6052.44514467 Ry
     estimated scf accuracy    <      24.56040392 Ry

     total magnetization       =    68.52 Bohr mag/cell
     absolute magnetization    =    76.71 Bohr mag/cell

     iteration #  3     ecut=    40.00 Ry     beta= 0.70
     Davidson diagonalization with overlap
     ethr =  7.33E-03,  avg # of iterations =  1.1

     negative rho (up, down):  1.180E-06 1.994E-06

     total cpu time spent up to now is       76.1 secs

     total energy              =   -6054.99006007 Ry
     estimated scf accuracy    <      86.55924124 Ry

     total magnetization       =    65.81 Bohr mag/cell
     absolute magnetization    =    73.17 Bohr mag/cell

     iteration #  4     ecut=    40.00 Ry     beta= 0.70
     Davidson diagonalization with overlap
     ethr =  7.33E-03,  avg # of iterations =  1.0

     negative rho (up, down):  1.325E-06 5.739E-07

     total cpu time spent up to now is       88.3 secs

     total energy              =   -6056.23327305 Ry
     estimated scf accuracy    <       5.42102517 Ry

     total magnetization       =    60.53 Bohr mag/cell
     absolute magnetization    =    70.49 Bohr mag/cell

     iteration #  5     ecut=    40.00 Ry     beta= 0.70
     Davidson diagonalization with overlap
     ethr =  1.62E-03,  avg # of iterations =  1.3

     negative rho (up, down):  1.208E-06 5.182E-07

     total cpu time spent up to now is      109.6 secs

     total energy              =   -6056.24595694 Ry
     estimated scf accuracy    <       2.56219914 Ry

     total magnetization       =    60.25 Bohr mag/cell
     absolute magnetization    =    69.76 Bohr mag/cell

     iteration #  6     ecut=    40.00 Ry     beta= 0.70
     Davidson diagonalization with overlap
     ethr =  7.65E-04,  avg # of iterations =  1.6

     negative rho (up, down):  1.156E-06 5.497E-07

     total cpu time spent up to now is      122.0 secs

     total energy              =   -6056.36809304 Ry
     estimated scf accuracy    <       0.56337029 Ry

     total magnetization       =    60.20 Bohr mag/cell
     absolute magnetization    =    69.47 Bohr mag/cell

     iteration #  7     ecut=    40.00 Ry     beta= 0.70
     Davidson diagonalization with overlap
     ethr =  1.68E-04,  avg # of iterations =  6.4

     negative rho (up, down):  9.714E-07 5.324E-07

     total cpu time spent up to now is      147.8 secs

     total energy              =   -6056.40677519 Ry
     estimated scf accuracy    <       0.92360083 Ry

     total magnetization       =    60.36 Bohr mag/cell
     absolute magnetization    =    69.13 Bohr mag/cell

     iteration #  8     ecut=    40.00 Ry     beta= 0.70
     Davidson diagonalization with overlap
     ethr =  1.68E-04,  avg # of iterations =  1.5

     negative rho (up, down):  4.169E-07 2.316E-07

     total cpu time spent up to now is      168.8 secs

     total energy              =   -6056.41789670 Ry
     estimated scf accuracy    <       0.13622982 Ry

     total magnetization       =    60.65 Bohr mag/cell
     absolute magnetization    =    69.16 Bohr mag/cell

     iteration #  9     ecut=    40.00 Ry     beta= 0.70
     Davidson diagonalization with overlap
     c_bands:  1 eigenvalues not converged
     c_bands:  3 eigenvalues not converged
     c_bands:  3 eigenvalues not converged
     c_bands:  4 eigenvalues not converged
     ethr =  4.07E-05,  avg # of iterations = 11.8

     negative rho (up, down):  2.736E-07 1.355E-07

     total cpu time spent up to now is      201.1 secs

     total energy              =   -6056.42373371 Ry
     estimated scf accuracy    <       0.20719952 Ry

     total magnetization       =    61.09 Bohr mag/cell
     absolute magnetization    =    69.13 Bohr mag/cell

     iteration # 10     ecut=    40.00 Ry     beta= 0.70
     Davidson diagonalization with overlap
     ethr =  4.07E-05,  avg # of iterations =  2.1

     negative rho (up, down):  2.920E-07 1.714E-07

     total cpu time spent up to now is      222.8 secs

     total energy              =   -6056.43237457 Ry
     estimated scf accuracy    <       0.23426613 Ry

     total magnetization       =    61.21 Bohr mag/cell
     absolute magnetization    =    69.05 Bohr mag/cell

     iteration # 11     ecut=    40.00 Ry     beta= 0.70
     Davidson diagonalization with overlap
     ethr =  4.07E-05,  avg # of iterations =  1.3

     negative rho (up, down):  1.381E-07 7.877E-08

     total cpu time spent up to now is      235.5 secs

     total energy              =   -6056.42454593 Ry
     estimated scf accuracy    <       0.13031005 Ry

     total magnetization       =    61.14 Bohr mag/cell
     absolute magnetization    =    68.92 Bohr mag/cell

     iteration # 12     ecut=    40.00 Ry     beta= 0.70
     Davidson diagonalization with overlap
     ethr =  3.89E-05,  avg # of iterations =  1.8

     negative rho (up, down):  1.408E-07 6.636E-08

     total cpu time spent up to now is      256.7 secs

     total energy              =   -6056.42838225 Ry
     estimated scf accuracy    <       0.07793214 Ry

     total magnetization       =    61.09 Bohr mag/cell
     absolute magnetization    =    68.68 Bohr mag/cell

     iteration # 13     ecut=    40.00 Ry     beta= 0.70
     Davidson diagonalization with overlap
     ethr =  2.33E-05,  avg # of iterations =  1.6

     total cpu time spent up to now is      268.7 secs

     total energy              =   -6056.42768119 Ry
     estimated scf accuracy    <       0.08066887 Ry

     total magnetization       =    61.09 Bohr mag/cell
     absolute magnetization    =    68.61 Bohr mag/cell

     iteration # 14     ecut=    40.00 Ry     beta= 0.70
     Davidson diagonalization with overlap
     ethr =  2.33E-05,  avg # of iterations =  2.2

     negative rho (up, down):  1.307E-05 8.113E-07

     total cpu time spent up to now is      290.0 secs

     total energy              =   -6056.42406119 Ry
     estimated scf accuracy    <       0.08762956 Ry

     total magnetization       =    61.14 Bohr mag/cell
     absolute magnetization    =    68.66 Bohr mag/cell

     iteration # 15     ecut=    40.00 Ry     beta= 0.70
     Davidson diagonalization with overlap
     ethr =  2.33E-05,  avg # of iterations =  1.5

     negative rho (up, down):  4.510E-03 3.068E-03

     total cpu time spent up to now is      303.0 secs

     total energy              =   -6056.42087144 Ry
     estimated scf accuracy    <       0.12772369 Ry

     total magnetization       =    61.09 Bohr mag/cell
     absolute magnetization    =    68.57 Bohr mag/cell

     iteration # 16     ecut=    40.00 Ry     beta= 0.70
     Davidson diagonalization with overlap
     ethr =  2.33E-05,  avg # of iterations =  1.4

     negative rho (up, down):  1.608E-02 1.417E-02

     total cpu time spent up to now is      323.1 secs

     total energy              =   -6056.41991399 Ry
     estimated scf accuracy    <       0.06412926 Ry

     total magnetization       =    61.10 Bohr mag/cell
     absolute magnetization    =    68.52 Bohr mag/cell

     iteration # 17     ecut=    40.00 Ry     beta= 0.70
     Davidson diagonalization with overlap
     c_bands:  3 eigenvalues not converged
     c_bands:  3 eigenvalues not converged
     ethr =  1.91E-05,  avg # of iterations =  4.2

     negative rho (up, down):  3.182E-02 2.954E-02

     total cpu time spent up to now is      346.0 secs

     total energy              =   -6056.42061447 Ry
     estimated scf accuracy    <       0.03021571 Ry

     total magnetization       =    61.11 Bohr mag/cell
     absolute magnetization    =    68.51 Bohr mag/cell

     iteration # 18     ecut=    40.00 Ry     beta= 0.70
     Davidson diagonalization with overlap
     c_bands:  1 eigenvalues not converged
     ethr =  9.02E-06,  avg # of iterations =  5.8

     negative rho (up, down):  1.962E-02 1.821E-02

     total cpu time spent up to now is      368.4 secs

     total energy              =   -6056.42082523 Ry
     estimated scf accuracy    <       0.06043890 Ry

     total magnetization       =    61.15 Bohr mag/cell
     absolute magnetization    =    68.48 Bohr mag/cell

     iteration # 19     ecut=    40.00 Ry     beta= 0.70
     Davidson diagonalization with overlap
     ethr =  9.02E-06,  avg # of iterations =  1.2

     negative rho (up, down):  1.290E-02 1.176E-02

     total cpu time spent up to now is      383.1 secs

     total energy              =   -6056.42110991 Ry
     estimated scf accuracy    <       0.01552068 Ry

     total magnetization       =    61.15 Bohr mag/cell
     absolute magnetization    =    68.51 Bohr mag/cell

     iteration # 20     ecut=    40.00 Ry     beta= 0.70
     Davidson diagonalization with overlap
     ethr =  4.63E-06,  avg # of iterations =  2.8

     negative rho (up, down):  9.618E-03 8.768E-03

     total cpu time spent up to now is      404.8 secs

     total energy              =   -6056.42047955 Ry
     estimated scf accuracy    <       0.02151280 Ry

     total magnetization       =    61.11 Bohr mag/cell
     absolute magnetization    =    68.49 Bohr mag/cell

     iteration # 21     ecut=    40.00 Ry     beta= 0.70
     Davidson diagonalization with overlap
     ethr =  4.63E-06,  avg # of iterations =  1.5

     negative rho (up, down):  4.360E-03 3.701E-03

     total cpu time spent up to now is      417.5 secs

     total energy              =   -6056.42066780 Ry
     estimated scf accuracy    <       0.01160619 Ry

     total magnetization       =    61.12 Bohr mag/cell
     absolute magnetization    =    68.50 Bohr mag/cell

     iteration # 22     ecut=    40.00 Ry     beta= 0.70
     Davidson diagonalization with overlap
     c_bands:  1 eigenvalues not converged
     ethr =  3.46E-06,  avg # of iterations =  2.7

     negative rho (up, down):  6.153E-03 5.721E-03

     total cpu time spent up to now is      439.1 secs

     total energy              =   -6056.42106039 Ry
     estimated scf accuracy    <       0.01119964 Ry

     total magnetization       =    61.15 Bohr mag/cell
     absolute magnetization    =    68.53 Bohr mag/cell

     iteration # 23     ecut=    40.00 Ry     beta= 0.70
     Davidson diagonalization with overlap
     ethr =  3.34E-06,  avg # of iterations =  2.0

     negative rho (up, down):  9.807E-03 9.361E-03

     total cpu time spent up to now is      451.6 secs

     total energy              =   -6056.42146469 Ry
     estimated scf accuracy    <       0.00606321 Ry

     total magnetization       =    61.14 Bohr mag/cell
     absolute magnetization    =    68.52 Bohr mag/cell

     iteration # 24     ecut=    40.00 Ry     beta= 0.70
     Davidson diagonalization with overlap
     ethr =  1.81E-06,  avg # of iterations =  1.8

     negative rho (up, down):  5.306E-03 4.693E-03

     total cpu time spent up to now is      472.4 secs

     total energy              =   -6056.42133684 Ry
     estimated scf accuracy    <       0.00251213 Ry

     total magnetization       =    61.13 Bohr mag/cell
     absolute magnetization    =    68.51 Bohr mag/cell

     iteration # 25     ecut=    40.00 Ry     beta= 0.70
     Davidson diagonalization with overlap
     ethr =  7.50E-07,  avg # of iterations =  2.7

     negative rho (up, down):  3.854E-03 3.172E-03

     total cpu time spent up to now is      495.0 secs

     total energy              =   -6056.42110173 Ry
     estimated scf accuracy    <       0.00392961 Ry

     total magnetization       =    61.14 Bohr mag/cell
     absolute magnetization    =    68.52 Bohr mag/cell

     iteration # 26     ecut=    40.00 Ry     beta= 0.70
     Davidson diagonalization with overlap
     ethr =  7.50E-07,  avg # of iterations =  1.3

     negative rho (up, down):  3.679E-03 2.965E-03

     total cpu time spent up to now is      506.6 secs

     total energy              =   -6056.42149562 Ry
     estimated scf accuracy    <       0.00196741 Ry

     total magnetization       =    61.14 Bohr mag/cell
     absolute magnetization    =    68.52 Bohr mag/cell

     iteration # 27     ecut=    40.00 Ry     beta= 0.70
     Davidson diagonalization with overlap
     ethr =  5.87E-07,  avg # of iterations =  1.5

     negative rho (up, down):  3.930E-03 3.056E-03

     total cpu time spent up to now is      527.1 secs

     total energy              =   -6056.42170323 Ry
     estimated scf accuracy    <       0.00199102 Ry

     total magnetization       =    61.15 Bohr mag/cell
     absolute magnetization    =    68.53 Bohr mag/cell

     iteration # 28     ecut=    40.00 Ry     beta= 0.70
     Davidson diagonalization with overlap
     ethr =  5.87E-07,  avg # of iterations =  1.3

     negative rho (up, down):  3.139E-03 2.077E-03

     total cpu time spent up to now is      539.8 secs

     total energy              =   -6056.42178445 Ry
     estimated scf accuracy    <       0.00007022 Ry

     total magnetization       =    61.15 Bohr mag/cell
     absolute magnetization    =    68.53 Bohr mag/cell

     iteration # 29     ecut=    40.00 Ry     beta= 0.70
     Davidson diagonalization with overlap
     c_bands:  1 eigenvalues not converged
     c_bands:  1 eigenvalues not converged
     ethr =  2.10E-08,  avg # of iterations =  8.9

     negative rho (up, down):  2.617E-03 1.623E-03

     total cpu time spent up to now is      584.1 secs

     total energy              =   -6056.42177198 Ry
     estimated scf accuracy    <       0.00056429 Ry

     total magnetization       =    61.15 Bohr mag/cell
     absolute magnetization    =    68.53 Bohr mag/cell

     iteration # 30     ecut=    40.00 Ry     beta= 0.70
     Davidson diagonalization with overlap
     ethr =  2.10E-08,  avg # of iterations =  1.8

     negative rho (up, down):  2.609E-03 1.581E-03

     total cpu time spent up to now is      596.3 secs

     total energy              =   -6056.42179445 Ry
     estimated scf accuracy    <       0.00004573 Ry

     total magnetization       =    61.15 Bohr mag/cell
     absolute magnetization    =    68.53 Bohr mag/cell

     iteration # 31     ecut=    40.00 Ry     beta= 0.70
     Davidson diagonalization with overlap
     ethr =  1.36E-08,  avg # of iterations =  1.1

     negative rho (up, down):  2.495E-03 1.447E-03

     total cpu time spent up to now is      617.1 secs

     total energy              =   -6056.42179936 Ry
     estimated scf accuracy    <       0.00001864 Ry

     total magnetization       =    61.15 Bohr mag/cell
     absolute magnetization    =    68.52 Bohr mag/cell

     iteration # 32     ecut=    40.00 Ry     beta= 0.70
     Davidson diagonalization with overlap
     ethr =  5.57E-09,  avg # of iterations =  2.5

     negative rho (up, down):  2.257E-03 1.158E-03

     total cpu time spent up to now is      630.0 secs

     total energy              =   -6056.42181530 Ry
     estimated scf accuracy    <       0.00001403 Ry

     total magnetization       =    61.15 Bohr mag/cell
     absolute magnetization    =    68.52 Bohr mag/cell

     iteration # 33     ecut=    40.00 Ry     beta= 0.70
     Davidson diagonalization with overlap
     ethr =  4.19E-09,  avg # of iterations =  2.7

     negative rho (up, down):  2.327E-03 1.230E-03

     total cpu time spent up to now is      651.9 secs

     total energy              =   -6056.42182071 Ry
     estimated scf accuracy    <       0.00001720 Ry

     total magnetization       =    61.15 Bohr mag/cell
     absolute magnetization    =    68.52 Bohr mag/cell

     iteration # 34     ecut=    40.00 Ry     beta= 0.70
     Davidson diagonalization with overlap
     ethr =  4.19E-09,  avg # of iterations =  1.9

     negative rho (up, down):  2.367E-03 1.255E-03

     total cpu time spent up to now is      673.9 secs

     total energy              =   -6056.42181991 Ry
     estimated scf accuracy    <       0.00001828 Ry

     total magnetization       =    61.15 Bohr mag/cell
     absolute magnetization    =    68.52 Bohr mag/cell

     iteration # 35     ecut=    40.00 Ry     beta= 0.70
     Davidson diagonalization with overlap
     ethr =  4.19E-09,  avg # of iterations =  1.1

     negative rho (up, down):  2.318E-03 1.210E-03

     total cpu time spent up to now is      685.4 secs

     total energy              =   -6056.42182093 Ry
     estimated scf accuracy    <       0.00000430 Ry

     total magnetization       =    61.15 Bohr mag/cell
     absolute magnetization    =    68.52 Bohr mag/cell

     iteration # 36     ecut=    40.00 Ry     beta= 0.70
     Davidson diagonalization with overlap
     ethr =  1.28E-09,  avg # of iterations =  2.8

     negative rho (up, down):  2.286E-03 1.177E-03

     total cpu time spent up to now is      707.1 secs

     total energy              =   -6056.42182059 Ry
     estimated scf accuracy    <       0.00000573 Ry

     total magnetization       =    61.15 Bohr mag/cell
     absolute magnetization    =    68.52 Bohr mag/cell

     iteration # 37     ecut=    40.00 Ry     beta= 0.70
     Davidson diagonalization with overlap
     ethr =  1.28E-09,  avg # of iterations =  1.8

     negative rho (up, down):  2.308E-03 1.203E-03

     total cpu time spent up to now is      719.4 secs

     total energy              =   -6056.42182149 Ry
     estimated scf accuracy    <       0.00000710 Ry

     total magnetization       =    61.15 Bohr mag/cell
     absolute magnetization    =    68.52 Bohr mag/cell

     iteration # 38     ecut=    40.00 Ry     beta= 0.70
     Davidson diagonalization with overlap
     ethr =  1.28E-09,  avg # of iterations =  1.3

     negative rho (up, down):  2.307E-03 1.206E-03

     total cpu time spent up to now is      740.6 secs

     total energy              =   -6056.42182198 Ry
     estimated scf accuracy    <       0.00000148 Ry

     total magnetization       =    61.15 Bohr mag/cell
     absolute magnetization    =    68.52 Bohr mag/cell

     iteration # 39     ecut=    40.00 Ry     beta= 0.70
     Davidson diagonalization with overlap
     ethr =  4.41E-10,  avg # of iterations =  2.5

     negative rho (up, down):  2.313E-03 1.217E-03

     total cpu time spent up to now is      762.1 secs

     total energy              =   -6056.42182208 Ry
     estimated scf accuracy    <       0.00000138 Ry

     total magnetization       =    61.15 Bohr mag/cell
     absolute magnetization    =    68.52 Bohr mag/cell

     iteration # 40     ecut=    40.00 Ry     beta= 0.70
     Davidson diagonalization with overlap
     ethr =  4.11E-10,  avg # of iterations =  3.3

     negative rho (up, down):  2.315E-03 1.225E-03

     total cpu time spent up to now is      775.9 secs

     total energy              =   -6056.42182201 Ry
     estimated scf accuracy    <       0.00000650 Ry

     total magnetization       =    61.15 Bohr mag/cell
     absolute magnetization    =    68.52 Bohr mag/cell

     iteration # 41     ecut=    40.00 Ry     beta= 0.70
     Davidson diagonalization with overlap
     ethr =  4.11E-10,  avg # of iterations =  1.7

     negative rho (up, down):  2.231E-03 1.138E-03

     Magnetic moment per site  (integrated on atomic sphere of radius R)
     atom   1 (R=0.094)  charge=  5.8177  magn=  1.6908
     atom   2 (R=0.094)  charge=  5.8183  magn=  1.6874
     atom   3 (R=0.094)  charge=  5.8181  magn=  1.6947
     atom   4 (R=0.094)  charge=  5.8190  magn=  1.6972
     atom   5 (R=0.094)  charge=  5.8182  magn=  1.6954
     atom   6 (R=0.094)  charge=  5.8190  magn=  1.6915
     atom   7 (R=0.094)  charge=  5.8180  magn=  1.6922
     atom   8 (R=0.094)  charge=  5.8186  magn=  1.6830
     atom   9 (R=0.094)  charge=  5.8190  magn=  1.6884
     atom  10 (R=0.094)  charge=  5.8153  magn=  1.6204
     atom  11 (R=0.094)  charge=  5.8164  magn=  1.6247
     atom  12 (R=0.094)  charge=  5.8161  magn=  1.6278
     atom  13 (R=0.094)  charge=  5.8156  magn=  1.6268
     atom  14 (R=0.094)  charge=  5.8160  magn=  1.6273
     atom  15 (R=0.094)  charge=  5.8157  magn=  1.6246
     atom  16 (R=0.094)  charge=  5.8161  magn=  1.6186
     atom  17 (R=0.094)  charge=  5.8158  magn=  1.6237
     atom  18 (R=0.094)  charge=  5.8162  magn=  1.6217
     atom  19 (R=0.094)  charge=  5.8144  magn=  1.6337
     atom  20 (R=0.094)  charge=  5.8145  magn=  1.6205
     atom  21 (R=0.094)  charge=  5.8149  magn=  1.6335
     atom  22 (R=0.094)  charge=  5.8156  magn=  1.6350
     atom  23 (R=0.094)  charge=  5.8154  magn=  1.6330
     atom  24 (R=0.094)  charge=  5.8153  magn=  1.6360
     atom  25 (R=0.094)  charge=  5.8135  magn=  1.6314
     atom  26 (R=0.094)  charge=  5.8122  magn=  1.6359
     atom  27 (R=0.094)  charge=  5.8140  magn=  1.6170
     atom  28 (R=0.094)  charge=  5.8316  magn=  1.4262
     atom  29 (R=0.094)  charge=  5.8378  magn=  1.0352
     atom  30 (R=0.094)  charge=  5.8192  magn=  1.6820
     atom  31 (R=0.094)  charge=  5.8221  magn=  1.6937
     atom  32 (R=0.094)  charge=  5.8199  magn=  1.6982
     atom  33 (R=0.094)  charge=  5.8171  magn=  1.7007
     atom  34 (R=0.094)  charge=  5.8186  magn=  1.6982
     atom  35 (R=0.094)  charge=  5.8250  magn=  1.6453
     atom  36 (R=0.094)  charge=  5.8205  magn=  1.7065
     atom  37 (R=0.067)  charge=  1.0995  magn= -0.0164
     atom  38 (R=0.067)  charge=  3.0183  magn= -0.0110
     atom  39 (R=0.069)  charge=  0.5586  magn=  0.0023

     total cpu time spent up to now is      797.1 secs

     End of self-consistent calculation

 ------ SPIN UP ------------


          k = 0.0000 0.0000 0.0000 ( 36693 PWs)   bands (ev):

   -21.8844 -10.6079  -7.5866  -6.8950  -6.3462  -5.8051  -5.4036  -4.7448
    -4.7137  -4.7119  -4.7098  -4.6971  -4.6931  -4.6571  -4.3480  -4.1784
    -4.1759  -4.1736  -4.1525  -4.1480  -4.1117  -3.6580  -3.6552  -3.6522
    -3.6442  -3.6370  -3.6025  -3.5303  -3.5217  -3.5191  -3.5173  -3.5144
    -3.4818  -3.4507  -3.4488  -3.1397  -3.1366  -3.1317  -3.1310  -3.1126
    -3.0713  -3.0690  -3.0640  -3.0621  -3.0585  -3.0557  -3.0510  -2.9065
    -2.9053  -2.8792  -2.8424  -2.8325  -2.8260  -2.8237  -2.8192  -2.8042
    -2.7936  -2.7933  -2.7911  -2.7140  -2.6958  -2.6913  -2.6847  -2.6798
    -2.6415  -2.4653  -2.1650  -2.1599  -2.1528  -2.1470  -2.1407  -2.0474
    -2.0298  -2.0198  -2.0070  -1.9958  -1.9865  -1.9767  -1.9764  -1.9708
    -1.9489  -1.9186  -1.9156  -1.8728  -1.8659  -1.8605  -1.8461  -1.8401
    -1.8387  -1.8307  -1.8261  -1.8244  -1.8201  -1.7977  -1.7940  -1.7898
    -1.7860  -1.7826  -1.7818  -1.7813  -1.7768  -1.7730  -1.7724  -1.7709
    -1.7674  -1.7470  -1.7265  -1.6949  -1.6871  -1.6182  -1.6140  -1.5481
    -1.4106  -1.3312  -1.3232  -1.3216  -1.3205  -1.3185  -1.3129  -1.2946
    -1.2888  -1.2857  -1.2600  -1.2443  -1.2339  -1.2225  -1.1132  -1.1097
    -1.0799  -1.0746  -0.9832  -0.9318  -0.9152  -0.9039  -0.9018  -0.8859
    -0.8419  -0.8330  -0.8277  -0.8228  -0.8193  -0.7996  -0.7137  -0.7082
    -0.6117  -0.5852  -0.5831  -0.5814  -0.5633  -0.5473  -0.5239  -0.5224
    -0.5179  -0.5164  -0.5119  -0.5051  -0.4995  -0.4983  -0.4964  -0.4926
    -0.4870  -0.4830  -0.4694  -0.4586  -0.4475  -0.4380  -0.4353  -0.4290
    -0.4199  -0.4084  -0.3976  -0.3932  -0.3876  -0.3821  -0.3645  -0.3624
    -0.3578  -0.3543  -0.3421  -0.3240  -0.3036  -0.2893  -0.2853  -0.2800
    -0.2766  -0.2730  -0.2649  -0.2601  -0.2485  -0.2373  -0.2013  -0.1996
    -0.1880  -0.1872  -0.1251  -0.1219  -0.1187  -0.1073  -0.1051  -0.0838
     0.3595   1.0514

          k = 0.0000 0.2309 0.0000 ( 36641 PWs)   bands (ev):

   -21.8843 -10.6060  -7.4406  -6.8880  -6.2601  -5.7936  -5.4673  -5.3594
    -4.9582  -4.9548  -4.5965  -4.4478  -4.3692  -4.3676  -4.2993  -4.2471
    -4.2062  -4.1938  -4.0924  -4.0460  -4.0405  -3.7746  -3.6643  -3.6578
    -3.5840  -3.5552  -3.5393  -3.5331  -3.5306  -3.5138  -3.5036  -3.4906
    -3.4539  -3.4134  -3.4077  -3.3788  -3.3772  -3.1966  -3.1532  -3.1490
    -3.0989  -3.0944  -3.0908  -3.0863  -3.0251  -2.9770  -2.9631  -2.9425
    -2.9264  -2.9229  -2.8955  -2.8850  -2.7944  -2.7887  -2.7631  -2.7363
    -2.7213  -2.6987  -2.6890  -2.6762  -2.6649  -2.6414  -2.6173  -2.6122
    -2.5531  -2.4611  -2.2752  -2.2638  -2.2508  -2.2378  -2.1937  -2.1276
    -2.1178  -2.1125  -2.1004  -2.0889  -2.0849  -2.0696  -2.0556  -2.0037
    -1.9805  -1.9751  -1.9559  -1.9199  -1.9139  -1.9117  -1.9021  -1.8866
    -1.8757  -1.8696  -1.8660  -1.8625  -1.8563  -1.8330  -1.8018  -1.7802
    -1.7632  -1.7459  -1.6980  -1.6898  -1.6778  -1.6710  -1.6645  -1.6582
    -1.6457  -1.6326  -1.6261  -1.6259  -1.6176  -1.6034  -1.5817  -1.5787
    -1.5579  -1.5531  -1.5399  -1.4720  -1.4557  -1.4173  -1.3533  -1.3484
    -1.3401  -1.3331  -1.3242  -1.3164  -1.3130  -1.3030  -1.2394  -1.1742
    -1.1577  -1.1344  -1.0621  -1.0570  -1.0360  -0.9911  -0.9687  -0.9592
    -0.9282  -0.8727  -0.8578  -0.8394  -0.8262  -0.8123  -0.7799  -0.7735
    -0.7580  -0.7454  -0.7291  -0.6907  -0.6874  -0.6749  -0.6659  -0.6535
    -0.6324  -0.5932  -0.5871  -0.5783  -0.5733  -0.5500  -0.5232  -0.5203
    -0.5107  -0.5025  -0.4974  -0.4880  -0.4697  -0.4619  -0.4465  -0.4322
    -0.3955  -0.3861  -0.3706  -0.3457  -0.3259  -0.3173  -0.2883  -0.2662
    -0.2609  -0.2564  -0.2471  -0.2408  -0.2211  -0.2168  -0.2048  -0.1689
    -0.1543  -0.1233  -0.1148  -0.1069  -0.0892  -0.0879  -0.0535  -0.0368
     0.0010   0.0191   0.2435   0.2570   0.3502   0.4517   0.5006   0.5339
     0.5519   0.8071

          k = 0.0000 0.4619 0.0000 ( 36606 PWs)   bands (ev):

   -21.8843 -10.6032  -7.0369  -6.8581  -6.3344  -6.0621  -5.6215  -5.3383
    -5.1031  -5.0901  -4.9668  -4.2574  -4.2045  -4.1958  -4.1849  -4.1192
    -4.0094  -4.0079  -3.9647  -3.8776  -3.8720  -3.8656  -3.7691  -3.6959
    -3.6919  -3.6774  -3.6765  -3.6267  -3.5692  -3.5656  -3.5492  -3.4099
    -3.4033  -3.3940  -3.3870  -3.3568  -3.3538  -3.2616  -3.2445  -3.2407
    -3.2315  -3.2264  -3.1197  -3.0263  -3.0180  -2.9356  -2.9215  -2.9010
    -2.8850  -2.8601  -2.8422  -2.8390  -2.8258  -2.8064  -2.7616  -2.7448
    -2.7216  -2.6794  -2.6725  -2.6005  -2.5332  -2.5216  -2.5115  -2.4824
    -2.4416  -2.4140  -2.3898  -2.3798  -2.3557  -2.2912  -2.2559  -2.2458
    -2.2389  -2.2343  -2.2256  -2.2049  -2.1965  -2.1911  -2.1563  -2.1424
    -2.1091  -2.0873  -2.0729  -2.0485  -2.0195  -2.0095  -1.9580  -1.9271
    -1.9139  -1.9099  -1.8812  -1.8674  -1.8422  -1.8117  -1.8034  -1.7945
    -1.7887  -1.7697  -1.7627  -1.7372  -1.7237  -1.7149  -1.7080  -1.6946
    -1.6749  -1.6579  -1.6132  -1.6039  -1.5512  -1.5337  -1.5173  -1.5075
    -1.4787  -1.4607  -1.4409  -1.4013  -1.3907  -1.3709  -1.3651  -1.3612
    -1.3586  -1.3512  -1.3413  -1.3350  -1.3277  -1.3194  -1.3098  -1.2973
    -1.2907  -1.2617  -1.1948  -1.1614  -1.1352  -1.1257  -1.1090  -1.0960
    -1.0623  -1.0302  -1.0001  -0.9867  -0.9765  -0.9344  -0.9063  -0.8610
    -0.8530  -0.8253  -0.8140  -0.7843  -0.7714  -0.7541  -0.7260  -0.6923
    -0.6399  -0.6077  -0.6036  -0.5977  -0.5839  -0.5789  -0.5689  -0.5613
    -0.5511  -0.5403  -0.4558  -0.4349  -0.4206  -0.4106  -0.4073  -0.4033
    -0.3929  -0.3806  -0.3567  -0.3531  -0.3378  -0.3250  -0.2529  -0.2380
    -0.2314  -0.2202  -0.1998  -0.1599  -0.1342  -0.1154  -0.0967  -0.0631
    -0.0541  -0.0187  -0.0144   0.0030   0.0068   0.0137   0.0214   0.0632
     0.1232   0.1438   0.3329   0.8303   1.0680   1.2078   1.2424   1.3645
     1.4646   1.5956

          k = 0.2000-0.1155 0.0000 ( 36641 PWs)   bands (ev):

   -21.8843 -10.6060  -7.4417  -6.8902  -6.2551  -5.7787  -5.4830  -5.3609
    -4.9573  -4.9511  -4.5953  -4.4632  -4.3701  -4.3656  -4.3003  -4.2547
    -4.2087  -4.1736  -4.1014  -4.0465  -4.0316  -3.7778  -3.6659  -3.6555
    -3.5800  -3.5601  -3.5382  -3.5332  -3.5303  -3.5241  -3.5040  -3.4824
    -3.4589  -3.4147  -3.4049  -3.3797  -3.3769  -3.1885  -3.1536  -3.1494
    -3.1162  -3.0949  -3.0915  -3.0824  -3.0115  -2.9972  -2.9618  -2.9371
    -2.9264  -2.9187  -2.9018  -2.8859  -2.8045  -2.7865  -2.7673  -2.7365
    -2.7207  -2.6969  -2.6837  -2.6667  -2.6578  -2.6373  -2.6174  -2.6132
    -2.5567  -2.4616  -2.2795  -2.2662  -2.2408  -2.2278  -2.1919  -2.1269
    -2.1200  -2.1124  -2.1026  -2.0928  -2.0850  -2.0642  -2.0368  -2.0060
    -1.9818  -1.9763  -1.9575  -1.9179  -1.9127  -1.9106  -1.9068  -1.8819
    -1.8786  -1.8716  -1.8680  -1.8627  -1.8592  -1.8390  -1.7862  -1.7784
    -1.7655  -1.7367  -1.7113  -1.6867  -1.6804  -1.6757  -1.6624  -1.6567
    -1.6498  -1.6331  -1.6279  -1.6231  -1.6141  -1.6037  -1.5787  -1.5722
    -1.5634  -1.5484  -1.5384  -1.4848  -1.4610  -1.4229  -1.3513  -1.3475
    -1.3394  -1.3321  -1.3217  -1.3185  -1.3159  -1.3066  -1.2088  -1.1838
    -1.1556  -1.1340  -1.0629  -1.0576  -1.0359  -0.9959  -0.9687  -0.9588
    -0.8991  -0.8920  -0.8653  -0.8472  -0.8272  -0.8153  -0.7828  -0.7760
    -0.7621  -0.7387  -0.7267  -0.6895  -0.6877  -0.6756  -0.6690  -0.6576
    -0.6348  -0.5920  -0.5838  -0.5818  -0.5574  -0.5389  -0.5219  -0.5196
    -0.5109  -0.5037  -0.4989  -0.4881  -0.4697  -0.4587  -0.4515  -0.4400
    -0.3894  -0.3804  -0.3598  -0.3480  -0.3257  -0.3192  -0.2882  -0.2677
    -0.2625  -0.2557  -0.2478  -0.2389  -0.2184  -0.2164  -0.2055  -0.1662
    -0.1481  -0.1223  -0.1155  -0.1070  -0.0891  -0.0871  -0.0458  -0.0373
    -0.0153   0.0187   0.2249   0.2560   0.3292   0.4233   0.5013   0.5431
     0.5714   0.7793

          k = 0.2000 0.1155 0.0000 ( 36641 PWs)   bands (ev):

   -21.8843 -10.6059  -7.4425  -6.8917  -6.2530  -5.7735  -5.4624  -5.3899
    -4.9544  -4.9486  -4.5969  -4.4686  -4.3699  -4.3650  -4.3014  -4.2549
    -4.2062  -4.1708  -4.1046  -4.0446  -4.0310  -3.7785  -3.6641  -3.6572
    -3.5788  -3.5633  -3.5372  -3.5339  -3.5295  -3.5213  -3.5045  -3.4839
    -3.4563  -3.4134  -3.4063  -3.3796  -3.3751  -3.1889  -3.1540  -3.1501
    -3.1157  -3.0945  -3.0918  -3.0875  -3.0184  -2.9866  -2.9646  -2.9392
    -2.9234  -2.9176  -2.8975  -2.8867  -2.8092  -2.7911  -2.7766  -2.7347
    -2.7207  -2.6964  -2.6850  -2.6646  -2.6506  -2.6360  -2.6189  -2.6083
    -2.5660  -2.4580  -2.2807  -2.2717  -2.2444  -2.2238  -2.1909  -2.1245
    -2.1190  -2.1117  -2.1043  -2.0972  -2.0843  -2.0603  -2.0369  -2.0008
    -1.9911  -1.9733  -1.9523  -1.9212  -1.9124  -1.9090  -1.9049  -1.8830
    -1.8791  -1.8727  -1.8672  -1.8645  -1.8539  -1.8293  -1.7925  -1.7856
    -1.7649  -1.7367  -1.6990  -1.6868  -1.6786  -1.6729  -1.6590  -1.6558
    -1.6518  -1.6386  -1.6310  -1.6225  -1.6165  -1.6026  -1.5776  -1.5726
    -1.5604  -1.5530  -1.5327  -1.4895  -1.4557  -1.4329  -1.3506  -1.3462
    -1.3418  -1.3342  -1.3210  -1.3190  -1.3139  -1.3064  -1.1974  -1.1715
    -1.1626  -1.1316  -1.0649  -1.0585  -1.0319  -0.9979  -0.9700  -0.9627
    -0.9054  -0.8821  -0.8684  -0.8423  -0.8317  -0.8173  -0.7808  -0.7794
    -0.7571  -0.7410  -0.7264  -0.6880  -0.6840  -0.6808  -0.6739  -0.6566
    -0.6359  -0.5943  -0.5831  -0.5792  -0.5574  -0.5338  -0.5228  -0.5184
    -0.5074  -0.5038  -0.4948  -0.4892  -0.4735  -0.4593  -0.4524  -0.4480
    -0.3902  -0.3761  -0.3600  -0.3481  -0.3276  -0.3231  -0.2849  -0.2663
    -0.2627  -0.2550  -0.2475  -0.2403  -0.2177  -0.2166  -0.2057  -0.1657
    -0.1466  -0.1257  -0.1166  -0.1141  -0.0893  -0.0874  -0.0433  -0.0397
    -0.0021   0.0134   0.2254   0.2571   0.3059   0.4242   0.4987   0.5347
     0.5822   0.7675

          k = 0.2000 0.3464 0.0000 ( 36608 PWs)   bands (ev):

   -21.8843 -10.6036  -7.1663  -6.8746  -6.1468  -5.8310  -5.7837  -5.5811
    -5.3708  -4.6895  -4.6134  -4.3770  -4.3696  -4.3308  -4.1536  -4.1499
    -4.0630  -4.0537  -4.0347  -3.9203  -3.9065  -3.7766  -3.7685  -3.7096
    -3.6610  -3.5783  -3.5726  -3.5448  -3.5202  -3.5120  -3.5074  -3.4756
    -3.4674  -3.4488  -3.4269  -3.3966  -3.3578  -3.3164  -3.3105  -3.1975
    -3.1818  -3.0957  -3.0844  -3.0583  -3.0468  -3.0316  -2.9391  -2.9040
    -2.8875  -2.8708  -2.8545  -2.8503  -2.8067  -2.7928  -2.7780  -2.7650
    -2.7466  -2.6499  -2.6295  -2.5850  -2.5731  -2.5526  -2.5365  -2.5117
    -2.5039  -2.4262  -2.3849  -2.3103  -2.3005  -2.2602  -2.2430  -2.2217
    -2.2147  -2.2005  -2.1925  -2.1724  -2.1610  -2.1416  -2.1371  -2.1232
    -2.1193  -2.0950  -2.0354  -2.0010  -1.9503  -1.9445  -1.9208  -1.9116
    -1.8994  -1.8775  -1.8627  -1.8320  -1.8227  -1.7988  -1.7873  -1.7846
    -1.7729  -1.7630  -1.7487  -1.7420  -1.7332  -1.7264  -1.7067  -1.6895
    -1.6793  -1.6664  -1.6391  -1.6168  -1.5963  -1.5841  -1.5506  -1.5443
    -1.5341  -1.5198  -1.5121  -1.4735  -1.4469  -1.4403  -1.4182  -1.3858
    -1.3737  -1.3689  -1.3619  -1.3479  -1.3311  -1.3226  -1.3044  -1.2690
    -1.2252  -1.2024  -1.1927  -1.1506  -1.0839  -1.0673  -1.0555  -0.9760
    -0.9410  -0.9344  -0.9274  -0.9200  -0.9060  -0.8967  -0.8787  -0.8720
    -0.8493  -0.8363  -0.8131  -0.7768  -0.7682  -0.7598  -0.7358  -0.7244
    -0.7064  -0.6880  -0.6593  -0.6522  -0.6428  -0.6346  -0.5486  -0.4900
    -0.4841  -0.4542  -0.4460  -0.4381  -0.4328  -0.4103  -0.3982  -0.3937
    -0.3878  -0.3532  -0.3063  -0.3053  -0.2865  -0.2803  -0.2408  -0.2302
    -0.2140  -0.2093  -0.2060  -0.1823  -0.1742  -0.1672  -0.1648  -0.1387
    -0.1364  -0.0554  -0.0455  -0.0373  -0.0178   0.0116   0.0165   0.0417
     0.3249   0.3506   0.4181   0.5322   0.6275   0.7114   1.0856   1.1889
     1.2560   1.4205

          k = 0.2000-0.5774 0.0000 ( 36660 PWs)   bands (ev):

   -21.8843 -10.6022  -6.9294  -6.5792  -6.5607  -6.0523  -5.8570  -5.5310
    -5.1713  -5.1307  -4.7134  -4.3628  -4.1145  -4.0736  -3.9680  -3.9424
    -3.9346  -3.9129  -3.9072  -3.8861  -3.8376  -3.8270  -3.8247  -3.8129
    -3.7374  -3.7142  -3.6753  -3.6704  -3.6424  -3.6357  -3.5419  -3.4934
    -3.4854  -3.4687  -3.4605  -3.4213  -3.3317  -3.3194  -3.2169  -3.1932
    -3.1873  -3.1196  -3.1086  -3.0904  -3.0616  -2.9807  -2.9778  -2.9719
    -2.9080  -2.9047  -2.8358  -2.7932  -2.7569  -2.7504  -2.7184  -2.6939
    -2.6599  -2.6132  -2.6007  -2.5866  -2.5832  -2.5589  -2.5464  -2.4810
    -2.4403  -2.3995  -2.3795  -2.3739  -2.3601  -2.3165  -2.3032  -2.2527
    -2.2383  -2.2110  -2.2037  -2.1948  -2.1907  -2.1555  -2.1363  -2.1256
    -2.1123  -2.1048  -2.0828  -2.0672  -2.0596  -2.0470  -1.9872  -1.9687
    -1.9558  -1.9330  -1.9013  -1.8812  -1.8401  -1.8330  -1.8215  -1.7989
    -1.7788  -1.7678  -1.7646  -1.7597  -1.7474  -1.7345  -1.7101  -1.7054
    -1.6455  -1.6223  -1.6121  -1.6096  -1.5958  -1.5906  -1.5830  -1.5741
    -1.5675  -1.5598  -1.5419  -1.5078  -1.5016  -1.4609  -1.4549  -1.4243
    -1.3704  -1.3655  -1.3293  -1.3162  -1.3042  -1.2988  -1.2788  -1.2263
    -1.2093  -1.2055  -1.1939  -1.1339  -1.1170  -1.0698  -1.0550  -1.0408
    -1.0189  -1.0079  -1.0013  -0.9824  -0.9533  -0.9419  -0.9161  -0.9056
    -0.8691  -0.8492  -0.8413  -0.8263  -0.8112  -0.7779  -0.7475  -0.7307
    -0.7227  -0.7144  -0.7048  -0.6835  -0.6704  -0.6503  -0.6182  -0.5237
    -0.4526  -0.4417  -0.4369  -0.4276  -0.4211  -0.4130  -0.4002  -0.3869
    -0.3547  -0.3479  -0.3358  -0.3339  -0.2828  -0.2632  -0.2143  -0.2088
    -0.1949  -0.1840  -0.1647  -0.1549  -0.1202  -0.1061  -0.1008  -0.0893
    -0.0780  -0.0228  -0.0122  -0.0069   0.0112   0.0186   0.0430   0.0760
     0.2347   0.3689   0.5255   0.7247   1.2363   1.2834   1.4601   1.5844
     1.7715   1.8410

          k = 0.2000-0.3464 0.0000 ( 36608 PWs)   bands (ev):

   -21.8843 -10.6037  -7.1617  -6.8770  -6.1485  -5.8398  -5.7850  -5.5831
    -5.3591  -4.6921  -4.6095  -4.3785  -4.3690  -4.3294  -4.1524  -4.1505
    -4.0626  -4.0524  -4.0318  -3.9212  -3.9102  -3.7763  -3.7681  -3.7122
    -3.6623  -3.5782  -3.5710  -3.5441  -3.5190  -3.5123  -3.5110  -3.4775
    -3.4661  -3.4482  -3.4351  -3.3948  -3.3570  -3.3159  -3.3052  -3.1954
    -3.1837  -3.0938  -3.0842  -3.0628  -3.0461  -3.0296  -2.9441  -2.8947
    -2.8812  -2.8754  -2.8550  -2.8445  -2.8073  -2.7928  -2.7727  -2.7632
    -2.7458  -2.6521  -2.6283  -2.5983  -2.5706  -2.5540  -2.5256  -2.5129
    -2.4995  -2.4398  -2.3803  -2.3123  -2.2964  -2.2554  -2.2446  -2.2216
    -2.2091  -2.2036  -2.1935  -2.1680  -2.1586  -2.1492  -2.1383  -2.1240
    -2.1095  -2.1061  -2.0298  -2.0149  -1.9494  -1.9445  -1.9211  -1.9089
    -1.8973  -1.8839  -1.8629  -1.8299  -1.8269  -1.7997  -1.7894  -1.7846
    -1.7749  -1.7626  -1.7523  -1.7423  -1.7307  -1.7251  -1.7053  -1.6892
    -1.6788  -1.6656  -1.6434  -1.6219  -1.5998  -1.5877  -1.5521  -1.5488
    -1.5380  -1.5166  -1.5109  -1.4726  -1.4470  -1.4358  -1.4197  -1.3918
    -1.3725  -1.3679  -1.3643  -1.3437  -1.3357  -1.3213  -1.3050  -1.2617
    -1.2286  -1.2004  -1.1946  -1.1558  -1.0837  -1.0663  -1.0611  -0.9612
    -0.9451  -0.9338  -0.9260  -0.9132  -0.9042  -0.8998  -0.8824  -0.8598
    -0.8518  -0.8387  -0.8119  -0.7820  -0.7676  -0.7591  -0.7397  -0.7206
    -0.7057  -0.6832  -0.6669  -0.6490  -0.6408  -0.6343  -0.5440  -0.4929
    -0.4809  -0.4584  -0.4500  -0.4414  -0.4263  -0.4098  -0.4031  -0.3958
    -0.3824  -0.3549  -0.3047  -0.3017  -0.2852  -0.2826  -0.2426  -0.2302
    -0.2131  -0.2113  -0.2065  -0.1816  -0.1719  -0.1694  -0.1608  -0.1456
    -0.1352  -0.0591  -0.0405  -0.0355  -0.0156   0.0114   0.0175   0.0482
     0.3148   0.3508   0.4171   0.5464   0.6094   0.7123   1.1361   1.2028
     1.2369   1.4259

          k = 0.4000-0.2309 0.0000 ( 36606 PWs)   bands (ev):

   -21.8843 -10.6030  -7.0528  -6.8510  -6.3172  -6.0598  -5.5907  -5.3787
    -5.1004  -5.0813  -4.9854  -4.2705  -4.2077  -4.1977  -4.1603  -4.1253
    -4.0098  -4.0063  -3.9677  -3.8763  -3.8716  -3.8661  -3.7774  -3.6956
    -3.6887  -3.6786  -3.6750  -3.6284  -3.5764  -3.5680  -3.5580  -3.4103
    -3.4057  -3.3924  -3.3775  -3.3589  -3.3519  -3.2533  -3.2431  -3.2398
    -3.2373  -3.2273  -3.1139  -3.0525  -3.0151  -2.9558  -2.9215  -2.9060
    -2.8855  -2.8645  -2.8408  -2.8387  -2.8293  -2.8054  -2.7503  -2.7425
    -2.7202  -2.6808  -2.6739  -2.5773  -2.5307  -2.5257  -2.5146  -2.4711
    -2.4248  -2.4088  -2.3953  -2.3797  -2.3426  -2.2895  -2.2511  -2.2448
    -2.2379  -2.2345  -2.2107  -2.2053  -2.1956  -2.1873  -2.1688  -2.1242
    -2.1065  -2.0875  -2.0740  -2.0450  -2.0273  -2.0085  -1.9720  -1.9261
    -1.9134  -1.9073  -1.8841  -1.8717  -1.8349  -1.8098  -1.8047  -1.7994
    -1.7830  -1.7676  -1.7598  -1.7383  -1.7344  -1.7157  -1.6983  -1.6910
    -1.6754  -1.6575  -1.6135  -1.5833  -1.5501  -1.5348  -1.5077  -1.4975
    -1.4826  -1.4651  -1.4475  -1.3994  -1.3876  -1.3786  -1.3665  -1.3615
    -1.3538  -1.3513  -1.3442  -1.3377  -1.3291  -1.3243  -1.3127  -1.2936
    -1.2752  -1.2635  -1.2083  -1.1604  -1.1373  -1.1252  -1.1152  -1.0841
    -1.0739  -1.0301  -1.0061  -0.9846  -0.9781  -0.9334  -0.9121  -0.8681
    -0.8555  -0.8252  -0.8045  -0.8003  -0.7698  -0.7556  -0.7221  -0.6978
    -0.6596  -0.6086  -0.6013  -0.5827  -0.5788  -0.5746  -0.5668  -0.5625
    -0.5466  -0.5384  -0.4562  -0.4323  -0.4240  -0.4185  -0.4038  -0.3999
    -0.3898  -0.3659  -0.3645  -0.3544  -0.3345  -0.3168  -0.2535  -0.2380
    -0.2297  -0.2217  -0.1974  -0.1592  -0.1333  -0.1167  -0.0950  -0.0632
    -0.0435  -0.0166  -0.0124   0.0079   0.0099   0.0133   0.0271   0.0525
     0.1223   0.1434   0.3081   0.8361   1.0223   1.1520   1.2399   1.3224
     1.4404   1.6036

          k = 0.4000 0.0000 0.0000 ( 36608 PWs)   bands (ev):

   -21.8843 -10.6035  -7.1727  -6.8710  -6.1408  -5.8148  -5.7826  -5.5844
    -5.3883  -4.6723  -4.6283  -4.3848  -4.3751  -4.3260  -4.1543  -4.1491
    -4.0570  -4.0547  -4.0482  -3.9222  -3.8956  -3.7780  -3.7694  -3.7078
    -3.6611  -3.5730  -3.5696  -3.5424  -3.5209  -3.5142  -3.5087  -3.4861
    -3.4653  -3.4485  -3.4319  -3.4000  -3.3555  -3.3230  -3.3114  -3.1913
    -3.1819  -3.0950  -3.0818  -3.0567  -3.0421  -3.0356  -2.9524  -2.9345
    -2.8896  -2.8598  -2.8554  -2.8493  -2.8017  -2.7922  -2.7736  -2.7647
    -2.7475  -2.6557  -2.6333  -2.5747  -2.5644  -2.5507  -2.5419  -2.5082
    -2.5051  -2.3963  -2.3825  -2.3058  -2.2966  -2.2630  -2.2486  -2.2251
    -2.2119  -2.1956  -2.1923  -2.1702  -2.1637  -2.1470  -2.1398  -2.1216
    -2.1037  -2.0960  -2.0346  -2.0019  -1.9501  -1.9453  -1.9273  -1.9087
    -1.8919  -1.8796  -1.8611  -1.8338  -1.8267  -1.7957  -1.7856  -1.7803
    -1.7725  -1.7676  -1.7525  -1.7391  -1.7321  -1.7183  -1.7080  -1.6897
    -1.6744  -1.6481  -1.6352  -1.6115  -1.5974  -1.5894  -1.5545  -1.5480
    -1.5284  -1.5192  -1.5096  -1.4816  -1.4478  -1.4394  -1.4157  -1.3820
    -1.3770  -1.3711  -1.3629  -1.3431  -1.3313  -1.3271  -1.3055  -1.2747
    -1.2213  -1.2079  -1.2020  -1.1544  -1.0768  -1.0727  -1.0587  -0.9807
    -0.9442  -0.9334  -0.9264  -0.9162  -0.9063  -0.8993  -0.8828  -0.8764
    -0.8500  -0.8362  -0.8136  -0.7759  -0.7615  -0.7574  -0.7317  -0.7246
    -0.7052  -0.6903  -0.6607  -0.6537  -0.6450  -0.6356  -0.5527  -0.4852
    -0.4819  -0.4573  -0.4448  -0.4408  -0.4257  -0.4101  -0.4010  -0.3946
    -0.3848  -0.3484  -0.3186  -0.3004  -0.2875  -0.2782  -0.2382  -0.2314
    -0.2144  -0.2118  -0.2035  -0.1831  -0.1722  -0.1670  -0.1651  -0.1380
    -0.1358  -0.0533  -0.0409  -0.0366  -0.0120   0.0087   0.0133   0.0381
     0.3458   0.3491   0.4105   0.5265   0.6545   0.6973   1.0057   1.1839
     1.2502   1.3845

          k = 0.4000 0.2309 0.0000 ( 36606 PWs)   bands (ev):

   -21.8843 -10.6029  -7.0634  -6.8464  -6.3078  -6.0579  -5.5655  -5.4093
    -5.1008  -5.0732  -4.9965  -4.2728  -4.2031  -4.2008  -4.1553  -4.1290
    -4.0100  -4.0053  -3.9678  -3.8744  -3.8706  -3.8672  -3.7802  -3.6935
    -3.6887  -3.6787  -3.6747  -3.6284  -3.5754  -3.5685  -3.5578  -3.4090
    -3.4058  -3.3923  -3.3753  -3.3572  -3.3515  -3.2573  -3.2439  -3.2381
    -3.2351  -3.2287  -3.1200  -3.0478  -3.0199  -2.9493  -2.9241  -2.9020
    -2.8858  -2.8660  -2.8420  -2.8379  -2.8339  -2.8150  -2.7459  -2.7407
    -2.7238  -2.6858  -2.6734  -2.5703  -2.5276  -2.5239  -2.5182  -2.4718
    -2.4338  -2.4017  -2.3952  -2.3829  -2.3486  -2.2923  -2.2568  -2.2459
    -2.2393  -2.2365  -2.2151  -2.2031  -2.1932  -2.1909  -2.1672  -2.1214
    -2.1016  -2.0883  -2.0703  -2.0350  -2.0277  -2.0128  -1.9631  -1.9277
    -1.9170  -1.9114  -1.8834  -1.8687  -1.8294  -1.8081  -1.8019  -1.7993
    -1.7846  -1.7690  -1.7572  -1.7352  -1.7282  -1.7161  -1.6994  -1.6896
    -1.6769  -1.6589  -1.6125  -1.5743  -1.5499  -1.5351  -1.5121  -1.5025
    -1.4762  -1.4679  -1.4404  -1.3969  -1.3842  -1.3818  -1.3679  -1.3616
    -1.3566  -1.3497  -1.3410  -1.3346  -1.3325  -1.3258  -1.3093  -1.2910
    -1.2742  -1.2504  -1.2139  -1.1591  -1.1355  -1.1253  -1.1186  -1.0769
    -1.0614  -1.0351  -1.0077  -0.9884  -0.9796  -0.9305  -0.9206  -0.8766
    -0.8576  -0.8250  -0.8101  -0.7995  -0.7713  -0.7494  -0.7228  -0.7001
    -0.6653  -0.6139  -0.6025  -0.5845  -0.5789  -0.5711  -0.5634  -0.5601
    -0.5484  -0.5389  -0.4512  -0.4338  -0.4270  -0.4163  -0.4044  -0.3971
    -0.3874  -0.3669  -0.3596  -0.3522  -0.3390  -0.3188  -0.2504  -0.2353
    -0.2301  -0.2256  -0.1956  -0.1605  -0.1346  -0.1140  -0.0968  -0.0627
    -0.0514  -0.0159  -0.0143   0.0073   0.0085   0.0128   0.0305   0.0622
     0.1212   0.1391   0.2880   0.8818   0.9790   1.1219   1.2386   1.2756
     1.4660   1.6097

          k = 0.4000-0.6928 0.0000 ( 36660 PWs)   bands (ev):

   -21.8843 -10.6021  -6.9547  -6.5747  -6.5243  -6.0712  -5.8602  -5.4403
    -5.2733  -5.1372  -4.6873  -4.3609  -4.1172  -4.0762  -3.9823  -3.9392
    -3.9331  -3.9197  -3.9076  -3.8866  -3.8325  -3.8263  -3.8243  -3.8150
    -3.7403  -3.7178  -3.6743  -3.6671  -3.6414  -3.6384  -3.5218  -3.4996
    -3.4880  -3.4807  -3.4567  -3.4186  -3.3266  -3.3138  -3.2223  -3.1934
    -3.1912  -3.1255  -3.1064  -3.0923  -3.0628  -2.9904  -2.9792  -2.9698
    -2.9070  -2.8962  -2.8564  -2.7988  -2.7712  -2.7548  -2.7129  -2.6928
    -2.6373  -2.6136  -2.5993  -2.5922  -2.5872  -2.5521  -2.5357  -2.4718
    -2.4389  -2.3961  -2.3887  -2.3760  -2.3502  -2.3165  -2.2976  -2.2539
    -2.2383  -2.2079  -2.2021  -2.1938  -2.1817  -2.1699  -2.1302  -2.1211
    -2.1089  -2.1040  -2.0914  -2.0663  -2.0590  -2.0263  -1.9898  -1.9741
    -1.9603  -1.9534  -1.8880  -1.8842  -1.8423  -1.8213  -1.8095  -1.7989
    -1.7788  -1.7708  -1.7585  -1.7504  -1.7454  -1.7204  -1.7084  -1.6984
    -1.6325  -1.6251  -1.6166  -1.6102  -1.5941  -1.5881  -1.5866  -1.5751
    -1.5692  -1.5612  -1.5394  -1.5224  -1.4968  -1.4618  -1.4521  -1.4340
    -1.3736  -1.3646  -1.3340  -1.3143  -1.3014  -1.2955  -1.2786  -1.2407
    -1.2169  -1.2040  -1.1938  -1.1352  -1.0980  -1.0713  -1.0577  -1.0399
    -1.0244  -1.0039  -0.9991  -0.9876  -0.9572  -0.9437  -0.9078  -0.8990
    -0.8616  -0.8529  -0.8415  -0.8241  -0.8070  -0.7896  -0.7463  -0.7432
    -0.7311  -0.7164  -0.7000  -0.6875  -0.6721  -0.6456  -0.6194  -0.5294
    -0.4500  -0.4403  -0.4366  -0.4245  -0.4196  -0.4117  -0.3996  -0.3838
    -0.3583  -0.3473  -0.3418  -0.3324  -0.2774  -0.2575  -0.2127  -0.2080
    -0.2052  -0.1809  -0.1625  -0.1522  -0.1197  -0.1043  -0.1005  -0.0891
    -0.0867  -0.0183  -0.0111  -0.0048   0.0115   0.0190   0.0422   0.0737
     0.1983   0.3873   0.5656   0.7340   1.1069   1.2884   1.3888   1.6854
     1.7473   1.8054

          k = 0.4000-0.4619 0.0000 ( 36660 PWs)   bands (ev):

   -21.8843 -10.6021  -6.9447  -6.5783  -6.5363  -6.0657  -5.8571  -5.4787
    -5.2347  -5.1330  -4.6951  -4.3617  -4.1160  -4.0736  -3.9791  -3.9408
    -3.9326  -3.9188  -3.9102  -3.8850  -3.8350  -3.8267  -3.8237  -3.8157
    -3.7413  -3.7161  -3.6737  -3.6680  -3.6422  -3.6368  -3.5240  -3.5014
    -3.4876  -3.4794  -3.4607  -3.4204  -3.3246  -3.3154  -3.2167  -3.1965
    -3.1900  -3.1252  -3.1040  -3.0901  -3.0620  -2.9971  -2.9772  -2.9714
    -2.9088  -2.9021  -2.8445  -2.7931  -2.7668  -2.7508  -2.7184  -2.6953
    -2.6461  -2.6123  -2.6015  -2.5898  -2.5840  -2.5490  -2.5418  -2.4769
    -2.4261  -2.3980  -2.3844  -2.3745  -2.3586  -2.3121  -2.2876  -2.2562
    -2.2318  -2.2060  -2.1994  -2.1965  -2.1871  -2.1688  -2.1338  -2.1216
    -2.1136  -2.0986  -2.0894  -2.0669  -2.0594  -2.0298  -1.9912  -1.9758
    -1.9586  -1.9534  -1.9005  -1.8774  -1.8410  -1.8259  -1.8114  -1.7922
    -1.7840  -1.7683  -1.7636  -1.7569  -1.7523  -1.7260  -1.7051  -1.7004
    -1.6384  -1.6246  -1.6147  -1.6105  -1.5974  -1.5898  -1.5850  -1.5751
    -1.5633  -1.5600  -1.5404  -1.5123  -1.4969  -1.4631  -1.4547  -1.4318
    -1.3764  -1.3662  -1.3310  -1.3112  -1.3081  -1.2976  -1.2822  -1.2383
    -1.2119  -1.2031  -1.1912  -1.1356  -1.0984  -1.0729  -1.0606  -1.0371
    -1.0285  -1.0132  -0.9964  -0.9844  -0.9558  -0.9425  -0.9134  -0.9009
    -0.8613  -0.8520  -0.8416  -0.8271  -0.8075  -0.7860  -0.7447  -0.7418
    -0.7244  -0.7176  -0.6981  -0.6828  -0.6756  -0.6451  -0.6144  -0.5288
    -0.4490  -0.4397  -0.4340  -0.4289  -0.4184  -0.4137  -0.4045  -0.3819
    -0.3566  -0.3509  -0.3404  -0.3305  -0.2817  -0.2609  -0.2116  -0.2093
    -0.1950  -0.1838  -0.1653  -0.1527  -0.1217  -0.1065  -0.1002  -0.0900
    -0.0858  -0.0135  -0.0099  -0.0062   0.0119   0.0180   0.0446   0.0768
     0.2130   0.3856   0.5479   0.7267   1.1377   1.2884   1.4121   1.6437
     1.7703   1.8162

 ------ SPIN DOWN ----------


          k = 0.0000 0.0000 0.0000 ( 36693 PWs)   bands (ev):

   -21.9069 -10.6418  -7.7096  -6.8539  -6.4080  -5.7935  -5.4353  -4.5400
    -4.5125  -4.5089  -4.5081  -4.4910  -4.4867  -4.3896  -3.6403  -3.6338
    -3.6322  -3.6127  -3.6008  -3.5886  -3.4691  -2.6942  -2.6914  -2.6807
    -2.6718  -2.6688  -2.6011  -2.3586  -2.2307  -2.2213  -2.2169  -2.2103
    -2.2036  -2.0918  -2.0169  -2.0037  -1.9454  -1.9374  -1.9205  -1.9178
    -1.8373  -1.8323  -1.7831  -1.7779  -1.7426  -1.6958  -1.6871  -1.6680
    -1.6528  -1.5852  -1.4720  -1.4261  -1.4139  -1.4023  -1.3871  -1.3819
    -1.3794  -1.3771  -1.3528  -1.3374  -1.3210  -1.3017  -1.2983  -1.2975
    -1.2569  -1.1855  -0.8476  -0.7459  -0.7355  -0.7216  -0.7202  -0.5621
    -0.5360  -0.4673  -0.4142  -0.4121  -0.3977  -0.3970  -0.3894  -0.3772
    -0.3502  -0.3263  -0.3068  -0.2992  -0.2981  -0.2920  -0.2771  -0.2411
    -0.2243  -0.2050  -0.1978  -0.1954  -0.1672  -0.1516  -0.1438  -0.1427
    -0.1370  -0.1298  -0.1129  -0.1104  -0.1083  -0.1075  -0.0395  -0.0118
     0.0203   0.0292   0.0353   0.0554   0.1023   0.1087   0.1171   0.1183
     0.1205   0.1238   0.1244   0.1284   0.1977   0.1995   0.2542   0.2758
     0.2863   0.2958   0.3031   0.3139   0.4561   0.5063   0.5211   0.5555
     0.5839   0.5965   0.6066   0.6090   0.6562   0.8644   0.8961   0.9397
     0.9458   1.0318   1.0909   1.1204   1.1397   1.1637   1.1723   1.1761
     1.3082   1.3214   1.3262   1.3331   1.3374   1.3464   1.3554   1.3736
     1.3967   1.4110   1.4271   1.4316   1.4476   1.4537   1.4678   1.4866
     1.4938   1.4957   1.4988   1.5213   1.5496   1.5624   1.5703   1.5855
     1.5931   1.6083   1.6153   1.6203   1.6249   1.6266   1.6327   1.6668
     1.6720   1.6925   1.6960   1.7059   1.7131   1.7209   1.7233   1.7549
     1.7585   1.7622   1.7658   1.7726   1.7745   1.7766   1.7858   1.7869
     1.8001   1.8429   1.8465   1.8596   1.9947   1.9996   2.0016   2.0033
     2.0055   2.0074

          k = 0.0000 0.2309 0.0000 ( 36641 PWs)   bands (ev):

   -21.9069 -10.6400  -7.5618  -6.8470  -6.3124  -5.8051  -5.4891  -5.3776
    -4.8887  -4.8858  -4.3772  -4.2321  -3.9614  -3.9582  -3.8555  -3.8415
    -3.6650  -3.4142  -3.2845  -3.2748  -3.1706  -2.8998  -2.7004  -2.6892
    -2.6237  -2.5869  -2.5636  -2.3956  -2.2891  -2.2585  -2.2483  -2.2307
    -2.2063  -2.1862  -2.1581  -2.1502  -2.1234  -2.0654  -1.9813  -1.9606
    -1.8944  -1.8899  -1.8317  -1.7645  -1.7204  -1.6944  -1.6833  -1.5890
    -1.5549  -1.5281  -1.4898  -1.4631  -1.4339  -1.4175  -1.3965  -1.3892
    -1.3854  -1.3741  -1.3006  -1.2670  -1.2510  -1.2393  -1.2105  -1.1937
    -1.1368  -1.0636  -0.8931  -0.7973  -0.7793  -0.7694  -0.7262  -0.6594
    -0.6456  -0.6103  -0.5619  -0.5380  -0.4564  -0.4383  -0.4263  -0.4133
    -0.3696  -0.3639  -0.3554  -0.3480  -0.3387  -0.3275  -0.2873  -0.2661
    -0.2233  -0.2063  -0.1879  -0.1867  -0.1680  -0.1425  -0.1298  -0.1115
    -0.1097  -0.1022  -0.0919  -0.0857  -0.0836  -0.0798  -0.0643  -0.0402
    -0.0061   0.0022   0.0102   0.0151   0.0454   0.0622   0.0774   0.0843
     0.1174   0.1372   0.1511   0.1774   0.2163   0.2257   0.2334   0.2646
     0.3856   0.4090   0.4405   0.4700   0.4907   0.4989   0.5375   0.5442
     0.5633   0.5685   0.5796   0.5890   0.7329   0.8389   0.9022   0.9126
     0.9161   0.9332   0.9502   0.9584   1.0020   1.0212   1.0929   1.0978
     1.1173   1.1570   1.1872   1.2177   1.2297   1.2540   1.2775   1.3008
     1.3365   1.3704   1.3843   1.4058   1.4109   1.4216   1.4500   1.4616
     1.4934   1.5141   1.5411   1.5519   1.5710   1.5808   1.5947   1.6145
     1.6492   1.6555   1.6619   1.6692   1.6918   1.7024   1.7413   1.7464
     1.7535   1.7582   1.7978   1.8058   1.8132   1.8317   1.8394   1.8479
     1.8657   1.8990   1.9051   1.9167   1.9330   1.9378   1.9458   1.9673
     1.9716   1.9906   1.9949   2.0084   2.0873   2.0997   2.1084   2.1446
     2.1734   2.1957

          k = 0.0000 0.4619 0.0000 ( 36606 PWs)   bands (ev):

   -21.9069 -10.6370  -7.1336  -6.8373  -6.4244  -6.0865  -5.6614  -5.3675
    -5.1070  -5.0899  -4.9551  -4.0244  -3.9811  -3.9050  -3.4024  -3.3430
    -3.3360  -3.2216  -3.0775  -3.0101  -2.8967  -2.8850  -2.7447  -2.7379
    -2.6861  -2.6703  -2.6190  -2.6033  -2.5062  -2.4887  -2.4513  -2.4300
    -2.4067  -2.2534  -2.2018  -2.1379  -2.1233  -2.1145  -2.0080  -1.9986
    -1.9856  -1.9768  -1.8979  -1.7515  -1.6940  -1.6782  -1.6476  -1.6306
    -1.4817  -1.4656  -1.4541  -1.4514  -1.4368  -1.4079  -1.4017  -1.3924
    -1.3598  -1.2945  -1.2807  -1.2715  -1.2588  -1.2230  -1.1092  -1.0479
    -0.9833  -0.9188  -0.8574  -0.8368  -0.8024  -0.7677  -0.7424  -0.7250
    -0.7121  -0.7010  -0.6707  -0.6387  -0.6146  -0.5669  -0.5610  -0.5252
    -0.4905  -0.4653  -0.4456  -0.4367  -0.4207  -0.3925  -0.3334  -0.2842
    -0.2607  -0.2457  -0.2205  -0.1955  -0.1684  -0.1506  -0.1295  -0.1040
    -0.0799  -0.0707  -0.0561  -0.0336  -0.0309  -0.0262  -0.0225   0.0160
     0.0257   0.0557   0.0623   0.0691   0.0794   0.0827   0.1074   0.1121
     0.1301   0.1525   0.1821   0.2686   0.2763   0.2846   0.3121   0.3293
     0.3361   0.3563   0.3610   0.4191   0.4383   0.4529   0.4690   0.4843
     0.5091   0.5239   0.5454   0.5545   0.5912   0.6678   0.7321   0.7503
     0.7805   0.8217   0.8452   0.9523   0.9727   0.9863   1.0089   1.0206
     1.0311   1.0762   1.0889   1.1079   1.1201   1.1814   1.2304   1.3070
     1.3191   1.3535   1.3701   1.4003   1.4210   1.4380   1.4513   1.4795
     1.5029   1.5207   1.5343   1.5892   1.6084   1.6282   1.6375   1.6648
     1.6758   1.6841   1.7181   1.7318   1.7424   1.7546   1.7615   1.7947
     1.8051   1.8462   1.8629   1.8978   1.9137   1.9355   1.9411   1.9520
     1.9598   1.9760   1.9897   2.0023   2.0080   2.0284   2.0342   2.0364
     2.0436   2.0831   2.1717   2.2498   2.2542   2.3627   2.5493   2.6980
     2.7593   2.8133

          k = 0.2000-0.1155 0.0000 ( 36641 PWs)   bands (ev):

   -21.9069 -10.6399  -7.5626  -6.8507  -6.3068  -5.7872  -5.5020  -5.3886
    -4.8877  -4.8781  -4.3708  -4.2611  -3.9630  -3.9557  -3.8611  -3.8133
    -3.6693  -3.4162  -3.2850  -3.2618  -3.1798  -2.9147  -2.7016  -2.6702
    -2.6280  -2.5922  -2.5560  -2.3722  -2.3267  -2.2551  -2.2508  -2.2416
    -2.2102  -2.1709  -2.1600  -2.1509  -2.1227  -2.0627  -1.9805  -1.9643
    -1.8945  -1.8878  -1.8574  -1.7404  -1.7109  -1.6934  -1.6614  -1.6012
    -1.5563  -1.5227  -1.4843  -1.4653  -1.4335  -1.4147  -1.3929  -1.3892
    -1.3849  -1.3579  -1.3135  -1.2669  -1.2509  -1.2409  -1.2201  -1.1955
    -1.1305  -1.0600  -0.8990  -0.7950  -0.7797  -0.7699  -0.7364  -0.6613
    -0.6461  -0.6154  -0.5635  -0.5372  -0.4639  -0.4329  -0.4196  -0.4083
    -0.3696  -0.3669  -0.3583  -0.3473  -0.3305  -0.3138  -0.2921  -0.2761
    -0.2283  -0.1998  -0.1883  -0.1842  -0.1702  -0.1476  -0.1267  -0.1154
    -0.1072  -0.0980  -0.0927  -0.0859  -0.0844  -0.0801  -0.0688  -0.0393
    -0.0070   0.0018   0.0161   0.0192   0.0369   0.0567   0.0651   0.0875
     0.1231   0.1355   0.1532   0.1821   0.2107   0.2287   0.2352   0.2656
     0.3831   0.3975   0.4468   0.4649   0.4958   0.5107   0.5312   0.5359
     0.5584   0.5707   0.5850   0.5887   0.7209   0.8570   0.8905   0.9072
     0.9150   0.9308   0.9478   0.9575   0.9992   1.0102   1.0883   1.1026
     1.1211   1.1768   1.1877   1.2247   1.2347   1.2553   1.2799   1.3002
     1.3367   1.3704   1.3904   1.4008   1.4039   1.4235   1.4509   1.4661
     1.4837   1.5133   1.5356   1.5523   1.5736   1.5892   1.5945   1.6340
     1.6473   1.6580   1.6632   1.6686   1.6853   1.6956   1.7379   1.7461
     1.7500   1.7582   1.7956   1.8091   1.8137   1.8279   1.8397   1.8527
     1.8620   1.9009   1.9036   1.9194   1.9330   1.9378   1.9468   1.9648
     1.9691   1.9906   1.9946   2.0063   2.0862   2.1004   2.1070   2.1340
     2.1738   2.2039

          k = 0.2000 0.1155 0.0000 ( 36641 PWs)   bands (ev):

   -21.9069 -10.6399  -7.5631  -6.8528  -6.3041  -5.7807  -5.4819  -5.4188
    -4.8821  -4.8782  -4.3713  -4.2680  -3.9620  -3.9567  -3.8593  -3.8088
    -3.6693  -3.4159  -3.2848  -3.2593  -3.1825  -2.9194  -2.7017  -2.6617
    -2.6401  -2.5863  -2.5550  -2.3679  -2.3338  -2.2569  -2.2499  -2.2397
    -2.2134  -2.1662  -2.1582  -2.1492  -2.1239  -2.0614  -1.9804  -1.9720
    -1.8930  -1.8872  -1.8323  -1.7611  -1.6995  -1.6965  -1.6754  -1.5783
    -1.5682  -1.5306  -1.4893  -1.4647  -1.4377  -1.4070  -1.3995  -1.3888
    -1.3845  -1.3420  -1.3118  -1.2773  -1.2553  -1.2462  -1.2163  -1.1900
    -1.1458  -1.0441  -0.9063  -0.7922  -0.7766  -0.7567  -0.7309  -0.6717
    -0.6547  -0.6174  -0.5541  -0.5373  -0.4601  -0.4303  -0.4265  -0.4015
    -0.3728  -0.3632  -0.3572  -0.3511  -0.3275  -0.3208  -0.3009  -0.2775
    -0.2204  -0.2012  -0.1885  -0.1865  -0.1706  -0.1442  -0.1261  -0.1132
    -0.1076  -0.0991  -0.0956  -0.0863  -0.0847  -0.0795  -0.0615  -0.0395
    -0.0034   0.0039   0.0146   0.0173   0.0389   0.0621   0.0693   0.0785
     0.1246   0.1304   0.1651   0.1817   0.2095   0.2243   0.2356   0.2662
     0.3864   0.3985   0.4314   0.4650   0.4818   0.5132   0.5291   0.5426
     0.5538   0.5714   0.5845   0.5891   0.7339   0.8690   0.8879   0.9071
     0.9112   0.9250   0.9503   0.9596   0.9894   1.0196   1.0699   1.0941
     1.1054   1.1824   1.1908   1.2228   1.2366   1.2592   1.2785   1.2990
     1.3372   1.3734   1.3942   1.4015   1.4058   1.4248   1.4545   1.4609
     1.4902   1.5112   1.5376   1.5634   1.5685   1.5897   1.5982   1.6290
     1.6442   1.6540   1.6613   1.6697   1.6827   1.6947   1.7366   1.7413
     1.7520   1.7580   1.7985   1.8097   1.8141   1.8311   1.8370   1.8519
     1.8622   1.9024   1.9043   1.9154   1.9318   1.9383   1.9427   1.9641
     1.9694   1.9946   1.9977   2.0056   2.0868   2.0968   2.1078   2.1336
     2.1777   2.2036

          k = 0.2000 0.3464 0.0000 ( 36608 PWs)   bands (ev):

   -21.9069 -10.6375  -7.2760  -6.8437  -6.1726  -5.9046  -5.8536  -5.5974
    -5.4028  -4.6339  -4.5271  -4.1551  -4.1417  -4.0481  -3.3205  -3.3125
    -3.3057  -3.3014  -3.1932  -3.1149  -3.0296  -2.9987  -2.9568  -2.6398
    -2.5859  -2.5599  -2.5496  -2.4770  -2.4567  -2.4370  -2.3952  -2.3492
    -2.3405  -2.3338  -2.3252  -2.1968  -2.1659  -2.1019  -1.9822  -1.9579
    -1.9262  -1.8923  -1.8375  -1.8239  -1.7896  -1.6673  -1.6222  -1.5993
    -1.5537  -1.4780  -1.4441  -1.4388  -1.4248  -1.4107  -1.4020  -1.3743
    -1.3597  -1.3347  -1.2960  -1.2633  -1.2200  -1.1692  -1.1038  -1.0646
    -0.9854  -0.9659  -0.8858  -0.8422  -0.7682  -0.7430  -0.7231  -0.6965
    -0.6770  -0.6640  -0.6487  -0.6144  -0.5696  -0.5504  -0.5358  -0.5166
    -0.5050  -0.4743  -0.4659  -0.4624  -0.4180  -0.3364  -0.2935  -0.2805
    -0.2688  -0.2651  -0.2160  -0.2013  -0.1919  -0.1737  -0.1549  -0.1417
    -0.1208  -0.1077  -0.0962  -0.0758  -0.0635  -0.0555  -0.0231  -0.0055
     0.0016   0.0142   0.0238   0.0495   0.0594   0.0641   0.0836   0.0901
     0.1075   0.1795   0.1835   0.1947   0.3021   0.3152   0.3351   0.3584
     0.3790   0.4072   0.4278   0.4578   0.4868   0.4983   0.5080   0.5173
     0.5253   0.5379   0.5831   0.5936   0.6607   0.7280   0.7926   0.8181
     0.8851   0.9178   0.9419   0.9724   0.9779   0.9869   1.0018   1.0109
     1.0239   1.0463   1.0656   1.0801   1.1118   1.1378   1.2156   1.2365
     1.2454   1.2724   1.3039   1.3219   1.3312   1.3517   1.3991   1.4249
     1.4764   1.5287   1.5964   1.6195   1.6372   1.6601   1.6705   1.6775
     1.6866   1.7061   1.7188   1.7280   1.7358   1.7993   1.8069   1.8103
     1.8145   1.8508   1.8634   1.8671   1.8857   1.9083   1.9147   1.9389
     1.9458   1.9530   1.9568   1.9757   1.9846   2.0108   2.0324   2.0591
     2.0827   2.0889   2.1752   2.2098   2.2963   2.3380   2.3781   2.4858
     2.6091   2.6773

          k = 0.2000-0.5774 0.0000 ( 36660 PWs)   bands (ev):

   -21.9069 -10.6361  -6.9016  -6.6921  -6.6496  -6.0802  -5.9143  -5.5776
    -5.2077  -5.1424  -4.6723  -4.2094  -3.6754  -3.5511  -3.3451  -3.3399
    -3.3132  -3.1242  -3.0907  -2.9329  -2.9246  -2.9194  -2.7872  -2.7809
    -2.7775  -2.7496  -2.7424  -2.7280  -2.5541  -2.4365  -2.4031  -2.3836
    -2.3643  -2.3591  -2.3119  -2.2917  -2.2113  -2.1841  -2.0875  -1.9402
    -1.8704  -1.8403  -1.8357  -1.8021  -1.7510  -1.6654  -1.6065  -1.5954
    -1.5605  -1.5426  -1.5324  -1.4329  -1.4178  -1.3781  -1.3663  -1.3580
    -1.3038  -1.2578  -1.2206  -1.2036  -1.1525  -1.1168  -1.1137  -1.0188
    -0.9949  -0.9572  -0.8533  -0.8161  -0.8100  -0.7935  -0.7476  -0.7366
    -0.6883  -0.6764  -0.6518  -0.6188  -0.5919  -0.5724  -0.5341  -0.5269
    -0.5163  -0.4767  -0.4722  -0.4585  -0.4518  -0.4419  -0.4094  -0.3825
    -0.3795  -0.3529  -0.3341  -0.2953  -0.2547  -0.2300  -0.2027  -0.1746
    -0.1374  -0.1128  -0.0876  -0.0712  -0.0470  -0.0312  -0.0207  -0.0040
     0.0279   0.0464   0.0748   0.0911   0.1024   0.1188   0.1801   0.2025
     0.2345   0.2514   0.2566   0.2752   0.2839   0.3179   0.3509   0.3639
     0.3679   0.3894   0.4344   0.4620   0.4703   0.4796   0.5175   0.5331
     0.5525   0.5634   0.5856   0.6084   0.6208   0.6351   0.6483   0.6741
     0.7342   0.8012   0.8681   0.9074   0.9197   0.9353   0.9602   0.9848
     0.9877   1.0094   1.0269   1.0593   1.1380   1.1632   1.1701   1.1959
     1.2256   1.2374   1.2725   1.2960   1.3248   1.3479   1.3943   1.4257
     1.4476   1.5522   1.5862   1.6054   1.6650   1.6752   1.7054   1.7227
     1.7291   1.7342   1.7490   1.7578   1.7949   1.8101   1.8212   1.8276
     1.8527   1.8832   1.9042   1.9105   1.9160   1.9208   1.9268   1.9302
     1.9447   1.9807   1.9918   2.0144   2.0251   2.0379   2.0497   2.0720
     2.1036   2.1346   2.2276   2.3865   2.6086   2.6963   2.8070   2.9183
     2.9262   2.9697

          k = 0.2000-0.3464 0.0000 ( 36608 PWs)   bands (ev):

   -21.9069 -10.6375  -7.2733  -6.8438  -6.1745  -5.9130  -5.8552  -5.5994
    -5.3905  -4.6365  -4.5239  -4.1557  -4.1406  -4.0475  -3.3215  -3.3133
    -3.3057  -3.3024  -3.1938  -3.1136  -3.0320  -2.9989  -2.9574  -2.6383
    -2.5681  -2.5623  -2.5486  -2.4792  -2.4655  -2.4409  -2.3846  -2.3491
    -2.3450  -2.3366  -2.3279  -2.1878  -2.1852  -2.0931  -1.9766  -1.9585
    -1.9304  -1.8850  -1.8627  -1.8271  -1.7821  -1.6658  -1.6232  -1.6028
    -1.5310  -1.4645  -1.4445  -1.4368  -1.4315  -1.4165  -1.3995  -1.3792
    -1.3617  -1.3404  -1.2901  -1.2716  -1.2139  -1.1637  -1.1044  -1.0598
    -0.9938  -0.9683  -0.8875  -0.8391  -0.7661  -0.7386  -0.7280  -0.7101
    -0.6814  -0.6610  -0.6439  -0.5980  -0.5776  -0.5476  -0.5356  -0.5190
    -0.5057  -0.4819  -0.4674  -0.4581  -0.4230  -0.3491  -0.2932  -0.2822
    -0.2775  -0.2658  -0.2188  -0.1985  -0.1877  -0.1730  -0.1536  -0.1335
    -0.1226  -0.1119  -0.0966  -0.0772  -0.0611  -0.0421  -0.0191  -0.0093
     0.0039   0.0112   0.0171   0.0475   0.0604   0.0723   0.0814   0.0897
     0.1079   0.1782   0.1912   0.1937   0.3072   0.3200   0.3279   0.3619
     0.3778   0.4125   0.4265   0.4510   0.4914   0.4962   0.5048   0.5140
     0.5270   0.5298   0.5788   0.6145   0.6616   0.6993   0.8181   0.8206
     0.8704   0.9066   0.9568   0.9737   0.9836   0.9936   0.9982   1.0143
     1.0223   1.0496   1.0660   1.0933   1.1146   1.1571   1.1899   1.2265
     1.2569   1.2700   1.3014   1.3224   1.3329   1.3605   1.3998   1.4244
     1.4632   1.5147   1.6061   1.6199   1.6347   1.6632   1.6712   1.6755
     1.7001   1.7065   1.7239   1.7300   1.7369   1.7976   1.8038   1.8081
     1.8158   1.8520   1.8569   1.8675   1.8853   1.9056   1.9188   1.9352
     1.9457   1.9523   1.9545   1.9785   1.9841   2.0048   2.0329   2.0656
     2.0840   2.0918   2.1678   2.2076   2.2801   2.3423   2.3876   2.5115
     2.5868   2.6790

          k = 0.4000-0.2309 0.0000 ( 36606 PWs)   bands (ev):

   -21.9069 -10.6369  -7.1426  -6.8412  -6.4061  -6.0805  -5.6307  -5.4132
    -5.1065  -5.0794  -4.9716  -4.0310  -3.9839  -3.8864  -3.4164  -3.3408
    -3.3328  -3.2247  -3.0767  -3.0200  -2.8928  -2.8821  -2.7409  -2.7367
    -2.6811  -2.6577  -2.6189  -2.6000  -2.4995  -2.4862  -2.4490  -2.4377
    -2.4069  -2.2880  -2.2016  -2.1805  -2.1219  -2.0888  -2.0086  -1.9936
    -1.9923  -1.9840  -1.9049  -1.7114  -1.6952  -1.6746  -1.6466  -1.5923
    -1.4765  -1.4635  -1.4563  -1.4388  -1.4261  -1.4136  -1.3996  -1.3957
    -1.3397  -1.3003  -1.2793  -1.2698  -1.2457  -1.2160  -1.1138  -1.0695
    -0.9706  -0.9231  -0.9167  -0.8331  -0.8030  -0.7707  -0.7411  -0.7295
    -0.7095  -0.6979  -0.6727  -0.6306  -0.6201  -0.5675  -0.5547  -0.5254
    -0.4928  -0.4655  -0.4427  -0.4375  -0.4198  -0.3857  -0.3441  -0.2949
    -0.2549  -0.2443  -0.2143  -0.1939  -0.1667  -0.1415  -0.1296  -0.1035
    -0.0778  -0.0688  -0.0611  -0.0404  -0.0327  -0.0244  -0.0146   0.0030
     0.0271   0.0538   0.0621   0.0713   0.0773   0.0816   0.1017   0.1139
     0.1317   0.1524   0.1719   0.2606   0.2817   0.2830   0.3120   0.3320
     0.3369   0.3535   0.3619   0.4184   0.4338   0.4452   0.4661   0.4861
     0.5066   0.5399   0.5468   0.5552   0.5892   0.6325   0.7310   0.7556
     0.7720   0.8080   0.8557   0.9501   0.9695   0.9881   1.0076   1.0269
     1.0356   1.0796   1.0913   1.1100   1.1234   1.2038   1.2404   1.2951
     1.3162   1.3556   1.3781   1.4025   1.4172   1.4412   1.4479   1.4787
     1.4947   1.5115   1.5308   1.5983   1.6176   1.6355   1.6446   1.6597
     1.6736   1.6782   1.7114   1.7256   1.7396   1.7559   1.7623   1.8001
     1.8058   1.8382   1.8838   1.8960   1.9085   1.9308   1.9435   1.9496
     1.9589   1.9758   1.9938   2.0018   2.0071   2.0286   2.0304   2.0339
     2.0431   2.0834   2.1699   2.2510   2.2835   2.3474   2.5074   2.7011
     2.7643   2.7972

[...]
     atom    8 type  1   force =    -0.00162471   -0.00030340   -0.09908048
     atom    9 type  1   force =     0.00374560   -0.00055336   -0.10032283
     atom   10 type  1   force =    -0.00193151    0.00085546   -0.01096026
     atom   11 type  1   force =     0.00026528    0.00008374   -0.00743252
     atom   12 type  1   force =     0.00144882    0.00077274   -0.00989261
     atom   13 type  1   force =    -0.00064391   -0.00094135   -0.01065377
     atom   14 type  1   force =     0.00065624    0.00008407   -0.01161023
     atom   15 type  1   force =    -0.00000181   -0.00009631   -0.01155665
     atom   16 type  1   force =     0.00132554    0.00158261   -0.01187025
     atom   17 type  1   force =     0.00059389   -0.00182121   -0.01045832
     atom   18 type  1   force =    -0.00129140   -0.00014980   -0.01147054
     atom   19 type  1   force =     0.00307710    0.00374571    0.01051283
     atom   20 type  1   force =    -0.00109987    0.01611358   -0.00294631
     atom   21 type  1   force =    -0.00247381   -0.00162373    0.01781757
     atom   22 type  1   force =     0.00029348    0.00019069    0.01966059
     atom   23 type  1   force =    -0.00132740   -0.00035811    0.01520971
     atom   24 type  1   force =     0.00032397    0.00157917    0.01504039
     atom   25 type  1   force =    -0.00459426   -0.00241613    0.00967345
     atom   26 type  1   force =    -0.00932361   -0.00987467   -0.00449224
     atom   27 type  1   force =     0.01402296   -0.00699565   -0.00285206
     atom   28 type  1   force =     0.02483459   -0.01426394    0.15227458
     atom   29 type  1   force =    -0.05303066   -0.01201762    0.19622064
     atom   30 type  1   force =     0.00053566   -0.00040985    0.12499392
     atom   31 type  1   force =     0.00159844   -0.02677783    0.13479984
     atom   32 type  1   force =    -0.00200801   -0.00304011    0.11933551
     atom   33 type  1   force =     0.00030902   -0.00147165    0.10343753
     atom   34 type  1   force =     0.00363984    0.00498789    0.11203563
     atom   35 type  1   force =    -0.00299137    0.03867189    0.14043988
     atom   36 type  1   force =    -0.00427538    0.00531898    0.12084754
     atom   37 type  2   force =    -0.01478822   -0.01138188    0.30057517
     atom   38 type  3   force =     1.51571562    0.25496828   -2.23772401
     atom   39 type  4   force =    -0.03970725   -0.00715880   -0.02133653
     The ionic contribution  to forces
     atom    1 type  1   force =    -0.00583297    0.00798936 -111.12667573
     atom    2 type  1   force =     0.00548216    0.00807326 -111.12738577
     atom    3 type  1   force =     0.00035082    0.00210713 -111.11578935
     atom    4 type  1   force =    -0.00011401    0.00203526 -111.11530443
     atom    5 type  1   force =    -0.00221388   -0.00560127 -111.11989550
     atom    6 type  1   force =     0.00232790   -0.00593876 -111.11967219
     atom    7 type  1   force =    -0.00780254   -0.00208626 -111.12322606
     atom    8 type  1   force =    -0.00024655   -0.00421673 -111.13940253
     atom    9 type  1   force =     0.00804907   -0.00236202 -111.12371047
     atom   10 type  1   force =    -0.05995729    0.01153206  -40.16991011
     atom   11 type  1   force =     0.05771369    0.01028708  -40.17493349
     atom   12 type  1   force =     0.00224824    0.00423394  -40.05625435
     atom   13 type  1   force =    -0.00215672    0.06722375  -40.09320149
     atom   14 type  1   force =     0.02371410    0.01518681  -40.04956647
     atom   15 type  1   force =    -0.02155849    0.01381348  -40.04555312
     atom   16 type  1   force =    -0.03332506   -0.02367226  -40.05525755
     atom   17 type  1   force =    -0.00006523   -0.07242654  -40.12251145
     atom   18 type  1   force =     0.03338860   -0.02617678  -40.05510123
     atom   19 type  1   force =    -0.29242762    0.40632180   31.23982456
     atom   20 type  1   force =     0.27793226    0.41849768   31.20344365
     atom   21 type  1   force =     0.01482177    0.09155050   31.73109905
     atom   22 type  1   force =    -0.00676417    0.08660219   31.75324350
     atom   23 type  1   force =    -0.10570646   -0.26783836   31.56460905
     atom   24 type  1   force =     0.11251807   -0.27920452   31.57811597
     atom   25 type  1   force =    -0.38395974   -0.09716058   31.40476856
     atom   26 type  1   force =    -0.01694482   -0.24570410   30.51224983
     atom   27 type  1   force =     0.40003330   -0.11604486   31.38388624
     atom   28 type  1   force =    -4.19585883    0.85367495   98.66152446
     atom   29 type  1   force =     4.36442130    0.77172463   97.74494062
     atom   30 type  1   force =     0.05345866    0.11826339  104.06451790
     atom   31 type  1   force =    -0.06037307    2.78508808  103.07546075
     atom   32 type  1   force =     0.72013674    0.55331361  104.23064464
     atom   33 type  1   force =    -0.66143446    0.52469335  104.25342868
     atom   34 type  1   force =    -1.13685806   -0.88824186  103.96023419
     atom   35 type  1   force =     0.05830896   -3.62710652  101.87652013
     atom   36 type  1   force =     1.07436641   -0.91436053  104.11693749
     atom   37 type  2   force =     3.36518637    0.42406296   52.59357817
     atom   38 type  3   force =    -5.56824686   -0.95677897   88.92558435
     atom   39 type  4   force =     1.98738843    0.35864563   15.05873951
     The local contribution  to forces
     atom    1 type  1   force =     0.00404000   -0.00834221  111.23172043
     atom    2 type  1   force =    -0.00404698   -0.01162739  111.22935698
     atom    3 type  1   force =     0.00003055   -0.00071265  111.21870913
     atom    4 type  1   force =    -0.00178925   -0.00300444  111.22099102
     atom    5 type  1   force =     0.00405576    0.00557801  111.22638391
     atom    6 type  1   force =    -0.00230193    0.00532469  111.22579459
     atom    7 type  1   force =     0.01049599    0.00387468  111.23043320
     atom    8 type  1   force =     0.00212781    0.00519331  111.24122175
     atom    9 type  1   force =    -0.01234519    0.00395257  111.22628483
     atom   10 type  1   force =     0.06164342   -0.01328128   40.15988968
     atom   11 type  1   force =    -0.05795375   -0.01089496   40.15954190
     atom   12 type  1   force =    -0.00386240   -0.00518661   40.04780337
     atom   13 type  1   force =     0.00361649   -0.06622226   40.08712300
     atom   14 type  1   force =    -0.02483245   -0.01561103   40.04136369
     atom   15 type  1   force =     0.02157610   -0.01403216   40.03623324
     atom   16 type  1   force =     0.03211999    0.02306737   40.04554853
     atom   17 type  1   force =    -0.00123350    0.07508379   40.11600306
     atom   18 type  1   force =    -0.03094092    0.02737410   40.04747688
     atom   19 type  1   force =     0.28905248   -0.40839992  -31.22967391
     atom   20 type  1   force =    -0.27623929   -0.43258840  -31.18192352
     atom   21 type  1   force =    -0.01207087   -0.08910203  -31.72546781
     atom   22 type  1   force =     0.00588059   -0.08778036  -31.74680322
     atom   23 type  1   force =     0.10769994    0.26692857  -31.55611603
     atom   24 type  1   force =    -0.11290709    0.27649531  -31.57092994
     atom   25 type  1   force =     0.38673575    0.09955373  -31.39256075
     atom   26 type  1   force =     0.02671821    0.25418098  -30.49247858
     atom   27 type  1   force =    -0.41329498    0.12344340  -31.36163422
     atom   28 type  1   force =     4.15180851   -0.83554268  -98.82197390
     atom   29 type  1   force =    -4.28782440   -0.75732300  -97.92803534
     atom   30 type  1   force =    -0.04910493   -0.11691603 -104.20161015
     atom   31 type  1   force =     0.05339121   -2.74130542 -103.22111486
     atom   32 type  1   force =    -0.71186318   -0.54218942 -104.36134234
     atom   33 type  1   force =     0.65849402   -0.52097099 -104.36599331
     atom   34 type  1   force =     1.13011202    0.87990098 -104.08023319
     atom   35 type  1   force =    -0.05964741    3.57045616 -102.02483824
     atom   36 type  1   force =    -1.06323057    0.89880530 -104.24707990
     atom   37 type  2   force =    -3.35322029   -0.41268217  -52.89593691
     atom   38 type  3   force =     4.07200828    0.70317431  -86.69926422
     atom   39 type  4   force =    -1.94653795   -0.35126443  -15.05422533
     The core correction contribution to forces
     atom    1 type  1   force =    -0.00008091   -0.00011662    0.01002715
     atom    2 type  1   force =     0.00005876   -0.00024349    0.01031740
     atom    3 type  1   force =     0.00006008    0.00005541    0.00970481
     atom    4 type  1   force =    -0.00010365   -0.00007799    0.01050026
     atom    5 type  1   force =     0.00026003    0.00000344    0.01010966
     atom    6 type  1   force =    -0.00009161   -0.00007368    0.01008001
     atom    7 type  1   force =     0.00015426    0.00011831    0.01026204
     atom    8 type  1   force =     0.00038682    0.00032394    0.01027952
     atom    9 type  1   force =    -0.00042886    0.00010250    0.01036407
     atom   10 type  1   force =    -0.00025448    0.00015131   -0.00185389
     atom   11 type  1   force =    -0.00001359    0.00003520   -0.00166903
     atom   12 type  1   force =     0.00017929    0.00003248   -0.00171905
     atom   13 type  1   force =    -0.00016082    0.00032303   -0.00192355
     atom   14 type  1   force =     0.00017512    0.00016360   -0.00189118
     atom   15 type  1   force =    -0.00002858   -0.00011480   -0.00160357
     atom   16 type  1   force =    -0.00020858   -0.00003580   -0.00189752
     atom   17 type  1   force =    -0.00019961   -0.00006033   -0.00169262
     atom   18 type  1   force =     0.00033811   -0.00027043   -0.00196683
     atom   19 type  1   force =    -0.00014480   -0.00012536    0.00125268
     atom   20 type  1   force =     0.00011671   -0.00037566    0.00034818
     atom   21 type  1   force =     0.00021463    0.00005083    0.00179648
     atom   22 type  1   force =     0.00035413    0.00024782    0.00221835
     atom   23 type  1   force =    -0.00006304   -0.00001847    0.00175409
     atom   24 type  1   force =     0.00014938   -0.00030895    0.00151384
     atom   25 type  1   force =     0.00039776   -0.00000033    0.00166031
     atom   26 type  1   force =     0.00039378    0.00064411    0.00163975
     atom   27 type  1   force =     0.00010254    0.00017099    0.00067722
     atom   28 type  1   force =     0.01097914   -0.00191175   -0.00005321
     atom   29 type  1   force =    -0.02058645   -0.00349937    0.02306576
     atom   30 type  1   force =    -0.00288753   -0.00018934   -0.00811565
     atom   31 type  1   force =     0.00152508   -0.00597476   -0.00803932
     atom   32 type  1   force =    -0.00136484   -0.00275412   -0.00851209
     atom   33 type  1   force =     0.00005500   -0.00053360   -0.01058457
     atom   34 type  1   force =     0.00031154    0.00070113   -0.00949100
     atom   35 type  1   force =     0.00114025    0.00729989   -0.00674408
     atom   36 type  1   force =    -0.00160513    0.00336891   -0.00870377
     atom   37 type  2   force =    -0.00271233   -0.00074631   -0.00194495
     atom   38 type  3   force =    -0.01183362   -0.00203261    0.01757291
     atom   39 type  4   force =     0.00000000    0.00000000    0.00000000
     The Hubbard contrib.    to forces
     atom    1 type  1   force =     0.00000000    0.00000000    0.00000000
     atom    2 type  1   force =     0.00000000    0.00000000    0.00000000
     atom    3 type  1   force =     0.00000000    0.00000000    0.00000000
     atom    4 type  1   force =     0.00000000    0.00000000    0.00000000
     atom    5 type  1   force =     0.00000000    0.00000000    0.00000000
     atom    6 type  1   force =     0.00000000    0.00000000    0.00000000
     atom    7 type  1   force =     0.00000000    0.00000000    0.00000000
     atom    8 type  1   force =     0.00000000    0.00000000    0.00000000
     atom    9 type  1   force =     0.00000000    0.00000000    0.00000000
     atom   10 type  1   force =     0.00000000    0.00000000    0.00000000
     atom   11 type  1   force =     0.00000000    0.00000000    0.00000000
     atom   12 type  1   force =     0.00000000    0.00000000    0.00000000
     atom   13 type  1   force =     0.00000000    0.00000000    0.00000000
     atom   14 type  1   force =     0.00000000    0.00000000    0.00000000
     atom   15 type  1   force =     0.00000000    0.00000000    0.00000000
     atom   16 type  1   force =     0.00000000    0.00000000    0.00000000
     atom   17 type  1   force =     0.00000000    0.00000000    0.00000000
     atom   18 type  1   force =     0.00000000    0.00000000    0.00000000
     atom   19 type  1   force =     0.00000000    0.00000000    0.00000000
     atom   20 type  1   force =     0.00000000    0.00000000    0.00000000
     atom   21 type  1   force =     0.00000000    0.00000000    0.00000000
     atom   22 type  1   force =     0.00000000    0.00000000    0.00000000
     atom   23 type  1   force =     0.00000000    0.00000000    0.00000000
     atom   24 type  1   force =     0.00000000    0.00000000    0.00000000
     atom   25 type  1   force =     0.00000000    0.00000000    0.00000000
     atom   26 type  1   force =     0.00000000    0.00000000    0.00000000
     atom   27 type  1   force =     0.00000000    0.00000000    0.00000000
     atom   28 type  1   force =     0.00000000    0.00000000    0.00000000
     atom   29 type  1   force =     0.00000000    0.00000000    0.00000000
     atom   30 type  1   force =     0.00000000    0.00000000    0.00000000
     atom   31 type  1   force =     0.00000000    0.00000000    0.00000000
     atom   32 type  1   force =     0.00000000    0.00000000    0.00000000
     atom   33 type  1   force =     0.00000000    0.00000000    0.00000000
     atom   34 type  1   force =     0.00000000    0.00000000    0.00000000
     atom   35 type  1   force =     0.00000000    0.00000000    0.00000000
     atom   36 type  1   force =     0.00000000    0.00000000    0.00000000
     atom   37 type  2   force =     0.00000000    0.00000000    0.00000000
     atom   38 type  3   force =     0.00000000    0.00000000    0.00000000
     atom   39 type  4   force =     0.00000000    0.00000000    0.00000000
     The SCF correction term to forces
     atom    1 type  1   force =    -0.00000000    0.00000000    0.00000000
     atom    2 type  1   force =     0.00000000    0.00000000    0.00000000
     atom    3 type  1   force =    -0.00000000   -0.00000000    0.00000000
     atom    4 type  1   force =    -0.00000000    0.00000000    0.00000000
     atom    5 type  1   force =    -0.00000000   -0.00000000    0.00000000
     atom    6 type  1   force =     0.00000000   -0.00000000    0.00000000
     atom    7 type  1   force =    -0.00000000   -0.00000000    0.00000000
     atom    8 type  1   force =     0.00000000    0.00000000    0.00000000
     atom    9 type  1   force =     0.00000000   -0.00000000    0.00000000
     atom   10 type  1   force =    -0.00000000   -0.00000000   -0.00000000
     atom   11 type  1   force =     0.00000000    0.00000000   -0.00000000
     atom   12 type  1   force =    -0.00000000   -0.00000000   -0.00000000
     atom   13 type  1   force =     0.00000000    0.00000000   -0.00000000
     atom   14 type  1   force =    -0.00000000   -0.00000000   -0.00000000
     atom   15 type  1   force =    -0.00000000   -0.00000000   -0.00000000
     atom   16 type  1   force =    -0.00000000    0.00000000   -0.00000000
     atom   17 type  1   force =    -0.00000000   -0.00000000   -0.00000000
     atom   18 type  1   force =     0.00000000    0.00000000   -0.00000000
     atom   19 type  1   force =    -0.00000000    0.00000000   -0.00000000
     atom   20 type  1   force =     0.00000000    0.00000000   -0.00000000
     atom   21 type  1   force =     0.00000000   -0.00000000   -0.00000000
     atom   22 type  1   force =     0.00000000    0.00000000   -0.00000000
     atom   23 type  1   force =    -0.00000000    0.00000000   -0.00000000
     atom   24 type  1   force =     0.00000000   -0.00000000   -0.00000000
     atom   25 type  1   force =    -0.00000000   -0.00000000   -0.00000000
     atom   26 type  1   force =    -0.00000000    0.00000000   -0.00000000
     atom   27 type  1   force =     0.00000000   -0.00000000   -0.00000000
     atom   28 type  1   force =    -0.00000000   -0.00000000   -0.00000000
     atom   29 type  1   force =    -0.00000000    0.00000000   -0.00000000
     atom   30 type  1   force =     0.00000000   -0.00000000   -0.00000000
     atom   31 type  1   force =    -0.00000000    0.00000000   -0.00000000
     atom   32 type  1   force =    -0.00000000    0.00000000   -0.00000000
     atom   33 type  1   force =     0.00000000   -0.00000000   -0.00000000
     atom   34 type  1   force =    -0.00000000   -0.00000000   -0.00000000
     atom   35 type  1   force =    -0.00000000    0.00000000   -0.00000000
     atom   36 type  1   force =     0.00000000   -0.00000000   -0.00000000
     atom   37 type  2   force =    -0.00003012    0.00001949   -0.00013422
     atom   38 type  3   force =    -0.00001043    0.00001054   -0.00017715
     atom   39 type  4   force =    -0.00000120    0.00000067   -0.00001941

     Total force =     0.020570     Total SCF correction =     0.000226

     Writing all to output data dir ./pwscf.save/

     init_run     :     18.29s CPU     19.06s WALL (       1 calls)
     electrons    :    760.87s CPU    777.89s WALL (       1 calls)
     forces       :      4.82s CPU      4.93s WALL (       1 calls)

     Called by init_run:
     wfcinit      :      7.12s CPU      7.39s WALL (       1 calls)
     potinit      :      9.74s CPU     10.09s WALL (       1 calls)
     hinit0       :      1.05s CPU      1.06s WALL (       1 calls)

     Called by electrons:
     c_bands      :    641.08s CPU    653.14s WALL (      41 calls)
     sum_band     :     78.51s CPU     82.43s WALL (      41 calls)
     v_of_rho     :     14.48s CPU     14.94s WALL (      42 calls)
     newd         :      3.57s CPU      3.74s WALL (      42 calls)
     PAW_pot      :     16.68s CPU     16.90s WALL (      42 calls)
     mix_rho      :     10.31s CPU     10.48s WALL (      41 calls)
     vdW_kernel   :      1.09s CPU      1.10s WALL (       1 calls)

     Called by c_bands:
     init_us_2    :      5.14s CPU      5.46s WALL (    2184 calls)
     init_us_2:cp :      5.13s CPU      5.46s WALL (    2184 calls)
     cegterg      :    622.16s CPU    633.67s WALL (    1066 calls)

     Called by *egterg:
     cdiaghg      :    176.11s CPU    179.12s WALL (    3717 calls)
     h_psi        :    308.04s CPU    314.39s WALL (    3743 calls)
     s_psi        :     23.19s CPU     23.50s WALL (    3743 calls)
     g_psi        :      0.47s CPU      0.48s WALL (    2651 calls)

     Called by h_psi:
     h_psi:calbec :     45.77s CPU     46.68s WALL (    3743 calls)
     vloc_psi     :    236.81s CPU    241.88s WALL (    3743 calls)
     add_vuspsi   :     24.30s CPU     24.66s WALL (    3743 calls)

     General routines
     calbec       :     65.07s CPU     66.81s WALL (    4913 calls)
     fft          :     17.06s CPU     17.77s WALL (    3815 calls)
     ffts         :      7.35s CPU      7.49s WALL (   14790 calls)
     fftw         :    272.65s CPU    280.09s WALL ( 1116222 calls)
     interpolate  :      5.86s CPU      6.11s WALL (      84 calls)

     Parallel routines

     PWSCF        :  13m 8.18s CPU  13m30.53s WALL


   This run was terminated on:  14:38: 6   6Dec2025            

=------------------------------------------------------------------------------=
   JOB DONE.
=------------------------------------------------------------------------------=
