
     Program PWSCF v.7.1 starts on  4Dec2025 at 20:16:44 
        Git branch: heads/qe-7.1
        Last git commit: 48ba0178f8fede6d020eb786884699a9f063f55d-dirty
        Last git commit date: Fri Jan 27 14:22:33 2023 +0000
        Last git commit subject: Merge branch 'fix_hubbard' into 'develop'

     This program is part of the open-source Quantum ESPRESSO suite
     for quantum simulation of materials; please cite
         "P. Giannozzi et al., J. Phys.:Condens. Matter 21 395502 (2009);
         "P. Giannozzi et al., J. Phys.:Condens. Matter 29 465901 (2017);
         "P. Giannozzi et al., J. Chem. Phys. 152 154105 (2020);
          URL http://www.quantum-espresso.org", 
     in publications or presentations arising from this work. More details at
     http://www.quantum-espresso.org/quote

     Parallel version (MPI), running on    96 processors

     MPI processes distributed on     2 nodes
     37981 MiB available memory on the printing compute node when the environment starts

     Reading input from espresso.pwi
Warning: card &CELL ignored
Warning: card / ignored
Warning: card &FCP ignored
Warning: card / ignored
Warning: card &RISM ignored
Warning: card / ignored

     Current dimensions of program PWSCF are:
     Max number of different atomic species (ntypx) = 10
     Max number of k-points (npk) =  40000
     Max angular momentum in pseudopotentials (lmaxx) =  4
     file Co.pbe-n-kjpaw_psl.1.0.0.UPF: wavefunction(s)  4S 3D renormalized
     file C.pbe-n-kjpaw_psl.1.0.0.UPF: wavefunction(s)  2S 2P renormalized
     file O.pbe-nl-kjpaw_psl.1.0.0.UPF: wavefunction(s)  2S 2P renormalized
     file H.pbe-kjpaw_psl.1.0.0.UPF: wavefunction(s)  1S renormalized

     **************************************************************************
     Initializing libbeef V0.1.2 with the BEEF-vdW functional.
     Citation: Wellendorff et al., PRB 85, 235149 (2012).
     **************************************************************************


     IMPORTANT: XC functional enforced from input :
     Exchange-correlation= BEEF-VDW
                           (   1   4  43  14   2   0   0)
     Any further DFT definition will be discarded
     Please, verify this is what you really want


     R & G space division:  proc/nbgrp/npool/nimage =      96
     Subspace diagonalization in iterative solution of the eigenvalue problem:
     one sub-group per band group will be used
     custom distributed-memory algorithm (size of sub-group:  2*  2 procs)


     Parallelization info
     --------------------
     sticks:   dense  smooth     PW     G-vecs:    dense   smooth      PW
     Min          43      23      6                 7829     3049     440
     Max          44      24      7                 7845     3068     465
     Sum        4153    2221    613               752179   293251   42993

     Using Slab Decomposition



     bravais-lattice index     =            0
     lattice parameter (alat)  =      14.1729  a.u.
     unit-cell volume          =    8574.3059 (a.u.)^3
     number of atoms/cell      =           39
     number of atomic types    =            4
     number of electrons       =       335.00
     number of Kohn-Sham states=          202
     kinetic-energy cutoff     =      40.0000  Ry
     charge density cutoff     =     300.0000  Ry
     scf convergence threshold =      1.0E-06
     mixing beta               =       0.7000
     number of iterations used =            8  local-TF  mixing
     Exchange-correlation= BEEF-VDW
                           (   1   4  43  14   2   0   0)

     celldm(1)=  14.172946  celldm(2)=   0.000000  celldm(3)=   0.000000
     celldm(4)=   0.000000  celldm(5)=   0.000000  celldm(6)=   0.000000

     crystal axes: (cart. coord. in units of alat)
               a(1) = (   1.000000   0.000000   0.000000 )  
               a(2) = (   0.500000   0.866025   0.000000 )  
               a(3) = (   0.000000   0.000000   3.477667 )  

     reciprocal axes: (cart. coord. in units 2 pi/alat)
               b(1) = (  1.000000 -0.577350  0.000000 )  
               b(2) = (  0.000000  1.154701  0.000000 )  
               b(3) = (  0.000000  0.000000  0.287549 )  


     PseudoPot. # 1 for Co read from file:
     /users/kbadger1/espresso/pseudo/pslibrary.1.0.0/pbe/PSEUDOPOTENTIALS/Co.pbe-n-kjpaw_psl.1.0.0.UPF
     MD5 check sum: 88af6ec42553d4236c267fdfcb472151
     Pseudo is Projector augmented-wave + core cor, Zval =  9.0
     Generated using 'atomic' code by A. Dal Corso  v.7.0
     Shape of augmentation charge: PSQ
     Using radial grid of 1193 points,  6 beta functions with: 
                l(1) =   0
                l(2) =   0
                l(3) =   1
                l(4) =   1
                l(5) =   2
                l(6) =   2
     Q(r) pseudized with 0 coefficients 


     PseudoPot. # 2 for C  read from file:
     /users/kbadger1/espresso/pseudo/pslibrary.1.0.0/pbe/PSEUDOPOTENTIALS/C.pbe-n-kjpaw_psl.1.0.0.UPF
     MD5 check sum: 6408e75cdba28732cea38a4db8498ce4
     Pseudo is Projector augmented-wave + core cor, Zval =  4.0
     Generated using 'atomic' code by A. Dal Corso  v.7.0
     Shape of augmentation charge: PSQ
     Using radial grid of 1073 points,  4 beta functions with: 
                l(1) =   0
                l(2) =   0
                l(3) =   1
                l(4) =   1
     Q(r) pseudized with 0 coefficients 


     PseudoPot. # 3 for O  read from file:
     /users/kbadger1/espresso/pseudo/pslibrary.1.0.0/pbe/PSEUDOPOTENTIALS/O.pbe-nl-kjpaw_psl.1.0.0.UPF
     MD5 check sum: f0439fab3598ca4e468f064226030408
     Pseudo is Projector augmented-wave + core cor, Zval =  6.0
     Generated using 'atomic' code by A. Dal Corso  v.7.0
     Shape of augmentation charge: PSQ
     Using radial grid of 1095 points,  4 beta functions with: 
                l(1) =   0
                l(2) =   0
                l(3) =   1
                l(4) =   1
     Q(r) pseudized with 0 coefficients 


     PseudoPot. # 4 for H  read from file:
     /users/kbadger1/espresso/pseudo/pslibrary.1.0.0/pbe/PSEUDOPOTENTIALS/H.pbe-kjpaw_psl.1.0.0.UPF
     MD5 check sum: fe4c6fa958fa6d3815bf5d2419cbf1df
     Pseudo is Projector augmented-wave, Zval =  1.0
     Generated using 'atomic' code by A. Dal Corso  v.7.0
     Shape of augmentation charge: PSQ
     Using radial grid of  929 points,  2 beta functions with: 
                l(1) =   0
                l(2) =   0
     Q(r) pseudized with 0 coefficients 


     atomic species   valence    mass     pseudopotential
        Co             9.00    58.93319     Co( 1.00)
        C              4.00    12.00000     C ( 1.00)
        O              6.00    15.99491     O ( 1.00)
        H              1.00     1.00783     H ( 1.00)

     Starting magnetic structure 
     atomic species   magnetization
        Co           1.000
        C            1.000
        O            0.000
        H            0.000

     No symmetry found



   Cartesian axes

     site n.     atom                  positions (alat units)
         1           Co  tau(   1) = (   0.0000000   0.1924501   1.3333333  )
         2           Co  tau(   2) = (   0.3333333   0.1924501   1.3333333  )
         3           Co  tau(   3) = (   0.6666667   0.1924501   1.3333333  )
         4           Co  tau(   4) = (   0.1666667   0.4811252   1.3333333  )
         5           Co  tau(   5) = (   0.5000000   0.4811252   1.3333333  )
         6           Co  tau(   6) = (   0.8333333   0.4811252   1.3333333  )
         7           Co  tau(   7) = (   0.3333333   0.7698004   1.3333333  )
         8           Co  tau(   8) = (   0.6666667   0.7698004   1.3333333  )
         9           Co  tau(   9) = (   1.0000000   0.7698004   1.3333333  )
        10           Co  tau(  10) = (   0.0000000   0.0000000   1.6036667  )
        11           Co  tau(  11) = (   0.3333333   0.0000000   1.6036667  )
        12           Co  tau(  12) = (   0.6666667   0.0000000   1.6036667  )
        13           Co  tau(  13) = (   0.1666667   0.2886751   1.6036667  )
        14           Co  tau(  14) = (   0.5000000   0.2886751   1.6036667  )
        15           Co  tau(  15) = (   0.8333333   0.2886751   1.6036667  )
        16           Co  tau(  16) = (   0.3333333   0.5773503   1.6036667  )
        17           Co  tau(  17) = (   0.6666667   0.5773503   1.6036667  )
        18           Co  tau(  18) = (   1.0000000   0.5773503   1.6036667  )
        19           Co  tau(  19) = (   0.0000000   0.1924501   1.8740000  )
        20           Co  tau(  20) = (   0.3333333   0.1924501   1.8740000  )
        21           Co  tau(  21) = (   0.6666667   0.1924501   1.8740000  )
        22           Co  tau(  22) = (   0.1666667   0.4811252   1.8740000  )
        23           Co  tau(  23) = (   0.5000000   0.4811252   1.8740000  )
        24           Co  tau(  24) = (   0.8333333   0.4811252   1.8740000  )
        25           Co  tau(  25) = (   0.3333333   0.7698004   1.8740000  )
        26           Co  tau(  26) = (   0.6666667   0.7698004   1.8740000  )
        27           Co  tau(  27) = (   1.0000000   0.7698004   1.8740000  )
        28           Co  tau(  28) = (   0.0000000   0.0000000   2.1443333  )
        29           Co  tau(  29) = (   0.3333333   0.0000000   2.1443333  )
        30           Co  tau(  30) = (   0.6666667   0.0000000   2.1443333  )
        31           Co  tau(  31) = (   0.1666667   0.2886751   2.1443333  )
        32           Co  tau(  32) = (   0.5000000   0.2886751   2.1443333  )
        33           Co  tau(  33) = (   0.8333333   0.2886751   2.1443333  )
        34           Co  tau(  34) = (   0.3333333   0.5773503   2.1443333  )
        35           Co  tau(  35) = (   0.6666667   0.5773503   2.1443333  )
        36           Co  tau(  36) = (   1.0000000   0.5773503   2.1443333  )
        37           C   tau(  37) = (   0.3985905   0.1737049   2.3428040  )
        38           O   tau(  38) = (   0.3313667   0.0935731   2.4678125  )
        39           H   tau(  39) = (   0.5035823   0.2919890   2.3794153  )

     number of k points=    13  Marzari-Vanderbilt smearing, width (Ry)=  0.0010
                       cart. coord. in units 2pi/alat
        k(    1) = (   0.0000000   0.0000000   0.0000000), wk =   0.0400000
        k(    2) = (   0.0000000   0.2309401   0.0000000), wk =   0.0800000
        k(    3) = (   0.0000000   0.4618802   0.0000000), wk =   0.0800000
        k(    4) = (   0.2000000  -0.1154701   0.0000000), wk =   0.0800000
        k(    5) = (   0.2000000   0.1154701   0.0000000), wk =   0.0800000
        k(    6) = (   0.2000000   0.3464102   0.0000000), wk =   0.0800000
        k(    7) = (   0.2000000  -0.5773503   0.0000000), wk =   0.0800000
        k(    8) = (   0.2000000  -0.3464102   0.0000000), wk =   0.0800000
        k(    9) = (   0.4000000  -0.2309401   0.0000000), wk =   0.0800000
        k(   10) = (   0.4000000   0.0000000   0.0000000), wk =   0.0800000
        k(   11) = (   0.4000000   0.2309401   0.0000000), wk =   0.0800000
        k(   12) = (   0.4000000  -0.6928203   0.0000000), wk =   0.0800000
        k(   13) = (   0.4000000  -0.4618802   0.0000000), wk =   0.0800000

     Dense  grid:   752179 G-vectors     FFT dimensions: (  80,  80, 288)

     Smooth grid:   293251 G-vectors     FFT dimensions: (  60,  60, 200)

     Estimated max dynamical RAM per process >      84.82 MB

     Estimated total dynamical RAM >       7.95 GB
     Generating pointlists ...
     new r_m :   0.0970 (alat units)  1.3747 (a.u.) for type    1
     new r_m :   0.0670 (alat units)  0.9491 (a.u.) for type    2
     new r_m :   0.0672 (alat units)  0.9529 (a.u.) for type    3
     new r_m :   0.0670 (alat units)  0.9491 (a.u.) for type    4

     Initial potential from superposition of free atoms

     starting charge     334.9897, renormalised to     335.0000

     negative rho (up, down):  3.045E-03 4.687E-04


     %%%%%%%%%%%%%%%%%%%%%%%%%%%%%%%%%%%%%%%%%%%%%%%%%%%%%%%%%%%%%%%%%%%%%%%%
     %                                                                      %
     % You are using vdW-DF, which was implemented by the Thonhauser group. %
     % Please cite the following two papers that made this development      %
     % possible and the two reviews that describe the various versions:     %
     %                                                                      %
     %   T. Thonhauser et al., PRL 115, 136402 (2015).                      %
     %   T. Thonhauser et al., PRB 76, 125112 (2007).                       %
     %   K. Berland et al., Rep. Prog. Phys. 78, 066501 (2015).             %
     %   D.C. Langreth et al., J. Phys.: Condens. Matter 21, 084203 (2009). %
     %                                                                      %
     % If you are calculating stress with vdW-DF, please also cite:         %
     %                                                                      %
     %   R. Sabatini et al., J. Phys.: Condens. Matter 24, 424209 (2012).   %
     %   C.M. Frostenson et al., Electr. Struct. 4, 014001 (2022).          %
     %                                                                      %
     %%%%%%%%%%%%%%%%%%%%%%%%%%%%%%%%%%%%%%%%%%%%%%%%%%%%%%%%%%%%%%%%%%%%%%%%

     %%%%%%%%%%%%%%%%%%%%%%%%%%%%%%%%%%%%%%%%%%%%%%%%%%%%%%%%%%%%%%%%%%%%%%%%
     %                                                                      %
     %  vdW-DF NEWS:                                                        %
     %                                                                      %
     %  * vdW-DF3 is now available. DOI: 10.1021/acs.jctc.0c00471           %
     %    use with input_dft = 'vdW-DF3-opt1' or 'vdW-DF3-opt2'             %
     %                                                                      %
     %  * Unscreened and range-separated hybrid vdW-DF-cx functionals       %
     %    DOI: 10.1063/1.4986522 and 10.1088/1361-648X/ac2ad2               %
     %    use with input_dft = 'vdW-DF-cx0'    and 'vdW-DF-ahcx'            %
     %  * Unscreened and range-separated hybrid vdW-DF2-b86r functionals    %
     %    DOI: 10.1063/1.4986522 and DOI: 10.1103/PhysRevX.12.041003        %
     %    use with input_dft = 'vdW-DF2-br0' and 'vdW-DF2-ahbr'             %
     %                                                                      %
     %%%%%%%%%%%%%%%%%%%%%%%%%%%%%%%%%%%%%%%%%%%%%%%%%%%%%%%%%%%%%%%%%%%%%%%%


     Starting wfcs are  333 randomized atomic wfcs
     Checking if some PAW data can be deallocated... 

     total cpu time spent up to now is       11.4 secs

     per-process dynamical memory:   212.3 Mb

     Self-consistent Calculation

     iteration #  1     ecut=    40.00 Ry     beta= 0.70
     Davidson diagonalization with overlap
     ethr =  1.00E-02,  avg # of iterations =  2.0

     negative rho (up, down):  5.736E-05 1.155E-06

     total cpu time spent up to now is       27.8 secs

     total energy              =   -6052.96164430 Ry
     estimated scf accuracy    <      39.67253377 Ry

     total magnetization       =    69.00 Bohr mag/cell
     absolute magnetization    =    81.37 Bohr mag/cell

     iteration #  2     ecut=    40.00 Ry     beta= 0.70
     Davidson diagonalization with overlap
     ethr =  1.00E-02,  avg # of iterations =  1.0

     negative rho (up, down):  2.263E-05 5.963E-07

     total cpu time spent up to now is       40.0 secs

     total energy              =   -6052.43327367 Ry
     estimated scf accuracy    <      24.61754428 Ry

     total magnetization       =    68.52 Bohr mag/cell
     absolute magnetization    =    76.74 Bohr mag/cell

     iteration #  3     ecut=    40.00 Ry     beta= 0.70
     Davidson diagonalization with overlap
     ethr =  7.35E-03,  avg # of iterations =  1.0

     negative rho (up, down):  1.258E-06 2.058E-06

     total cpu time spent up to now is       51.9 secs

     total energy              =   -6054.99664929 Ry
     estimated scf accuracy    <      86.51370538 Ry

     total magnetization       =    65.74 Bohr mag/cell
     absolute magnetization    =    73.13 Bohr mag/cell

     iteration #  4     ecut=    40.00 Ry     beta= 0.70
     Davidson diagonalization with overlap
     ethr =  7.35E-03,  avg # of iterations =  1.0

     negative rho (up, down):  1.401E-06 5.995E-07

     total cpu time spent up to now is       65.8 secs

     total energy              =   -6056.23326249 Ry
     estimated scf accuracy    <       5.52441538 Ry

     total magnetization       =    60.47 Bohr mag/cell
     absolute magnetization    =    70.49 Bohr mag/cell

     iteration #  5     ecut=    40.00 Ry     beta= 0.70
     Davidson diagonalization with overlap
     ethr =  1.65E-03,  avg # of iterations =  1.4

     negative rho (up, down):  1.264E-06 5.690E-07

     total cpu time spent up to now is       78.1 secs

     total energy              =   -6056.24315525 Ry
     estimated scf accuracy    <       2.59146144 Ry

     total magnetization       =    60.25 Bohr mag/cell
     absolute magnetization    =    69.76 Bohr mag/cell

     iteration #  6     ecut=    40.00 Ry     beta= 0.70
     Davidson diagonalization with overlap
     ethr =  7.74E-04,  avg # of iterations =  1.7

     negative rho (up, down):  1.171E-06 5.770E-07

     total cpu time spent up to now is       92.5 secs

     total energy              =   -6056.36343198 Ry
     estimated scf accuracy    <       0.59375078 Ry

     total magnetization       =    60.20 Bohr mag/cell
     absolute magnetization    =    69.49 Bohr mag/cell

     iteration #  7     ecut=    40.00 Ry     beta= 0.70
     Davidson diagonalization with overlap
     ethr =  1.77E-04,  avg # of iterations =  5.3

     negative rho (up, down):  1.005E-06 5.018E-07

     total cpu time spent up to now is      109.3 secs

     total energy              =   -6056.39733532 Ry
     estimated scf accuracy    <       0.90215890 Ry

     total magnetization       =    60.20 Bohr mag/cell
     absolute magnetization    =    69.10 Bohr mag/cell

     iteration #  8     ecut=    40.00 Ry     beta= 0.70
     Davidson diagonalization with overlap
     ethr =  1.77E-04,  avg # of iterations =  1.8

     negative rho (up, down):  3.984E-07 1.742E-07

     total cpu time spent up to now is      123.1 secs

     total energy              =   -6056.40934534 Ry
     estimated scf accuracy    <       0.14112185 Ry

     total magnetization       =    60.45 Bohr mag/cell
     absolute magnetization    =    69.10 Bohr mag/cell

     iteration #  9     ecut=    40.00 Ry     beta= 0.70
     Davidson diagonalization with overlap
     c_bands:  3 eigenvalues not converged
     c_bands:  3 eigenvalues not converged
     ethr =  4.21E-05,  avg # of iterations = 12.7

     negative rho (up, down):  2.450E-07 1.178E-07

     total cpu time spent up to now is      150.2 secs

     total energy              =   -6056.42136845 Ry
     estimated scf accuracy    <       0.21457305 Ry

     total magnetization       =    61.10 Bohr mag/cell
     absolute magnetization    =    69.11 Bohr mag/cell

     iteration # 10     ecut=    40.00 Ry     beta= 0.70
     Davidson diagonalization with overlap
     ethr =  4.21E-05,  avg # of iterations =  1.9

     negative rho (up, down):  2.895E-07 1.498E-07

     total cpu time spent up to now is      162.8 secs

     total energy              =   -6056.42969929 Ry
     estimated scf accuracy    <       0.21984405 Ry

     total magnetization       =    61.22 Bohr mag/cell
     absolute magnetization    =    69.04 Bohr mag/cell

     iteration # 11     ecut=    40.00 Ry     beta= 0.70
     Davidson diagonalization with overlap
     ethr =  4.21E-05,  avg # of iterations =  1.0

     negative rho (up, down):  1.075E-07 4.376E-08

     total cpu time spent up to now is      175.7 secs

     total energy              =   -6056.42106950 Ry
     estimated scf accuracy    <       0.12497999 Ry

     total magnetization       =    61.13 Bohr mag/cell
     absolute magnetization    =    68.89 Bohr mag/cell

     iteration # 12     ecut=    40.00 Ry     beta= 0.70
     Davidson diagonalization with overlap
     ethr =  3.73E-05,  avg # of iterations =  1.9

     negative rho (up, down):  1.017E-07 7.053E-08

     total cpu time spent up to now is      189.2 secs

     total energy              =   -6056.42507495 Ry
     estimated scf accuracy    <       0.07992625 Ry

     total magnetization       =    61.10 Bohr mag/cell
     absolute magnetization    =    68.65 Bohr mag/cell

     iteration # 13     ecut=    40.00 Ry     beta= 0.70
     Davidson diagonalization with overlap
     ethr =  2.39E-05,  avg # of iterations =  2.1

     negative rho (up, down):  1.863E-08 1.163E-08

     total cpu time spent up to now is      201.4 secs

     total energy              =   -6056.42382153 Ry
     estimated scf accuracy    <       0.08336559 Ry

     total magnetization       =    61.09 Bohr mag/cell
     absolute magnetization    =    68.58 Bohr mag/cell

     iteration # 14     ecut=    40.00 Ry     beta= 0.70
     Davidson diagonalization with overlap
     ethr =  2.39E-05,  avg # of iterations =  1.5

     negative rho (up, down):  2.859E-07 3.218E-08

     total cpu time spent up to now is      214.9 secs

     total energy              =   -6056.42167251 Ry
     estimated scf accuracy    <       0.07754160 Ry

     total magnetization       =    61.12 Bohr mag/cell
     absolute magnetization    =    68.61 Bohr mag/cell

     iteration # 15     ecut=    40.00 Ry     beta= 0.70
     Davidson diagonalization with overlap
     ethr =  2.31E-05,  avg # of iterations =  1.3

     negative rho (up, down):  2.862E-03 1.730E-03

     total cpu time spent up to now is      226.5 secs

     total energy              =   -6056.41773232 Ry
     estimated scf accuracy    <       0.11331841 Ry

     total magnetization       =    61.09 Bohr mag/cell
     absolute magnetization    =    68.56 Bohr mag/cell

     iteration # 16     ecut=    40.00 Ry     beta= 0.70
     Davidson diagonalization with overlap
     ethr =  2.31E-05,  avg # of iterations =  1.4

     negative rho (up, down):  1.520E-02 1.331E-02

     total cpu time spent up to now is      240.8 secs

     total energy              =   -6056.41628191 Ry
     estimated scf accuracy    <       0.07814869 Ry

     total magnetization       =    61.09 Bohr mag/cell
     absolute magnetization    =    68.52 Bohr mag/cell

     iteration # 17     ecut=    40.00 Ry     beta= 0.70
     Davidson diagonalization with overlap
     ethr =  2.31E-05,  avg # of iterations =  1.4

     negative rho (up, down):  2.567E-02 2.351E-02

     total cpu time spent up to now is      252.6 secs

     total energy              =   -6056.41674621 Ry
     estimated scf accuracy    <       0.03121721 Ry

     total magnetization       =    61.13 Bohr mag/cell
     absolute magnetization    =    68.53 Bohr mag/cell

     iteration # 18     ecut=    40.00 Ry     beta= 0.70
     Davidson diagonalization with overlap
     c_bands:  4 eigenvalues not converged
     c_bands:  1 eigenvalues not converged
     ethr =  9.32E-06,  avg # of iterations =  6.2

     negative rho (up, down):  1.030E-02 9.051E-03

     total cpu time spent up to now is      270.7 secs

     total energy              =   -6056.41685127 Ry
     estimated scf accuracy    <       0.05900116 Ry

     total magnetization       =    61.15 Bohr mag/cell
     absolute magnetization    =    68.49 Bohr mag/cell

     iteration # 19     ecut=    40.00 Ry     beta= 0.70
     Davidson diagonalization with overlap
     ethr =  9.32E-06,  avg # of iterations =  1.1

     negative rho (up, down):  1.646E-02 1.507E-02

     total cpu time spent up to now is      282.1 secs

     total energy              =   -6056.41739861 Ry
     estimated scf accuracy    <       0.01931028 Ry

     total magnetization       =    61.14 Bohr mag/cell
     absolute magnetization    =    68.52 Bohr mag/cell

     iteration # 20     ecut=    40.00 Ry     beta= 0.70
     Davidson diagonalization with overlap
     ethr =  5.76E-06,  avg # of iterations =  2.2

     negative rho (up, down):  1.315E-02 1.210E-02

     total cpu time spent up to now is      296.8 secs

     total energy              =   -6056.41695811 Ry
     estimated scf accuracy    <       0.01442612 Ry

     total magnetization       =    61.14 Bohr mag/cell
     absolute magnetization    =    68.52 Bohr mag/cell

     iteration # 21     ecut=    40.00 Ry     beta= 0.70
     Davidson diagonalization with overlap
     c_bands:  1 eigenvalues not converged
     ethr =  4.31E-06,  avg # of iterations =  2.2

     negative rho (up, down):  8.423E-03 7.546E-03

     total cpu time spent up to now is      309.4 secs

     total energy              =   -6056.41658237 Ry
     estimated scf accuracy    <       0.01495817 Ry

     total magnetization       =    61.11 Bohr mag/cell
     absolute magnetization    =    68.51 Bohr mag/cell

     iteration # 22     ecut=    40.00 Ry     beta= 0.70
     Davidson diagonalization with overlap
     ethr =  4.31E-06,  avg # of iterations =  1.3

     negative rho (up, down):  7.309E-03 6.644E-03

     total cpu time spent up to now is      320.8 secs

     total energy              =   -6056.41670804 Ry
     estimated scf accuracy    <       0.00942830 Ry

     total magnetization       =    61.14 Bohr mag/cell
     absolute magnetization    =    68.54 Bohr mag/cell

     iteration # 23     ecut=    40.00 Ry     beta= 0.70
     Davidson diagonalization with overlap
     c_bands:  1 eigenvalues not converged
     ethr =  2.81E-06,  avg # of iterations =  3.0

     negative rho (up, down):  1.272E-02 1.220E-02

     total cpu time spent up to now is      335.6 secs

     total energy              =   -6056.41711115 Ry
     estimated scf accuracy    <       0.00998295 Ry

     total magnetization       =    61.16 Bohr mag/cell
     absolute magnetization    =    68.56 Bohr mag/cell

     iteration # 24     ecut=    40.00 Ry     beta= 0.70
     Davidson diagonalization with overlap
     ethr =  2.81E-06,  avg # of iterations =  1.4

     negative rho (up, down):  8.062E-03 7.420E-03

     total cpu time spent up to now is      347.3 secs

     total energy              =   -6056.41706442 Ry
     estimated scf accuracy    <       0.00313698 Ry

     total magnetization       =    61.14 Bohr mag/cell
     absolute magnetization    =    68.55 Bohr mag/cell

     iteration # 25     ecut=    40.00 Ry     beta= 0.70
     Davidson diagonalization with overlap
     ethr =  9.36E-07,  avg # of iterations =  3.1

     negative rho (up, down):  4.932E-03 4.275E-03

     total cpu time spent up to now is      362.9 secs

     total energy              =   -6056.41678616 Ry
     estimated scf accuracy    <       0.00541813 Ry

     total magnetization       =    61.14 Bohr mag/cell
     absolute magnetization    =    68.54 Bohr mag/cell

     iteration # 26     ecut=    40.00 Ry     beta= 0.70
     Davidson diagonalization with overlap
     ethr =  9.36E-07,  avg # of iterations =  1.2

     negative rho (up, down):  4.758E-03 4.075E-03

     total cpu time spent up to now is      374.5 secs

     total energy              =   -6056.41742456 Ry
     estimated scf accuracy    <       0.00213854 Ry

     total magnetization       =    61.15 Bohr mag/cell
     absolute magnetization    =    68.55 Bohr mag/cell

     iteration # 27     ecut=    40.00 Ry     beta= 0.70
     Davidson diagonalization with overlap
     ethr =  6.38E-07,  avg # of iterations =  1.5

     negative rho (up, down):  4.406E-03 3.654E-03

     total cpu time spent up to now is      387.8 secs

     total energy              =   -6056.41753725 Ry
     estimated scf accuracy    <       0.00139271 Ry

     total magnetization       =    61.16 Bohr mag/cell
     absolute magnetization    =    68.56 Bohr mag/cell

     iteration # 28     ecut=    40.00 Ry     beta= 0.70
     Davidson diagonalization with overlap
     ethr =  4.16E-07,  avg # of iterations =  1.5

     negative rho (up, down):  4.430E-03 3.621E-03

     total cpu time spent up to now is      399.9 secs

     total energy              =   -6056.41759251 Ry
     estimated scf accuracy    <       0.00051115 Ry

     total magnetization       =    61.16 Bohr mag/cell
     absolute magnetization    =    68.56 Bohr mag/cell

     iteration # 29     ecut=    40.00 Ry     beta= 0.70
     Davidson diagonalization with overlap
     ethr =  1.53E-07,  avg # of iterations =  2.4

     negative rho (up, down):  4.914E-03 4.042E-03

     total cpu time spent up to now is      412.4 secs

     total energy              =   -6056.41764538 Ry
     estimated scf accuracy    <       0.00031914 Ry

     total magnetization       =    61.16 Bohr mag/cell
     absolute magnetization    =    68.56 Bohr mag/cell

     iteration # 30     ecut=    40.00 Ry     beta= 0.70
     Davidson diagonalization with overlap
     ethr =  9.53E-08,  avg # of iterations =  2.6

     negative rho (up, down):  3.854E-03 2.896E-03

     total cpu time spent up to now is      428.0 secs

     total energy              =   -6056.41761307 Ry
     estimated scf accuracy    <       0.00058389 Ry

     total magnetization       =    61.16 Bohr mag/cell
     absolute magnetization    =    68.56 Bohr mag/cell

     iteration # 31     ecut=    40.00 Ry     beta= 0.70
     Davidson diagonalization with overlap
     ethr =  9.53E-08,  avg # of iterations =  1.2

     negative rho (up, down):  3.413E-03 2.376E-03

     total cpu time spent up to now is      439.3 secs

     total energy              =   -6056.41763300 Ry
     estimated scf accuracy    <       0.00002577 Ry

     total magnetization       =    61.15 Bohr mag/cell
     absolute magnetization    =    68.56 Bohr mag/cell

     iteration # 32     ecut=    40.00 Ry     beta= 0.70
     Davidson diagonalization with overlap
     ethr =  7.69E-09,  avg # of iterations =  7.4

     negative rho (up, down):  3.013E-03 1.961E-03

     total cpu time spent up to now is      459.6 secs

     total energy              =   -6056.41762746 Ry
     estimated scf accuracy    <       0.00002843 Ry

     total magnetization       =    61.16 Bohr mag/cell
     absolute magnetization    =    68.56 Bohr mag/cell

     iteration # 33     ecut=    40.00 Ry     beta= 0.70
     Davidson diagonalization with overlap
     ethr =  7.69E-09,  avg # of iterations =  1.5

     negative rho (up, down):  2.949E-03 1.848E-03

     total cpu time spent up to now is      471.4 secs

     total energy              =   -6056.41763532 Ry
     estimated scf accuracy    <       0.00002303 Ry

     total magnetization       =    61.15 Bohr mag/cell
     absolute magnetization    =    68.56 Bohr mag/cell

     iteration # 34     ecut=    40.00 Ry     beta= 0.70
     Davidson diagonalization with overlap
     ethr =  6.87E-09,  avg # of iterations =  1.4

     negative rho (up, down):  2.548E-03 1.431E-03

     total cpu time spent up to now is      485.9 secs

     total energy              =   -6056.41763453 Ry
     estimated scf accuracy    <       0.00002038 Ry

     total magnetization       =    61.15 Bohr mag/cell
     absolute magnetization    =    68.56 Bohr mag/cell

     iteration # 35     ecut=    40.00 Ry     beta= 0.70
     Davidson diagonalization with overlap
     ethr =  6.08E-09,  avg # of iterations =  1.2

     negative rho (up, down):  2.420E-03 1.296E-03

     total cpu time spent up to now is      497.3 secs

     total energy              =   -6056.41763791 Ry
     estimated scf accuracy    <       0.00002588 Ry

     total magnetization       =    61.15 Bohr mag/cell
     absolute magnetization    =    68.56 Bohr mag/cell

     iteration # 36     ecut=    40.00 Ry     beta= 0.70
     Davidson diagonalization with overlap
     ethr =  6.08E-09,  avg # of iterations =  1.2

     negative rho (up, down):  2.603E-03 1.479E-03

     total cpu time spent up to now is      510.5 secs

     total energy              =   -6056.41763797 Ry
     estimated scf accuracy    <       0.00002371 Ry

     total magnetization       =    61.15 Bohr mag/cell
     absolute magnetization    =    68.56 Bohr mag/cell

     iteration # 37     ecut=    40.00 Ry     beta= 0.70
     Davidson diagonalization with overlap
     ethr =  6.08E-09,  avg # of iterations =  1.0

     negative rho (up, down):  2.215E-03 1.105E-03

     total cpu time spent up to now is      522.0 secs

     total energy              =   -6056.41763982 Ry
     estimated scf accuracy    <       0.00002106 Ry

     total magnetization       =    61.15 Bohr mag/cell
     absolute magnetization    =    68.56 Bohr mag/cell

     iteration # 38     ecut=    40.00 Ry     beta= 0.70
     Davidson diagonalization with overlap
     ethr =  6.08E-09,  avg # of iterations =  1.2

     negative rho (up, down):  2.203E-03 1.096E-03

     total cpu time spent up to now is      534.9 secs

     total energy              =   -6056.41764071 Ry
     estimated scf accuracy    <       0.00000960 Ry

     total magnetization       =    61.15 Bohr mag/cell
     absolute magnetization    =    68.56 Bohr mag/cell

     iteration # 39     ecut=    40.00 Ry     beta= 0.70
     Davidson diagonalization with overlap
     ethr =  2.87E-09,  avg # of iterations =  1.2

     negative rho (up, down):  2.294E-03 1.180E-03

     total cpu time spent up to now is      547.7 secs

     total energy              =   -6056.41764050 Ry
     estimated scf accuracy    <       0.00000746 Ry

     total magnetization       =    61.15 Bohr mag/cell
     absolute magnetization    =    68.56 Bohr mag/cell

     iteration # 40     ecut=    40.00 Ry     beta= 0.70
     Davidson diagonalization with overlap
     ethr =  2.23E-09,  avg # of iterations =  1.2

     negative rho (up, down):  2.242E-03 1.135E-03

     total cpu time spent up to now is      559.4 secs

     total energy              =   -6056.41764099 Ry
     estimated scf accuracy    <       0.00001085 Ry

     total magnetization       =    61.15 Bohr mag/cell
     absolute magnetization    =    68.56 Bohr mag/cell

     iteration # 41     ecut=    40.00 Ry     beta= 0.70
     Davidson diagonalization with overlap
     ethr =  2.23E-09,  avg # of iterations =  1.0

     negative rho (up, down):  2.324E-03 1.212E-03

     total cpu time spent up to now is      572.4 secs

     total energy              =   -6056.41764091 Ry
     estimated scf accuracy    <       0.00000551 Ry

     total magnetization       =    61.15 Bohr mag/cell
     absolute magnetization    =    68.56 Bohr mag/cell

     iteration # 42     ecut=    40.00 Ry     beta= 0.70
     Davidson diagonalization with overlap
     ethr =  1.64E-09,  avg # of iterations =  1.4

     negative rho (up, down):  2.256E-03 1.153E-03

     total cpu time spent up to now is      584.4 secs

     total energy              =   -6056.41764102 Ry
     estimated scf accuracy    <       0.00001375 Ry

     total magnetization       =    61.15 Bohr mag/cell
     absolute magnetization    =    68.56 Bohr mag/cell

     iteration # 43     ecut=    40.00 Ry     beta= 0.70
     Davidson diagonalization with overlap
     ethr =  1.64E-09,  avg # of iterations =  1.1

     negative rho (up, down):  2.222E-03 1.126E-03

     total cpu time spent up to now is      597.7 secs

     total energy              =   -6056.41764163 Ry
     estimated scf accuracy    <       0.00000188 Ry

     total magnetization       =    61.15 Bohr mag/cell
     absolute magnetization    =    68.56 Bohr mag/cell

     iteration # 44     ecut=    40.00 Ry     beta= 0.70
     Davidson diagonalization with overlap
     ethr =  5.61E-10,  avg # of iterations =  1.7

     negative rho (up, down):  2.230E-03 1.135E-03

     Magnetic moment per site  (integrated on atomic sphere of radius R)
     atom   1 (R=0.097)  charge=  5.9791  magn=  1.7249
     atom   2 (R=0.097)  charge=  5.9795  magn=  1.7151
     atom   3 (R=0.097)  charge=  5.9788  magn=  1.7182
     atom   4 (R=0.097)  charge=  5.9789  magn=  1.7218
     atom   5 (R=0.097)  charge=  5.9787  magn=  1.7193
     atom   6 (R=0.097)  charge=  5.9785  magn=  1.7258
     atom   7 (R=0.097)  charge=  5.9792  magn=  1.7277
     atom   8 (R=0.097)  charge=  5.9794  magn=  1.7220
     atom   9 (R=0.097)  charge=  5.9788  magn=  1.7210
     atom  10 (R=0.097)  charge=  5.9805  magn=  1.6472
     atom  11 (R=0.097)  charge=  5.9802  magn=  1.6485
     atom  12 (R=0.097)  charge=  5.9798  magn=  1.6538
     atom  13 (R=0.097)  charge=  5.9798  magn=  1.6507
     atom  14 (R=0.097)  charge=  5.9804  magn=  1.6528
     atom  15 (R=0.097)  charge=  5.9798  magn=  1.6549
     atom  16 (R=0.097)  charge=  5.9800  magn=  1.6490
     atom  17 (R=0.097)  charge=  5.9801  magn=  1.6554
     atom  18 (R=0.097)  charge=  5.9796  magn=  1.6537
     atom  19 (R=0.097)  charge=  5.9794  magn=  1.6623
     atom  20 (R=0.097)  charge=  5.9767  magn=  1.6682
     atom  21 (R=0.097)  charge=  5.9785  magn=  1.6509
     atom  22 (R=0.097)  charge=  5.9788  magn=  1.6662
     atom  23 (R=0.097)  charge=  5.9779  magn=  1.6469
     atom  24 (R=0.097)  charge=  5.9786  magn=  1.6604
     atom  25 (R=0.097)  charge=  5.9796  magn=  1.6638
     atom  26 (R=0.097)  charge=  5.9782  magn=  1.6604
     atom  27 (R=0.097)  charge=  5.9788  magn=  1.6631
     atom  28 (R=0.097)  charge=  5.9804  magn=  1.7277
     atom  29 (R=0.097)  charge=  5.9965  magn=  1.4482
     atom  30 (R=0.097)  charge=  5.9828  magn=  1.7232
     atom  31 (R=0.097)  charge=  5.9870  magn=  1.6632
     atom  32 (R=0.097)  charge=  6.0037  magn=  1.1275
     atom  33 (R=0.097)  charge=  5.9796  magn=  1.7250
     atom  34 (R=0.097)  charge=  5.9802  magn=  1.7340
     atom  35 (R=0.097)  charge=  5.9804  magn=  1.7097
     atom  36 (R=0.097)  charge=  5.9778  magn=  1.7302
     atom  37 (R=0.067)  charge=  1.1072  magn= -0.0170
     atom  38 (R=0.067)  charge=  3.0445  magn= -0.0046
     atom  39 (R=0.067)  charge=  0.5379  magn=  0.0049

     total cpu time spent up to now is      610.7 secs

     End of self-consistent calculation

 ------ SPIN UP ------------


          k = 0.0000 0.0000 0.0000 ( 36693 PWs)   bands (ev):

   -21.8233 -10.7288  -7.5774  -6.9434  -6.3320  -5.7901  -5.3951  -4.7255
    -4.6946  -4.6933  -4.6912  -4.6787  -4.6735  -4.6381  -4.3296  -4.1594
    -4.1572  -4.1551  -4.1342  -4.1286  -4.0932  -3.6392  -3.6364  -3.6338
    -3.6265  -3.6185  -3.5840  -3.5127  -3.5029  -3.5012  -3.4982  -3.4958
    -3.4655  -3.4322  -3.4302  -3.1225  -3.1179  -3.1131  -3.1123  -3.0980
    -3.0542  -3.0497  -3.0442  -3.0424  -3.0394  -3.0372  -3.0326  -2.8873
    -2.8863  -2.8589  -2.8239  -2.8135  -2.8075  -2.8052  -2.7989  -2.7843
    -2.7760  -2.7736  -2.7713  -2.6868  -2.6769  -2.6718  -2.6660  -2.6610
    -2.6247  -2.4257  -2.1437  -2.1413  -2.1347  -2.1261  -2.1208  -2.0280
    -2.0128  -1.9995  -1.9845  -1.9745  -1.9679  -1.9590  -1.9577  -1.9521
    -1.9324  -1.8991  -1.8962  -1.8533  -1.8458  -1.8424  -1.8280  -1.8204
    -1.8181  -1.8109  -1.8060  -1.8053  -1.7977  -1.7786  -1.7752  -1.7711
    -1.7658  -1.7634  -1.7628  -1.7620  -1.7581  -1.7543  -1.7529  -1.7527
    -1.7481  -1.7220  -1.7027  -1.6765  -1.6698  -1.5992  -1.5956  -1.5406
    -1.3871  -1.3135  -1.3031  -1.3016  -1.3007  -1.2985  -1.2936  -1.2764
    -1.2692  -1.2668  -1.2376  -1.2279  -1.2140  -1.2023  -1.0938  -1.0904
    -1.0599  -1.0564  -0.9639  -0.9120  -0.8963  -0.8871  -0.8830  -0.8694
    -0.8206  -0.8124  -0.8071  -0.8035  -0.7995  -0.7819  -0.6935  -0.6887
    -0.5911  -0.5646  -0.5626  -0.5611  -0.5435  -0.5285  -0.5049  -0.5029
    -0.4986  -0.4973  -0.4918  -0.4849  -0.4801  -0.4788  -0.4776  -0.4731
    -0.4689  -0.4650  -0.4493  -0.4386  -0.4279  -0.4175  -0.4154  -0.4095
    -0.4029  -0.3905  -0.3785  -0.3729  -0.3670  -0.3606  -0.3425  -0.3401
    -0.3372  -0.3308  -0.3226  -0.3075  -0.2888  -0.2710  -0.2656  -0.2610
    -0.2569  -0.2543  -0.2490  -0.2430  -0.2342  -0.2286  -0.1839  -0.1821
    -0.1687  -0.1677  -0.1055  -0.1026  -0.0994  -0.0897  -0.0881  -0.0708
     0.3473   1.0796

          k = 0.0000 0.2309 0.0000 ( 36641 PWs)   bands (ev):

   -21.8233 -10.7274  -7.4338  -6.9348  -6.2436  -5.7632  -5.4700  -5.3458
    -4.9391  -4.9324  -4.5759  -4.4442  -4.3513  -4.3468  -4.2815  -4.2363
    -4.1902  -4.1547  -4.0829  -4.0281  -4.0125  -3.7592  -3.6472  -3.6369
    -3.5615  -3.5423  -3.5197  -3.5152  -3.5115  -3.5051  -3.4854  -3.4653
    -3.4409  -3.3968  -3.3870  -3.3603  -3.3583  -3.1707  -3.1359  -3.1304
    -3.1005  -3.0757  -3.0726  -3.0634  -2.9936  -2.9794  -2.9426  -2.9179
    -2.9073  -2.9003  -2.8812  -2.8669  -2.7840  -2.7680  -2.7467  -2.7154
    -2.7022  -2.6791  -2.6645  -2.6464  -2.6392  -2.6177  -2.5977  -2.5953
    -2.5372  -2.4270  -2.2607  -2.2473  -2.2216  -2.2083  -2.1690  -2.1086
    -2.1001  -2.0926  -2.0836  -2.0727  -2.0650  -2.0438  -2.0185  -1.9877
    -1.9616  -1.9577  -1.9386  -1.8979  -1.8930  -1.8911  -1.8855  -1.8629
    -1.8595  -1.8519  -1.8487  -1.8431  -1.8399  -1.8192  -1.7680  -1.7577
    -1.7462  -1.7205  -1.6899  -1.6680  -1.6608  -1.6565  -1.6428  -1.6375
    -1.6301  -1.6142  -1.6088  -1.6044  -1.5952  -1.5831  -1.5576  -1.5525
    -1.5433  -1.5301  -1.5150  -1.4708  -1.4429  -1.4068  -1.3308  -1.3278
    -1.3191  -1.3136  -1.3020  -1.2996  -1.2968  -1.2888  -1.1899  -1.1629
    -1.1365  -1.1149  -1.0427  -1.0385  -1.0164  -0.9759  -0.9485  -0.9391
    -0.8794  -0.8735  -0.8463  -0.8256  -0.8079  -0.7967  -0.7621  -0.7563
    -0.7408  -0.7197  -0.7072  -0.6708  -0.6684  -0.6548  -0.6490  -0.6382
    -0.6131  -0.5709  -0.5633  -0.5618  -0.5369  -0.5191  -0.5019  -0.4989
    -0.4920  -0.4845  -0.4796  -0.4689  -0.4498  -0.4390  -0.4315  -0.4155
    -0.3700  -0.3610  -0.3393  -0.3312  -0.3067  -0.3025  -0.2692  -0.2495
    -0.2442  -0.2372  -0.2310  -0.2198  -0.2012  -0.1979  -0.1864  -0.1512
    -0.1448  -0.1037  -0.0976  -0.0929  -0.0701  -0.0682  -0.0260  -0.0211
    -0.0065   0.0343   0.2431   0.2746   0.3465   0.4439   0.5188   0.5656
     0.5941   0.7752

          k = 0.0000 0.4619 0.0000 ( 36606 PWs)   bands (ev):

   -21.8233 -10.7251  -7.0705  -6.8662  -6.3019  -6.0505  -5.5770  -5.3643
    -5.0821  -5.0632  -4.9658  -4.2519  -4.1893  -4.1787  -4.1412  -4.1070
    -3.9908  -3.9873  -3.9494  -3.8575  -3.8532  -3.8474  -3.7594  -3.6771
    -3.6699  -3.6594  -3.6564  -3.6104  -3.5579  -3.5492  -3.5405  -3.3915
    -3.3873  -3.3736  -3.3602  -3.3397  -3.3339  -3.2368  -3.2258  -3.2200
    -3.2184  -3.2089  -3.0959  -3.0359  -2.9960  -2.9353  -2.9028  -2.8866
    -2.8663  -2.8458  -2.8213  -2.8189  -2.8112  -2.7860  -2.7319  -2.7231
    -2.7013  -2.6616  -2.6559  -2.5546  -2.5122  -2.5068  -2.4962  -2.4520
    -2.4041  -2.3869  -2.3763  -2.3609  -2.3219  -2.2683  -2.2314  -2.2256
    -2.2190  -2.2152  -2.1888  -2.1873  -2.1753  -2.1689  -2.1451  -2.1056
    -2.0866  -2.0684  -2.0535  -2.0259  -2.0067  -1.9906  -1.9507  -1.9080
    -1.8943  -1.8877  -1.8651  -1.8518  -1.8141  -1.7907  -1.7856  -1.7800
    -1.7642  -1.7475  -1.7408  -1.7187  -1.7155  -1.6968  -1.6782  -1.6717
    -1.6551  -1.6401  -1.5948  -1.5590  -1.5325  -1.5152  -1.4879  -1.4781
    -1.4644  -1.4472  -1.4267  -1.3793  -1.3686  -1.3592  -1.3466  -1.3420
    -1.3332  -1.3301  -1.3244  -1.3179  -1.3095  -1.3053  -1.2935  -1.2746
    -1.2582  -1.2447  -1.1863  -1.1412  -1.1178  -1.1053  -1.0939  -1.0660
    -1.0542  -1.0101  -0.9880  -0.9651  -0.9585  -0.9132  -0.8922  -0.8460
    -0.8365  -0.8064  -0.7847  -0.7753  -0.7504  -0.7360  -0.7031  -0.6755
    -0.6388  -0.5879  -0.5809  -0.5628  -0.5586  -0.5540  -0.5475  -0.5418
    -0.5291  -0.5132  -0.4431  -0.4126  -0.4054  -0.3988  -0.3856  -0.3810
    -0.3715  -0.3460  -0.3450  -0.3356  -0.3198  -0.3017  -0.2341  -0.2184
    -0.2104  -0.2039  -0.1787  -0.1428  -0.1134  -0.1005  -0.0761  -0.0443
    -0.0332   0.0024   0.0066   0.0269   0.0293   0.0328   0.0473   0.0677
     0.1406   0.1586   0.2837   0.8582   1.0353   1.1603   1.2589   1.3215
     1.4565   1.6232

          k = 0.2000-0.1155 0.0000 ( 36641 PWs)   bands (ev):

   -21.8233 -10.7273  -7.4329  -6.9337  -6.2483  -5.7778  -5.4536  -5.3444
    -4.9401  -4.9362  -4.5766  -4.4278  -4.3505  -4.3488  -4.2801  -4.2287
    -4.1882  -4.1754  -4.0734  -4.0272  -4.0223  -3.7562  -3.6458  -3.6389
    -3.5651  -3.5370  -3.5209  -3.5150  -3.5125  -3.4959  -3.4851  -3.4723
    -3.4376  -3.3949  -3.3899  -3.3599  -3.3583  -3.1814  -3.1340  -3.1304
    -3.0791  -3.0765  -3.0719  -3.0668  -3.0080  -2.9574  -2.9444  -2.9239
    -2.9076  -2.9038  -2.8762  -2.8656  -2.7745  -2.7692  -2.7433  -2.7128
    -2.7017  -2.6785  -2.6694  -2.6557  -2.6479  -2.6233  -2.5975  -2.5947
    -2.5341  -2.4247  -2.2572  -2.2442  -2.2327  -2.2174  -2.1712  -2.1082
    -2.0977  -2.0936  -2.0808  -2.0705  -2.0636  -2.0499  -2.0350  -1.9846
    -1.9628  -1.9563  -1.9370  -1.9007  -1.8946  -1.8918  -1.8814  -1.8672
    -1.8566  -1.8508  -1.8469  -1.8436  -1.8371  -1.8122  -1.7817  -1.7604
    -1.7453  -1.7263  -1.6794  -1.6702  -1.6594  -1.6518  -1.6451  -1.6391
    -1.6255  -1.6139  -1.6082  -1.6072  -1.6000  -1.5822  -1.5630  -1.5590
    -1.5380  -1.5341  -1.5206  -1.4546  -1.4369  -1.4018  -1.3321  -1.3288
    -1.3205  -1.3141  -1.3044  -1.2978  -1.2938  -1.2857  -1.2186  -1.1562
    -1.1384  -1.1154  -1.0417  -1.0385  -1.0164  -0.9714  -0.9480  -0.9409
    -0.9070  -0.8540  -0.8380  -0.8184  -0.8074  -0.7938  -0.7598  -0.7553
    -0.7379  -0.7246  -0.7087  -0.6705  -0.6686  -0.6556  -0.6461  -0.6334
    -0.6103  -0.5720  -0.5668  -0.5564  -0.5530  -0.5302  -0.5026  -0.5009
    -0.4920  -0.4833  -0.4785  -0.4691  -0.4505  -0.4417  -0.4262  -0.4055
    -0.3746  -0.3659  -0.3513  -0.3281  -0.3066  -0.3004  -0.2701  -0.2468
    -0.2423  -0.2377  -0.2306  -0.2209  -0.2064  -0.1981  -0.1856  -0.1576
    -0.1441  -0.1041  -0.0959  -0.0921  -0.0704  -0.0687  -0.0349  -0.0208
     0.0064   0.0346   0.2609   0.2753   0.3679   0.4689   0.5196   0.5505
     0.5734   0.8157

          k = 0.2000 0.1155 0.0000 ( 36641 PWs)   bands (ev):

   -21.8233 -10.7274  -7.4346  -6.9359  -6.2412  -5.7574  -5.4461  -5.3802
    -4.9359  -4.9287  -4.5779  -4.4505  -4.3512  -4.3461  -4.2824  -4.2366
    -4.1864  -4.1521  -4.0862  -4.0256  -4.0126  -3.7598  -3.6452  -3.6393
    -3.5604  -3.5452  -3.5184  -3.5151  -3.5112  -3.5023  -3.4860  -3.4665
    -3.4388  -3.3952  -3.3889  -3.3604  -3.3561  -3.1691  -3.1356  -3.1315
    -3.1000  -3.0754  -3.0726  -3.0702  -2.9977  -2.9704  -2.9466  -2.9194
    -2.9047  -2.8995  -2.8788  -2.8688  -2.7874  -2.7719  -2.7566  -2.7148
    -2.7021  -2.6772  -2.6663  -2.6458  -2.6309  -2.6157  -2.5989  -2.5916
    -2.5448  -2.4237  -2.2633  -2.2522  -2.2268  -2.2037  -2.1675  -2.1048
    -2.0990  -2.0924  -2.0849  -2.0769  -2.0655  -2.0409  -2.0163  -1.9830
    -1.9710  -1.9541  -1.9328  -1.9016  -1.8930  -1.8895  -1.8845  -1.8634
    -1.8597  -1.8539  -1.8481  -1.8453  -1.8340  -1.8080  -1.7738  -1.7671
    -1.7457  -1.7172  -1.6788  -1.6667  -1.6586  -1.6546  -1.6389  -1.6360
    -1.6315  -1.6191  -1.6124  -1.6036  -1.5972  -1.5846  -1.5583  -1.5528
    -1.5398  -1.5342  -1.5096  -1.4763  -1.4389  -1.4157  -1.3301  -1.3262
    -1.3223  -1.3151  -1.3022  -1.3000  -1.2956  -1.2878  -1.1769  -1.1504
    -1.1439  -1.1125  -1.0446  -1.0390  -1.0132  -0.9780  -0.9501  -0.9423
    -0.8839  -0.8627  -0.8484  -0.8218  -0.8130  -0.7986  -0.7612  -0.7595
    -0.7369  -0.7220  -0.7066  -0.6686  -0.6642  -0.6617  -0.6530  -0.6372
    -0.6139  -0.5730  -0.5636  -0.5586  -0.5379  -0.5127  -0.5028  -0.4976
    -0.4897  -0.4843  -0.4733  -0.4705  -0.4534  -0.4402  -0.4329  -0.4227
    -0.3707  -0.3564  -0.3395  -0.3313  -0.3089  -0.3051  -0.2667  -0.2466
    -0.2432  -0.2371  -0.2325  -0.2209  -0.2015  -0.1985  -0.1867  -0.1549
    -0.1430  -0.1068  -0.1002  -0.0950  -0.0702  -0.0685  -0.0242  -0.0230
     0.0059   0.0301   0.2416   0.2748   0.3249   0.4432   0.5155   0.5548
     0.6100   0.7600

          k = 0.2000 0.3464 0.0000 ( 36608 PWs)   bands (ev):

   -21.8233 -10.7255  -7.1744  -6.9025  -6.1314  -5.7978  -5.7668  -5.5665
    -5.3772  -4.6533  -4.6106  -4.3655  -4.3563  -4.3073  -4.1355  -4.1303
    -4.0388  -4.0367  -4.0297  -3.9034  -3.8764  -3.7593  -3.7508  -3.6892
    -3.6419  -3.5546  -3.5513  -3.5242  -3.5023  -3.4957  -3.4906  -3.4670
    -3.4465  -3.4305  -3.4141  -3.3814  -3.3364  -3.3060  -3.2927  -3.1720
    -3.1629  -3.0761  -3.0653  -3.0378  -3.0216  -3.0175  -2.9391  -2.9163
    -2.8697  -2.8407  -2.8362  -2.8308  -2.7824  -2.7722  -2.7544  -2.7446
    -2.7296  -2.6390  -2.6134  -2.5550  -2.5452  -2.5294  -2.5231  -2.4889
    -2.4862  -2.3730  -2.3560  -2.2872  -2.2780  -2.2439  -2.2280  -2.2067
    -2.1915  -2.1770  -2.1719  -2.1519  -2.1434  -2.1272  -2.1198  -2.1035
    -2.0819  -2.0766  -2.0136  -1.9834  -1.9310  -1.9263  -1.9078  -1.8888
    -1.8727  -1.8585  -1.8415  -1.8140  -1.8076  -1.7768  -1.7664  -1.7622
    -1.7529  -1.7481  -1.7325  -1.7204  -1.7135  -1.6997  -1.6879  -1.6698
    -1.6569  -1.6298  -1.6141  -1.5917  -1.5766  -1.5698  -1.5348  -1.5291
    -1.5079  -1.4993  -1.4914  -1.4614  -1.4289  -1.4209  -1.3969  -1.3598
    -1.3571  -1.3510  -1.3442  -1.3232  -1.3110  -1.3075  -1.2871  -1.2543
    -1.2023  -1.1853  -1.1811  -1.1364  -1.0550  -1.0533  -1.0384  -0.9553
    -0.9266  -0.9130  -0.9070  -0.8972  -0.8871  -0.8805  -0.8631  -0.8576
    -0.8296  -0.8159  -0.7935  -0.7561  -0.7422  -0.7381  -0.7133  -0.7065
    -0.6849  -0.6709  -0.6400  -0.6321  -0.6251  -0.6131  -0.5343  -0.4652
    -0.4624  -0.4385  -0.4253  -0.4216  -0.4021  -0.3895  -0.3819  -0.3753
    -0.3663  -0.3351  -0.2999  -0.2814  -0.2688  -0.2596  -0.2195  -0.2138
    -0.1948  -0.1926  -0.1837  -0.1644  -0.1535  -0.1486  -0.1460  -0.1209
    -0.1169  -0.0411  -0.0266  -0.0195  -0.0148   0.0280   0.0316   0.0511
     0.3644   0.3670   0.4284   0.5404   0.6696   0.7069   1.0011   1.1926
     1.2651   1.4028

          k = 0.2000-0.5774 0.0000 ( 36660 PWs)   bands (ev):

   -21.8233 -10.7244  -6.9926  -6.5616  -6.5216  -6.0551  -5.8411  -5.4699
    -5.2164  -5.1126  -4.6765  -4.3432  -4.0970  -4.0553  -3.9605  -3.9219
    -3.9136  -3.9003  -3.8917  -3.8659  -3.8163  -3.8080  -3.8048  -3.7970
    -3.7222  -3.6991  -3.6552  -3.6490  -3.6232  -3.6185  -3.5060  -3.4835
    -3.4687  -3.4612  -3.4419  -3.4031  -3.3060  -3.3005  -3.1980  -3.1782
    -3.1712  -3.1065  -3.0854  -3.0712  -3.0432  -2.9773  -2.9580  -2.9521
    -2.8882  -2.8827  -2.8267  -2.7736  -2.7498  -2.7325  -2.6988  -2.6765
    -2.6252  -2.5933  -2.5819  -2.5707  -2.5654  -2.5281  -2.5249  -2.4572
    -2.4042  -2.3787  -2.3661  -2.3554  -2.3344  -2.2927  -2.2667  -2.2367
    -2.2114  -2.1869  -2.1814  -2.1775  -2.1673  -2.1482  -2.1143  -2.1014
    -2.0948  -2.0796  -2.0710  -2.0465  -2.0402  -2.0122  -1.9708  -1.9547
    -1.9394  -1.9308  -1.8817  -1.8593  -1.8210  -1.8066  -1.7936  -1.7722
    -1.7652  -1.7487  -1.7441  -1.7383  -1.7338  -1.7075  -1.6868  -1.6798
    -1.6185  -1.6054  -1.5955  -1.5915  -1.5775  -1.5698  -1.5659  -1.5558
    -1.5440  -1.5396  -1.5216  -1.4934  -1.4779  -1.4420  -1.4358  -1.4110
    -1.3557  -1.3452  -1.3097  -1.2921  -1.2889  -1.2773  -1.2627  -1.2169
    -1.1918  -1.1841  -1.1714  -1.1165  -1.0770  -1.0530  -1.0406  -1.0175
    -1.0098  -0.9934  -0.9770  -0.9642  -0.9356  -0.9221  -0.8938  -0.8781
    -0.8422  -0.8337  -0.8214  -0.8047  -0.7876  -0.7660  -0.7254  -0.7224
    -0.7051  -0.6968  -0.6825  -0.6639  -0.6530  -0.6231  -0.5940  -0.5149
    -0.4283  -0.4204  -0.4138  -0.4089  -0.3983  -0.3947  -0.3859  -0.3644
    -0.3369  -0.3317  -0.3216  -0.3100  -0.2632  -0.2539  -0.1924  -0.1908
    -0.1778  -0.1647  -0.1464  -0.1358  -0.1017  -0.0874  -0.0812  -0.0713
    -0.0680   0.0076   0.0102   0.0166   0.0317   0.0365   0.0628   0.0927
     0.2080   0.4035   0.5222   0.7326   1.1629   1.3065   1.4345   1.6488
     1.7861   1.8335

          k = 0.2000-0.3464 0.0000 ( 36608 PWs)   bands (ev):

   -21.8233 -10.7255  -7.1636  -6.9105  -6.1400  -5.8239  -5.7678  -5.5647
    -5.3457  -4.6746  -4.5896  -4.3599  -4.3506  -4.3097  -4.1337  -4.1311
    -4.0443  -4.0338  -4.0130  -3.9025  -3.8918  -3.7577  -3.7495  -3.6938
    -3.6432  -3.5600  -3.5524  -3.5254  -3.5005  -3.4942  -3.4924  -3.4601
    -3.4474  -3.4295  -3.4213  -3.3764  -3.3379  -3.2968  -3.2873  -3.1792
    -3.1656  -3.0748  -3.0652  -3.0426  -3.0276  -3.0112  -2.9241  -2.8747
    -2.8624  -2.8559  -2.8357  -2.8270  -2.7846  -2.7739  -2.7529  -2.7451
    -2.7280  -2.6267  -2.6101  -2.5778  -2.5527  -2.5342  -2.5082  -2.4946
    -2.4801  -2.4088  -2.3616  -2.2937  -2.2774  -2.2368  -2.2227  -2.2021
    -2.1918  -2.1841  -2.1741  -2.1483  -2.1387  -2.1295  -2.1192  -2.1035
    -2.0932  -2.0842  -2.0104  -1.9927  -1.9304  -1.9262  -1.9012  -1.8897
    -1.8782  -1.8633  -1.8431  -1.8108  -1.8079  -1.7808  -1.7700  -1.7649
    -1.7558  -1.7440  -1.7325  -1.7231  -1.7116  -1.7069  -1.6850  -1.6712
    -1.6588  -1.6457  -1.6249  -1.6018  -1.5803  -1.5682  -1.5331  -1.5295
    -1.5183  -1.4984  -1.4932  -1.4521  -1.4292  -1.4176  -1.4005  -1.3732
    -1.3525  -1.3484  -1.3456  -1.3246  -1.3161  -1.3023  -1.2857  -1.2424
    -1.2096  -1.1802  -1.1749  -1.1364  -1.0636  -1.0476  -1.0400  -0.9400
    -0.9239  -0.9141  -0.9062  -0.8947  -0.8852  -0.8801  -0.8635  -0.8395
    -0.8288  -0.8186  -0.7917  -0.7622  -0.7482  -0.7383  -0.7210  -0.7030
    -0.6863  -0.6606  -0.6456  -0.6284  -0.6206  -0.6121  -0.5240  -0.4744
    -0.4611  -0.4382  -0.4304  -0.4215  -0.4036  -0.3904  -0.3835  -0.3762
    -0.3649  -0.3419  -0.2869  -0.2836  -0.2654  -0.2632  -0.2236  -0.2103
    -0.1932  -0.1921  -0.1872  -0.1634  -0.1525  -0.1507  -0.1428  -0.1275
    -0.1162  -0.0467  -0.0266  -0.0176  -0.0116   0.0307   0.0355   0.0565
     0.3342   0.3694   0.4447   0.5449   0.6224   0.7236   1.1245   1.2211
     1.2523   1.4472

          k = 0.4000-0.2309 0.0000 ( 36606 PWs)   bands (ev):

   -21.8233 -10.7250  -7.0577  -6.8742  -6.3176  -6.0527  -5.6064  -5.3238
    -5.0842  -5.0723  -4.9461  -4.2380  -4.1868  -4.1784  -4.1646  -4.1003
    -3.9906  -3.9890  -3.9462  -3.8592  -3.8536  -3.8468  -3.7501  -3.6775
    -3.6735  -3.6585  -3.6576  -3.6083  -3.5500  -3.5466  -3.5354  -3.3914
    -3.3860  -3.3746  -3.3698  -3.3379  -3.3353  -3.2452  -3.2257  -3.2220
    -3.2125  -3.2082  -3.1010  -3.0090  -2.9977  -2.9169  -2.9019  -2.8796
    -2.8659  -2.8389  -2.8225  -2.8201  -2.8087  -2.7874  -2.7416  -2.7257
    -2.7023  -2.6611  -2.6532  -2.5726  -2.5134  -2.5040  -2.4929  -2.4630
    -2.4166  -2.3944  -2.3705  -2.3605  -2.3349  -2.2672  -2.2394  -2.2250
    -2.2200  -2.2157  -2.2050  -2.1867  -2.1771  -2.1731  -2.1349  -2.1222
    -2.0871  -2.0712  -2.0533  -2.0304  -1.9979  -1.9921  -1.9398  -1.9091
    -1.8954  -1.8919  -1.8617  -1.8476  -1.8212  -1.7917  -1.7844  -1.7763
    -1.7697  -1.7493  -1.7432  -1.7182  -1.7060  -1.6962  -1.6893  -1.6743
    -1.6540  -1.6403  -1.5948  -1.5837  -1.5315  -1.5143  -1.4975  -1.4884
    -1.4604  -1.4421  -1.4220  -1.3816  -1.3718  -1.3520  -1.3455  -1.3417
    -1.3391  -1.3314  -1.3206  -1.3154  -1.3082  -1.3015  -1.2910  -1.2770
    -1.2715  -1.2439  -1.1738  -1.1415  -1.1152  -1.1073  -1.0874  -1.0777
    -1.0446  -1.0107  -0.9825  -0.9662  -0.9579  -0.9129  -0.8879  -0.8416
    -0.8343  -0.8050  -0.7930  -0.7609  -0.7513  -0.7345  -0.7046  -0.6693
    -0.6202  -0.5853  -0.5834  -0.5755  -0.5633  -0.5594  -0.5476  -0.5411
    -0.5332  -0.5150  -0.4429  -0.4148  -0.4004  -0.3934  -0.3878  -0.3841
    -0.3742  -0.3610  -0.3377  -0.3334  -0.3225  -0.3100  -0.2333  -0.2180
    -0.2122  -0.2016  -0.1805  -0.1430  -0.1142  -0.0987  -0.0762  -0.0454
    -0.0431   0.0004   0.0048   0.0218   0.0263   0.0330   0.0400   0.0779
     0.1416   0.1590   0.3105   0.8564   1.0921   1.2136   1.2610   1.3413
     1.4764   1.6149

          k = 0.4000 0.0000 0.0000 ( 36608 PWs)   bands (ev):

   -21.8233 -10.7255  -7.1690  -6.9068  -6.1378  -5.8144  -5.7664  -5.5627
    -5.3597  -4.6710  -4.5945  -4.3584  -4.3509  -4.3112  -4.1346  -4.1308
    -4.0446  -4.0354  -4.0159  -3.9016  -3.8878  -3.7581  -3.7500  -3.6914
    -3.6419  -3.5596  -3.5540  -3.5261  -3.5017  -3.4934  -3.4886  -3.4579
    -3.4487  -3.4302  -3.4137  -3.3777  -3.3385  -3.2971  -3.2924  -3.1805
    -3.1629  -3.0763  -3.0659  -3.0386  -3.0279  -3.0128  -2.9205  -2.8860
    -2.8686  -2.8519  -2.8357  -2.8320  -2.7863  -2.7738  -2.7581  -2.7453
    -2.7286  -2.6304  -2.6101  -2.5647  -2.5541  -2.5330  -2.5161  -2.4931
    -2.4847  -2.3971  -2.3643  -2.2915  -2.2809  -2.2397  -2.2209  -2.2019
    -2.1963  -2.1825  -2.1733  -2.1533  -2.1416  -2.1219  -2.1175  -2.1028
    -2.0987  -2.0761  -2.0152  -1.9828  -1.9312  -1.9257  -1.9032  -1.8923
    -1.8785  -1.8577  -1.8433  -1.8121  -1.8024  -1.7797  -1.7686  -1.7664
    -1.7524  -1.7443  -1.7300  -1.7236  -1.7138  -1.7071  -1.6873  -1.6701
    -1.6600  -1.6474  -1.6178  -1.5984  -1.5765  -1.5644  -1.5321  -1.5250
    -1.5153  -1.5007  -1.4935  -1.4531  -1.4293  -1.4216  -1.3992  -1.3659
    -1.3541  -1.3487  -1.3436  -1.3281  -1.3113  -1.3044  -1.2856  -1.2491
    -1.2060  -1.1827  -1.1727  -1.1314  -1.0617  -1.0482  -1.0356  -0.9540
    -0.9193  -0.9157  -0.9075  -0.9004  -0.8870  -0.8765  -0.8596  -0.8514
    -0.8308  -0.8153  -0.7918  -0.7563  -0.7491  -0.7396  -0.7177  -0.7057
    -0.6851  -0.6684  -0.6385  -0.6319  -0.6223  -0.6112  -0.5284  -0.4714
    -0.4642  -0.4338  -0.4265  -0.4192  -0.4104  -0.3896  -0.3788  -0.3745
    -0.3694  -0.3397  -0.2882  -0.2861  -0.2675  -0.2617  -0.2217  -0.2117
    -0.1942  -0.1897  -0.1864  -0.1644  -0.1561  -0.1486  -0.1451  -0.1212
    -0.1186  -0.0480  -0.0299  -0.0192  -0.0116   0.0301   0.0349   0.0515
     0.3435   0.3695   0.4446   0.5358   0.6398   0.7231   1.0780   1.2012
     1.2690   1.4362

          k = 0.4000 0.2309 0.0000 ( 36606 PWs)   bands (ev):

   -21.8233 -10.7251  -7.0820  -6.8597  -6.2915  -6.0486  -5.5488  -5.4009
    -5.0826  -5.0532  -4.9790  -4.2548  -4.1831  -4.1811  -4.1368  -4.1106
    -3.9910  -3.9863  -3.9497  -3.8559  -3.8520  -3.8488  -3.7624  -3.6751
    -3.6703  -3.6595  -3.6557  -3.6106  -3.5568  -3.5496  -3.5391  -3.3907
    -3.3873  -3.3731  -3.3569  -3.3386  -3.3327  -3.2386  -3.2250  -3.2193
    -3.2169  -3.2100  -3.0999  -3.0336  -3.0029  -2.9317  -2.9066  -2.8827
    -2.8677  -2.8457  -2.8232  -2.8188  -2.8152  -2.7958  -2.7271  -2.7222
    -2.7041  -2.6674  -2.6552  -2.5490  -2.5087  -2.5050  -2.5011  -2.4513
    -2.4102  -2.3824  -2.3768  -2.3639  -2.3246  -2.2712  -2.2385  -2.2271
    -2.2200  -2.2171  -2.1950  -2.1830  -2.1742  -2.1708  -2.1479  -2.1019
    -2.0823  -2.0683  -2.0497  -2.0151  -2.0050  -1.9940  -1.9447  -1.9084
    -1.8979  -1.8924  -1.8647  -1.8487  -1.8099  -1.7884  -1.7818  -1.7802
    -1.7648  -1.7487  -1.7377  -1.7161  -1.7093  -1.6976  -1.6781  -1.6685
    -1.6570  -1.6411  -1.5940  -1.5498  -1.5297  -1.5156  -1.4938  -1.4833
    -1.4567  -1.4488  -1.4205  -1.3772  -1.3642  -1.3620  -1.3479  -1.3428
    -1.3373  -1.3291  -1.3213  -1.3160  -1.3118  -1.3065  -1.2903  -1.2719
    -1.2553  -1.2318  -1.1938  -1.1401  -1.1170  -1.1048  -1.0966  -1.0575
    -1.0427  -1.0146  -0.9889  -0.9698  -0.9600  -0.9089  -0.9010  -0.8561
    -0.8379  -0.8053  -0.7905  -0.7758  -0.7512  -0.7306  -0.7036  -0.6762
    -0.6448  -0.5941  -0.5820  -0.5634  -0.5594  -0.5501  -0.5439  -0.5389
    -0.5304  -0.5144  -0.4401  -0.4139  -0.4080  -0.3970  -0.3850  -0.3807
    -0.3679  -0.3463  -0.3402  -0.3333  -0.3235  -0.3034  -0.2316  -0.2152
    -0.2111  -0.2067  -0.1770  -0.1458  -0.1151  -0.0984  -0.0777  -0.0448
    -0.0410   0.0031   0.0047   0.0265   0.0279   0.0323   0.0503   0.0778
     0.1395   0.1548   0.2627   0.9020   0.9896   1.1305   1.2559   1.2886
     1.4754   1.6278

          k = 0.4000-0.6928 0.0000 ( 36660 PWs)   bands (ev):

   -21.8233 -10.7244  -7.0015  -6.5572  -6.5102  -6.0619  -5.8438  -5.4275
    -5.2604  -5.1180  -4.6667  -4.3421  -4.0982  -4.0578  -3.9646  -3.9207
    -3.9141  -3.9010  -3.8891  -3.8679  -3.8138  -3.8077  -3.8055  -3.7957
    -3.7218  -3.7003  -3.6557  -3.6481  -3.6228  -3.6198  -3.5040  -3.4800
    -3.4691  -3.4621  -3.4377  -3.4010  -3.3102  -3.2969  -3.2025  -3.1747
    -3.1724  -3.1083  -3.0872  -3.0729  -3.0439  -2.9729  -2.9602  -2.9510
    -2.8871  -2.8792  -2.8367  -2.7794  -2.7527  -2.7367  -2.6939  -2.6744
    -2.6183  -2.5948  -2.5806  -2.5728  -2.5680  -2.5319  -2.5208  -2.4528
    -2.4100  -2.3775  -2.3694  -2.3569  -2.3273  -2.2968  -2.2759  -2.2352
    -2.2181  -2.1896  -2.1833  -2.1753  -2.1623  -2.1489  -2.1113  -2.1017
    -2.0896  -2.0846  -2.0735  -2.0473  -2.0403  -2.0051  -1.9699  -1.9529
    -1.9421  -1.9347  -1.8682  -1.8647  -1.8240  -1.8013  -1.7883  -1.7788
    -1.7592  -1.7516  -1.7400  -1.7325  -1.7267  -1.7014  -1.6892  -1.6768
    -1.6122  -1.6060  -1.5970  -1.5901  -1.5744  -1.5681  -1.5673  -1.5553
    -1.5499  -1.5413  -1.5204  -1.5014  -1.4783  -1.4418  -1.4332  -1.4141
    -1.3540  -1.3441  -1.3123  -1.2944  -1.2826  -1.2754  -1.2606  -1.2179
    -1.1975  -1.1849  -1.1747  -1.1141  -1.0764  -1.0520  -1.0374  -1.0206
    -1.0057  -0.9827  -0.9793  -0.9677  -0.9363  -0.9244  -0.8871  -0.8787
    -0.8423  -0.8343  -0.8200  -0.8040  -0.7839  -0.7710  -0.7261  -0.7238
    -0.7123  -0.6967  -0.6832  -0.6692  -0.6505  -0.6235  -0.5990  -0.5149
    -0.4283  -0.4202  -0.4169  -0.4044  -0.4004  -0.3926  -0.3808  -0.3673
    -0.3387  -0.3280  -0.3225  -0.3114  -0.2587  -0.2530  -0.1936  -0.1893
    -0.1866  -0.1617  -0.1437  -0.1347  -0.1004  -0.0853  -0.0818  -0.0716
    -0.0683   0.0049   0.0083   0.0178   0.0309   0.0373   0.0603   0.0901
     0.1886   0.4058   0.5406   0.7434   1.1304   1.3066   1.4097   1.6965
     1.7570   1.8186

          k = 0.4000-0.4619 0.0000 ( 36660 PWs)   bands (ev):

   -21.8233 -10.7243  -6.9830  -6.5613  -6.5422  -6.0422  -5.8418  -5.5198
    -5.1531  -5.1098  -4.6959  -4.3443  -4.0953  -4.0549  -3.9484  -3.9228
    -3.9159  -3.8945  -3.8889  -3.8667  -3.8194  -3.8083  -3.8062  -3.7941
    -3.7184  -3.6974  -3.6562  -3.6520  -3.6233  -3.6171  -3.5233  -3.4755
    -3.4666  -3.4520  -3.4442  -3.4044  -3.3130  -3.3018  -3.1998  -3.1743
    -3.1686  -3.0991  -3.0898  -3.0715  -3.0428  -2.9613  -2.9590  -2.9528
    -2.8885  -2.8848  -2.8166  -2.7738  -2.7385  -2.7324  -2.6974  -2.6751
    -2.6372  -2.5937  -2.5817  -2.5682  -2.5645  -2.5390  -2.5273  -2.4589
    -2.4179  -2.3802  -2.3604  -2.3544  -2.3317  -2.2978  -2.2845  -2.2342
    -2.2195  -2.1928  -2.1856  -2.1753  -2.1712  -2.1340  -2.1168  -2.1054
    -2.0929  -2.0859  -2.0644  -2.0485  -2.0406  -2.0296  -1.9686  -1.9520
    -1.9367  -1.9129  -1.8820  -1.8621  -1.8198  -1.8131  -1.8038  -1.7795
    -1.7596  -1.7486  -1.7456  -1.7404  -1.7284  -1.7146  -1.6905  -1.6860
    -1.6257  -1.6032  -1.5931  -1.5907  -1.5764  -1.5712  -1.5642  -1.5538
    -1.5483  -1.5407  -1.5223  -1.4885  -1.4820  -1.4411  -1.4357  -1.4050
    -1.3511  -1.3461  -1.3078  -1.2971  -1.2850  -1.2784  -1.2600  -1.2041
    -1.1894  -1.1852  -1.1753  -1.1131  -1.0964  -1.0505  -1.0358  -1.0206
    -1.0005  -0.9875  -0.9806  -0.9647  -0.9329  -0.9234  -0.8957  -0.8827
    -0.8501  -0.8317  -0.8214  -0.8058  -0.7900  -0.7561  -0.7289  -0.7122
    -0.7022  -0.6943  -0.6875  -0.6634  -0.6465  -0.6279  -0.5994  -0.5081
    -0.4328  -0.4205  -0.4158  -0.4078  -0.4012  -0.3942  -0.3819  -0.3687
    -0.3356  -0.3291  -0.3167  -0.3128  -0.2658  -0.2548  -0.1949  -0.1901
    -0.1768  -0.1649  -0.1459  -0.1368  -0.1010  -0.0871  -0.0817  -0.0713
    -0.0583  -0.0041   0.0071   0.0123   0.0306   0.0370   0.0613   0.0923
     0.2406   0.3854   0.5072   0.7248   1.2526   1.3008   1.4752   1.5986
     1.7878   1.8646

 ------ SPIN DOWN ----------


          k = 0.0000 0.0000 0.0000 ( 36693 PWs)   bands (ev):

   -21.8329 -10.7556  -7.6992  -6.8910  -6.3901  -5.7738  -5.4224  -4.5215
    -4.4942  -4.4908  -4.4904  -4.4729  -4.4685  -4.3697  -3.6221  -3.6157
    -3.6145  -3.5933  -3.5805  -3.5737  -3.4505  -2.6758  -2.6715  -2.6633
    -2.6526  -2.6448  -2.5874  -2.3077  -2.2116  -2.2019  -2.1976  -2.1919
    -2.1864  -2.0387  -1.9986  -1.9792  -1.9256  -1.9182  -1.9025  -1.8999
    -1.8191  -1.8140  -1.7645  -1.7593  -1.7228  -1.6720  -1.6661  -1.6493
    -1.6341  -1.5584  -1.4520  -1.4049  -1.3949  -1.3833  -1.3680  -1.3614
    -1.3610  -1.3586  -1.3382  -1.3179  -1.3021  -1.2830  -1.2802  -1.2791
    -1.2512  -1.1639  -0.8288  -0.7270  -0.7145  -0.7037  -0.7026  -0.5450
    -0.5059  -0.4452  -0.3950  -0.3903  -0.3793  -0.3766  -0.3722  -0.3592
    -0.3280  -0.3085  -0.2899  -0.2812  -0.2805  -0.2711  -0.2624  -0.2224
    -0.2050  -0.1871  -0.1795  -0.1773  -0.1476  -0.1330  -0.1255  -0.1245
    -0.1190  -0.1128  -0.0942  -0.0920  -0.0906  -0.0898  -0.0212   0.0044
     0.0409   0.0563   0.0572   0.0732   0.1191   0.1269   0.1344   0.1360
     0.1382   0.1417   0.1431   0.1464   0.2161   0.2175   0.2730   0.2932
     0.3059   0.3146   0.3222   0.3298   0.4843   0.5248   0.5414   0.5756
     0.5998   0.6136   0.6245   0.6268   0.6748   0.8870   0.9141   0.9588
     0.9627   1.0668   1.1147   1.1408   1.1581   1.1806   1.1902   1.1943
     1.3258   1.3449   1.3469   1.3531   1.3557   1.3650   1.3732   1.3914
     1.4151   1.4332   1.4470   1.4557   1.4682   1.4753   1.4889   1.5043
     1.5119   1.5135   1.5172   1.5419   1.5655   1.5801   1.5908   1.6072
     1.6129   1.6263   1.6333   1.6373   1.6418   1.6442   1.6509   1.6847
     1.6892   1.7110   1.7146   1.7229   1.7310   1.7389   1.7411   1.7667
     1.7771   1.7780   1.7834   1.7904   1.7915   1.7927   1.8012   1.8035
     1.8180   1.8404   1.8645   1.8674   2.0125   2.0180   2.0202   2.0212
     2.0235   2.0253

          k = 0.0000 0.2309 0.0000 ( 36641 PWs)   bands (ev):

   -21.8329 -10.7541  -7.5525  -6.8841  -6.2915  -5.7687  -5.4877  -5.3706
    -4.8701  -4.8602  -4.3520  -4.2413  -3.9449  -3.9379  -3.8430  -3.7956
    -3.6513  -3.3968  -3.2665  -3.2437  -3.1618  -2.8960  -2.6806  -2.6516
    -2.6112  -2.5697  -2.5404  -2.3407  -2.2889  -2.2357  -2.2327  -2.2232
    -2.1916  -2.1480  -2.1417  -2.1306  -2.1040  -2.0214  -1.9615  -1.9433
    -1.8758  -1.8681  -1.8374  -1.7176  -1.6901  -1.6749  -1.6384  -1.5825
    -1.5353  -1.5003  -1.4644  -1.4453  -1.4143  -1.3959  -1.3745  -1.3703
    -1.3659  -1.3373  -1.2966  -1.2486  -1.2317  -1.2242  -1.2013  -1.1776
    -1.1112  -1.0423  -0.8798  -0.7743  -0.7610  -0.7510  -0.7166  -0.6432
    -0.6259  -0.5945  -0.5418  -0.5199  -0.4412  -0.4135  -0.3999  -0.3882
    -0.3525  -0.3496  -0.3399  -0.3294  -0.3114  -0.2979  -0.2699  -0.2556
    -0.2082  -0.1816  -0.1706  -0.1655  -0.1514  -0.1272  -0.1087  -0.0968
    -0.0892  -0.0800  -0.0737  -0.0682  -0.0664  -0.0619  -0.0510  -0.0210
     0.0123   0.0205   0.0339   0.0370   0.0565   0.0756   0.0837   0.1052
     0.1416   0.1544   0.1717   0.2012   0.2301   0.2469   0.2531   0.2836
     0.4046   0.4143   0.4696   0.4842   0.5141   0.5313   0.5490   0.5525
     0.5765   0.5874   0.6028   0.6064   0.7497   0.8807   0.9073   0.9246
     0.9324   0.9491   0.9670   0.9763   1.0188   1.0318   1.1068   1.1212
     1.1383   1.1966   1.2066   1.2428   1.2537   1.2752   1.2988   1.3185
     1.3547   1.3901   1.4091   1.4211   1.4221   1.4459   1.4695   1.4869
     1.5038   1.5337   1.5533   1.5711   1.5932   1.6049   1.6118   1.6523
     1.6656   1.6754   1.6792   1.6871   1.6956   1.7063   1.7556   1.7642
     1.7686   1.7760   1.8144   1.8263   1.8313   1.8465   1.8587   1.8707
     1.8801   1.9184   1.9213   1.9355   1.9512   1.9562   1.9649   1.9811
     1.9856   2.0092   2.0125   2.0252   2.1048   2.1186   2.1245   2.1479
     2.1917   2.2195

          k = 0.0000 0.4619 0.0000 ( 36606 PWs)   bands (ev):

   -21.8329 -10.7517  -7.1394  -6.8631  -6.3904  -6.0672  -5.6160  -5.3954
    -5.0889  -5.0617  -4.9519  -4.0129  -3.9660  -3.8676  -3.3969  -3.3225
    -3.3157  -3.2061  -3.0572  -3.0015  -2.8738  -2.8642  -2.7223  -2.7189
    -2.6599  -2.6394  -2.6002  -2.5812  -2.4782  -2.4688  -2.4309  -2.4115
    -2.3911  -2.2431  -2.1836  -2.1587  -2.1033  -2.0601  -1.9896  -1.9752
    -1.9727  -1.9646  -1.8749  -1.6905  -1.6739  -1.6533  -1.6277  -1.5707
    -1.4556  -1.4449  -1.4372  -1.4196  -1.4053  -1.3948  -1.3804  -1.3761
    -1.3169  -1.2822  -1.2602  -1.2527  -1.2270  -1.1932  -1.0974  -1.0453
    -0.9498  -0.9035  -0.8963  -0.8094  -0.7843  -0.7513  -0.7224  -0.7118
    -0.6909  -0.6793  -0.6522  -0.6109  -0.6011  -0.5495  -0.5349  -0.5070
    -0.4744  -0.4461  -0.4243  -0.4185  -0.4038  -0.3679  -0.3237  -0.2744
    -0.2363  -0.2272  -0.1956  -0.1730  -0.1465  -0.1225  -0.1126  -0.0845
    -0.0598  -0.0486  -0.0412  -0.0226  -0.0149  -0.0062   0.0033   0.0224
     0.0455   0.0724   0.0807   0.0893   0.0955   0.0999   0.1189   0.1347
     0.1500   0.1710   0.1890   0.2813   0.2990   0.3013   0.3326   0.3494
     0.3552   0.3719   0.3806   0.4387   0.4532   0.4633   0.4847   0.5042
     0.5254   0.5578   0.5665   0.5739   0.6073   0.6503   0.7493   0.7768
     0.7905   0.8239   0.8745   0.9692   0.9857   1.0092   1.0271   1.0459
     1.0521   1.0978   1.1128   1.1328   1.1416   1.2164   1.2584   1.3120
     1.3346   1.3751   1.3964   1.4245   1.4348   1.4604   1.4656   1.4984
     1.5127   1.5304   1.5509   1.6172   1.6358   1.6528   1.6616   1.6786
     1.6910   1.6958   1.7302   1.7439   1.7562   1.7741   1.7808   1.8178
     1.8240   1.8501   1.8972   1.9136   1.9262   1.9498   1.9620   1.9682
     1.9761   1.9895   2.0124   2.0187   2.0210   2.0459   2.0485   2.0517
     2.0603   2.1015   2.1900   2.2688   2.3032   2.3694   2.4987   2.7179
     2.7819   2.8159

          k = 0.2000-0.1155 0.0000 ( 36641 PWs)   bands (ev):

   -21.8329 -10.7541  -7.5519  -6.8817  -6.2967  -5.7865  -5.4737  -5.3598
    -4.8717  -4.8678  -4.3573  -4.2115  -3.9427  -3.9408  -3.8379  -3.8244
    -3.6472  -3.3948  -3.2652  -3.2574  -3.1529  -2.8804  -2.6768  -2.6727
    -2.6058  -2.5637  -2.5492  -2.3638  -2.2607  -2.2372  -2.2305  -2.2088
    -2.1880  -2.1585  -2.1400  -2.1297  -2.1048  -2.0256  -1.9630  -1.9385
    -1.8755  -1.8717  -1.7995  -1.7438  -1.7005  -1.6760  -1.6650  -1.5683
    -1.5339  -1.5060  -1.4701  -1.4445  -1.4152  -1.3978  -1.3782  -1.3705
    -1.3667  -1.3559  -1.2846  -1.2480  -1.2317  -1.2245  -1.1924  -1.1779
    -1.1163  -1.0441  -0.8752  -0.7766  -0.7606  -0.7510  -0.7062  -0.6414
    -0.6254  -0.5909  -0.5414  -0.5209  -0.4335  -0.4189  -0.4065  -0.3929
    -0.3517  -0.3466  -0.3376  -0.3298  -0.3204  -0.3102  -0.2675  -0.2455
    -0.1997  -0.1880  -0.1702  -0.1685  -0.1496  -0.1235  -0.1111  -0.0930
    -0.0918  -0.0837  -0.0734  -0.0680  -0.0654  -0.0620  -0.0464  -0.0218
     0.0140   0.0199   0.0290   0.0332   0.0641   0.0801   0.0962   0.1017
     0.1367   0.1567   0.1673   0.1967   0.2355   0.2445   0.2511   0.2828
     0.4040   0.4288   0.4652   0.4902   0.5102   0.5184   0.5541   0.5629
     0.5810   0.5862   0.5963   0.6067   0.7601   0.8616   0.9225   0.9299
     0.9326   0.9510   0.9683   0.9785   1.0220   1.0425   1.1130   1.1203
     1.1344   1.1790   1.2057   1.2389   1.2488   1.2790   1.2966   1.3132
     1.3547   1.3908   1.4024   1.4240   1.4291   1.4429   1.4684   1.4797
     1.5101   1.5353   1.5576   1.5699   1.5820   1.5992   1.6116   1.6365
     1.6688   1.6727   1.6788   1.6876   1.7053   1.7103   1.7591   1.7650
     1.7713   1.7761   1.8161   1.8231   1.8317   1.8501   1.8585   1.8668
     1.8842   1.9165   1.9228   1.9316   1.9519   1.9564   1.9618   1.9850
     1.9880   2.0087   2.0123   2.0274   2.1059   2.1177   2.1270   2.1619
     2.1921   2.2129

          k = 0.2000 0.1155 0.0000 ( 36641 PWs)   bands (ev):

   -21.8329 -10.7541  -7.5530  -6.8859  -6.2886  -5.7612  -5.4652  -5.4059
    -4.8630  -4.8603  -4.3534  -4.2488  -3.9439  -3.9390  -3.8397  -3.7912
    -3.6516  -3.3964  -3.2660  -3.2424  -3.1640  -2.9003  -2.6823  -2.6431
    -2.6181  -2.5671  -2.5397  -2.3348  -2.2981  -2.2374  -2.2319  -2.2203
    -2.1949  -2.1445  -2.1401  -2.1280  -2.1057  -2.0188  -1.9616  -1.9528
    -1.8745  -1.8671  -1.8125  -1.7423  -1.6794  -1.6775  -1.6473  -1.5586
    -1.5491  -1.5073  -1.4702  -1.4459  -1.4185  -1.3870  -1.3809  -1.3696
    -1.3658  -1.3217  -1.2965  -1.2560  -1.2363  -1.2287  -1.1973  -1.1737
    -1.1241  -1.0274  -0.8885  -0.7701  -0.7586  -0.7381  -0.7108  -0.6505
    -0.6363  -0.5967  -0.5359  -0.5196  -0.4389  -0.4096  -0.4061  -0.3828
    -0.3550  -0.3455  -0.3389  -0.3319  -0.3094  -0.3015  -0.2803  -0.2580
    -0.1999  -0.1818  -0.1708  -0.1683  -0.1518  -0.1239  -0.1080  -0.0941
    -0.0895  -0.0809  -0.0781  -0.0689  -0.0670  -0.0603  -0.0446  -0.0212
     0.0150   0.0225   0.0335   0.0353   0.0594   0.0808   0.0876   0.0966
     0.1425   0.1499   0.1814   0.2009   0.2292   0.2425   0.2535   0.2841
     0.4100   0.4183   0.4514   0.4840   0.5010   0.5343   0.5486   0.5584
     0.5707   0.5882   0.6020   0.6071   0.7588   0.8919   0.9066   0.9250
     0.9289   0.9435   0.9681   0.9777   1.0096   1.0413   1.0906   1.1143
     1.1237   1.2010   1.2088   1.2407   1.2575   1.2767   1.2972   1.3209
     1.3547   1.3935   1.4127   1.4198   1.4242   1.4448   1.4730   1.4804
     1.5101   1.5307   1.5534   1.5810   1.5868   1.6074   1.6163   1.6490
     1.6616   1.6721   1.6783   1.6881   1.6958   1.7038   1.7557   1.7590
     1.7697   1.7756   1.8167   1.8272   1.8318   1.8498   1.8558   1.8701
     1.8802   1.9201   1.9218   1.9319   1.9501   1.9566   1.9606   1.9816
     1.9860   2.0126   2.0156   2.0246   2.1050   2.1148   2.1256   2.1484
     2.1955   2.2174

          k = 0.2000 0.3464 0.0000 ( 36608 PWs)   bands (ev):

   -21.8329 -10.7522  -7.2724  -6.8708  -6.1524  -5.8693  -5.8388  -5.5806
    -5.4076  -4.6019  -4.5233  -4.1433  -4.1296  -4.0223  -3.3025  -3.2947
    -3.2873  -3.2789  -3.1742  -3.0907  -2.9928  -2.9820  -2.9598  -2.6221
    -2.5627  -2.5383  -2.5314  -2.4515  -2.4334  -2.4135  -2.3565  -2.3338
    -2.3239  -2.3143  -2.3088  -2.1887  -2.1634  -2.0870  -1.9382  -1.9325
    -1.9074  -1.8809  -1.8136  -1.8045  -1.7489  -1.6503  -1.6006  -1.5826
    -1.4906  -1.4564  -1.4202  -1.4173  -1.4093  -1.3929  -1.3695  -1.3547
    -1.3396  -1.3059  -1.2708  -1.2407  -1.1877  -1.1583  -1.0951  -1.0386
    -0.9719  -0.9392  -0.8990  -0.8245  -0.7468  -0.7261  -0.7143  -0.6803
    -0.6584  -0.6499  -0.6245  -0.6000  -0.5499  -0.5325  -0.5221  -0.4993
    -0.4797  -0.4541  -0.4455  -0.4378  -0.3930  -0.3143  -0.2775  -0.2690
    -0.2530  -0.2393  -0.2047  -0.1829  -0.1656  -0.1581  -0.1335  -0.1250
    -0.1023  -0.0860  -0.0708  -0.0576  -0.0480  -0.0221  -0.0049   0.0115
     0.0228   0.0312   0.0476   0.0645   0.0753   0.0836   0.0996   0.1064
     0.1226   0.1811   0.2006   0.2216   0.3264   0.3350   0.3543   0.3637
     0.3941   0.4058   0.4442   0.4553   0.5044   0.5213   0.5295   0.5330
     0.5467   0.5567   0.6021   0.6313   0.6763   0.7226   0.8223   0.8491
     0.9092   0.9394   0.9570   0.9842   0.9984   1.0037   1.0103   1.0373
     1.0538   1.0644   1.0772   1.0973   1.1314   1.1719   1.2417   1.2521
     1.2762   1.2849   1.3233   1.3444   1.3477   1.3715   1.4089   1.4336
     1.4956   1.5558   1.6091   1.6410   1.6610   1.6764   1.6868   1.6997
     1.7101   1.7253   1.7304   1.7450   1.7566   1.8144   1.8211   1.8324
     1.8368   1.8662   1.8822   1.8877   1.9010   1.9250   1.9375   1.9542
     1.9612   1.9721   1.9739   1.9921   2.0024   2.0179   2.0488   2.0819
     2.0939   2.1086   2.1979   2.2297   2.2964   2.3387   2.3753   2.4958
     2.6578   2.6922

          k = 0.2000-0.5774 0.0000 ( 36660 PWs)   bands (ev):

   -21.8329 -10.7510  -6.9560  -6.6697  -6.6112  -6.0809  -5.8960  -5.5102
    -5.2550  -5.1265  -4.6347  -4.1884  -3.6681  -3.5420  -3.3270  -3.3228
    -3.2851  -3.0981  -3.0678  -2.9137  -2.9064  -2.9010  -2.7765  -2.7650
    -2.7582  -2.7353  -2.7211  -2.6966  -2.5312  -2.4041  -2.3795  -2.3682
    -2.3438  -2.3386  -2.2901  -2.2795  -2.2100  -2.1646  -2.0571  -1.9246
    -1.8366  -1.8249  -1.8188  -1.7555  -1.7191  -1.6576  -1.5845  -1.5732
    -1.5296  -1.5244  -1.5081  -1.4214  -1.3752  -1.3556  -1.3405  -1.3168
    -1.2820  -1.2312  -1.1981  -1.1741  -1.1244  -1.0963  -1.0915  -1.0323
    -0.9932  -0.9438  -0.8522  -0.8073  -0.7979  -0.7506  -0.7288  -0.7182
    -0.6694  -0.6539  -0.6367  -0.6017  -0.5686  -0.5461  -0.5170  -0.5004
    -0.4928  -0.4642  -0.4552  -0.4414  -0.4342  -0.4225  -0.3937  -0.3687
    -0.3629  -0.3319  -0.3128  -0.2844  -0.2359  -0.2076  -0.1836  -0.1625
    -0.1106  -0.0933  -0.0763  -0.0465  -0.0330  -0.0067  -0.0044   0.0168
     0.0377   0.0825   0.0961   0.1041   0.1187   0.1301   0.1972   0.2294
     0.2479   0.2706   0.2749   0.2903   0.3082   0.3333   0.3632   0.3779
     0.3918   0.3972   0.4468   0.4834   0.4971   0.5130   0.5228   0.5636
     0.5714   0.5773   0.5875   0.6291   0.6398   0.6479   0.6578   0.6823
     0.7534   0.8216   0.9015   0.9230   0.9413   0.9512   0.9824   0.9994
     1.0062   1.0311   1.0475   1.0863   1.1458   1.1846   1.1973   1.2040
     1.2577   1.2647   1.2840   1.3182   1.3377   1.3592   1.4156   1.4382
     1.4559   1.5782   1.6032   1.6286   1.6800   1.6959   1.7258   1.7394
     1.7468   1.7602   1.7692   1.7882   1.8144   1.8295   1.8353   1.8436
     1.8724   1.8980   1.9161   1.9290   1.9325   1.9361   1.9475   1.9481
     1.9575   2.0027   2.0090   2.0336   2.0433   2.0571   2.0661   2.0829
     2.0980   2.1534   2.2444   2.4027   2.5724   2.7288   2.8668   2.9251
     2.9530   2.9771

          k = 0.2000-0.3464 0.0000 ( 36608 PWs)   bands (ev):

   -21.8329 -10.7521  -7.2662  -6.8724  -6.1612  -5.8975  -5.8389  -5.5791
    -5.3733  -4.6199  -4.5043  -4.1378  -4.1232  -4.0266  -3.3032  -3.2954
    -3.2875  -3.2841  -3.1747  -3.0947  -3.0120  -2.9798  -2.9402  -2.6202
    -2.5491  -2.5422  -2.5298  -2.4546  -2.4478  -2.4205  -2.3579  -2.3306
    -2.3276  -2.3172  -2.3101  -2.1689  -2.1507  -2.0491  -1.9563  -1.9396
    -1.9114  -1.8667  -1.8350  -1.8089  -1.7563  -1.6467  -1.6051  -1.5805
    -1.5086  -1.4467  -1.4253  -1.4184  -1.4138  -1.3972  -1.3816  -1.3598
    -1.3418  -1.3180  -1.2721  -1.2528  -1.1950  -1.1455  -1.0862  -1.0413
    -0.9751  -0.9481  -0.8680  -0.8193  -0.7456  -0.7201  -0.7102  -0.6900
    -0.6606  -0.6424  -0.6250  -0.5795  -0.5596  -0.5270  -0.5167  -0.5000
    -0.4864  -0.4603  -0.4509  -0.4396  -0.4049  -0.3304  -0.2762  -0.2646
    -0.2577  -0.2473  -0.1959  -0.1804  -0.1666  -0.1541  -0.1344  -0.1171
    -0.1057  -0.0909  -0.0786  -0.0586  -0.0429  -0.0266  -0.0008   0.0101
     0.0229   0.0294   0.0355   0.0661   0.0778   0.0907   0.1004   0.1083
     0.1236   0.1962   0.2098   0.2116   0.3287   0.3399   0.3468   0.3814
     0.3957   0.4381   0.4441   0.4724   0.5091   0.5144   0.5224   0.5322
     0.5452   0.5485   0.5942   0.6356   0.6809   0.7190   0.8343   0.8399
     0.8916   0.9245   0.9784   0.9919   1.0020   1.0137   1.0183   1.0328
     1.0404   1.0685   1.0842   1.1166   1.1351   1.1703   1.2121   1.2460
     1.2758   1.2869   1.3204   1.3407   1.3523   1.3728   1.4188   1.4382
     1.4827   1.5332   1.6277   1.6387   1.6527   1.6809   1.6890   1.6935
     1.7160   1.7230   1.7372   1.7482   1.7519   1.8172   1.8222   1.8253
     1.8315   1.8711   1.8756   1.8850   1.9036   1.9246   1.9371   1.9543
     1.9642   1.9707   1.9729   1.9975   2.0033   2.0282   2.0508   2.0787
     2.0992   2.1054   2.1826   2.2257   2.2902   2.3580   2.3919   2.5282
     2.6056   2.6976

          k = 0.4000-0.2309 0.0000 ( 36606 PWs)   bands (ev):

   -21.8329 -10.7516  -7.1316  -6.8627  -6.4062  -6.0735  -5.6449  -5.3496
    -5.0886  -5.0733  -4.9339  -4.0056  -3.9647  -3.8855  -3.3816  -3.3244
    -3.3187  -3.2034  -3.0576  -2.9921  -2.8773  -2.8669  -2.7249  -2.7199
    -2.6625  -2.6536  -2.6011  -2.5820  -2.4852  -2.4703  -2.4315  -2.4086
    -2.3923  -2.2188  -2.1842  -2.1148  -2.1002  -2.0809  -1.9892  -1.9806
    -1.9669  -1.9570  -1.8478  -1.7324  -1.6736  -1.6577  -1.6287  -1.6108
    -1.4621  -1.4484  -1.4351  -1.4324  -1.4173  -1.3893  -1.3827  -1.3738
[...]
     atom    8 type  1   force =    -0.00168125   -0.00160096   -0.10426212
     atom    9 type  1   force =     0.00042645    0.00099159   -0.10412895
     atom   10 type  1   force =     0.00203848    0.00059814   -0.01114588
     atom   11 type  1   force =    -0.00032870   -0.00205350   -0.01081408
     atom   12 type  1   force =    -0.00113620   -0.00005171   -0.01066568
     atom   13 type  1   force =    -0.00144595    0.00128902   -0.01069960
     atom   14 type  1   force =     0.00030608    0.00039480   -0.00794228
     atom   15 type  1   force =     0.00049593    0.00031137   -0.01149719
     atom   16 type  1   force =    -0.00073127   -0.00125217   -0.01125812
     atom   17 type  1   force =     0.00108499    0.00081571   -0.01004405
     atom   18 type  1   force =     0.00015541    0.00009737   -0.01115952
     atom   19 type  1   force =    -0.00103697   -0.00124836    0.01429702
     atom   20 type  1   force =    -0.01126064   -0.00110836   -0.00313396
     atom   21 type  1   force =     0.01102895   -0.00790953   -0.00058741
     atom   22 type  1   force =     0.00159480   -0.00015099    0.01511760
     atom   23 type  1   force =     0.00069456    0.01300250   -0.00076519
     atom   24 type  1   force =    -0.00246462   -0.00104636    0.01786481
     atom   25 type  1   force =     0.00028775    0.00037965    0.01970806
     atom   26 type  1   force =    -0.00485967   -0.00278109    0.00831468
     atom   27 type  1   force =     0.00542709    0.00029515    0.00941304
     atom   28 type  1   force =     0.00910681    0.00133005    0.11661730
     atom   29 type  1   force =    -0.00453197    0.02889691    0.15986583
     atom   30 type  1   force =    -0.02162043    0.01354106    0.13303064
     atom   31 type  1   force =     0.03074094   -0.02481377    0.14147556
     atom   32 type  1   force =    -0.03296837   -0.03346174    0.20486813
     atom   33 type  1   force =    -0.00321713   -0.00048565    0.11751561
     atom   34 type  1   force =     0.00138925   -0.00649915    0.11885793
     atom   35 type  1   force =     0.00016335    0.00177109    0.12521471
     atom   36 type  1   force =    -0.00093785    0.00173985    0.10468198
     atom   37 type  2   force =    -0.03883467   -0.03227812    0.28056706
     atom   38 type  3   force =     1.09629166    1.27886033   -2.10606852
     atom   39 type  4   force =    -0.03098762   -0.03501362   -0.02267225
     The ionic contribution  to forces
     atom    1 type  1   force =    -0.00642957    0.00108059 -111.13530479
     atom    2 type  1   force =    -0.00328041    0.00224055 -111.15477560
     atom    3 type  1   force =     0.00970986    0.00087078 -111.14181157
     atom    4 type  1   force =    -0.00384430    0.00519722 -111.13470714
     atom    5 type  1   force =     0.00205596    0.00791811 -111.13831785
     atom    6 type  1   force =     0.00178838   -0.00103658 -111.13067316
     atom    7 type  1   force =     0.00142874   -0.00117107 -111.13021236
     atom    8 type  1   force =    -0.00582671   -0.00608769 -111.13892191
     atom    9 type  1   force =     0.00439802   -0.00901189 -111.14181376
     atom   10 type  1   force =    -0.04056275   -0.01783078  -40.07340062
     atom   11 type  1   force =    -0.01709825   -0.05765007  -40.18936193
     atom   12 type  1   force =     0.05764600   -0.03421108  -40.10575155
     atom   13 type  1   force =    -0.06232118    0.03882032  -40.14052563
     atom   14 type  1   force =     0.04048530    0.04600062  -40.18643360
     atom   15 type  1   force =     0.02185458    0.01317006  -40.06224904
     atom   16 type  1   force =    -0.00560839    0.04164702  -40.06837751
     atom   17 type  1   force =     0.00371603   -0.00399404  -40.07087681
     atom   18 type  1   force =     0.00189108   -0.02595160  -40.06078828
     atom   19 type  1   force =    -0.30810883    0.05193697   31.53358434
     atom   20 type  1   force =    -0.19388641    0.12728856   30.47824755
     atom   21 type  1   force =     0.49746319    0.03927271   31.22025056
     atom   22 type  1   force =    -0.17995228    0.24707163   31.56446118
     atom   23 type  1   force =     0.10342161    0.39154905   31.39148202
     atom   24 type  1   force =     0.07723137   -0.04617363   31.72323356
     atom   25 type  1   force =     0.05906176   -0.05129752   31.74437535
     atom   26 type  1   force =    -0.28370846   -0.30364083   31.35823884
     atom   27 type  1   force =     0.22572156   -0.45489750   31.22157283
     atom   28 type  1   force =    -1.49032901   -0.57637088  103.86151565
     atom   29 type  1   force =    -1.16462451   -4.13697070   98.32242129
     atom   30 type  1   force =     2.36649790   -1.37600416  103.15823775
     atom   31 type  1   force =    -3.14570437    2.02702964  101.74363739
     atom   32 type  1   force =     2.99762245    3.41666590   98.07186826
     atom   33 type  1   force =     0.72369810    0.35141342  104.27568736
     atom   34 type  1   force =    -0.23609473    1.36404518  104.15171536
     atom   35 type  1   force =     0.07832662   -0.16330088  104.06259081
     atom   36 type  1   force =     0.15383797   -0.85009720  104.25066262
     atom   37 type  2   force =     2.38313202    3.07281366   53.02493272
     atom   38 type  3   force =    -4.05150335   -4.70134197   88.98556112
     atom   39 type  4   force =     1.38789501    1.57100806   15.06002654
     The local contribution  to forces
     atom    1 type  1   force =     0.00740344    0.00068036  111.24246393
     atom    2 type  1   force =     0.00456763   -0.00166807  111.25628230
     atom    3 type  1   force =    -0.01165902    0.00160725  111.24462623
     atom    4 type  1   force =     0.00342145   -0.00536809  111.24165640
     atom    5 type  1   force =    -0.00280741   -0.01169877  111.24190250
     atom    6 type  1   force =    -0.00055976    0.00046170  111.23394458
     atom    7 type  1   force =    -0.00318910    0.00012652  111.23651710
     atom    8 type  1   force =     0.00879454    0.00760949  111.24623587
     atom    9 type  1   force =    -0.00577861    0.00834334  111.24718695
     atom   10 type  1   force =     0.03920506    0.01675075   40.06351123
     atom   11 type  1   force =     0.01659675    0.06009971   40.17928342
     atom   12 type  1   force =    -0.05587107    0.03497968   40.09962591
     atom   13 type  1   force =     0.06424409   -0.04118379   40.13409112
     atom   14 type  1   force =    -0.04122751   -0.04616918   40.17209049
     atom   15 type  1   force =    -0.02285545   -0.01384923   40.05419405
     atom   16 type  1   force =     0.00790559   -0.03995012   40.06055406
     atom   17 type  1   force =    -0.00522490    0.00312302   40.06284977
     atom   18 type  1   force =    -0.00227604    0.02592597   40.05137305
     atom   19 type  1   force =     0.30819532   -0.04962206  -31.52415764
     atom   20 type  1   force =     0.20388563   -0.12517836  -30.45897878
     atom   21 type  1   force =    -0.50604147   -0.03173204  -31.20010658
     atom   22 type  1   force =     0.17725019   -0.24651113  -31.55649293
     atom   23 type  1   force =    -0.10325846   -0.40356459  -31.37035941
     atom   24 type  1   force =    -0.07399929    0.04686903  -31.71731181
     atom   25 type  1   force =    -0.06013674    0.05109500  -31.73764978
     atom   26 type  1   force =     0.28753363    0.30484600  -31.34429207
     atom   27 type  1   force =    -0.23029128    0.45360426  -31.20958203
     atom   28 type  1   force =     1.47558879    0.57369547 -103.98693035
     atom   29 type  1   force =     1.16351487    4.08736788  -98.49242274
     atom   30 type  1   force =    -2.33245509    1.34994839 -103.30235894
     atom   31 type  1   force =     3.09802908   -1.99570125 -101.89318255
     atom   32 type  1   force =    -2.95082462   -3.36468923  -98.26609383
     atom   33 type  1   force =    -0.71101365   -0.34935057 -104.40480828
     atom   34 type  1   force =     0.22949161   -1.34674066 -104.27995989
     atom   35 type  1   force =    -0.07550401    0.16440935 -104.20063856
     atom   36 type  1   force =    -0.15223771    0.84438638 -104.36471686
     atom   37 type  2   force =    -2.34629761   -3.04180593  -53.30674883
     atom   38 type  3   force =     2.96652538    3.43811087  -86.88858799
     atom   39 type  4   force =    -1.35530712   -1.53432370  -15.05213969
     The core correction contribution to forces
     atom    1 type  1   force =     0.00010846    0.00018566    0.01016786
     atom    2 type  1   force =     0.00033830    0.00011991    0.01032452
     atom    3 type  1   force =    -0.00005769    0.00015723    0.01032764
     atom    4 type  1   force =    -0.00011742   -0.00006723    0.01013413
     atom    5 type  1   force =    -0.00011988   -0.00029488    0.01038820
     atom    6 type  1   force =     0.00006567   -0.00004397    0.00973991
     atom    7 type  1   force =    -0.00006517   -0.00003399    0.01057943
     atom    8 type  1   force =     0.00008486    0.00011072    0.01029724
     atom    9 type  1   force =    -0.00009466   -0.00001867    0.01010476
     atom   10 type  1   force =    -0.00022838   -0.00019405   -0.00189906
     atom   11 type  1   force =    -0.00004536   -0.00023597   -0.00181549
     atom   12 type  1   force =     0.00036155   -0.00026755   -0.00194436
     atom   13 type  1   force =    -0.00015159   -0.00011828   -0.00168052
     atom   14 type  1   force =     0.00004548    0.00003197   -0.00171903
     atom   15 type  1   force =     0.00023068    0.00002700   -0.00186283
     atom   16 type  1   force =     0.00001237    0.00047642   -0.00199007
     atom   17 type  1   force =     0.00003399    0.00009531   -0.00175592
     atom   18 type  1   force =    -0.00009787   -0.00006757   -0.00158770
     atom   19 type  1   force =    -0.00015675   -0.00010031    0.00171006
     atom   20 type  1   force =     0.00078584   -0.00005377    0.00191190
     atom   21 type  1   force =    -0.00009296    0.00024996    0.00049086
     atom   22 type  1   force =    -0.00018403    0.00018998    0.00158808
     atom   23 type  1   force =     0.00016486    0.00008141    0.00073909
     atom   24 type  1   force =     0.00012383    0.00005852    0.00184228
     atom   25 type  1   force =     0.00044831    0.00019802    0.00224974
     atom   26 type  1   force =     0.00001005    0.00028050    0.00149634
     atom   27 type  1   force =    -0.00016399   -0.00006950    0.00123652
     atom   28 type  1   force =     0.00088061   -0.00006806   -0.00929425
     atom   29 type  1   force =     0.00356438    0.01154411    0.00170903
     atom   30 type  1   force =    -0.00420914    0.00415770   -0.00817534
     atom   31 type  1   force =     0.00683854   -0.00276101   -0.00658533
     atom   32 type  1   force =    -0.01358479   -0.01569579    0.02115226
     atom   33 type  1   force =    -0.00267295    0.00006859   -0.00875841
     atom   34 type  1   force =     0.00194840   -0.00289071   -0.00890259
     atom   35 type  1   force =    -0.00138119   -0.00186238   -0.00818826
     atom   36 type  1   force =    -0.00043166    0.00028526   -0.01054842
     atom   37 type  2   force =    -0.00152169   -0.00174650   -0.00201793
     atom   38 type  3   force =    -0.00870313   -0.01004062    0.01682451
     atom   39 type  4   force =     0.00000000    0.00000000    0.00000000
     The Hubbard contrib.    to forces
     atom    1 type  1   force =     0.00000000    0.00000000    0.00000000
     atom    2 type  1   force =     0.00000000    0.00000000    0.00000000
     atom    3 type  1   force =     0.00000000    0.00000000    0.00000000
     atom    4 type  1   force =     0.00000000    0.00000000    0.00000000
     atom    5 type  1   force =     0.00000000    0.00000000    0.00000000
     atom    6 type  1   force =     0.00000000    0.00000000    0.00000000
     atom    7 type  1   force =     0.00000000    0.00000000    0.00000000
     atom    8 type  1   force =     0.00000000    0.00000000    0.00000000
     atom    9 type  1   force =     0.00000000    0.00000000    0.00000000
     atom   10 type  1   force =     0.00000000    0.00000000    0.00000000
     atom   11 type  1   force =     0.00000000    0.00000000    0.00000000
     atom   12 type  1   force =     0.00000000    0.00000000    0.00000000
     atom   13 type  1   force =     0.00000000    0.00000000    0.00000000
     atom   14 type  1   force =     0.00000000    0.00000000    0.00000000
     atom   15 type  1   force =     0.00000000    0.00000000    0.00000000
     atom   16 type  1   force =     0.00000000    0.00000000    0.00000000
     atom   17 type  1   force =     0.00000000    0.00000000    0.00000000
     atom   18 type  1   force =     0.00000000    0.00000000    0.00000000
     atom   19 type  1   force =     0.00000000    0.00000000    0.00000000
     atom   20 type  1   force =     0.00000000    0.00000000    0.00000000
     atom   21 type  1   force =     0.00000000    0.00000000    0.00000000
     atom   22 type  1   force =     0.00000000    0.00000000    0.00000000
     atom   23 type  1   force =     0.00000000    0.00000000    0.00000000
     atom   24 type  1   force =     0.00000000    0.00000000    0.00000000
     atom   25 type  1   force =     0.00000000    0.00000000    0.00000000
     atom   26 type  1   force =     0.00000000    0.00000000    0.00000000
     atom   27 type  1   force =     0.00000000    0.00000000    0.00000000
     atom   28 type  1   force =     0.00000000    0.00000000    0.00000000
     atom   29 type  1   force =     0.00000000    0.00000000    0.00000000
     atom   30 type  1   force =     0.00000000    0.00000000    0.00000000
     atom   31 type  1   force =     0.00000000    0.00000000    0.00000000
     atom   32 type  1   force =     0.00000000    0.00000000    0.00000000
     atom   33 type  1   force =     0.00000000    0.00000000    0.00000000
     atom   34 type  1   force =     0.00000000    0.00000000    0.00000000
     atom   35 type  1   force =     0.00000000    0.00000000    0.00000000
     atom   36 type  1   force =     0.00000000    0.00000000    0.00000000
     atom   37 type  2   force =     0.00000000    0.00000000    0.00000000
     atom   38 type  3   force =     0.00000000    0.00000000    0.00000000
     atom   39 type  4   force =     0.00000000    0.00000000    0.00000000
     The SCF correction term to forces
     atom    1 type  1   force =     0.00000000   -0.00000000    0.00000000
     atom    2 type  1   force =    -0.00000000   -0.00000000    0.00000000
     atom    3 type  1   force =     0.00000000    0.00000000    0.00000000
     atom    4 type  1   force =    -0.00000000    0.00000000    0.00000000
     atom    5 type  1   force =     0.00000000    0.00000000    0.00000000
     atom    6 type  1   force =     0.00000000    0.00000000    0.00000000
     atom    7 type  1   force =     0.00000000   -0.00000000    0.00000000
     atom    8 type  1   force =     0.00000000   -0.00000000    0.00000000
     atom    9 type  1   force =    -0.00000000   -0.00000000    0.00000000
     atom   10 type  1   force =     0.00000000   -0.00000000   -0.00000000
     atom   11 type  1   force =     0.00000000   -0.00000000   -0.00000000
     atom   12 type  1   force =    -0.00000000   -0.00000000   -0.00000000
     atom   13 type  1   force =    -0.00000000    0.00000000   -0.00000000
     atom   14 type  1   force =    -0.00000000    0.00000000   -0.00000000
     atom   15 type  1   force =     0.00000000    0.00000000   -0.00000000
     atom   16 type  1   force =    -0.00000000    0.00000000   -0.00000000
     atom   17 type  1   force =     0.00000000    0.00000000   -0.00000000
     atom   18 type  1   force =    -0.00000000    0.00000000   -0.00000000
     atom   19 type  1   force =    -0.00000000   -0.00000000   -0.00000000
     atom   20 type  1   force =     0.00000000   -0.00000000   -0.00000000
     atom   21 type  1   force =     0.00000000   -0.00000000   -0.00000000
     atom   22 type  1   force =    -0.00000000    0.00000000   -0.00000000
     atom   23 type  1   force =    -0.00000000    0.00000000   -0.00000000
     atom   24 type  1   force =     0.00000000    0.00000000   -0.00000000
     atom   25 type  1   force =    -0.00000000   -0.00000000   -0.00000000
     atom   26 type  1   force =     0.00000000   -0.00000000   -0.00000000
     atom   27 type  1   force =     0.00000000   -0.00000000   -0.00000000
     atom   28 type  1   force =    -0.00000000   -0.00000000   -0.00000000
     atom   29 type  1   force =     0.00000000   -0.00000000   -0.00000000
     atom   30 type  1   force =     0.00000000   -0.00000000   -0.00000000
     atom   31 type  1   force =    -0.00000000    0.00000000   -0.00000000
     atom   32 type  1   force =     0.00000000   -0.00000000   -0.00000000
     atom   33 type  1   force =    -0.00000000   -0.00000000   -0.00000000
     atom   34 type  1   force =    -0.00000000    0.00000000   -0.00000000
     atom   35 type  1   force =    -0.00000000    0.00000000   -0.00000000
     atom   36 type  1   force =     0.00000000    0.00000000   -0.00000000
     atom   37 type  2   force =     0.00006544    0.00002234   -0.00006426
     atom   38 type  3   force =     0.00002211   -0.00000044   -0.00002416
     atom   39 type  4   force =     0.00000679    0.00000072   -0.00001382

     Total force =     0.018709     Total SCF correction =     0.000101

     Writing all to output data dir ./pwscf.save/

     init_run     :     10.69s CPU     11.10s WALL (       1 calls)
     electrons    :    591.17s CPU    599.44s WALL (       1 calls)
     forces       :      2.93s CPU      3.01s WALL (       1 calls)

     Called by init_run:
     wfcinit      :      7.47s CPU      7.75s WALL (       1 calls)
     potinit      :      2.14s CPU      2.22s WALL (       1 calls)
     hinit0       :      0.84s CPU      0.85s WALL (       1 calls)

     Called by electrons:
     c_bands      :    497.39s CPU    503.77s WALL (      44 calls)
     sum_band     :     62.53s CPU     63.52s WALL (      44 calls)
     v_of_rho     :      8.12s CPU      8.54s WALL (      45 calls)
     newd         :      2.39s CPU      2.45s WALL (      45 calls)
     PAW_pot      :     12.86s CPU     12.98s WALL (      45 calls)
     mix_rho      :      9.24s CPU      9.45s WALL (      44 calls)
     vdW_kernel   :      1.08s CPU      1.09s WALL (       1 calls)

     Called by c_bands:
     init_us_2    :      5.48s CPU      5.59s WALL (    2340 calls)
     init_us_2:cp :      5.47s CPU      5.59s WALL (    2340 calls)
     cegterg      :    481.98s CPU    487.99s WALL (    1144 calls)

     Called by *egterg:
     cdiaghg      :    166.05s CPU    167.29s WALL (    3587 calls)
     h_psi        :    220.58s CPU    224.26s WALL (    3613 calls)
     s_psi        :     24.16s CPU     24.45s WALL (    3613 calls)
     g_psi        :      0.48s CPU      0.49s WALL (    2443 calls)

     Called by h_psi:
     h_psi:calbec :     33.77s CPU     34.37s WALL (    3613 calls)
     vloc_psi     :    160.35s CPU    163.06s WALL (    3613 calls)
     add_vuspsi   :     25.20s CPU     25.56s WALL (    3613 calls)

     General routines
     calbec       :     50.10s CPU     50.89s WALL (    4861 calls)
     fft          :      5.14s CPU      5.57s WALL (    4082 calls)
     ffts         :      5.85s CPU      5.97s WALL (   16235 calls)
     fftw         :    182.87s CPU    185.92s WALL ( 1187090 calls)
     interpolate  :      0.51s CPU      0.52s WALL (      90 calls)

     Parallel routines

     PWSCF        :  10m 9.21s CPU  10m22.31s WALL


   This run was terminated on:  20:27: 7   4Dec2025            

=------------------------------------------------------------------------------=
   JOB DONE.
=------------------------------------------------------------------------------=
