
     Program PWSCF v.7.1 starts on 11Dec2025 at  5: 3:39 
        Git branch: heads/qe-7.1
        Last git commit: 48ba0178f8fede6d020eb786884699a9f063f55d-dirty
        Last git commit date: Fri Jan 27 14:22:33 2023 +0000
        Last git commit subject: Merge branch 'fix_hubbard' into 'develop'

     This program is part of the open-source Quantum ESPRESSO suite
     for quantum simulation of materials; please cite
         "P. Giannozzi et al., J. Phys.:Condens. Matter 21 395502 (2009);
         "P. Giannozzi et al., J. Phys.:Condens. Matter 29 465901 (2017);
         "P. Giannozzi et al., J. Chem. Phys. 152 154105 (2020);
          URL http://www.quantum-espresso.org", 
     in publications or presentations arising from this work. More details at
     http://www.quantum-espresso.org/quote

     Parallel version (MPI), running on    96 processors

     MPI processes distributed on     2 nodes
     54825 MiB available memory on the printing compute node when the environment starts

     Reading input from espresso.pwi
Warning: card &CELL ignored
Warning: card / ignored
Warning: card &FCP ignored
Warning: card / ignored
Warning: card &RISM ignored
Warning: card / ignored

     Current dimensions of program PWSCF are:
     Max number of different atomic species (ntypx) = 10
     Max number of k-points (npk) =  40000
     Max angular momentum in pseudopotentials (lmaxx) =  4
     file Co.pbe-n-kjpaw_psl.1.0.0.UPF: wavefunction(s)  4S 3D renormalized
     file C.pbe-n-kjpaw_psl.1.0.0.UPF: wavefunction(s)  2S 2P renormalized
     file O.pbe-nl-kjpaw_psl.1.0.0.UPF: wavefunction(s)  2S 2P renormalized
     file H.pbe-kjpaw_psl.1.0.0.UPF: wavefunction(s)  1S renormalized

     **************************************************************************
     Initializing libbeef V0.1.2 with the BEEF-vdW functional.
     Citation: Wellendorff et al., PRB 85, 235149 (2012).
     **************************************************************************


     IMPORTANT: XC functional enforced from input :
     Exchange-correlation= BEEF-VDW
                           (   1   4  43  14   2   0   0)
     Any further DFT definition will be discarded
     Please, verify this is what you really want


     R & G space division:  proc/nbgrp/npool/nimage =      96
     Subspace diagonalization in iterative solution of the eigenvalue problem:
     one sub-group per band group will be used
     custom distributed-memory algorithm (size of sub-group:  2*  2 procs)


     Parallelization info
     --------------------
     sticks:   dense  smooth     PW     G-vecs:    dense   smooth      PW
     Min          43      28      7                 7829     4248     595
     Max          44      29      8                 7845     4281     630
     Sum        4153    2773    757               752179   409445   59217

     Using Slab Decomposition



     bravais-lattice index     =            0
     lattice parameter (alat)  =      14.1729  a.u.
     unit-cell volume          =    8574.3059 (a.u.)^3
     number of atoms/cell      =           39
     number of atomic types    =            4
     number of electrons       =       335.00
     number of Kohn-Sham states=          202
     kinetic-energy cutoff     =      50.0000  Ry
     charge density cutoff     =     300.0000  Ry
     scf convergence threshold =      1.0E-08
     mixing beta               =       0.7000
     number of iterations used =            8  local-TF  mixing
     Exchange-correlation= BEEF-VDW
                           (   1   4  43  14   2   0   0)

     celldm(1)=  14.172946  celldm(2)=   0.000000  celldm(3)=   0.000000
     celldm(4)=   0.000000  celldm(5)=   0.000000  celldm(6)=   0.000000

     crystal axes: (cart. coord. in units of alat)
               a(1) = (   1.000000   0.000000   0.000000 )  
               a(2) = (   0.500000   0.866025   0.000000 )  
               a(3) = (   0.000000   0.000000   3.477667 )  

     reciprocal axes: (cart. coord. in units 2 pi/alat)
               b(1) = (  1.000000 -0.577350  0.000000 )  
               b(2) = (  0.000000  1.154701  0.000000 )  
               b(3) = (  0.000000  0.000000  0.287549 )  


     PseudoPot. # 1 for Co read from file:
     /users/kbadger1/espresso/pseudo/pslibrary.1.0.0/pbe/PSEUDOPOTENTIALS/Co.pbe-n-kjpaw_psl.1.0.0.UPF
     MD5 check sum: 88af6ec42553d4236c267fdfcb472151
     Pseudo is Projector augmented-wave + core cor, Zval =  9.0
     Generated using 'atomic' code by A. Dal Corso  v.7.0
     Shape of augmentation charge: PSQ
     Using radial grid of 1193 points,  6 beta functions with: 
                l(1) =   0
                l(2) =   0
                l(3) =   1
                l(4) =   1
                l(5) =   2
                l(6) =   2
     Q(r) pseudized with 0 coefficients 


     PseudoPot. # 2 for C  read from file:
     /users/kbadger1/espresso/pseudo/pslibrary.1.0.0/pbe/PSEUDOPOTENTIALS/C.pbe-n-kjpaw_psl.1.0.0.UPF
     MD5 check sum: 6408e75cdba28732cea38a4db8498ce4
     Pseudo is Projector augmented-wave + core cor, Zval =  4.0
     Generated using 'atomic' code by A. Dal Corso  v.7.0
     Shape of augmentation charge: PSQ
     Using radial grid of 1073 points,  4 beta functions with: 
                l(1) =   0
                l(2) =   0
                l(3) =   1
                l(4) =   1
     Q(r) pseudized with 0 coefficients 


     PseudoPot. # 3 for O  read from file:
     /users/kbadger1/espresso/pseudo/pslibrary.1.0.0/pbe/PSEUDOPOTENTIALS/O.pbe-nl-kjpaw_psl.1.0.0.UPF
     MD5 check sum: f0439fab3598ca4e468f064226030408
     Pseudo is Projector augmented-wave + core cor, Zval =  6.0
     Generated using 'atomic' code by A. Dal Corso  v.7.0
     Shape of augmentation charge: PSQ
     Using radial grid of 1095 points,  4 beta functions with: 
                l(1) =   0
                l(2) =   0
                l(3) =   1
                l(4) =   1
     Q(r) pseudized with 0 coefficients 


     PseudoPot. # 4 for H  read from file:
     /users/kbadger1/espresso/pseudo/pslibrary.1.0.0/pbe/PSEUDOPOTENTIALS/H.pbe-kjpaw_psl.1.0.0.UPF
     MD5 check sum: fe4c6fa958fa6d3815bf5d2419cbf1df
     Pseudo is Projector augmented-wave, Zval =  1.0
     Generated using 'atomic' code by A. Dal Corso  v.7.0
     Shape of augmentation charge: PSQ
     Using radial grid of  929 points,  2 beta functions with: 
                l(1) =   0
                l(2) =   0
     Q(r) pseudized with 0 coefficients 


     atomic species   valence    mass     pseudopotential
        Co             9.00    58.93319     Co( 1.00)
        C              4.00    12.00000     C ( 1.00)
        O              6.00    15.99491     O ( 1.00)
        H              1.00     1.00783     H ( 1.00)

     Starting magnetic structure 
     atomic species   magnetization
        Co           1.000
        C            1.000
        O            0.000
        H            0.000

     No symmetry found



   Cartesian axes

     site n.     atom                  positions (alat units)
         1           Co  tau(   1) = (   0.0000000   0.1924501   1.3333333  )
         2           Co  tau(   2) = (   0.3333333   0.1924501   1.3333333  )
         3           Co  tau(   3) = (   0.6666667   0.1924501   1.3333333  )
         4           Co  tau(   4) = (   0.1666667   0.4811252   1.3333333  )
         5           Co  tau(   5) = (   0.5000000   0.4811252   1.3333333  )
         6           Co  tau(   6) = (   0.8333333   0.4811252   1.3333333  )
         7           Co  tau(   7) = (   0.3333333   0.7698004   1.3333333  )
         8           Co  tau(   8) = (   0.6666667   0.7698004   1.3333333  )
         9           Co  tau(   9) = (   1.0000000   0.7698004   1.3333333  )
        10           Co  tau(  10) = (   0.0000000   0.0000000   1.6036667  )
        11           Co  tau(  11) = (   0.3333333   0.0000000   1.6036667  )
        12           Co  tau(  12) = (   0.6666667   0.0000000   1.6036667  )
        13           Co  tau(  13) = (   0.1666667   0.2886751   1.6036667  )
        14           Co  tau(  14) = (   0.5000000   0.2886751   1.6036667  )
        15           Co  tau(  15) = (   0.8333333   0.2886751   1.6036667  )
        16           Co  tau(  16) = (   0.3333333   0.5773503   1.6036667  )
        17           Co  tau(  17) = (   0.6666667   0.5773503   1.6036667  )
        18           Co  tau(  18) = (   1.0000000   0.5773503   1.6036667  )
        19           Co  tau(  19) = (   0.0000000   0.1924501   1.8740000  )
        20           Co  tau(  20) = (   0.3333333   0.1924501   1.8740000  )
        21           Co  tau(  21) = (   0.6666667   0.1924501   1.8740000  )
        22           Co  tau(  22) = (   0.1666667   0.4811252   1.8740000  )
        23           Co  tau(  23) = (   0.5000000   0.4811252   1.8740000  )
        24           Co  tau(  24) = (   0.8333333   0.4811252   1.8740000  )
        25           Co  tau(  25) = (   0.3333333   0.7698004   1.8740000  )
        26           Co  tau(  26) = (   0.6666667   0.7698004   1.8740000  )
        27           Co  tau(  27) = (   1.0000000   0.7698004   1.8740000  )
        28           Co  tau(  28) = (   0.0000000   0.0000000   2.1443333  )
        29           Co  tau(  29) = (   0.3333333   0.0000000   2.1443333  )
        30           Co  tau(  30) = (   0.6666667   0.0000000   2.1443333  )
        31           Co  tau(  31) = (   0.1666667   0.2886751   2.1443333  )
        32           Co  tau(  32) = (   0.5000000   0.2886751   2.1443333  )
        33           Co  tau(  33) = (   0.8333333   0.2886751   2.1443333  )
        34           Co  tau(  34) = (   0.3333333   0.5773503   2.1443333  )
        35           Co  tau(  35) = (   0.6666667   0.5773503   2.1443333  )
        36           Co  tau(  36) = (   1.0000000   0.5773503   2.1443333  )
        37           C   tau(  37) = (   0.4293233   0.2078384   2.3684990  )
        38           O   tau(  38) = (   0.3306141   0.0798489   2.4157411  )
        39           H   tau(  39) = (   0.4918294   0.2881192   2.4746342  )

     number of k points=    13  Marzari-Vanderbilt smearing, width (Ry)=  0.0010
                       cart. coord. in units 2pi/alat
        k(    1) = (   0.0000000   0.0000000   0.0000000), wk =   0.0400000
        k(    2) = (   0.0000000   0.2309401   0.0000000), wk =   0.0800000
        k(    3) = (   0.0000000   0.4618802   0.0000000), wk =   0.0800000
        k(    4) = (   0.2000000  -0.1154701   0.0000000), wk =   0.0800000
        k(    5) = (   0.2000000   0.1154701   0.0000000), wk =   0.0800000
        k(    6) = (   0.2000000   0.3464102   0.0000000), wk =   0.0800000
        k(    7) = (   0.2000000  -0.5773503   0.0000000), wk =   0.0800000
        k(    8) = (   0.2000000  -0.3464102   0.0000000), wk =   0.0800000
        k(    9) = (   0.4000000  -0.2309401   0.0000000), wk =   0.0800000
        k(   10) = (   0.4000000   0.0000000   0.0000000), wk =   0.0800000
        k(   11) = (   0.4000000   0.2309401   0.0000000), wk =   0.0800000
        k(   12) = (   0.4000000  -0.6928203   0.0000000), wk =   0.0800000
        k(   13) = (   0.4000000  -0.4618802   0.0000000), wk =   0.0800000

     Dense  grid:   752179 G-vectors     FFT dimensions: (  80,  80, 288)

     Smooth grid:   409445 G-vectors     FFT dimensions: (  64,  64, 225)

     Estimated max dynamical RAM per process >      99.02 MB

     Estimated total dynamical RAM >       9.28 GB
     Generating pointlists ...
     new r_m :   0.1025 (alat units)  1.4531 (a.u.) for type    1
     new r_m :   0.0606 (alat units)  0.8596 (a.u.) for type    2
     new r_m :   0.0695 (alat units)  0.9845 (a.u.) for type    3
     new r_m :   0.0606 (alat units)  0.8596 (a.u.) for type    4

     Initial potential from superposition of free atoms

     starting charge     334.9897, renormalised to     335.0000

     negative rho (up, down):  2.999E-03 4.702E-04


     %%%%%%%%%%%%%%%%%%%%%%%%%%%%%%%%%%%%%%%%%%%%%%%%%%%%%%%%%%%%%%%%%%%%%%%%
     %                                                                      %
     % You are using vdW-DF, which was implemented by the Thonhauser group. %
     % Please cite the following two papers that made this development      %
     % possible and the two reviews that describe the various versions:     %
     %                                                                      %
     %   T. Thonhauser et al., PRL 115, 136402 (2015).                      %
     %   T. Thonhauser et al., PRB 76, 125112 (2007).                       %
     %   K. Berland et al., Rep. Prog. Phys. 78, 066501 (2015).             %
     %   D.C. Langreth et al., J. Phys.: Condens. Matter 21, 084203 (2009). %
     %                                                                      %
     % If you are calculating stress with vdW-DF, please also cite:         %
     %                                                                      %
     %   R. Sabatini et al., J. Phys.: Condens. Matter 24, 424209 (2012).   %
     %   C.M. Frostenson et al., Electr. Struct. 4, 014001 (2022).          %
     %                                                                      %
     %%%%%%%%%%%%%%%%%%%%%%%%%%%%%%%%%%%%%%%%%%%%%%%%%%%%%%%%%%%%%%%%%%%%%%%%

     %%%%%%%%%%%%%%%%%%%%%%%%%%%%%%%%%%%%%%%%%%%%%%%%%%%%%%%%%%%%%%%%%%%%%%%%
     %                                                                      %
     %  vdW-DF NEWS:                                                        %
     %                                                                      %
     %  * vdW-DF3 is now available. DOI: 10.1021/acs.jctc.0c00471           %
     %    use with input_dft = 'vdW-DF3-opt1' or 'vdW-DF3-opt2'             %
     %                                                                      %
     %  * Unscreened and range-separated hybrid vdW-DF-cx functionals       %
     %    DOI: 10.1063/1.4986522 and 10.1088/1361-648X/ac2ad2               %
     %    use with input_dft = 'vdW-DF-cx0'    and 'vdW-DF-ahcx'            %
     %  * Unscreened and range-separated hybrid vdW-DF2-b86r functionals    %
     %    DOI: 10.1063/1.4986522 and DOI: 10.1103/PhysRevX.12.041003        %
     %    use with input_dft = 'vdW-DF2-br0' and 'vdW-DF2-ahbr'             %
     %                                                                      %
     %%%%%%%%%%%%%%%%%%%%%%%%%%%%%%%%%%%%%%%%%%%%%%%%%%%%%%%%%%%%%%%%%%%%%%%%


     Starting wfcs are  333 randomized atomic wfcs
     Checking if some PAW data can be deallocated... 

     total cpu time spent up to now is       16.7 secs

     per-process dynamical memory:   233.9 Mb

     Self-consistent Calculation

     iteration #  1     ecut=    50.00 Ry     beta= 0.70
     Davidson diagonalization with overlap
     ethr =  1.00E-02,  avg # of iterations =  2.0

     negative rho (up, down):  2.257E-05 3.665E-08

     total cpu time spent up to now is       41.4 secs

     total energy              =   -6053.06197909 Ry
     estimated scf accuracy    <      39.79733287 Ry

     total magnetization       =    69.00 Bohr mag/cell
     absolute magnetization    =    81.17 Bohr mag/cell

     iteration #  2     ecut=    50.00 Ry     beta= 0.70
     Davidson diagonalization with overlap
     ethr =  1.00E-02,  avg # of iterations =  1.0

     negative rho (up, down):  2.461E-06 3.795E-09

     total cpu time spent up to now is       60.0 secs

     total energy              =   -6052.46012982 Ry
     estimated scf accuracy    <      25.41679223 Ry

     total magnetization       =    68.85 Bohr mag/cell
     absolute magnetization    =    76.72 Bohr mag/cell

     iteration #  3     ecut=    50.00 Ry     beta= 0.70
     Davidson diagonalization with overlap
     ethr =  7.59E-03,  avg # of iterations =  1.0

     negative rho (up, down):  1.739E-08 0.000E+00

     total cpu time spent up to now is       78.7 secs

     total energy              =   -6055.15075864 Ry
     estimated scf accuracy    <      84.89669037 Ry

     total magnetization       =    66.12 Bohr mag/cell
     absolute magnetization    =    73.26 Bohr mag/cell

     iteration #  4     ecut=    50.00 Ry     beta= 0.70
     Davidson diagonalization with overlap
     ethr =  7.59E-03,  avg # of iterations =  1.0

     total cpu time spent up to now is       97.7 secs

     total energy              =   -6056.34701217 Ry
     estimated scf accuracy    <       5.74506868 Ry

     total magnetization       =    60.65 Bohr mag/cell
     absolute magnetization    =    70.46 Bohr mag/cell

     iteration #  5     ecut=    50.00 Ry     beta= 0.70
     Davidson diagonalization with overlap
     ethr =  1.71E-03,  avg # of iterations =  1.2

     total cpu time spent up to now is      115.9 secs

     total energy              =   -6056.37503269 Ry
     estimated scf accuracy    <       3.36255440 Ry

     total magnetization       =    60.38 Bohr mag/cell
     absolute magnetization    =    69.79 Bohr mag/cell

     iteration #  6     ecut=    50.00 Ry     beta= 0.70
     Davidson diagonalization with overlap
     ethr =  1.00E-03,  avg # of iterations =  1.4

     total cpu time spent up to now is      135.3 secs

     total energy              =   -6056.48066596 Ry
     estimated scf accuracy    <       0.55156192 Ry

     total magnetization       =    60.43 Bohr mag/cell
     absolute magnetization    =    69.61 Bohr mag/cell

     iteration #  7     ecut=    50.00 Ry     beta= 0.70
     Davidson diagonalization with overlap
     ethr =  1.65E-04,  avg # of iterations =  5.3

     total cpu time spent up to now is      160.6 secs

     total energy              =   -6056.51092770 Ry
     estimated scf accuracy    <       0.76659406 Ry

     total magnetization       =    60.49 Bohr mag/cell
     absolute magnetization    =    69.36 Bohr mag/cell

     iteration #  8     ecut=    50.00 Ry     beta= 0.70
     Davidson diagonalization with overlap
     ethr =  1.65E-04,  avg # of iterations =  2.2

     total cpu time spent up to now is      180.7 secs

     total energy              =   -6056.52673525 Ry
     estimated scf accuracy    <       0.17337802 Ry

     total magnetization       =    60.66 Bohr mag/cell
     absolute magnetization    =    69.31 Bohr mag/cell

     iteration #  9     ecut=    50.00 Ry     beta= 0.70
     Davidson diagonalization with overlap
     c_bands:  3 eigenvalues not converged
     ethr =  5.18E-05,  avg # of iterations = 11.0

     total cpu time spent up to now is      213.6 secs

     total energy              =   -6056.54110798 Ry
     estimated scf accuracy    <       0.16471220 Ry

     total magnetization       =    61.31 Bohr mag/cell
     absolute magnetization    =    69.46 Bohr mag/cell

     iteration # 10     ecut=    50.00 Ry     beta= 0.70
     Davidson diagonalization with overlap
     ethr =  4.92E-05,  avg # of iterations =  2.1

     total cpu time spent up to now is      233.5 secs

     total energy              =   -6056.54107049 Ry
     estimated scf accuracy    <       0.16417230 Ry

     total magnetization       =    61.33 Bohr mag/cell
     absolute magnetization    =    69.31 Bohr mag/cell

     iteration # 11     ecut=    50.00 Ry     beta= 0.70
     Davidson diagonalization with overlap
     ethr =  4.90E-05,  avg # of iterations =  1.4

     total cpu time spent up to now is      253.0 secs

     total energy              =   -6056.53609738 Ry
     estimated scf accuracy    <       0.09929946 Ry

     total magnetization       =    61.34 Bohr mag/cell
     absolute magnetization    =    69.20 Bohr mag/cell

     iteration # 12     ecut=    50.00 Ry     beta= 0.70
     Davidson diagonalization with overlap
     ethr =  2.96E-05,  avg # of iterations =  3.0

     negative rho (up, down):  1.407E-06 0.000E+00

     total cpu time spent up to now is      274.8 secs

     total energy              =   -6056.53827379 Ry
     estimated scf accuracy    <       0.07982993 Ry

     total magnetization       =    61.27 Bohr mag/cell
     absolute magnetization    =    68.98 Bohr mag/cell

     iteration # 13     ecut=    50.00 Ry     beta= 0.70
     Davidson diagonalization with overlap
     ethr =  2.38E-05,  avg # of iterations =  1.5

     total cpu time spent up to now is      292.9 secs

     total energy              =   -6056.53650617 Ry
     estimated scf accuracy    <       0.08875620 Ry

     total magnetization       =    61.32 Bohr mag/cell
     absolute magnetization    =    68.95 Bohr mag/cell

     iteration # 14     ecut=    50.00 Ry     beta= 0.70
     Davidson diagonalization with overlap
     ethr =  2.38E-05,  avg # of iterations =  1.6

     negative rho (up, down):  3.413E-03 2.431E-03

     total cpu time spent up to now is      313.5 secs

     total energy              =   -6056.52987054 Ry
     estimated scf accuracy    <       0.06129685 Ry

     total magnetization       =    61.34 Bohr mag/cell
     absolute magnetization    =    69.00 Bohr mag/cell

     iteration # 15     ecut=    50.00 Ry     beta= 0.70
     Davidson diagonalization with overlap
     ethr =  1.83E-05,  avg # of iterations =  3.2

     negative rho (up, down):  8.619E-03 7.280E-03

     total cpu time spent up to now is      335.8 secs

     total energy              =   -6056.52816407 Ry
     estimated scf accuracy    <       0.06817550 Ry

     total magnetization       =    61.33 Bohr mag/cell
     absolute magnetization    =    68.93 Bohr mag/cell

     iteration # 16     ecut=    50.00 Ry     beta= 0.70
     Davidson diagonalization with overlap
     ethr =  1.83E-05,  avg # of iterations =  1.4

     negative rho (up, down):  1.716E-02 1.558E-02

     total cpu time spent up to now is      354.2 secs

     total energy              =   -6056.52742676 Ry
     estimated scf accuracy    <       0.03399732 Ry

     total magnetization       =    61.34 Bohr mag/cell
     absolute magnetization    =    68.91 Bohr mag/cell

     iteration # 17     ecut=    50.00 Ry     beta= 0.70
     Davidson diagonalization with overlap
     c_bands:  2 eigenvalues not converged
     c_bands:  1 eigenvalues not converged
     ethr =  1.01E-05,  avg # of iterations =  4.8

     negative rho (up, down):  2.583E-02 2.406E-02

     total cpu time spent up to now is      378.4 secs

     total energy              =   -6056.52553350 Ry
     estimated scf accuracy    <       0.02884405 Ry

     total magnetization       =    61.34 Bohr mag/cell
     absolute magnetization    =    68.89 Bohr mag/cell

     iteration # 18     ecut=    50.00 Ry     beta= 0.70
     Davidson diagonalization with overlap
     c_bands:  1 eigenvalues not converged
     c_bands:  4 eigenvalues not converged
     ethr =  8.61E-06,  avg # of iterations =  3.8

     negative rho (up, down):  1.524E-02 1.376E-02

     total cpu time spent up to now is      401.4 secs

     total energy              =   -6056.52616405 Ry
     estimated scf accuracy    <       0.03802761 Ry

     total magnetization       =    61.33 Bohr mag/cell
     absolute magnetization    =    68.86 Bohr mag/cell

     iteration # 19     ecut=    50.00 Ry     beta= 0.70
     Davidson diagonalization with overlap
     ethr =  8.61E-06,  avg # of iterations =  1.2

     negative rho (up, down):  2.096E-02 1.935E-02

     total cpu time spent up to now is      420.2 secs

     total energy              =   -6056.52528546 Ry
     estimated scf accuracy    <       0.01252054 Ry

     total magnetization       =    61.33 Bohr mag/cell
     absolute magnetization    =    68.87 Bohr mag/cell

     iteration # 20     ecut=    50.00 Ry     beta= 0.70
     Davidson diagonalization with overlap
     c_bands:  2 eigenvalues not converged
     ethr =  3.74E-06,  avg # of iterations =  4.0

     negative rho (up, down):  1.528E-02 1.403E-02

     total cpu time spent up to now is      442.9 secs

     total energy              =   -6056.52352478 Ry
     estimated scf accuracy    <       0.01198772 Ry

     total magnetization       =    61.33 Bohr mag/cell
     absolute magnetization    =    68.85 Bohr mag/cell

     iteration # 21     ecut=    50.00 Ry     beta= 0.70
     Davidson diagonalization with overlap
     ethr =  3.58E-06,  avg # of iterations =  1.7

     negative rho (up, down):  1.552E-02 1.436E-02

     total cpu time spent up to now is      463.3 secs

     total energy              =   -6056.52269273 Ry
     estimated scf accuracy    <       0.02893656 Ry

     total magnetization       =    61.33 Bohr mag/cell
     absolute magnetization    =    68.85 Bohr mag/cell

     iteration # 22     ecut=    50.00 Ry     beta= 0.70
     Davidson diagonalization with overlap
     ethr =  3.58E-06,  avg # of iterations =  1.3

     negative rho (up, down):  2.051E-02 1.950E-02

     total cpu time spent up to now is      483.8 secs

     total energy              =   -6056.52333033 Ry
     estimated scf accuracy    <       0.00814744 Ry

     total magnetization       =    61.34 Bohr mag/cell
     absolute magnetization    =    68.85 Bohr mag/cell

     iteration # 23     ecut=    50.00 Ry     beta= 0.70
     Davidson diagonalization with overlap
     ethr =  2.43E-06,  avg # of iterations =  1.6

     negative rho (up, down):  1.523E-02 1.438E-02

     total cpu time spent up to now is      502.1 secs

     total energy              =   -6056.52330688 Ry
     estimated scf accuracy    <       0.00125615 Ry

     total magnetization       =    61.34 Bohr mag/cell
     absolute magnetization    =    68.85 Bohr mag/cell

     iteration # 24     ecut=    50.00 Ry     beta= 0.70
     Davidson diagonalization with overlap
     ethr =  3.75E-07,  avg # of iterations =  6.1

     negative rho (up, down):  8.886E-03 8.130E-03

     total cpu time spent up to now is      528.1 secs

     total energy              =   -6056.52327915 Ry
     estimated scf accuracy    <       0.00230939 Ry

     total magnetization       =    61.34 Bohr mag/cell
     absolute magnetization    =    68.85 Bohr mag/cell

     iteration # 25     ecut=    50.00 Ry     beta= 0.70
     Davidson diagonalization with overlap
     ethr =  3.75E-07,  avg # of iterations =  1.9

     negative rho (up, down):  7.879E-03 7.152E-03

     total cpu time spent up to now is      549.6 secs

     total energy              =   -6056.52343171 Ry
     estimated scf accuracy    <       0.00071750 Ry

     total magnetization       =    61.33 Bohr mag/cell
     absolute magnetization    =    68.86 Bohr mag/cell

     iteration # 26     ecut=    50.00 Ry     beta= 0.70
     Davidson diagonalization with overlap
     ethr =  2.14E-07,  avg # of iterations =  2.0

     negative rho (up, down):  6.502E-03 5.730E-03

     total cpu time spent up to now is      569.3 secs

     total energy              =   -6056.52349436 Ry
     estimated scf accuracy    <       0.00172203 Ry

     total magnetization       =    61.33 Bohr mag/cell
     absolute magnetization    =    68.86 Bohr mag/cell

     iteration # 27     ecut=    50.00 Ry     beta= 0.70
     Davidson diagonalization with overlap
     ethr =  2.14E-07,  avg # of iterations =  1.4

     negative rho (up, down):  5.039E-03 4.188E-03

     total cpu time spent up to now is      588.8 secs

     total energy              =   -6056.52354021 Ry
     estimated scf accuracy    <       0.00028969 Ry

     total magnetization       =    61.33 Bohr mag/cell
     absolute magnetization    =    68.86 Bohr mag/cell

     iteration # 28     ecut=    50.00 Ry     beta= 0.70
     Davidson diagonalization with overlap
     ethr =  8.65E-08,  avg # of iterations =  2.1

     negative rho (up, down):  5.154E-03 4.317E-03

     total cpu time spent up to now is      610.7 secs

     total energy              =   -6056.52354530 Ry
     estimated scf accuracy    <       0.00026609 Ry

     total magnetization       =    61.33 Bohr mag/cell
     absolute magnetization    =    68.86 Bohr mag/cell

     iteration # 29     ecut=    50.00 Ry     beta= 0.70
     Davidson diagonalization with overlap
     ethr =  7.94E-08,  avg # of iterations =  1.5

     negative rho (up, down):  3.372E-03 2.415E-03

     total cpu time spent up to now is      629.7 secs

     total energy              =   -6056.52351520 Ry
     estimated scf accuracy    <       0.00008966 Ry

     total magnetization       =    61.33 Bohr mag/cell
     absolute magnetization    =    68.86 Bohr mag/cell

     iteration # 30     ecut=    50.00 Ry     beta= 0.70
     Davidson diagonalization with overlap
     ethr =  2.68E-08,  avg # of iterations =  4.6

     negative rho (up, down):  2.483E-03 1.385E-03

     total cpu time spent up to now is      653.7 secs

     total energy              =   -6056.52352975 Ry
     estimated scf accuracy    <       0.00022641 Ry

     total magnetization       =    61.33 Bohr mag/cell
     absolute magnetization    =    68.86 Bohr mag/cell

     iteration # 31     ecut=    50.00 Ry     beta= 0.70
     Davidson diagonalization with overlap
     ethr =  2.68E-08,  avg # of iterations =  2.0

     negative rho (up, down):  2.782E-03 1.681E-03

     total cpu time spent up to now is      675.7 secs

     total energy              =   -6056.52353669 Ry
     estimated scf accuracy    <       0.00004595 Ry

     total magnetization       =    61.33 Bohr mag/cell
     absolute magnetization    =    68.86 Bohr mag/cell

     iteration # 32     ecut=    50.00 Ry     beta= 0.70
     Davidson diagonalization with overlap
     ethr =  1.37E-08,  avg # of iterations =  2.5

     negative rho (up, down):  2.664E-03 1.619E-03

     total cpu time spent up to now is      697.6 secs

     total energy              =   -6056.52353748 Ry
     estimated scf accuracy    <       0.00014864 Ry

     total magnetization       =    61.33 Bohr mag/cell
     absolute magnetization    =    68.86 Bohr mag/cell

     iteration # 33     ecut=    50.00 Ry     beta= 0.70
     Davidson diagonalization with overlap
     ethr =  1.37E-08,  avg # of iterations =  1.9

     negative rho (up, down):  2.600E-03 1.547E-03

     total cpu time spent up to now is      717.2 secs

     total energy              =   -6056.52354319 Ry
     estimated scf accuracy    <       0.00001611 Ry

     total magnetization       =    61.33 Bohr mag/cell
     absolute magnetization    =    68.86 Bohr mag/cell

     iteration # 34     ecut=    50.00 Ry     beta= 0.70
     Davidson diagonalization with overlap
     ethr =  4.81E-09,  avg # of iterations =  3.2

     negative rho (up, down):  2.486E-03 1.418E-03

     total cpu time spent up to now is      739.9 secs

     total energy              =   -6056.52354334 Ry
     estimated scf accuracy    <       0.00000864 Ry

     total magnetization       =    61.33 Bohr mag/cell
     absolute magnetization    =    68.86 Bohr mag/cell

     iteration # 35     ecut=    50.00 Ry     beta= 0.70
     Davidson diagonalization with overlap
     ethr =  2.58E-09,  avg # of iterations =  4.7

     negative rho (up, down):  2.482E-03 1.406E-03

     total cpu time spent up to now is      764.0 secs

     total energy              =   -6056.52354384 Ry
     estimated scf accuracy    <       0.00000964 Ry

     total magnetization       =    61.33 Bohr mag/cell
     absolute magnetization    =    68.86 Bohr mag/cell

     iteration # 36     ecut=    50.00 Ry     beta= 0.70
     Davidson diagonalization with overlap
     ethr =  2.58E-09,  avg # of iterations =  1.6

     negative rho (up, down):  2.495E-03 1.403E-03

     total cpu time spent up to now is      784.5 secs

     total energy              =   -6056.52354419 Ry
     estimated scf accuracy    <       0.00000477 Ry

     total magnetization       =    61.33 Bohr mag/cell
     absolute magnetization    =    68.86 Bohr mag/cell

     iteration # 37     ecut=    50.00 Ry     beta= 0.70
     Davidson diagonalization with overlap
     ethr =  1.42E-09,  avg # of iterations =  1.9

     negative rho (up, down):  2.410E-03 1.335E-03

     total cpu time spent up to now is      803.9 secs

     total energy              =   -6056.52354398 Ry
     estimated scf accuracy    <       0.00000436 Ry

     total magnetization       =    61.33 Bohr mag/cell
     absolute magnetization    =    68.85 Bohr mag/cell

     iteration # 38     ecut=    50.00 Ry     beta= 0.70
     Davidson diagonalization with overlap
     ethr =  1.30E-09,  avg # of iterations =  1.9

     negative rho (up, down):  2.408E-03 1.317E-03

     total cpu time spent up to now is      825.2 secs

     total energy              =   -6056.52354436 Ry
     estimated scf accuracy    <       0.00000251 Ry

     total magnetization       =    61.33 Bohr mag/cell
     absolute magnetization    =    68.85 Bohr mag/cell

     iteration # 39     ecut=    50.00 Ry     beta= 0.70
     Davidson diagonalization with overlap
     ethr =  7.50E-10,  avg # of iterations =  2.3

     negative rho (up, down):  2.354E-03 1.257E-03

     total cpu time spent up to now is      847.0 secs

     total energy              =   -6056.52354448 Ry
     estimated scf accuracy    <       0.00000104 Ry

     total magnetization       =    61.33 Bohr mag/cell
     absolute magnetization    =    68.85 Bohr mag/cell

     iteration # 40     ecut=    50.00 Ry     beta= 0.70
     Davidson diagonalization with overlap
     c_bands:  1 eigenvalues not converged
     ethr =  3.09E-10,  avg # of iterations =  6.6

     negative rho (up, down):  2.341E-03 1.245E-03

     total cpu time spent up to now is      871.6 secs

     total energy              =   -6056.52354447 Ry
     estimated scf accuracy    <       0.00000314 Ry

     total magnetization       =    61.33 Bohr mag/cell
     absolute magnetization    =    68.85 Bohr mag/cell

     iteration # 41     ecut=    50.00 Ry     beta= 0.70
     Davidson diagonalization with overlap
     ethr =  3.09E-10,  avg # of iterations =  1.7

     negative rho (up, down):  2.338E-03 1.241E-03

     total cpu time spent up to now is      891.5 secs

     total energy              =   -6056.52354455 Ry
     estimated scf accuracy    <       0.00000083 Ry

     total magnetization       =    61.33 Bohr mag/cell
     absolute magnetization    =    68.85 Bohr mag/cell

     iteration # 42     ecut=    50.00 Ry     beta= 0.70
     Davidson diagonalization with overlap
     ethr =  2.49E-10,  avg # of iterations =  1.7

     negative rho (up, down):  2.268E-03 1.170E-03

     total cpu time spent up to now is      912.9 secs

     total energy              =   -6056.52354449 Ry
     estimated scf accuracy    <       0.00000099 Ry

     total magnetization       =    61.33 Bohr mag/cell
     absolute magnetization    =    68.85 Bohr mag/cell

     iteration # 43     ecut=    50.00 Ry     beta= 0.70
     Davidson diagonalization with overlap
     ethr =  2.49E-10,  avg # of iterations =  1.6

     negative rho (up, down):  2.273E-03 1.175E-03

     total cpu time spent up to now is      932.1 secs

     total energy              =   -6056.52354452 Ry
     estimated scf accuracy    <       0.00000025 Ry

     total magnetization       =    61.33 Bohr mag/cell
     absolute magnetization    =    68.85 Bohr mag/cell

     iteration # 44     ecut=    50.00 Ry     beta= 0.70
     Davidson diagonalization with overlap
     ethr =  7.42E-11,  avg # of iterations =  4.6

     negative rho (up, down):  2.258E-03 1.159E-03

     total cpu time spent up to now is      955.9 secs

     total energy              =   -6056.52354451 Ry
     estimated scf accuracy    <       0.00000048 Ry

     total magnetization       =    61.33 Bohr mag/cell
     absolute magnetization    =    68.85 Bohr mag/cell

     iteration # 45     ecut=    50.00 Ry     beta= 0.70
     Davidson diagonalization with overlap
     ethr =  7.42E-11,  avg # of iterations =  1.5

     negative rho (up, down):  2.238E-03 1.138E-03

     total cpu time spent up to now is      976.7 secs

     total energy              =   -6056.52354450 Ry
     estimated scf accuracy    <       0.00000014 Ry

     total magnetization       =    61.33 Bohr mag/cell
     absolute magnetization    =    68.85 Bohr mag/cell

     iteration # 46     ecut=    50.00 Ry     beta= 0.70
     Davidson diagonalization with overlap
     ethr =  4.07E-11,  avg # of iterations =  2.4

     negative rho (up, down):  2.242E-03 1.143E-03

     total cpu time spent up to now is      998.7 secs

     total energy              =   -6056.52354451 Ry
     estimated scf accuracy    <       0.00000028 Ry

     total magnetization       =    61.33 Bohr mag/cell
     absolute magnetization    =    68.85 Bohr mag/cell

     iteration # 47     ecut=    50.00 Ry     beta= 0.70
     Davidson diagonalization with overlap
     ethr =  4.07E-11,  avg # of iterations =  1.2

     negative rho (up, down):  2.241E-03 1.141E-03

     total cpu time spent up to now is     1016.8 secs

     total energy              =   -6056.52354452 Ry
     estimated scf accuracy    <       0.00000004 Ry

     total magnetization       =    61.33 Bohr mag/cell
     absolute magnetization    =    68.85 Bohr mag/cell

     iteration # 48     ecut=    50.00 Ry     beta= 0.70
     Davidson diagonalization with overlap
     ethr =  1.29E-11,  avg # of iterations =  4.3

     negative rho (up, down):  2.231E-03 1.130E-03

     total cpu time spent up to now is     1040.7 secs

     total energy              =   -6056.52354450 Ry
     estimated scf accuracy    <       0.00000004 Ry

     total magnetization       =    61.33 Bohr mag/cell
     absolute magnetization    =    68.85 Bohr mag/cell

     iteration # 49     ecut=    50.00 Ry     beta= 0.70
     Davidson diagonalization with overlap
     ethr =  1.21E-11,  avg # of iterations =  2.5

     negative rho (up, down):  2.229E-03 1.128E-03

     total cpu time spent up to now is     1062.8 secs

     total energy              =   -6056.52354450 Ry
     estimated scf accuracy    <       0.00000004 Ry

     total magnetization       =    61.33 Bohr mag/cell
     absolute magnetization    =    68.85 Bohr mag/cell

     iteration # 50     ecut=    50.00 Ry     beta= 0.70
     Davidson diagonalization with overlap
     ethr =  1.07E-11,  avg # of iterations =  1.2

     negative rho (up, down):  2.230E-03 1.129E-03

     total cpu time spent up to now is     1081.4 secs

     total energy              =   -6056.52354450 Ry
     estimated scf accuracy    <       0.00000002 Ry

     total magnetization       =    61.33 Bohr mag/cell
     absolute magnetization    =    68.85 Bohr mag/cell

     iteration # 51     ecut=    50.00 Ry     beta= 0.70
     Davidson diagonalization with overlap
     ethr =  4.57E-12,  avg # of iterations =  3.0

     negative rho (up, down):  2.227E-03 1.126E-03

     total cpu time spent up to now is     1104.5 secs

     total energy              =   -6056.52354450 Ry
     estimated scf accuracy    <       0.00000008 Ry

     total magnetization       =    61.33 Bohr mag/cell
     absolute magnetization    =    68.85 Bohr mag/cell

     iteration # 52     ecut=    50.00 Ry     beta= 0.70
     Davidson diagonalization with overlap
     ethr =  4.57E-12,  avg # of iterations =  1.6

     negative rho (up, down):  2.227E-03 1.126E-03

     total cpu time spent up to now is     1125.3 secs

     total energy              =   -6056.52354450 Ry
     estimated scf accuracy    <       0.00000001 Ry

     total magnetization       =    61.33 Bohr mag/cell
     absolute magnetization    =    68.85 Bohr mag/cell

     iteration # 53     ecut=    50.00 Ry     beta= 0.70
     Davidson diagonalization with overlap
     ethr =  3.45E-12,  avg # of iterations =  1.5

     negative rho (up, down):  2.221E-03 1.121E-03

     Magnetic moment per site  (integrated on atomic sphere of radius R)
     atom   1 (R=0.103)  charge=  6.2244  magn=  1.7705
     atom   2 (R=0.103)  charge=  6.2241  magn=  1.7630
     atom   3 (R=0.103)  charge=  6.2242  magn=  1.7671
     atom   4 (R=0.103)  charge=  6.2244  magn=  1.7698
     atom   5 (R=0.103)  charge=  6.2246  magn=  1.7655
     atom   6 (R=0.103)  charge=  6.2240  magn=  1.7691
     atom   7 (R=0.103)  charge=  6.2249  magn=  1.7713
     atom   8 (R=0.103)  charge=  6.2241  magn=  1.7704
     atom   9 (R=0.103)  charge=  6.2240  magn=  1.7644
     atom  10 (R=0.103)  charge=  6.2298  magn=  1.6916
     atom  11 (R=0.103)  charge=  6.2303  magn=  1.7064
     atom  12 (R=0.103)  charge=  6.2299  magn=  1.7012
     atom  13 (R=0.103)  charge=  6.2305  magn=  1.7022
     atom  14 (R=0.103)  charge=  6.2308  magn=  1.6862
     atom  15 (R=0.103)  charge=  6.2305  magn=  1.6948
     atom  16 (R=0.103)  charge=  6.2302  magn=  1.6966
     atom  17 (R=0.103)  charge=  6.2307  magn=  1.7022
     atom  18 (R=0.103)  charge=  6.2308  magn=  1.6926
     atom  19 (R=0.103)  charge=  6.2299  magn=  1.6874
     atom  20 (R=0.103)  charge=  6.2264  magn=  1.7235
     atom  21 (R=0.103)  charge=  6.2310  magn=  1.6712
     atom  22 (R=0.103)  charge=  6.2305  magn=  1.7015
     atom  23 (R=0.103)  charge=  6.2323  magn=  1.6614
     atom  24 (R=0.103)  charge=  6.2294  magn=  1.7060
     atom  25 (R=0.103)  charge=  6.2300  magn=  1.6946
     atom  26 (R=0.103)  charge=  6.2290  magn=  1.6861
     atom  27 (R=0.103)  charge=  6.2300  magn=  1.6846
     atom  28 (R=0.103)  charge=  6.2278  magn=  1.7897
     atom  29 (R=0.103)  charge=  6.2307  magn=  1.6715
     atom  30 (R=0.103)  charge=  6.2279  magn=  1.7653
     atom  31 (R=0.103)  charge=  6.2331  magn=  1.7514
     atom  32 (R=0.103)  charge=  6.2540  magn=  1.1224
     atom  33 (R=0.103)  charge=  6.2239  magn=  1.7727
     atom  34 (R=0.103)  charge=  6.2248  magn=  1.7634
     atom  35 (R=0.103)  charge=  6.2257  magn=  1.7724
     atom  36 (R=0.103)  charge=  6.2243  magn=  1.7888
     atom  37 (R=0.061)  charge=  0.8407  magn= -0.0197
     atom  38 (R=0.069)  charge=  3.2072  magn= -0.0089
     atom  39 (R=0.061)  charge=  0.5055  magn= -0.0028

     total cpu time spent up to now is     1144.8 secs

     End of self-consistent calculation

 ------ SPIN UP ------------


          k = 0.0000 0.0000 0.0000 ( 51087 PWs)   bands (ev):

   -21.3813  -9.9903  -7.4893  -6.6495  -6.1481  -5.5791  -5.0897  -4.6156
    -4.5854  -4.5828  -4.5806  -4.5789  -4.5651  -4.5267  -4.2282  -4.0582
    -4.0523  -4.0507  -4.0457  -4.0249  -3.9880  -3.5430  -3.5384  -3.5344
    -3.5279  -3.5140  -3.4866  -3.4079  -3.4041  -3.3962  -3.3940  -3.3917
    -3.3664  -3.3315  -3.3269  -3.0195  -3.0137  -3.0125  -3.0111  -2.9686
    -2.9533  -2.9478  -2.9470  -2.9408  -2.9392  -2.9373  -2.9294  -2.7857
    -2.7815  -2.7383  -2.7249  -2.7160  -2.7072  -2.7015  -2.6962  -2.6802
    -2.6775  -2.6720  -2.6641  -2.5789  -2.5766  -2.5734  -2.5650  -2.5529
    -2.5093  -2.1164  -2.0532  -2.0355  -2.0350  -2.0322  -2.0267  -1.9285
    -1.9071  -1.9056  -1.8863  -1.8748  -1.8585  -1.8548  -1.8511  -1.8400
    -1.8228  -1.8029  -1.7969  -1.7561  -1.7523  -1.7407  -1.7305  -1.7229
    -1.7213  -1.7108  -1.7076  -1.6952  -1.6823  -1.6797  -1.6751  -1.6712
    -1.6698  -1.6659  -1.6626  -1.6602  -1.6582  -1.6544  -1.6499  -1.6484
    -1.6448  -1.5962  -1.5851  -1.5750  -1.5662  -1.4988  -1.4940  -1.4344
    -1.3016  -1.2182  -1.2144  -1.2085  -1.2070  -1.2037  -1.1844  -1.1668
    -1.1652  -1.1570  -1.1281  -1.1155  -1.1129  -1.0471  -1.0007  -0.9885
    -0.9786  -0.9636  -0.8695  -0.8064  -0.7946  -0.7851  -0.7772  -0.7514
    -0.7422  -0.7231  -0.7181  -0.7160  -0.7135  -0.6930  -0.6310  -0.5976
    -0.5361  -0.4765  -0.4729  -0.4696  -0.4459  -0.4231  -0.4091  -0.4057
    -0.4007  -0.3982  -0.3956  -0.3892  -0.3861  -0.3830  -0.3819  -0.3720
    -0.3636  -0.3624  -0.3382  -0.3311  -0.3265  -0.3239  -0.3215  -0.3152
    -0.2982  -0.2964  -0.2730  -0.2720  -0.2683  -0.2564  -0.2498  -0.2457
    -0.2439  -0.2398  -0.2140  -0.1945  -0.1849  -0.1704  -0.1678  -0.1654
    -0.1609  -0.1556  -0.1476  -0.1354  -0.1277  -0.1175  -0.0766  -0.0762
    -0.0730  -0.0685  -0.0108  -0.0060  -0.0026   0.0014   0.0194   0.0485
     0.4017   0.9563

          k = 0.0000 0.2309 0.0000 ( 51134 PWs)   bands (ev):

   -21.3813  -9.9908  -7.3425  -6.6200  -6.0665  -5.5700  -5.3188  -5.0819
    -4.8297  -4.8145  -4.4709  -4.3404  -4.2445  -4.2397  -4.1779  -4.1312
    -4.0916  -4.0503  -3.9807  -3.9279  -3.9072  -3.6610  -3.5503  -3.5381
    -3.4640  -3.4413  -3.4178  -3.4105  -3.4080  -3.4008  -3.3850  -3.3651
    -3.3348  -3.2892  -3.2864  -3.2609  -3.2579  -3.0693  -3.0366  -3.0277
    -2.9815  -2.9769  -2.9695  -2.9595  -2.8958  -2.8536  -2.8411  -2.8140
    -2.8052  -2.8004  -2.7699  -2.7607  -2.6832  -2.6676  -2.6445  -2.6052
    -2.5973  -2.5718  -2.5633  -2.5465  -2.5284  -2.5145  -2.4956  -2.4892
    -2.4350  -2.1922  -2.1574  -2.1404  -2.1251  -2.1013  -2.0577  -2.0067
    -2.0031  -1.9931  -1.9869  -1.9683  -1.9592  -1.9346  -1.9119  -1.8781
    -1.8581  -1.8451  -1.8376  -1.8028  -1.7946  -1.7879  -1.7829  -1.7697
    -1.7588  -1.7522  -1.7485  -1.7453  -1.7412  -1.7067  -1.6743  -1.6520
    -1.6407  -1.6165  -1.5801  -1.5655  -1.5631  -1.5557  -1.5478  -1.5373
    -1.5279  -1.5187  -1.5064  -1.5049  -1.4919  -1.4789  -1.4629  -1.4503
    -1.4327  -1.4226  -1.4020  -1.3687  -1.3249  -1.2927  -1.2454  -1.2320
    -1.2275  -1.2201  -1.2048  -1.1997  -1.1903  -1.1759  -1.0794  -1.0409
    -1.0243  -1.0109  -0.9718  -0.9452  -0.9258  -0.8875  -0.8660  -0.8389
    -0.8104  -0.7753  -0.7493  -0.7352  -0.7116  -0.6978  -0.6707  -0.6608
    -0.6569  -0.6361  -0.6161  -0.5830  -0.5722  -0.5622  -0.5476  -0.5454
    -0.5242  -0.4873  -0.4702  -0.4691  -0.4506  -0.4292  -0.4050  -0.3968
    -0.3924  -0.3825  -0.3802  -0.3772  -0.3574  -0.3444  -0.3414  -0.3130
    -0.2759  -0.2605  -0.2571  -0.2270  -0.2155  -0.1944  -0.1750  -0.1524
    -0.1431  -0.1382  -0.1308  -0.1169  -0.1101  -0.0953  -0.0867  -0.0639
    -0.0476  -0.0110   0.0033   0.0086   0.0279   0.0327   0.0757   0.0840
     0.1011   0.1405   0.3760   0.3817   0.4516   0.5526   0.6348   0.6695
     0.6885   0.8328

          k = 0.0000 0.4619 0.0000 ( 51204 PWs)   bands (ev):

   -21.3813  -9.9916  -6.9347  -6.5760  -6.1631  -5.8643  -5.4131  -5.1118
    -4.9739  -4.9350  -4.8347  -4.1466  -4.0897  -4.0747  -4.0318  -4.0026
    -3.8858  -3.8837  -3.8475  -3.7559  -3.7502  -3.7427  -3.6595  -3.5714
    -3.5656  -3.5594  -3.5564  -3.5066  -3.4599  -3.4517  -3.4418  -3.2858
    -3.2832  -3.2761  -3.2539  -3.2391  -3.2331  -3.1357  -3.1311  -3.1180
    -3.1099  -3.1026  -2.9999  -2.9061  -2.8963  -2.8134  -2.8021  -2.7754
    -2.7612  -2.7281  -2.7227  -2.7164  -2.6954  -2.6853  -2.6272  -2.6175
    -2.5921  -2.5576  -2.5492  -2.4261  -2.4124  -2.4006  -2.3773  -2.3470
    -2.2994  -2.2901  -2.2728  -2.2536  -2.2071  -2.1643  -2.1274  -2.1234
    -2.1203  -2.1074  -2.0923  -2.0839  -2.0774  -2.0583  -2.0266  -2.0067
    -1.9899  -1.9639  -1.9481  -1.9186  -1.9080  -1.8797  -1.8172  -1.8015
    -1.7979  -1.7871  -1.7665  -1.7570  -1.7190  -1.6918  -1.6902  -1.6795
    -1.6678  -1.6457  -1.6425  -1.6153  -1.6110  -1.5998  -1.5897  -1.5659
    -1.5559  -1.5481  -1.4947  -1.4494  -1.4320  -1.4138  -1.3890  -1.3804
    -1.3617  -1.3496  -1.3092  -1.2834  -1.2690  -1.2585  -1.2537  -1.2487
    -1.2389  -1.2342  -1.2257  -1.2158  -1.2086  -1.1989  -1.1823  -1.1693
    -1.1523  -1.1233  -1.0828  -1.0501  -1.0118  -1.0083  -0.9885  -0.9745
    -0.9463  -0.9108  -0.8995  -0.8825  -0.8618  -0.8375  -0.8192  -0.7672
    -0.7410  -0.7127  -0.6928  -0.6780  -0.6625  -0.6441  -0.6316  -0.5843
    -0.5452  -0.4923  -0.4806  -0.4733  -0.4645  -0.4609  -0.4468  -0.4428
    -0.4273  -0.4185  -0.3424  -0.3299  -0.3147  -0.2936  -0.2920  -0.2804
    -0.2746  -0.2604  -0.2516  -0.2435  -0.2214  -0.2055  -0.1384  -0.1200
    -0.1131  -0.0997  -0.0795  -0.0640  -0.0213  -0.0015   0.0149   0.0469
     0.0602   0.1028   0.1062   0.1238   0.1281   0.1331   0.1527   0.1692
     0.2321   0.2651   0.3429   0.9628   1.1364   1.3085   1.3715   1.3888
     1.6110   1.7691

          k = 0.2000-0.1155 0.0000 ( 51134 PWs)   bands (ev):

   -21.3813  -9.9900  -7.3437  -6.6204  -6.0726  -5.5861  -5.2954  -5.0792
    -4.8349  -4.8242  -4.4659  -4.3145  -4.2459  -4.2413  -4.1737  -4.1250
    -4.0997  -4.0710  -3.9685  -3.9319  -3.9135  -3.6595  -3.5516  -3.5368
    -3.4610  -3.4331  -3.4237  -3.4118  -3.4087  -3.3949  -3.3889  -3.3685
    -3.3347  -3.2903  -3.2867  -3.2636  -3.2580  -3.0641  -3.0335  -3.0288
    -2.9839  -2.9779  -2.9686  -2.9619  -2.8855  -2.8509  -2.8413  -2.8138
    -2.8038  -2.8010  -2.7775  -2.7578  -2.6800  -2.6690  -2.6400  -2.6088
    -2.5919  -2.5766  -2.5651  -2.5537  -2.5317  -2.5188  -2.4946  -2.4910
    -2.4268  -2.1923  -2.1568  -2.1418  -2.1229  -2.1001  -2.0568  -2.0057
    -2.0016  -1.9959  -1.9774  -1.9761  -1.9592  -1.9348  -1.9043  -1.8799
    -1.8621  -1.8516  -1.8402  -1.8034  -1.7927  -1.7890  -1.7853  -1.7714
    -1.7569  -1.7530  -1.7488  -1.7452  -1.7303  -1.6938  -1.6729  -1.6644
    -1.6453  -1.6092  -1.5800  -1.5706  -1.5590  -1.5518  -1.5444  -1.5390
    -1.5202  -1.5136  -1.5096  -1.5032  -1.4951  -1.4739  -1.4644  -1.4551
    -1.4352  -1.4264  -1.3908  -1.3471  -1.3337  -1.3123  -1.2553  -1.2344
    -1.2249  -1.2110  -1.2069  -1.1988  -1.1975  -1.1839  -1.1014  -1.0501
    -1.0391  -1.0183  -0.9661  -0.9458  -0.9291  -0.8758  -0.8625  -0.8451
    -0.8211  -0.7500  -0.7399  -0.7217  -0.7017  -0.6938  -0.6791  -0.6667
    -0.6593  -0.6393  -0.6298  -0.5821  -0.5702  -0.5628  -0.5487  -0.5412
    -0.5096  -0.4951  -0.4735  -0.4665  -0.4429  -0.4267  -0.4081  -0.4000
    -0.3933  -0.3844  -0.3772  -0.3718  -0.3578  -0.3422  -0.3383  -0.3257
    -0.2802  -0.2621  -0.2575  -0.2240  -0.2083  -0.2025  -0.1783  -0.1536
    -0.1479  -0.1351  -0.1286  -0.1181  -0.1050  -0.0958  -0.0883  -0.0573
    -0.0512  -0.0102  -0.0008   0.0065   0.0282   0.0326   0.0719   0.0821
     0.0929   0.1375   0.3713   0.3818   0.4876   0.5843   0.6330   0.6554
     0.7424   0.8042

          k = 0.2000 0.1155 0.0000 ( 51134 PWs)   bands (ev):

   -21.3813  -9.9910  -7.3422  -6.6202  -6.0644  -5.5679  -5.3141  -5.0986
    -4.8224  -4.8119  -4.4733  -4.3487  -4.2452  -4.2384  -4.1780  -4.1315
    -4.0827  -4.0518  -3.9833  -3.9245  -3.9080  -3.6626  -3.5471  -3.5417
    -3.4632  -3.4442  -3.4154  -3.4131  -3.4065  -3.3994  -3.3831  -3.3644
    -3.3344  -3.2914  -3.2853  -3.2601  -3.2580  -3.0627  -3.0325  -3.0273
    -2.9798  -2.9746  -2.9692  -2.9660  -2.8867  -2.8548  -2.8431  -2.8192
    -2.8053  -2.8018  -2.7763  -2.7651  -2.6811  -2.6685  -2.6484  -2.6049
    -2.5997  -2.5703  -2.5637  -2.5396  -2.5310  -2.5149  -2.4984  -2.4907
    -2.4359  -2.1839  -2.1598  -2.1440  -2.1212  -2.1003  -2.0578  -2.0051
    -1.9986  -1.9940  -1.9825  -1.9715  -1.9641  -1.9405  -1.8951  -1.8777
    -1.8649  -1.8538  -1.8299  -1.8036  -1.7937  -1.7900  -1.7863  -1.7667
    -1.7573  -1.7554  -1.7492  -1.7436  -1.7351  -1.7100  -1.6759  -1.6557
    -1.6377  -1.6079  -1.5877  -1.5711  -1.5578  -1.5560  -1.5434  -1.5381
    -1.5238  -1.5201  -1.5109  -1.5057  -1.4965  -1.4733  -1.4548  -1.4483
    -1.4351  -1.4295  -1.4112  -1.3688  -1.3286  -1.2864  -1.2478  -1.2318
    -1.2209  -1.2167  -1.2101  -1.1995  -1.1969  -1.1852  -1.0877  -1.0545
    -1.0200  -1.0002  -0.9712  -0.9462  -0.9192  -0.8907  -0.8672  -0.8482
    -0.7960  -0.7683  -0.7483  -0.7247  -0.7100  -0.6996  -0.6786  -0.6669
    -0.6542  -0.6378  -0.6161  -0.5711  -0.5642  -0.5592  -0.5481  -0.5421
    -0.5283  -0.4950  -0.4730  -0.4662  -0.4477  -0.4243  -0.4097  -0.3989
    -0.3941  -0.3861  -0.3805  -0.3697  -0.3532  -0.3473  -0.3347  -0.3153
    -0.2805  -0.2627  -0.2544  -0.2333  -0.2079  -0.2018  -0.1721  -0.1524
    -0.1422  -0.1405  -0.1270  -0.1175  -0.1042  -0.0936  -0.0883  -0.0603
    -0.0455  -0.0081   0.0029   0.0062   0.0310   0.0329   0.0718   0.0783
     0.1070   0.1303   0.3660   0.3807   0.4663   0.5450   0.6348   0.6482
     0.6996   0.8455

          k = 0.2000 0.3464 0.0000 ( 51202 PWs)   bands (ev):

   -21.3813  -9.9920  -7.0603  -6.5849  -5.9343  -5.6753  -5.6677  -5.3999
    -5.0881  -4.5375  -4.5056  -4.2547  -4.2474  -4.2029  -4.0344  -4.0272
    -3.9370  -3.9328  -3.9265  -3.7971  -3.7763  -3.6616  -3.6508  -3.5846
    -3.5413  -3.4499  -3.4424  -3.4265  -3.4088  -3.3985  -3.3850  -3.3627
    -3.3468  -3.3235  -3.3131  -3.2764  -3.2362  -3.1936  -3.1880  -3.0719
    -3.0569  -2.9747  -2.9602  -2.9360  -2.9227  -2.9117  -2.8258  -2.7765
    -2.7704  -2.7364  -2.7322  -2.7181  -2.6774  -2.6634  -2.6556  -2.6429
    -2.6236  -2.5213  -2.5090  -2.4537  -2.4448  -2.4387  -2.3930  -2.3891
    -2.3770  -2.2686  -2.2102  -2.1852  -2.1695  -2.1425  -2.1193  -2.1045
    -2.0853  -2.0798  -2.0712  -2.0557  -2.0398  -2.0234  -2.0202  -2.0001
    -1.9791  -1.9515  -1.9079  -1.8857  -1.8303  -1.8181  -1.8059  -1.7882
    -1.7682  -1.7550  -1.7329  -1.7206  -1.6950  -1.6770  -1.6671  -1.6634
    -1.6535  -1.6489  -1.6358  -1.6184  -1.6127  -1.6073  -1.5876  -1.5683
    -1.5592  -1.5317  -1.5091  -1.4907  -1.4749  -1.4642  -1.4508  -1.4265
    -1.4138  -1.3937  -1.3821  -1.3586  -1.3473  -1.3164  -1.3029  -1.2659
    -1.2592  -1.2488  -1.2445  -1.2253  -1.2113  -1.1968  -1.1829  -1.1483
    -1.0994  -1.0841  -1.0699  -1.0295  -0.9924  -0.9582  -0.9385  -0.8894
    -0.8372  -0.8214  -0.8172  -0.7942  -0.7870  -0.7737  -0.7668  -0.7574
    -0.7294  -0.7196  -0.6863  -0.6681  -0.6601  -0.6405  -0.6221  -0.6158
    -0.6007  -0.5836  -0.5526  -0.5351  -0.5225  -0.5086  -0.4382  -0.4051
    -0.3687  -0.3469  -0.3352  -0.3234  -0.3176  -0.2916  -0.2849  -0.2770
    -0.2605  -0.2510  -0.1951  -0.1764  -0.1649  -0.1625  -0.1234  -0.1178
    -0.0943  -0.0903  -0.0855  -0.0759  -0.0565  -0.0504  -0.0435  -0.0247
    -0.0153   0.0414   0.0667   0.0786   0.0869   0.1264   0.1298   0.1544
     0.4598   0.4720   0.5354   0.5688   0.8073   0.8206   1.1332   1.3415
     1.3662   1.5737

          k = 0.2000-0.5774 0.0000 ( 51262 PWs)   bands (ev):

   -21.3813  -9.9916  -6.7289  -6.4369  -6.3476  -5.8734  -5.6985  -5.2615
    -5.0675  -4.9416  -4.5559  -4.2324  -3.9963  -3.9499  -3.8537  -3.8164
    -3.8136  -3.7957  -3.7865  -3.7658  -3.7114  -3.7024  -3.6998  -3.6955
    -3.6179  -3.5958  -3.5545  -3.5502  -3.5231  -3.5175  -3.4085  -3.3837
    -3.3674  -3.3654  -3.3370  -3.2968  -3.2128  -3.1967  -3.0979  -3.0737
    -3.0687  -2.9916  -2.9842  -2.9716  -2.9396  -2.8592  -2.8540  -2.8483
    -2.7854  -2.7748  -2.6984  -2.6676  -2.6425  -2.6284  -2.5798  -2.5719
    -2.5007  -2.4868  -2.4793  -2.4683  -2.4597  -2.4311  -2.4132  -2.3504
    -2.2927  -2.2711  -2.2641  -2.2545  -2.2187  -2.1980  -2.1568  -2.1340
    -2.1134  -2.0908  -2.0825  -2.0716  -2.0568  -2.0321  -2.0158  -2.0002
    -1.9903  -1.9780  -1.9598  -1.9413  -1.9379  -1.8953  -1.8700  -1.8547
    -1.8413  -1.7984  -1.7745  -1.7573  -1.7190  -1.7037  -1.6883  -1.6817
    -1.6623  -1.6542  -1.6450  -1.6368  -1.6242  -1.6109  -1.5862  -1.5683
    -1.5291  -1.5054  -1.4981  -1.4903  -1.4857  -1.4707  -1.4638  -1.4576
    -1.4474  -1.4391  -1.4205  -1.3962  -1.3843  -1.3483  -1.3356  -1.3156
    -1.2718  -1.2470  -1.2148  -1.1935  -1.1825  -1.1705  -1.1611  -1.1108
    -1.0909  -1.0791  -1.0728  -1.0232  -1.0040  -0.9542  -0.9314  -0.9239
    -0.9102  -0.9023  -0.8918  -0.8682  -0.8518  -0.8313  -0.7997  -0.7708
    -0.7624  -0.7350  -0.7278  -0.7176  -0.6878  -0.6676  -0.6490  -0.6284
    -0.6100  -0.5945  -0.5866  -0.5767  -0.5392  -0.5270  -0.4932  -0.4228
    -0.3632  -0.3269  -0.3182  -0.3080  -0.3063  -0.2953  -0.2847  -0.2761
    -0.2431  -0.2348  -0.2228  -0.2174  -0.1700  -0.1584  -0.0998  -0.0890
    -0.0817  -0.0619  -0.0490  -0.0404  -0.0007   0.0089   0.0138   0.0204
     0.0357   0.0771   0.1053   0.1136   0.1267   0.1365   0.1607   0.1963
     0.2757   0.5084   0.6175   0.8547   1.3198   1.4186   1.4662   1.7928
     1.8961   1.9441

          k = 0.2000-0.3464 0.0000 ( 51202 PWs)   bands (ev):

   -21.3813  -9.9904  -7.0648  -6.5844  -5.9499  -5.6938  -5.6607  -5.3892
    -5.0678  -4.5736  -4.4669  -4.2513  -4.2466  -4.2018  -4.0313  -4.0277
    -3.9370  -3.9300  -3.9119  -3.8020  -3.7916  -3.6571  -3.6532  -3.5884
    -3.5428  -3.4535  -3.4468  -3.4207  -3.4090  -3.3937  -3.3884  -3.3615
    -3.3520  -3.3275  -3.3096  -3.2772  -3.2400  -3.1994  -3.1824  -3.0704
    -3.0616  -2.9721  -2.9643  -2.9379  -2.9267  -2.9000  -2.8136  -2.7761
    -2.7570  -2.7423  -2.7334  -2.7131  -2.6827  -2.6725  -2.6502  -2.6357
    -2.6272  -2.5165  -2.5027  -2.4554  -2.4471  -2.4233  -2.4011  -2.3857
    -2.3724  -2.2825  -2.2162  -2.1904  -2.1752  -2.1409  -2.1265  -2.1070
    -2.0966  -2.0764  -2.0593  -2.0487  -2.0361  -2.0288  -2.0156  -2.0020
    -1.9895  -1.9676  -1.9028  -1.8543  -1.8278  -1.8183  -1.7968  -1.7840
    -1.7721  -1.7457  -1.7443  -1.7141  -1.6978  -1.6799  -1.6713  -1.6639
    -1.6610  -1.6462  -1.6344  -1.6217  -1.6085  -1.6020  -1.5831  -1.5721
    -1.5513  -1.5458  -1.5266  -1.4959  -1.4788  -1.4621  -1.4322  -1.4256
    -1.4166  -1.4026  -1.3918  -1.3430  -1.3279  -1.3155  -1.2983  -1.2767
    -1.2622  -1.2531  -1.2432  -1.2284  -1.2159  -1.2049  -1.1802  -1.1435
    -1.1168  -1.0840  -1.0758  -1.0377  -0.9908  -0.9570  -0.9377  -0.8817
    -0.8388  -0.8235  -0.8158  -0.8019  -0.7934  -0.7825  -0.7606  -0.7476
    -0.7344  -0.7122  -0.6894  -0.6784  -0.6546  -0.6374  -0.6276  -0.6101
    -0.6043  -0.5840  -0.5454  -0.5342  -0.5265  -0.5056  -0.4437  -0.3835
    -0.3742  -0.3537  -0.3331  -0.3251  -0.3197  -0.2940  -0.2878  -0.2782
    -0.2610  -0.2483  -0.1891  -0.1808  -0.1723  -0.1623  -0.1257  -0.1145
    -0.0983  -0.0904  -0.0865  -0.0724  -0.0597  -0.0506  -0.0439  -0.0321
    -0.0127   0.0472   0.0711   0.0812   0.0875   0.1246   0.1329   0.1641
     0.4556   0.4708   0.4887   0.6682   0.7677   0.8250   1.1339   1.3461
     1.3666   1.5857

          k = 0.4000-0.2309 0.0000 ( 51204 PWs)   bands (ev):

   -21.3813  -9.9895  -6.9406  -6.5773  -6.1716  -5.8738  -5.4273  -5.0747
    -4.9725  -4.9645  -4.7976  -4.1274  -4.1002  -4.0740  -4.0582  -3.9906
    -3.8889  -3.8844  -3.8438  -3.7589  -3.7509  -3.7413  -3.6485  -3.5728
    -3.5657  -3.5622  -3.5568  -3.5047  -3.4574  -3.4450  -3.4409  -3.2952
    -3.2809  -3.2789  -3.2651  -3.2413  -3.2331  -3.1343  -3.1263  -3.1158
    -3.1090  -3.1027  -2.9861  -2.9114  -2.8942  -2.8141  -2.7980  -2.7777
    -2.7611  -2.7280  -2.7218  -2.7146  -2.7020  -2.6826  -2.6289  -2.6170
    -2.5854  -2.5608  -2.5464  -2.4219  -2.4112  -2.4039  -2.3746  -2.3458
    -2.2958  -2.2838  -2.2666  -2.2547  -2.2108  -2.1723  -2.1401  -2.1217
    -2.1197  -2.1092  -2.1066  -2.0877  -2.0789  -2.0571  -2.0200  -2.0023
    -1.9845  -1.9699  -1.9486  -1.9346  -1.9064  -1.8798  -1.8195  -1.8084
    -1.7998  -1.7728  -1.7600  -1.7463  -1.7095  -1.6924  -1.6873  -1.6785
    -1.6627  -1.6467  -1.6365  -1.6186  -1.5999  -1.5975  -1.5886  -1.5714
    -1.5588  -1.5351  -1.5044  -1.4899  -1.4274  -1.4101  -1.3979  -1.3790
    -1.3639  -1.3427  -1.3225  -1.2909  -1.2708  -1.2561  -1.2509  -1.2485
    -1.2420  -1.2382  -1.2216  -1.2147  -1.2038  -1.2013  -1.1877  -1.1787
    -1.1534  -1.1268  -1.0642  -1.0581  -1.0165  -1.0117  -0.9896  -0.9721
    -0.9395  -0.9318  -0.8909  -0.8832  -0.8670  -0.8267  -0.8074  -0.7654
    -0.7472  -0.7256  -0.6932  -0.6781  -0.6593  -0.6510  -0.6323  -0.5711
    -0.5248  -0.4996  -0.4851  -0.4697  -0.4678  -0.4601  -0.4517  -0.4410
    -0.4256  -0.4196  -0.3495  -0.3293  -0.3088  -0.3047  -0.2933  -0.2914
    -0.2789  -0.2612  -0.2493  -0.2330  -0.2185  -0.2011  -0.1440  -0.1202
    -0.1162  -0.0999  -0.0875  -0.0441  -0.0212   0.0038   0.0149   0.0517
     0.0597   0.1001   0.1052   0.1252   0.1270   0.1331   0.1553   0.1629
     0.2321   0.2633   0.3898   0.8959   1.1635   1.3493   1.3717   1.3980
     1.6508   1.7447

          k = 0.4000 0.0000 0.0000 ( 51202 PWs)   bands (ev):

   -21.3813  -9.9906  -7.0641  -6.5845  -5.9464  -5.6922  -5.6594  -5.3905
    -5.0762  -4.5683  -4.4723  -4.2496  -4.2466  -4.2046  -4.0320  -4.0269
    -3.9382  -3.9301  -3.9146  -3.7983  -3.7902  -3.6622  -3.6497  -3.5872
    -3.5430  -3.4513  -3.4473  -3.4226  -3.4067  -3.3970  -3.3852  -3.3620
    -3.3500  -3.3238  -3.3165  -3.2741  -3.2377  -3.1937  -3.1863  -3.0662
    -3.0574  -2.9727  -2.9620  -2.9402  -2.9112  -2.9092  -2.8192  -2.7720
    -2.7660  -2.7434  -2.7319  -2.7193  -2.6810  -2.6723  -2.6546  -2.6433
    -2.6233  -2.5215  -2.5078  -2.4533  -2.4494  -2.4303  -2.3942  -2.3885
    -2.3755  -2.2838  -2.1997  -2.1857  -2.1663  -2.1374  -2.1269  -2.1000
    -2.0951  -2.0782  -2.0676  -2.0512  -2.0399  -2.0250  -2.0126  -1.9998
    -1.9864  -1.9566  -1.9110  -1.8705  -1.8306  -1.8216  -1.8034  -1.7845
    -1.7771  -1.7568  -1.7216  -1.7169  -1.6975  -1.6757  -1.6723  -1.6629
    -1.6560  -1.6427  -1.6386  -1.6244  -1.6153  -1.6081  -1.5820  -1.5666
    -1.5592  -1.5457  -1.5126  -1.4915  -1.4773  -1.4521  -1.4405  -1.4252
    -1.4170  -1.4079  -1.3876  -1.3609  -1.3337  -1.3212  -1.3010  -1.2767
    -1.2579  -1.2537  -1.2443  -1.2256  -1.2143  -1.1964  -1.1883  -1.1467
    -1.1014  -1.0900  -1.0689  -1.0577  -0.9885  -0.9491  -0.9362  -0.8864
    -0.8314  -0.8231  -0.8161  -0.8015  -0.7932  -0.7757  -0.7667  -0.7347
    -0.7320  -0.7189  -0.6884  -0.6683  -0.6505  -0.6439  -0.6205  -0.6119
    -0.5917  -0.5737  -0.5519  -0.5380  -0.5279  -0.5120  -0.4601  -0.3886
    -0.3686  -0.3492  -0.3360  -0.3236  -0.3183  -0.2944  -0.2843  -0.2781
    -0.2691  -0.2477  -0.1943  -0.1747  -0.1664  -0.1601  -0.1295  -0.1054
    -0.0983  -0.0910  -0.0848  -0.0648  -0.0600  -0.0495  -0.0433  -0.0359
    -0.0140   0.0450   0.0674   0.0786   0.0932   0.1269   0.1345   0.1480
     0.4456   0.4733   0.4979   0.6564   0.7837   0.8268   1.1244   1.3416
     1.3789   1.5622

          k = 0.4000 0.2309 0.0000 ( 51204 PWs)   bands (ev):

   -21.3813  -9.9921  -6.9339  -6.5761  -6.1587  -5.8608  -5.4071  -5.1307
    -4.9730  -4.9231  -4.8522  -4.1489  -4.0784  -4.0731  -4.0327  -4.0057
    -3.8870  -3.8822  -3.8463  -3.7550  -3.7488  -3.7437  -3.6661  -3.5701
    -3.5668  -3.5575  -3.5564  -3.5072  -3.4651  -3.4499  -3.4401  -3.2839
    -3.2822  -3.2714  -3.2525  -3.2379  -3.2300  -3.1315  -3.1226  -3.1144
    -3.1090  -3.1049  -2.9896  -2.9069  -2.9009  -2.8220  -2.8046  -2.7817
    -2.7679  -2.7342  -2.7243  -2.7147  -2.6941  -2.6900  -2.6216  -2.6182
    -2.5935  -2.5618  -2.5518  -2.4305  -2.4101  -2.3986  -2.3870  -2.3478
    -2.3023  -2.2850  -2.2763  -2.2566  -2.1996  -2.1581  -2.1385  -2.1242
    -2.1222  -2.1098  -2.0938  -2.0858  -2.0742  -2.0559  -2.0486  -2.0019
    -1.9740  -1.9610  -1.9460  -1.9160  -1.8912  -1.8756  -1.8289  -1.8037
    -1.7950  -1.7863  -1.7635  -1.7539  -1.7107  -1.6907  -1.6822  -1.6746
    -1.6596  -1.6538  -1.6387  -1.6156  -1.6094  -1.5985  -1.5838  -1.5689
    -1.5549  -1.5391  -1.4991  -1.4807  -1.4296  -1.4113  -1.3898  -1.3804
    -1.3577  -1.3416  -1.3240  -1.2935  -1.2687  -1.2603  -1.2538  -1.2496
    -1.2419  -1.2386  -1.2256  -1.2182  -1.2120  -1.1994  -1.1789  -1.1711
    -1.1608  -1.1192  -1.0835  -1.0456  -1.0136  -1.0073  -0.9964  -0.9745
    -0.9548  -0.9103  -0.8912  -0.8844  -0.8645  -0.8231  -0.8081  -0.7722
    -0.7471  -0.7046  -0.6830  -0.6684  -0.6604  -0.6436  -0.6102  -0.6028
    -0.5484  -0.4913  -0.4835  -0.4705  -0.4654  -0.4591  -0.4485  -0.4443
    -0.4320  -0.4166  -0.3472  -0.3221  -0.3100  -0.3017  -0.2953  -0.2897
    -0.2737  -0.2523  -0.2457  -0.2363  -0.2215  -0.2118  -0.1371  -0.1209
    -0.1127  -0.1064  -0.0790  -0.0565  -0.0216  -0.0018   0.0169   0.0478
     0.0602   0.1022   0.1045   0.1255   0.1282   0.1313   0.1485   0.1777
     0.2321   0.2571   0.3500   0.9476   1.1429   1.3047   1.3653   1.3841
     1.6745   1.7232

          k = 0.4000-0.6928 0.0000 ( 51262 PWs)   bands (ev):

   -21.3813  -9.9918  -6.7290  -6.4354  -6.3447  -5.8804  -5.6925  -5.2327
    -5.0985  -4.9571  -4.5419  -4.2318  -3.9963  -3.9522  -3.8554  -3.8197
    -3.8113  -3.7955  -3.7842  -3.7682  -3.7099  -3.7041  -3.7009  -3.6938
    -3.6168  -3.5995  -3.5529  -3.5488  -3.5215  -3.5190  -3.4049  -3.3853
    -3.3679  -3.3633  -3.3350  -3.2973  -3.2112  -3.1940  -3.0916  -3.0704
    -3.0685  -2.9937  -2.9866  -2.9645  -2.9358  -2.8725  -2.8592  -2.8421
    -2.7929  -2.7787  -2.6939  -2.6724  -2.6394  -2.6281  -2.5791  -2.5736
    -2.5043  -2.4867  -2.4761  -2.4717  -2.4596  -2.4393  -2.4181  -2.3504
    -2.2917  -2.2713  -2.2667  -2.2561  -2.2124  -2.1941  -2.1469  -2.1393
    -2.1120  -2.0889  -2.0823  -2.0686  -2.0659  -2.0408  -2.0165  -1.9944
    -1.9871  -1.9844  -1.9628  -1.9413  -1.9332  -1.8996  -1.8691  -1.8504
    -1.8340  -1.7990  -1.7678  -1.7566  -1.7325  -1.6989  -1.6881  -1.6793
    -1.6595  -1.6553  -1.6479  -1.6341  -1.6264  -1.5956  -1.5871  -1.5603
    -1.5308  -1.5060  -1.4942  -1.4909  -1.4771  -1.4699  -1.4661  -1.4557
    -1.4439  -1.4339  -1.4186  -1.4051  -1.3822  -1.3674  -1.3340  -1.3249
    -1.2851  -1.2494  -1.2112  -1.1914  -1.1852  -1.1788  -1.1655  -1.1043
    -1.0926  -1.0875  -1.0703  -1.0396  -0.9761  -0.9557  -0.9371  -0.9250
    -0.9150  -0.9039  -0.8830  -0.8750  -0.8432  -0.8218  -0.7943  -0.7837
    -0.7626  -0.7361  -0.7229  -0.7168  -0.6895  -0.6538  -0.6434  -0.6212
    -0.6080  -0.5987  -0.5820  -0.5753  -0.5363  -0.5243  -0.5081  -0.4324
    -0.3621  -0.3271  -0.3177  -0.3134  -0.3061  -0.2965  -0.2873  -0.2670
    -0.2492  -0.2365  -0.2230  -0.2125  -0.1715  -0.1553  -0.0997  -0.0883
    -0.0712  -0.0611  -0.0550  -0.0339  -0.0057   0.0094   0.0169   0.0203
     0.0324   0.0748   0.1079   0.1097   0.1271   0.1394   0.1582   0.1902
     0.2830   0.5089   0.6114   0.8667   1.2964   1.4177   1.4712   1.8033
     1.8932   1.9420

          k = 0.4000-0.4619 0.0000 ( 51262 PWs)   bands (ev):

   -21.3813  -9.9902  -6.7346  -6.4431  -6.3465  -5.8539  -5.7183  -5.3207
    -4.9742  -4.9354  -4.5909  -4.2368  -3.9932  -3.9452  -3.8346  -3.8181
    -3.8160  -3.7891  -3.7832  -3.7652  -3.7222  -3.7028  -3.7018  -3.6976
    -3.6142  -3.5965  -3.5526  -3.5513  -3.5233  -3.5161  -3.4207  -3.3806
    -3.3678  -3.3604  -3.3419  -3.2975  -3.2207  -3.1973  -3.0852  -3.0719
    -3.0675  -2.9999  -2.9833  -2.9642  -2.9408  -2.8625  -2.8550  -2.8485
    -2.7846  -2.7744  -2.6995  -2.6671  -2.6372  -2.6301  -2.5791  -2.5717
    -2.4950  -2.4848  -2.4809  -2.4684  -2.4556  -2.4310  -2.4120  -2.3504
    -2.2861  -2.2770  -2.2601  -2.2535  -2.2088  -2.1981  -2.1695  -2.1359
    -2.1260  -2.0898  -2.0833  -2.0751  -2.0518  -2.0254  -2.0117  -2.0031
    -1.9955  -1.9859  -1.9583  -1.9417  -1.9388  -1.9133  -1.8696  -1.8520
    -1.8335  -1.7911  -1.7731  -1.7460  -1.7243  -1.6983  -1.6946  -1.6753
    -1.6624  -1.6555  -1.6449  -1.6384  -1.6233  -1.6191  -1.5928  -1.5845
    -1.5358  -1.5087  -1.4964  -1.4923  -1.4751  -1.4678  -1.4654  -1.4540
    -1.4485  -1.4363  -1.4201  -1.3938  -1.3761  -1.3505  -1.3329  -1.3146
    -1.2545  -1.2493  -1.2319  -1.1963  -1.1812  -1.1723  -1.1605  -1.1121
    -1.0894  -1.0773  -1.0628  -1.0446  -1.0062  -0.9515  -0.9453  -0.9233
    -0.9091  -0.9037  -0.8902  -0.8732  -0.8442  -0.8307  -0.8037  -0.7737
    -0.7645  -0.7374  -0.7168  -0.7100  -0.7020  -0.6668  -0.6345  -0.6292
    -0.6127  -0.5962  -0.5842  -0.5729  -0.5408  -0.5120  -0.4992  -0.4358
    -0.3590  -0.3287  -0.3218  -0.3108  -0.3046  -0.2980  -0.2907  -0.2737
    -0.2478  -0.2324  -0.2229  -0.2157  -0.1646  -0.1613  -0.0991  -0.0943
    -0.0735  -0.0626  -0.0566  -0.0417   0.0021   0.0082   0.0149   0.0233
     0.0338   0.0982   0.1075   0.1166   0.1284   0.1361   0.1604   0.1957
     0.2988   0.5060   0.5759   0.8570   1.3735   1.4123   1.5008   1.7072
     1.8933   1.9613

 ------ SPIN DOWN ----------


          k = 0.0000 0.0000 0.0000 ( 51087 PWs)   bands (ev):

   -21.4085 -10.0771  -7.6194  -6.6791  -6.2054  -5.5783  -5.1080  -4.4140
    -4.3867  -4.3838  -4.3809  -4.3785  -4.3614  -4.2582  -3.5223  -3.5099
    -3.5086  -3.5067  -3.4817  -3.4696  -3.3576  -2.5731  -2.5643  -2.5593
    -2.5554  -2.5350  -2.4857  -2.1037  -2.0954  -2.0925  -2.0912  -2.0846
    -2.0806  -1.9056  -1.8915  -1.8226  -1.8111  -1.8070  -1.7987  -1.7264
    -1.7012  -1.6784  -1.6530  -1.6324  -1.5800  -1.5535  -1.5466  -1.5427
    -1.5271  -1.4959  -1.3169  -1.2879  -1.2772  -1.2742  -1.2701  -1.2623
    -1.2621  -1.2519  -1.2397  -1.2018  -1.1989  -1.1857  -1.1821  -1.1707
    -1.1360  -0.9841  -0.6446  -0.6150  -0.5988  -0.5958  -0.5787  -0.4530
    -0.4038  -0.3021  -0.2800  -0.2773  -0.2672  -0.2649  -0.2597  -0.2223
    -0.2099  -0.2017  -0.1865  -0.1853  -0.1843  -0.1733  -0.1354  -0.0949
    -0.0891  -0.0765  -0.0742  -0.0647  -0.0453  -0.0234  -0.0205  -0.0159
    -0.0157  -0.0097   0.0086   0.0110   0.0181   0.0217   0.0710   0.1047
     0.1539   0.1727   0.1974   0.2260   0.2294   0.2401   0.2427   0.2453
     0.2461   0.2472   0.2488   0.2673   0.3166   0.3176   0.3662   0.3997
     0.4106   0.4252   0.4384   0.4539   0.5844   0.6287   0.6344   0.6848
     0.7136   0.7171   0.7236   0.7274   0.7440   0.8957   1.0307   1.0514
     1.0727   1.0770   1.2242   1.2524   1.2725   1.2864   1.2878   1.2926
     1.2951   1.4418   1.4507   1.4565   1.4623   1.4689   1.4862   1.4927
     1.4975   1.5219   1.5413   1.5500   1.5674   1.5972   1.6040   1.6098
     1.6162   1.6187   1.6197   1.6395   1.6710   1.6900   1.6982   1.7114
     1.7235   1.7367   1.7388   1.7404   1.7433   1.7494   1.7520   1.7896
     1.7936   1.8175   1.8216   1.8266   1.8364   1.8413   1.8422   1.8726
     1.8778   1.8813   1.8889   1.8907   1.8940   1.9009   1.9039   1.9101
     1.9131   1.9600   1.9678   1.9905   2.1166   2.1192   2.1236   2.1261
     2.1288   2.1304

          k = 0.0000 0.2309 0.0000 ( 51134 PWs)   bands (ev):

   -21.4085 -10.0776  -7.4708  -6.6440  -6.1234  -5.5862  -5.3379  -5.1024
    -4.7652  -4.7469  -4.2497  -4.1370  -3.8400  -3.8315  -3.7464  -3.6887
    -3.5455  -3.2986  -3.1698  -3.1410  -3.0649  -2.7959  -2.5779  -2.5460
    -2.5075  -2.4621  -2.4341  -2.2213  -2.1381  -2.1271  -2.1236  -2.0919
    -2.0816  -2.0476  -2.0361  -2.0036  -1.9934  -1.8710  -1.8497  -1.7813
    -1.7679  -1.7442  -1.6552  -1.5968  -1.5820  -1.5687  -1.5229  -1.4595
    -1.4234  -1.4042  -1.3531  -1.3255  -1.3191  -1.2945  -1.2741  -1.2677
    -1.2581  -1.2077  -1.1773  -1.1596  -1.1307  -1.0976  -1.0816  -1.0592
    -0.9999  -0.9207  -0.7200  -0.6613  -0.6498  -0.6239  -0.5974  -0.5578
    -0.4965  -0.4837  -0.4300  -0.4134  -0.3158  -0.2963  -0.2874  -0.2677
    -0.2616  -0.2437  -0.2354  -0.2138  -0.2035  -0.1908  -0.1540  -0.1079
    -0.0879  -0.0743  -0.0687  -0.0433  -0.0280  -0.0111  -0.0059   0.0139
     0.0153   0.0223   0.0292   0.0325   0.0356   0.0482   0.0731   0.0892
     0.1123   0.1274   0.1343   0.1425   0.1689   0.1890   0.1988   0.2132
     0.2457   0.2677   0.3095   0.3164   0.3346   0.3568   0.3600   0.3842
     0.4404   0.5245   0.5690   0.5966   0.6003   0.6426   0.6565   0.6795
     0.6820   0.7021   0.7050   0.7081   0.7871   0.9213   1.0101   1.0320
     1.0407   1.0555   1.0633   1.0788   1.0949   1.1401   1.1935   1.2290
     1.2417   1.2761   1.3181   1.3248   1.3501   1.3793   1.4005   1.4083
     1.4657   1.4891   1.5056   1.5223   1.5312   1.5443   1.5634   1.5725
     1.6027   1.6282   1.6531   1.6779   1.6984   1.7116   1.7196   1.7523
     1.7666   1.7782   1.7834   1.7925   1.8067   1.8337   1.8625   1.8712
     1.8773   1.8799   1.9148   1.9267   1.9360   1.9496   1.9610   1.9774
     1.9844   2.0219   2.0241   2.0291   2.0497   2.0542   2.0637   2.0818
     2.0892   2.1149   2.1216   2.1385   2.2071   2.2200   2.2304   2.2465
     2.3045   2.3167

          k = 0.0000 0.4619 0.0000 ( 51204 PWs)   bands (ev):

   -21.4085 -10.0784  -7.0466  -6.6117  -6.2566  -5.8998  -5.4557  -5.1393
    -4.9862  -4.9348  -4.8266  -3.9088  -3.8666  -3.7618  -3.2977  -3.2186
    -3.2101  -3.0970  -2.9601  -2.9067  -2.7769  -2.7615  -2.6172  -2.6125
    -2.5572  -2.5356  -2.4908  -2.4717  -2.3817  -2.3662  -2.3206  -2.2992
    -2.2846  -2.0880  -2.0768  -2.0048  -1.9948  -1.8924  -1.8774  -1.8711
    -1.8576  -1.8492  -1.6722  -1.5664  -1.5587  -1.5263  -1.5164  -1.4656
    -1.3550  -1.3422  -1.3232  -1.3113  -1.2962  -1.2847  -1.2738  -1.2601
    -1.2086  -1.1606  -1.1583  -1.1464  -1.1214  -1.0758  -0.9792  -0.9476
    -0.8330  -0.8044  -0.7357  -0.6902  -0.6693  -0.6376  -0.6167  -0.5988
    -0.5905  -0.5629  -0.5318  -0.4984  -0.4817  -0.4435  -0.4211  -0.3962
    -0.3724  -0.3371  -0.3229  -0.3133  -0.3030  -0.2407  -0.2054  -0.1661
    -0.1299  -0.1093  -0.0881  -0.0524  -0.0402  -0.0148   0.0051   0.0303
     0.0511   0.0675   0.0747   0.0849   0.0916   0.1052   0.1296   0.1432
     0.1526   0.1794   0.1887   0.1918   0.2030   0.2136   0.2240   0.2472
     0.2599   0.2757   0.3215   0.3654   0.4047   0.4104   0.4410   0.4575
     0.4595   0.4826   0.4901   0.5079   0.5652   0.5681   0.5723   0.6095
     0.6259   0.6439   0.6740   0.6767   0.7021   0.7127   0.7994   0.8604
     0.8982   0.9284   0.9907   1.0447   1.0977   1.1206   1.1358   1.1417
     1.1590   1.1728   1.2038   1.2371   1.2504   1.2924   1.3844   1.4226
     1.4331   1.4399   1.4926   1.5128   1.5391   1.5519   1.5739   1.5938
     1.6235   1.6374   1.6599   1.7108   1.7423   1.7607   1.7722   1.7937
     1.7978   1.8023   1.8200   1.8385   1.8661   1.8761   1.8862   1.9093
     1.9244   1.9660   2.0079   2.0182   2.0298   2.0579   2.0648   2.0754
     2.0834   2.0908   2.1181   2.1241   2.1338   2.1468   2.1542   2.1575
     2.1752   2.2034   2.3091   2.3667   2.3865   2.4742   2.5683   2.8189
     2.9009   2.9388

          k = 0.2000-0.1155 0.0000 ( 51134 PWs)   bands (ev):

   -21.4085 -10.0768  -7.4718  -6.6443  -6.1296  -5.6067  -5.3128  -5.0910
    -4.7729  -4.7602  -4.2436  -4.0994  -3.8398  -3.8330  -3.7567  -3.7187
    -3.5398  -3.2972  -3.1742  -3.1523  -3.0495  -2.7734  -2.5873  -2.5594
    -2.4948  -2.4673  -2.4404  -2.2189  -2.1358  -2.1336  -2.1205  -2.0881
    -2.0818  -2.0492  -2.0357  -2.0016  -1.9969  -1.8806  -1.8487  -1.7736
    -1.7673  -1.7281  -1.6429  -1.6076  -1.5782  -1.5684  -1.5138  -1.4505
    -1.4303  -1.4047  -1.3606  -1.3408  -1.3177  -1.2922  -1.2769  -1.2683
    -1.2556  -1.2224  -1.1766  -1.1579  -1.1297  -1.0966  -1.0841  -1.0597
    -0.9860  -0.9292  -0.7227  -0.6621  -0.6474  -0.6273  -0.5923  -0.5511
    -0.5039  -0.4809  -0.4369  -0.4195  -0.3203  -0.2974  -0.2864  -0.2706
    -0.2595  -0.2451  -0.2353  -0.2144  -0.2079  -0.1859  -0.1568  -0.1061
    -0.0785  -0.0752  -0.0620  -0.0429  -0.0384  -0.0169  -0.0058   0.0098
     0.0188   0.0245   0.0306   0.0336   0.0360   0.0400   0.0777   0.0879
     0.1146   0.1297   0.1386   0.1407   0.1730   0.1865   0.2012   0.2079
     0.2392   0.2562   0.2826   0.3101   0.3440   0.3541   0.3594   0.3839
     0.4582   0.5405   0.5878   0.5968   0.6092   0.6401   0.6558   0.6783
     0.6927   0.7035   0.7042   0.7084   0.7630   0.9149   1.0148   1.0363
     1.0430   1.0519   1.0678   1.0783   1.1017   1.1477   1.1987   1.2294
     1.2501   1.2668   1.3178   1.3265   1.3558   1.3779   1.4042   1.4255
     1.4648   1.4710   1.5081   1.5220   1.5314   1.5454   1.5650   1.5731
     1.5993   1.6178   1.6659   1.6739   1.6981   1.7088   1.7198   1.7270
     1.7742   1.7758   1.7849   1.7874   1.8075   1.8418   1.8634   1.8713
     1.8751   1.8824   1.9119   1.9259   1.9349   1.9476   1.9654   1.9741
     1.9857   2.0219   2.0254   2.0299   2.0505   2.0566   2.0621   2.0869
     2.1031   2.1131   2.1179   2.1406   2.1951   2.2208   2.2280   2.2617
     2.2960   2.3143

          k = 0.2000 0.1155 0.0000 ( 51134 PWs)   bands (ev):

   -21.4085 -10.0777  -7.4705  -6.6441  -6.1213  -5.5824  -5.3360  -5.1186
    -4.7543  -4.7467  -4.2528  -4.1479  -3.8381  -3.8326  -3.7338  -3.6874
    -3.5481  -3.2982  -3.1657  -3.1435  -3.0678  -2.7999  -2.5710  -2.5463
    -2.5065  -2.4611  -2.4375  -2.2216  -2.1355  -2.1249  -2.1210  -2.0871
    -2.0827  -2.0487  -2.0362  -2.0008  -1.9968  -1.8745  -1.8478  -1.7800
    -1.7672  -1.7339  -1.6805  -1.6110  -1.5887  -1.5691  -1.4869  -1.4519
    -1.4315  -1.4076  -1.3551  -1.3402  -1.3123  -1.2924  -1.2751  -1.2707
    -1.2586  -1.2062  -1.1866  -1.1609  -1.1324  -1.0940  -1.0824  -1.0587
    -0.9772  -0.9215  -0.7318  -0.6619  -0.6490  -0.6243  -0.5934  -0.5598
    -0.5081  -0.4826  -0.4277  -0.4108  -0.3254  -0.2924  -0.2841  -0.2801
    -0.2453  -0.2359  -0.2321  -0.2187  -0.2121  -0.1834  -0.1647  -0.1078
    -0.0876  -0.0750  -0.0642  -0.0513  -0.0433  -0.0063  -0.0034   0.0079
     0.0188   0.0201   0.0289   0.0336   0.0382   0.0511   0.0783   0.0895
     0.1145   0.1277   0.1402   0.1425   0.1551   0.1909   0.2051   0.2142
     0.2452   0.2606   0.3066   0.3140   0.3426   0.3524   0.3583   0.3835
     0.4634   0.5341   0.5680   0.5966   0.6047   0.6511   0.6544   0.6805
     0.6933   0.6975   0.7044   0.7067   0.7574   0.9189   1.0145   1.0237
     1.0415   1.0619   1.0725   1.0788   1.1002   1.1599   1.2026   1.2251
     1.2405   1.2616   1.3202   1.3256   1.3523   1.3756   1.3895   1.4074
     1.4697   1.4850   1.5120   1.5259   1.5323   1.5453   1.5616   1.5745
     1.5968   1.6272   1.6607   1.6705   1.6902   1.7119   1.7221   1.7472
     1.7697   1.7791   1.7830   1.7924   1.8035   1.8384   1.8633   1.8716
     1.8758   1.8814   1.9100   1.9270   1.9371   1.9499   1.9605   1.9772
     1.9829   2.0220   2.0240   2.0320   2.0506   2.0544   2.0619   2.0835
     2.0907   2.1162   2.1193   2.1386   2.2057   2.2195   2.2314   2.2446
     2.3042   2.3191

          k = 0.2000 0.3464 0.0000 ( 51202 PWs)   bands (ev):

   -21.4085 -10.0787  -7.1810  -6.6086  -5.9718  -5.7534  -5.7467  -5.4215
    -5.1101  -4.4872  -4.4284  -4.0348  -4.0219  -3.9219  -3.1959  -3.1895
    -3.1821  -3.1740  -3.0743  -2.9775  -2.8952  -2.8881  -2.8759  -2.5154
    -2.4411  -2.4297  -2.4243  -2.3446  -2.3352  -2.3134  -2.2330  -2.2211
    -2.2157  -2.2078  -2.1963  -2.0726  -2.0132  -1.8619  -1.8381  -1.8308
    -1.7749  -1.7607  -1.7083  -1.6919  -1.6220  -1.5207  -1.4913  -1.4396
    -1.3739  -1.3541  -1.3145  -1.3097  -1.3082  -1.2855  -1.2624  -1.2490
    -1.2373  -1.2013  -1.1616  -1.1271  -1.0987  -0.9984  -0.9621  -0.9324
    -0.8660  -0.8354  -0.7284  -0.7184  -0.6386  -0.6130  -0.5846  -0.5595
    -0.5496  -0.5223  -0.5094  -0.5052  -0.4516  -0.4272  -0.3977  -0.3854
    -0.3715  -0.3570  -0.3388  -0.3261  -0.2836  -0.2220  -0.1754  -0.1663
    -0.1431  -0.1260  -0.0845  -0.0669  -0.0453  -0.0390  -0.0251  -0.0157
     0.0048   0.0225   0.0339   0.0480   0.0597   0.0692   0.1059   0.1198
     0.1324   0.1426   0.1618   0.1712   0.1852   0.1897   0.2115   0.2157
     0.2570   0.2975   0.3134   0.3347   0.3796   0.4454   0.4593   0.4670
     0.4973   0.5058   0.5421   0.5939   0.6122   0.6211   0.6271   0.6352
     0.6509   0.6627   0.6915   0.7252   0.7796   0.7944   0.9083   0.9438
     0.9852   1.0430   1.0525   1.0743   1.1029   1.1174   1.1316   1.1458
     1.1614   1.1774   1.1861   1.2038   1.2268   1.2644   1.3201   1.3567
     1.3827   1.3976   1.4186   1.4373   1.4617   1.4743   1.5145   1.5306
     1.5835   1.6332   1.7010   1.7474   1.7504   1.7679   1.7899   1.8082
     1.8199   1.8270   1.8452   1.8569   1.8649   1.9035   1.9234   1.9269
     1.9370   1.9760   1.9830   1.9893   2.0041   2.0267   2.0300   2.0580
     2.0641   2.0702   2.0763   2.1064   2.1090   2.1281   2.1483   2.1771
     2.2052   2.2095   2.3169   2.3343   2.4224   2.4540   2.4863   2.6592
     2.7077   2.7973

          k = 0.2000-0.5774 0.0000 ( 51262 PWs)   bands (ev):

   -21.4085 -10.0783  -6.7802  -6.5579  -6.4203  -5.9264  -5.7523  -5.3126
    -5.0970  -4.9575  -4.5195  -4.0815  -3.5622  -3.4460  -3.2215  -3.2165
    -3.1859  -2.9926  -2.9606  -2.8210  -2.7998  -2.7937  -2.6739  -2.6622
    -2.6559  -2.6405  -2.6230  -2.6029  -2.4125  -2.2886  -2.2565  -2.2469
    -2.2389  -2.2213  -2.1920  -2.1807  -2.0767  -2.0574  -1.8469  -1.7499
    -1.7250  -1.7178  -1.7090  -1.6428  -1.6019  -1.5084  -1.4747  -1.4519
    -1.4277  -1.4172  -1.3817  -1.2935  -1.2541  -1.2426  -1.2355  -1.2084
    -1.1818  -1.1182  -1.0890  -1.0601  -1.0290  -1.0091  -0.9792  -0.8924
[...]
     atom    8 type  1   force =    -0.00064200   -0.00414835   -0.09920192
     atom    9 type  1   force =     0.00159413    0.00254401   -0.10232452
     atom   10 type  1   force =     0.00009638    0.00115530   -0.01720713
     atom   11 type  1   force =     0.00080388    0.00098339   -0.00863720
     atom   12 type  1   force =     0.00000232    0.00125885   -0.01136868
     atom   13 type  1   force =    -0.00036969   -0.00028553   -0.01038378
     atom   14 type  1   force =     0.00055589    0.00087533   -0.01258810
     atom   15 type  1   force =    -0.00069636    0.00074946   -0.01013824
     atom   16 type  1   force =     0.00137115   -0.00115484   -0.01156635
     atom   17 type  1   force =    -0.00055379   -0.00265557   -0.00972355
     atom   18 type  1   force =    -0.00039660   -0.00071873   -0.01333243
     atom   19 type  1   force =    -0.00026818    0.00184183    0.01338233
     atom   20 type  1   force =    -0.00691603    0.00356881   -0.00067142
     atom   21 type  1   force =     0.00509864   -0.00684461    0.01137769
     atom   22 type  1   force =    -0.00009484   -0.00036889    0.01790963
     atom   23 type  1   force =    -0.00031793    0.00785357    0.01031266
     atom   24 type  1   force =     0.00030494    0.00167316    0.01774384
     atom   25 type  1   force =    -0.00044042    0.00059917    0.01852471
     atom   26 type  1   force =    -0.00729587   -0.00683635    0.00483417
     atom   27 type  1   force =     0.00924173   -0.00378580    0.00229856
     atom   28 type  1   force =     0.02130567    0.00227865    0.12944748
     atom   29 type  1   force =     0.02033727    0.05743089    0.11535785
     atom   30 type  1   force =    -0.02823693    0.00686614    0.13611939
     atom   31 type  1   force =     0.04129986   -0.04860911    0.17284921
     atom   32 type  1   force =    -0.00042672    0.00078531    0.02716550
     atom   33 type  1   force =    -0.00003978    0.00097704    0.10569456
     atom   34 type  1   force =    -0.00109982   -0.00252305    0.10804441
     atom   35 type  1   force =     0.00108090    0.00457230    0.11815857
     atom   36 type  1   force =    -0.00425087    0.00427954    0.10780473
     atom   37 type  2   force =    -0.24681659   -0.30611551    0.20806236
     atom   38 type  3   force =     1.35452127    1.69100900   -1.18489097
     atom   39 type  4   force =    -0.03374631   -0.04304808   -0.05450104
     The ionic contribution  to forces
     atom    1 type  1   force =    -0.00634390    0.00135002 -111.17797484
     atom    2 type  1   force =    -0.00318170    0.00270823 -111.19707055
     atom    3 type  1   force =     0.00952553    0.00099034 -111.18429512
     atom    4 type  1   force =    -0.00358740    0.00487778 -111.17711919
     atom    5 type  1   force =     0.00171688    0.00744582 -111.18088816
     atom    6 type  1   force =     0.00187055   -0.00145152 -111.17375177
     atom    7 type  1   force =     0.00125699   -0.00121968 -111.17316058
     atom    8 type  1   force =    -0.00591247   -0.00589479 -111.18239735
     atom    9 type  1   force =     0.00465551   -0.00880619 -111.18493661
     atom   10 type  1   force =    -0.04183423   -0.01600109  -40.11856406
     atom   11 type  1   force =    -0.01578160   -0.05358213  -40.23465294
     atom   12 type  1   force =     0.05760810   -0.03268725  -40.14865238
     atom   13 type  1   force =    -0.06055227    0.04004369  -40.17960412
     atom   14 type  1   force =     0.03888578    0.04588191  -40.22488368
     atom   15 type  1   force =     0.02167927    0.01248911  -40.10424382
     atom   16 type  1   force =    -0.00646119    0.03879913  -40.10986740
     atom   17 type  1   force =     0.00215630   -0.00687800  -40.11712921
     atom   18 type  1   force =     0.00430288   -0.02806473  -40.10522855
     atom   19 type  1   force =    -0.30491316    0.06546121   31.49579082
     atom   20 type  1   force =    -0.18398011    0.15181392   30.47501627
     atom   21 type  1   force =     0.48610764    0.04377293   31.18631320
     atom   22 type  1   force =    -0.17026686    0.23167598   31.53649842
     atom   23 type  1   force =     0.08876145    0.37067454   31.35471472
     atom   24 type  1   force =     0.08220638   -0.06529203   31.67183309
     atom   25 type  1   force =     0.05278365   -0.05326349   31.69851296
     atom   26 type  1   force =    -0.29344775   -0.29905870   31.27544621
     atom   27 type  1   force =     0.24111709   -0.44523339   31.15837952
     atom   28 type  1   force =    -1.62249947   -0.53819718  103.80556183
     atom   29 type  1   force =    -0.89540523   -3.74118032   97.56264361
     atom   30 type  1   force =     2.40733478   -1.36886276  103.07395612
     atom   31 type  1   force =    -3.01318342    2.03681352  101.83197781
     atom   32 type  1   force =     2.75741224    3.23346366   98.03099991
     atom   33 type  1   force =     0.76665105    0.35158589  104.25748825
     atom   34 type  1   force =    -0.26935547    1.33906090  104.11748650
     atom   35 type  1   force =     0.02815426   -0.27557094  103.97910597
     atom   36 type  1   force =     0.23163094   -0.96038505  104.21812913
     atom   37 type  2   force =     3.66251688    4.83225415   55.93902672
     atom   38 type  3   force =    -5.25401895   -6.45853407   88.21204403
     atom   39 type  4   force =     1.20239102    1.54900060   15.09349523
     The local contribution  to forces
     atom    1 type  1   force =     0.00767748   -0.00410054  111.28489214
     atom    2 type  1   force =     0.00383697   -0.00385369  111.30126556
     atom    3 type  1   force =    -0.01136179    0.00105035  111.29131299
     atom    4 type  1   force =     0.00126058   -0.00310238  111.28404706
     atom    5 type  1   force =    -0.00155639   -0.01148397  111.28913323
     atom    6 type  1   force =     0.00006309    0.00264328  111.27976462
     atom    7 type  1   force =    -0.00083234    0.00180289  111.28097777
     atom    8 type  1   force =     0.00694711    0.00996237  111.28446665
     atom    9 type  1   force =    -0.00662242    0.00646972  111.28927956
     atom   10 type  1   force =     0.04223642    0.01482098   40.11311417
     atom   11 type  1   force =     0.01428600    0.05190609   40.22234531
     atom   12 type  1   force =    -0.05696609    0.03145410   40.13967943
     atom   13 type  1   force =     0.06031877   -0.04076207   40.16917730
     atom   14 type  1   force =    -0.03909743   -0.04577493   40.21544925
     atom   15 type  1   force =    -0.02055099   -0.01385645   40.09361687
     atom   16 type  1   force =     0.00546572   -0.03735916   40.09996299
     atom   17 type  1   force =    -0.00147434    0.00974445   40.10574884
     atom   18 type  1   force =    -0.00351674    0.02912361   40.09669787
     atom   19 type  1   force =     0.30484115   -0.06682683  -31.48632229
     atom   20 type  1   force =     0.19214524   -0.15640762  -30.45378978
     atom   21 type  1   force =    -0.49087478   -0.03699239  -31.17929636
     atom   22 type  1   force =     0.17041210   -0.23038379  -31.53058167
     atom   23 type  1   force =    -0.08783364   -0.37717595  -31.34906298
     atom   24 type  1   force =    -0.08276725    0.06412912  -31.66696638
     atom   25 type  1   force =    -0.05273556    0.05263453  -31.69126698
     atom   26 type  1   force =     0.30414236    0.30660540  -31.25724925
     atom   27 type  1   force =    -0.25197314    0.44971097  -31.13997684
     atom   28 type  1   force =     1.59352045    0.53345626 -103.94497659
     atom   29 type  1   force =     0.86507963    3.66216542  -97.68497113
     atom   30 type  1   force =    -2.36890515    1.35932357 -103.21982891
     atom   31 type  1   force =     2.96221271   -1.97859689 -102.01616136
     atom   32 type  1   force =    -2.75485306   -3.23346593  -98.04667855
     atom   33 type  1   force =    -0.76332394   -0.35095977 -104.37064188
     atom   34 type  1   force =     0.26889514   -1.33038835 -104.23266606
     atom   35 type  1   force =    -0.02941559    0.26863342 -104.10864723
     atom   36 type  1   force =    -0.22659507    0.95169302 -104.33527008
     atom   37 type  2   force =    -3.41399193   -4.52481756  -56.14107318
     atom   38 type  3   force =     3.91362470    4.78273076  -87.04286556
     atom   39 type  4   force =    -1.17009954   -1.50501408  -15.02921667
     The core correction contribution to forces
     atom    1 type  1   force =     0.00020755   -0.00015298    0.01032148
     atom    2 type  1   force =     0.00000718   -0.00011262    0.01020673
     atom    3 type  1   force =    -0.00018997    0.00008317    0.01048275
     atom    4 type  1   force =    -0.00015675   -0.00002230    0.01010704
     atom    5 type  1   force =     0.00010695   -0.00021656    0.01043092
     atom    6 type  1   force =    -0.00001270   -0.00010295    0.01001892
     atom    7 type  1   force =    -0.00004675   -0.00006198    0.01000685
     atom    8 type  1   force =     0.00015115    0.00037893    0.01052392
     atom    9 type  1   force =    -0.00031671   -0.00002698    0.01020452
     atom   10 type  1   force =     0.00007957    0.00012184   -0.00190211
     atom   11 type  1   force =    -0.00018589    0.00004107   -0.00147917
     atom   12 type  1   force =     0.00018358    0.00004851   -0.00186891
     atom   13 type  1   force =     0.00004094   -0.00006989   -0.00175383
     atom   14 type  1   force =     0.00003989    0.00002960   -0.00187607
     atom   15 type  1   force =    -0.00007134   -0.00007101   -0.00162408
     atom   16 type  1   force =    -0.00003623   -0.00002219   -0.00176480
     atom   17 type  1   force =     0.00010851    0.00001382   -0.00162682
     atom   18 type  1   force =    -0.00004328   -0.00009862   -0.00191095
     atom   19 type  1   force =    -0.00020455   -0.00029350    0.00152195
     atom   20 type  1   force =    -0.00016356   -0.00019969    0.00110096
     atom   21 type  1   force =     0.00074100   -0.00091458    0.00040693
     atom   22 type  1   force =    -0.00029128   -0.00001042    0.00197840
     atom   23 type  1   force =    -0.00014325    0.00149404    0.00019777
     atom   24 type  1   force =     0.00002475    0.00017264    0.00173706
     atom   25 type  1   force =     0.00014818    0.00024476    0.00215867
     atom   26 type  1   force =    -0.00012325    0.00001390    0.00145334
     atom   27 type  1   force =     0.00019572   -0.00018784    0.00065406
     atom   28 type  1   force =     0.00058358    0.00028214   -0.00917174
     atom   29 type  1   force =     0.00282037    0.01003908    0.00449075
     atom   30 type  1   force =    -0.00258438    0.00382779   -0.00766269
     atom   31 type  1   force =     0.00641185   -0.00163302   -0.00523622
     atom   32 type  1   force =    -0.00286218   -0.00293476   -0.00475567
     atom   33 type  1   force =    -0.00256180   -0.00066007   -0.00960902
     atom   34 type  1   force =     0.00077374   -0.00321155   -0.00902799
     atom   35 type  1   force =    -0.00040178   -0.00078890   -0.00959728
     atom   36 type  1   force =    -0.00006501    0.00000799   -0.01053285
     atom   37 type  2   force =     0.00250221    0.00367801   -0.00286395
     atom   38 type  3   force =    -0.01101816   -0.01367545    0.01059034
     atom   39 type  4   force =     0.00000000    0.00000000    0.00000000
     The Hubbard contrib.    to forces
     atom    1 type  1   force =     0.00000000    0.00000000    0.00000000
     atom    2 type  1   force =     0.00000000    0.00000000    0.00000000
     atom    3 type  1   force =     0.00000000    0.00000000    0.00000000
     atom    4 type  1   force =     0.00000000    0.00000000    0.00000000
     atom    5 type  1   force =     0.00000000    0.00000000    0.00000000
     atom    6 type  1   force =     0.00000000    0.00000000    0.00000000
     atom    7 type  1   force =     0.00000000    0.00000000    0.00000000
     atom    8 type  1   force =     0.00000000    0.00000000    0.00000000
     atom    9 type  1   force =     0.00000000    0.00000000    0.00000000
     atom   10 type  1   force =     0.00000000    0.00000000    0.00000000
     atom   11 type  1   force =     0.00000000    0.00000000    0.00000000
     atom   12 type  1   force =     0.00000000    0.00000000    0.00000000
     atom   13 type  1   force =     0.00000000    0.00000000    0.00000000
     atom   14 type  1   force =     0.00000000    0.00000000    0.00000000
     atom   15 type  1   force =     0.00000000    0.00000000    0.00000000
     atom   16 type  1   force =     0.00000000    0.00000000    0.00000000
     atom   17 type  1   force =     0.00000000    0.00000000    0.00000000
     atom   18 type  1   force =     0.00000000    0.00000000    0.00000000
     atom   19 type  1   force =     0.00000000    0.00000000    0.00000000
     atom   20 type  1   force =     0.00000000    0.00000000    0.00000000
     atom   21 type  1   force =     0.00000000    0.00000000    0.00000000
     atom   22 type  1   force =     0.00000000    0.00000000    0.00000000
     atom   23 type  1   force =     0.00000000    0.00000000    0.00000000
     atom   24 type  1   force =     0.00000000    0.00000000    0.00000000
     atom   25 type  1   force =     0.00000000    0.00000000    0.00000000
     atom   26 type  1   force =     0.00000000    0.00000000    0.00000000
     atom   27 type  1   force =     0.00000000    0.00000000    0.00000000
     atom   28 type  1   force =     0.00000000    0.00000000    0.00000000
     atom   29 type  1   force =     0.00000000    0.00000000    0.00000000
     atom   30 type  1   force =     0.00000000    0.00000000    0.00000000
     atom   31 type  1   force =     0.00000000    0.00000000    0.00000000
     atom   32 type  1   force =     0.00000000    0.00000000    0.00000000
     atom   33 type  1   force =     0.00000000    0.00000000    0.00000000
     atom   34 type  1   force =     0.00000000    0.00000000    0.00000000
     atom   35 type  1   force =     0.00000000    0.00000000    0.00000000
     atom   36 type  1   force =     0.00000000    0.00000000    0.00000000
     atom   37 type  2   force =     0.00000000    0.00000000    0.00000000
     atom   38 type  3   force =     0.00000000    0.00000000    0.00000000
     atom   39 type  4   force =     0.00000000    0.00000000    0.00000000
     The SCF correction term to forces
     atom    1 type  1   force =     0.00000000   -0.00000000    0.00000000
     atom    2 type  1   force =    -0.00000000    0.00000000    0.00000000
     atom    3 type  1   force =    -0.00000000    0.00000000    0.00000000
     atom    4 type  1   force =     0.00000000   -0.00000000    0.00000000
     atom    5 type  1   force =    -0.00000000   -0.00000000    0.00000000
     atom    6 type  1   force =    -0.00000000   -0.00000000    0.00000000
     atom    7 type  1   force =     0.00000000    0.00000000    0.00000000
     atom    8 type  1   force =    -0.00000000    0.00000000    0.00000000
     atom    9 type  1   force =    -0.00000000    0.00000000    0.00000000
     atom   10 type  1   force =     0.00000000    0.00000000    0.00000000
     atom   11 type  1   force =     0.00000000    0.00000000    0.00000000
     atom   12 type  1   force =    -0.00000000    0.00000000    0.00000000
     atom   13 type  1   force =     0.00000000   -0.00000000    0.00000000
     atom   14 type  1   force =    -0.00000000    0.00000000    0.00000000
     atom   15 type  1   force =    -0.00000000    0.00000000    0.00000000
     atom   16 type  1   force =     0.00000000   -0.00000000    0.00000000
     atom   17 type  1   force =    -0.00000000   -0.00000000    0.00000000
     atom   18 type  1   force =    -0.00000000    0.00000000    0.00000000
     atom   19 type  1   force =     0.00000000    0.00000000    0.00000000
     atom   20 type  1   force =     0.00000000   -0.00000000    0.00000000
     atom   21 type  1   force =    -0.00000000    0.00000000    0.00000000
     atom   22 type  1   force =    -0.00000000   -0.00000000    0.00000000
     atom   23 type  1   force =     0.00000000   -0.00000000    0.00000000
     atom   24 type  1   force =    -0.00000000    0.00000000    0.00000000
     atom   25 type  1   force =    -0.00000000   -0.00000000    0.00000000
     atom   26 type  1   force =     0.00000000   -0.00000000    0.00000000
     atom   27 type  1   force =    -0.00000000    0.00000000    0.00000000
     atom   28 type  1   force =     0.00000000    0.00000000    0.00000000
     atom   29 type  1   force =     0.00000000   -0.00000000    0.00000000
     atom   30 type  1   force =    -0.00000000   -0.00000000    0.00000000
     atom   31 type  1   force =    -0.00000000    0.00000000    0.00000000
     atom   32 type  1   force =     0.00000000   -0.00000000   -0.00000000
     atom   33 type  1   force =     0.00000000    0.00000000    0.00000000
     atom   34 type  1   force =    -0.00000000   -0.00000000    0.00000000
     atom   35 type  1   force =     0.00000000   -0.00000000    0.00000000
     atom   36 type  1   force =    -0.00000000   -0.00000000    0.00000000
     atom   37 type  2   force =    -0.00000159   -0.00000245   -0.00000540
     atom   38 type  3   force =    -0.00000060   -0.00000327   -0.00001425
     atom   39 type  4   force =     0.00000007   -0.00000006   -0.00000181

     Total force =     0.013757     Total SCF correction =     0.000016

     Writing all to output data dir ./pwscf.save/

     init_run     :     13.47s CPU     16.28s WALL (       1 calls)
     electrons    :    921.87s CPU   1128.29s WALL (       1 calls)
     forces       :      4.58s CPU      5.81s WALL (       1 calls)

     Called by init_run:
     wfcinit      :      9.05s CPU     11.56s WALL (       1 calls)
     potinit      :      3.32s CPU      3.56s WALL (       1 calls)
     hinit0       :      0.84s CPU      0.86s WALL (       1 calls)

     Called by electrons:
     c_bands      :    774.24s CPU    933.58s WALL (      53 calls)
     sum_band     :    101.34s CPU    133.55s WALL (      53 calls)
     v_of_rho     :     12.09s CPU     16.42s WALL (      54 calls)
     newd         :      4.12s CPU      5.45s WALL (      54 calls)
     PAW_pot      :     12.45s CPU     14.73s WALL (      54 calls)
     mix_rho      :     20.25s CPU     27.11s WALL (      53 calls)
     vdW_kernel   :      2.44s CPU      2.50s WALL (       1 calls)

     Called by c_bands:
     init_us_2    :      9.09s CPU      9.28s WALL (    2808 calls)
     init_us_2:cp :      9.07s CPU      9.27s WALL (    2808 calls)
     cegterg      :    746.77s CPU    901.03s WALL (    1378 calls)

     Called by *egterg:
     cdiaghg      :    205.71s CPU    212.80s WALL (    4907 calls)
     h_psi        :    324.20s CPU    412.98s WALL (    4933 calls)
     s_psi        :     38.85s CPU     39.30s WALL (    4933 calls)
     g_psi        :      0.91s CPU      0.99s WALL (    3529 calls)

     Called by h_psi:
     h_psi:calbec :     64.95s CPU     82.03s WALL (    4933 calls)
     vloc_psi     :    217.75s CPU    288.80s WALL (    4933 calls)
     add_vuspsi   :     39.14s CPU     39.70s WALL (    4933 calls)

     General routines
     calbec       :     97.37s CPU    123.54s WALL (    6415 calls)
     fft          :      9.70s CPU     16.52s WALL (    4883 calls)
     ffts         :     11.21s CPU     15.24s WALL (   23010 calls)
     fftw         :    258.34s CPU    346.90s WALL ( 1428504 calls)
     interpolate  :      0.40s CPU      0.47s WALL (     108 calls)

     Parallel routines

     PWSCF        :  15m44.18s CPU  19m21.67s WALL


   This run was terminated on:   5:23: 1  11Dec2025            

=------------------------------------------------------------------------------=
   JOB DONE.
=------------------------------------------------------------------------------=
