
     Program PWSCF v.7.1 starts on 11Dec2025 at  7: 0:10 
        Git branch: heads/qe-7.1
        Last git commit: 48ba0178f8fede6d020eb786884699a9f063f55d-dirty
        Last git commit date: Fri Jan 27 14:22:33 2023 +0000
        Last git commit subject: Merge branch 'fix_hubbard' into 'develop'

     This program is part of the open-source Quantum ESPRESSO suite
     for quantum simulation of materials; please cite
         "P. Giannozzi et al., J. Phys.:Condens. Matter 21 395502 (2009);
         "P. Giannozzi et al., J. Phys.:Condens. Matter 29 465901 (2017);
         "P. Giannozzi et al., J. Chem. Phys. 152 154105 (2020);
          URL http://www.quantum-espresso.org", 
     in publications or presentations arising from this work. More details at
     http://www.quantum-espresso.org/quote

     Parallel version (MPI), running on    96 processors

     MPI processes distributed on     2 nodes
     114168 MiB available memory on the printing compute node when the environment starts

     Reading input from espresso.pwi
Warning: card &CELL ignored
Warning: card / ignored
Warning: card &FCP ignored
Warning: card / ignored
Warning: card &RISM ignored
Warning: card / ignored

     Current dimensions of program PWSCF are:
     Max number of different atomic species (ntypx) = 10
     Max number of k-points (npk) =  40000
     Max angular momentum in pseudopotentials (lmaxx) =  4
     file Co.pbe-n-kjpaw_psl.1.0.0.UPF: wavefunction(s)  4S 3D renormalized
     file C.pbe-n-kjpaw_psl.1.0.0.UPF: wavefunction(s)  2S 2P renormalized
     file O.pbe-nl-kjpaw_psl.1.0.0.UPF: wavefunction(s)  2S 2P renormalized
     file H.pbe-kjpaw_psl.1.0.0.UPF: wavefunction(s)  1S renormalized

     **************************************************************************
     Initializing libbeef V0.1.2 with the BEEF-vdW functional.
     Citation: Wellendorff et al., PRB 85, 235149 (2012).
     **************************************************************************


     IMPORTANT: XC functional enforced from input :
     Exchange-correlation= BEEF-VDW
                           (   1   4  43  14   2   0   0)
     Any further DFT definition will be discarded
     Please, verify this is what you really want


     R & G space division:  proc/nbgrp/npool/nimage =      96
     Subspace diagonalization in iterative solution of the eigenvalue problem:
     one sub-group per band group will be used
     custom distributed-memory algorithm (size of sub-group:  2*  2 procs)


     Parallelization info
     --------------------
     sticks:   dense  smooth     PW     G-vecs:    dense   smooth      PW
     Min          43      28      7                 7829     4248     595
     Max          44      29      8                 7845     4281     630
     Sum        4153    2773    757               752179   409445   59217

     Using Slab Decomposition



     bravais-lattice index     =            0
     lattice parameter (alat)  =      14.1729  a.u.
     unit-cell volume          =    8574.3059 (a.u.)^3
     number of atoms/cell      =           39
     number of atomic types    =            4
     number of electrons       =       335.00
     number of Kohn-Sham states=          202
     kinetic-energy cutoff     =      50.0000  Ry
     charge density cutoff     =     300.0000  Ry
     scf convergence threshold =      1.0E-08
     mixing beta               =       0.7000
     number of iterations used =            8  local-TF  mixing
     Exchange-correlation= BEEF-VDW
                           (   1   4  43  14   2   0   0)

     celldm(1)=  14.172946  celldm(2)=   0.000000  celldm(3)=   0.000000
     celldm(4)=   0.000000  celldm(5)=   0.000000  celldm(6)=   0.000000

     crystal axes: (cart. coord. in units of alat)
               a(1) = (   1.000000   0.000000   0.000000 )  
               a(2) = (   0.500000   0.866025   0.000000 )  
               a(3) = (   0.000000   0.000000   3.477667 )  

     reciprocal axes: (cart. coord. in units 2 pi/alat)
               b(1) = (  1.000000 -0.577350  0.000000 )  
               b(2) = (  0.000000  1.154701  0.000000 )  
               b(3) = (  0.000000  0.000000  0.287549 )  


     PseudoPot. # 1 for Co read from file:
     /users/kbadger1/espresso/pseudo/pslibrary.1.0.0/pbe/PSEUDOPOTENTIALS/Co.pbe-n-kjpaw_psl.1.0.0.UPF
     MD5 check sum: 88af6ec42553d4236c267fdfcb472151
     Pseudo is Projector augmented-wave + core cor, Zval =  9.0
     Generated using 'atomic' code by A. Dal Corso  v.7.0
     Shape of augmentation charge: PSQ
     Using radial grid of 1193 points,  6 beta functions with: 
                l(1) =   0
                l(2) =   0
                l(3) =   1
                l(4) =   1
                l(5) =   2
                l(6) =   2
     Q(r) pseudized with 0 coefficients 


     PseudoPot. # 2 for C  read from file:
     /users/kbadger1/espresso/pseudo/pslibrary.1.0.0/pbe/PSEUDOPOTENTIALS/C.pbe-n-kjpaw_psl.1.0.0.UPF
     MD5 check sum: 6408e75cdba28732cea38a4db8498ce4
     Pseudo is Projector augmented-wave + core cor, Zval =  4.0
     Generated using 'atomic' code by A. Dal Corso  v.7.0
     Shape of augmentation charge: PSQ
     Using radial grid of 1073 points,  4 beta functions with: 
                l(1) =   0
                l(2) =   0
                l(3) =   1
                l(4) =   1
     Q(r) pseudized with 0 coefficients 


     PseudoPot. # 3 for O  read from file:
     /users/kbadger1/espresso/pseudo/pslibrary.1.0.0/pbe/PSEUDOPOTENTIALS/O.pbe-nl-kjpaw_psl.1.0.0.UPF
     MD5 check sum: f0439fab3598ca4e468f064226030408
     Pseudo is Projector augmented-wave + core cor, Zval =  6.0
     Generated using 'atomic' code by A. Dal Corso  v.7.0
     Shape of augmentation charge: PSQ
     Using radial grid of 1095 points,  4 beta functions with: 
                l(1) =   0
                l(2) =   0
                l(3) =   1
                l(4) =   1
     Q(r) pseudized with 0 coefficients 


     PseudoPot. # 4 for H  read from file:
     /users/kbadger1/espresso/pseudo/pslibrary.1.0.0/pbe/PSEUDOPOTENTIALS/H.pbe-kjpaw_psl.1.0.0.UPF
     MD5 check sum: fe4c6fa958fa6d3815bf5d2419cbf1df
     Pseudo is Projector augmented-wave, Zval =  1.0
     Generated using 'atomic' code by A. Dal Corso  v.7.0
     Shape of augmentation charge: PSQ
     Using radial grid of  929 points,  2 beta functions with: 
                l(1) =   0
                l(2) =   0
     Q(r) pseudized with 0 coefficients 


     atomic species   valence    mass     pseudopotential
        Co             9.00    58.93319     Co( 1.00)
        C              4.00    12.01100     C ( 1.00)
        O              6.00    15.99900     O ( 1.00)
        H              1.00     1.00800     H ( 1.00)

     Starting magnetic structure 
     atomic species   magnetization
        Co           1.000
        C            1.000
        O            0.000
        H            0.000

     No symmetry found



   Cartesian axes

     site n.     atom                  positions (alat units)
         1           Co  tau(   1) = (   0.0000000   0.1924501   1.3333333  )
         2           Co  tau(   2) = (   0.3333333   0.1924501   1.3333333  )
         3           Co  tau(   3) = (   0.6666667   0.1924501   1.3333333  )
         4           Co  tau(   4) = (   0.1666667   0.4811252   1.3333333  )
         5           Co  tau(   5) = (   0.5000000   0.4811252   1.3333333  )
         6           Co  tau(   6) = (   0.8333333   0.4811252   1.3333333  )
         7           Co  tau(   7) = (   0.3333333   0.7698004   1.3333333  )
         8           Co  tau(   8) = (   0.6666667   0.7698004   1.3333333  )
         9           Co  tau(   9) = (   1.0000000   0.7698004   1.3333333  )
        10           Co  tau(  10) = (   0.0000000   0.0000000   1.6036667  )
        11           Co  tau(  11) = (   0.3333333   0.0000000   1.6036667  )
        12           Co  tau(  12) = (   0.6666667   0.0000000   1.6036667  )
        13           Co  tau(  13) = (   0.1666667   0.2886751   1.6036667  )
        14           Co  tau(  14) = (   0.5000000   0.2886751   1.6036667  )
        15           Co  tau(  15) = (   0.8333333   0.2886751   1.6036667  )
        16           Co  tau(  16) = (   0.3333333   0.5773503   1.6036667  )
        17           Co  tau(  17) = (   0.6666667   0.5773503   1.6036667  )
        18           Co  tau(  18) = (   1.0000000   0.5773503   1.6036667  )
        19           Co  tau(  19) = (   0.0000000   0.1924501   1.8740000  )
        20           Co  tau(  20) = (   0.3333333   0.1924501   1.8740000  )
        21           Co  tau(  21) = (   0.6666667   0.1924501   1.8740000  )
        22           Co  tau(  22) = (   0.1666667   0.4811252   1.8740000  )
        23           Co  tau(  23) = (   0.5000000   0.4811252   1.8740000  )
        24           Co  tau(  24) = (   0.8333333   0.4811252   1.8740000  )
        25           Co  tau(  25) = (   0.3333333   0.7698004   1.8740000  )
        26           Co  tau(  26) = (   0.6666667   0.7698004   1.8740000  )
        27           Co  tau(  27) = (   1.0000000   0.7698004   1.8740000  )
        28           Co  tau(  28) = (   0.0000000   0.0000000   2.1443333  )
        29           Co  tau(  29) = (   0.3333333   0.0000000   2.1443333  )
        30           Co  tau(  30) = (   0.6666667   0.0000000   2.1443333  )
        31           Co  tau(  31) = (   0.1666667   0.2886751   2.1443333  )
        32           Co  tau(  32) = (   0.5000000   0.2886751   2.1443333  )
        33           Co  tau(  33) = (   0.8333333   0.2886751   2.1443333  )
        34           Co  tau(  34) = (   0.3333333   0.5773503   2.1443333  )
        35           Co  tau(  35) = (   0.6666667   0.5773503   2.1443333  )
        36           Co  tau(  36) = (   1.0000000   0.5773503   2.1443333  )
        37           C   tau(  37) = (   0.2434868   0.0407082   2.3755066  )
        38           O   tau(  38) = (   0.0783858   0.0361416   2.4111779  )
        39           H   tau(  39) = (   0.3347400   0.0624500   2.4895038  )

     number of k points=    13  Marzari-Vanderbilt smearing, width (Ry)=  0.0010
                       cart. coord. in units 2pi/alat
        k(    1) = (   0.0000000   0.0000000   0.0000000), wk =   0.0400000
        k(    2) = (   0.0000000   0.2309401   0.0000000), wk =   0.0800000
        k(    3) = (   0.0000000   0.4618802   0.0000000), wk =   0.0800000
        k(    4) = (   0.2000000  -0.1154701   0.0000000), wk =   0.0800000
        k(    5) = (   0.2000000   0.1154701   0.0000000), wk =   0.0800000
        k(    6) = (   0.2000000   0.3464102   0.0000000), wk =   0.0800000
        k(    7) = (   0.2000000  -0.5773503   0.0000000), wk =   0.0800000
        k(    8) = (   0.2000000  -0.3464102   0.0000000), wk =   0.0800000
        k(    9) = (   0.4000000  -0.2309401   0.0000000), wk =   0.0800000
        k(   10) = (   0.4000000   0.0000000   0.0000000), wk =   0.0800000
        k(   11) = (   0.4000000   0.2309401   0.0000000), wk =   0.0800000
        k(   12) = (   0.4000000  -0.6928203   0.0000000), wk =   0.0800000
        k(   13) = (   0.4000000  -0.4618802   0.0000000), wk =   0.0800000

     Dense  grid:   752179 G-vectors     FFT dimensions: (  80,  80, 288)

     Smooth grid:   409445 G-vectors     FFT dimensions: (  64,  64, 225)

     Estimated max dynamical RAM per process >      99.02 MB

     Estimated total dynamical RAM >       9.28 GB
     Generating pointlists ...
     new r_m :   0.1037 (alat units)  1.4694 (a.u.) for type    1
     new r_m :   0.0609 (alat units)  0.8631 (a.u.) for type    2
     new r_m :   0.0697 (alat units)  0.9879 (a.u.) for type    3
     new r_m :   0.0609 (alat units)  0.8631 (a.u.) for type    4

     Initial potential from superposition of free atoms

     starting charge     334.9897, renormalised to     335.0000

     negative rho (up, down):  2.981E-03 4.699E-04


     %%%%%%%%%%%%%%%%%%%%%%%%%%%%%%%%%%%%%%%%%%%%%%%%%%%%%%%%%%%%%%%%%%%%%%%%
     %                                                                      %
     % You are using vdW-DF, which was implemented by the Thonhauser group. %
     % Please cite the following two papers that made this development      %
     % possible and the two reviews that describe the various versions:     %
     %                                                                      %
     %   T. Thonhauser et al., PRL 115, 136402 (2015).                      %
     %   T. Thonhauser et al., PRB 76, 125112 (2007).                       %
     %   K. Berland et al., Rep. Prog. Phys. 78, 066501 (2015).             %
     %   D.C. Langreth et al., J. Phys.: Condens. Matter 21, 084203 (2009). %
     %                                                                      %
     % If you are calculating stress with vdW-DF, please also cite:         %
     %                                                                      %
     %   R. Sabatini et al., J. Phys.: Condens. Matter 24, 424209 (2012).   %
     %   C.M. Frostenson et al., Electr. Struct. 4, 014001 (2022).          %
     %                                                                      %
     %%%%%%%%%%%%%%%%%%%%%%%%%%%%%%%%%%%%%%%%%%%%%%%%%%%%%%%%%%%%%%%%%%%%%%%%

     %%%%%%%%%%%%%%%%%%%%%%%%%%%%%%%%%%%%%%%%%%%%%%%%%%%%%%%%%%%%%%%%%%%%%%%%
     %                                                                      %
     %  vdW-DF NEWS:                                                        %
     %                                                                      %
     %  * vdW-DF3 is now available. DOI: 10.1021/acs.jctc.0c00471           %
     %    use with input_dft = 'vdW-DF3-opt1' or 'vdW-DF3-opt2'             %
     %                                                                      %
     %  * Unscreened and range-separated hybrid vdW-DF-cx functionals       %
     %    DOI: 10.1063/1.4986522 and 10.1088/1361-648X/ac2ad2               %
     %    use with input_dft = 'vdW-DF-cx0'    and 'vdW-DF-ahcx'            %
     %  * Unscreened and range-separated hybrid vdW-DF2-b86r functionals    %
     %    DOI: 10.1063/1.4986522 and DOI: 10.1103/PhysRevX.12.041003        %
     %    use with input_dft = 'vdW-DF2-br0' and 'vdW-DF2-ahbr'             %
     %                                                                      %
     %%%%%%%%%%%%%%%%%%%%%%%%%%%%%%%%%%%%%%%%%%%%%%%%%%%%%%%%%%%%%%%%%%%%%%%%


     Starting wfcs are  333 randomized atomic wfcs
     Checking if some PAW data can be deallocated... 

     total cpu time spent up to now is       12.2 secs

     per-process dynamical memory:   231.0 Mb

     Self-consistent Calculation

     iteration #  1     ecut=    50.00 Ry     beta= 0.70
     Davidson diagonalization with overlap
     ethr =  1.00E-02,  avg # of iterations =  2.0

     negative rho (up, down):  2.162E-05 5.712E-08

     total cpu time spent up to now is       31.3 secs

     total energy              =   -6053.06232743 Ry
     estimated scf accuracy    <      39.76742881 Ry

     total magnetization       =    69.00 Bohr mag/cell
     absolute magnetization    =    81.17 Bohr mag/cell

     iteration #  2     ecut=    50.00 Ry     beta= 0.70
     Davidson diagonalization with overlap
     ethr =  1.00E-02,  avg # of iterations =  1.0

     negative rho (up, down):  2.347E-06 1.305E-09

     total cpu time spent up to now is       45.8 secs

     total energy              =   -6052.44592088 Ry
     estimated scf accuracy    <      25.47739511 Ry

     total magnetization       =    69.00 Bohr mag/cell
     absolute magnetization    =    76.78 Bohr mag/cell

     iteration #  3     ecut=    50.00 Ry     beta= 0.70
     Davidson diagonalization with overlap
     ethr =  7.61E-03,  avg # of iterations =  1.0

     negative rho (up, down):  1.123E-08 0.000E+00

     total cpu time spent up to now is       60.7 secs

     total energy              =   -6055.17166821 Ry
     estimated scf accuracy    <      84.18090466 Ry

     total magnetization       =    66.12 Bohr mag/cell
     absolute magnetization    =    73.26 Bohr mag/cell

     iteration #  4     ecut=    50.00 Ry     beta= 0.70
     Davidson diagonalization with overlap
     ethr =  7.61E-03,  avg # of iterations =  1.0

     total cpu time spent up to now is       74.3 secs

     total energy              =   -6056.35541688 Ry
     estimated scf accuracy    <       5.78376467 Ry

     total magnetization       =    60.78 Bohr mag/cell
     absolute magnetization    =    70.54 Bohr mag/cell

     iteration #  5     ecut=    50.00 Ry     beta= 0.70
     Davidson diagonalization with overlap
     ethr =  1.73E-03,  avg # of iterations =  1.1

     total cpu time spent up to now is       89.6 secs

     total energy              =   -6056.36942467 Ry
     estimated scf accuracy    <       3.45995707 Ry

     total magnetization       =    60.60 Bohr mag/cell
     absolute magnetization    =    69.90 Bohr mag/cell

     iteration #  6     ecut=    50.00 Ry     beta= 0.70
     Davidson diagonalization with overlap
     ethr =  1.03E-03,  avg # of iterations =  1.4

     total cpu time spent up to now is      103.3 secs

     total energy              =   -6056.48331330 Ry
     estimated scf accuracy    <       0.54108172 Ry

     total magnetization       =    60.57 Bohr mag/cell
     absolute magnetization    =    69.67 Bohr mag/cell

     iteration #  7     ecut=    50.00 Ry     beta= 0.70
     Davidson diagonalization with overlap
     ethr =  1.62E-04,  avg # of iterations =  6.7

     total cpu time spent up to now is      124.8 secs

     total energy              =   -6056.51838134 Ry
     estimated scf accuracy    <       0.84271602 Ry

     total magnetization       =    60.83 Bohr mag/cell
     absolute magnetization    =    69.48 Bohr mag/cell

     iteration #  8     ecut=    50.00 Ry     beta= 0.70
     Davidson diagonalization with overlap
     ethr =  1.62E-04,  avg # of iterations =  1.8

     total cpu time spent up to now is      139.3 secs

     total energy              =   -6056.53511076 Ry
     estimated scf accuracy    <       0.17985331 Ry

     total magnetization       =    60.85 Bohr mag/cell
     absolute magnetization    =    69.37 Bohr mag/cell

     iteration #  9     ecut=    50.00 Ry     beta= 0.70
     Davidson diagonalization with overlap
                                                                                                                                                                                                                                                                                                                                                                                                                                                                                            ethr =  4.30E-05,  avg # of iterations =  2.3

     total cpu time spent up to now is     3057.6 secs

     total energy              =   -6056.54319728 Ry
     estimated scf accuracy    <       0.18131840 Ry

     total magnetization       =    61.32 Bohr mag/cell
     absolute magnetization    =    69.28 Bohr mag/cell

     iteration # 11     ecut=    50.00 Ry     beta= 0.70
     Davidson diagonalization with overlap
     ethr =  4.30E-05,  avg # of iterations =  1.6

     total cpu time spent up to now is     3071.9 secs

     total energy              =   -6056.53915118 Ry
     estimated scf accuracy    <       0.10726131 Ry

     total magnetization       =    61.32 Bohr mag/cell
     absolute magnetization    =    69.19 Bohr mag/cell

     iteration # 12     ecut=    50.00 Ry     beta= 0.70
     Davidson diagonalization with overlap
     c_bands:  4 eigenvalues not converged
     ethr =  3.20E-05,  avg # of iterations =  2.8

     negative rho (up, down):  4.359E-08 0.000E+00

     total cpu time spent up to now is     3087.8 secs

     total energy              =   -6056.54118177 Ry
     estimated scf accuracy    <       0.09488959 Ry

     total magnetization       =    61.34 Bohr mag/cell
     absolute magnetization    =    69.06 Bohr mag/cell

     iteration # 13     ecut=    50.00 Ry     beta= 0.70
     Davidson diagonalization with overlap
     ethr =  2.83E-05,  avg # of iterations =  1.7

     total cpu time spent up to now is     3102.4 secs

     total energy              =   -6056.53802027 Ry
     estimated scf accuracy    <       0.09671847 Ry

     total magnetization       =    61.32 Bohr mag/cell
     absolute magnetization    =    68.99 Bohr mag/cell

     iteration # 14     ecut=    50.00 Ry     beta= 0.70
     Davidson diagonalization with overlap
     ethr =  2.83E-05,  avg # of iterations =  2.1

     negative rho (up, down):  1.322E-03 6.215E-04

     total cpu time spent up to now is     3118.5 secs

     total energy              =   -6056.53169878 Ry
     estimated scf accuracy    <       0.06224362 Ry

     total magnetization       =    61.32 Bohr mag/cell
     absolute magnetization    =    69.00 Bohr mag/cell

     iteration # 15     ecut=    50.00 Ry     beta= 0.70
     Davidson diagonalization with overlap
     c_bands:  3 eigenvalues not converged
     c_bands:  3 eigenvalues not converged
     ethr =  1.86E-05,  avg # of iterations =  4.5

     negative rho (up, down):  8.977E-03 7.460E-03

     total cpu time spent up to now is     3136.0 secs

     total energy              =   -6056.52976455 Ry
     estimated scf accuracy    <       0.12262240 Ry

     total magnetization       =    61.32 Bohr mag/cell
     absolute magnetization    =    68.92 Bohr mag/cell

     iteration # 16     ecut=    50.00 Ry     beta= 0.70
     Davidson diagonalization with overlap
     ethr =  1.86E-05,  avg # of iterations =  1.5

     negative rho (up, down):  1.558E-02 1.390E-02

     total cpu time spent up to now is     3151.1 secs

     total energy              =   -6056.52962884 Ry
     estimated scf accuracy    <       0.02267844 Ry

     total magnetization       =    61.32 Bohr mag/cell
     absolute magnetization    =    68.90 Bohr mag/cell

     iteration # 17     ecut=    50.00 Ry     beta= 0.70
     Davidson diagonalization with overlap
     c_bands:  3 eigenvalues not converged
     c_bands:  1 eigenvalues not converged
     c_bands:  1 eigenvalues not converged
     c_bands:  1 eigenvalues not converged
     c_bands:  3 eigenvalues not converged
     ethr =  6.77E-06,  avg # of iterations =  9.7

     negative rho (up, down):  1.814E-02 1.647E-02

     total cpu time spent up to now is     3174.9 secs

     total energy              =   -6056.52763926 Ry
     estimated scf accuracy    <       0.04814995 Ry

     total magnetization       =    61.32 Bohr mag/cell
     absolute magnetization    =    68.89 Bohr mag/cell

     iteration # 18     ecut=    50.00 Ry     beta= 0.70
     Davidson diagonalization with overlap
     ethr =  6.77E-06,  avg # of iterations =  1.5

     negative rho (up, down):  1.215E-02 1.076E-02

     total cpu time spent up to now is     3189.5 secs

     total energy              =   -6056.52784275 Ry
     estimated scf accuracy    <       0.01755329 Ry

     total magnetization       =    61.32 Bohr mag/cell
     absolute magnetization    =    68.87 Bohr mag/cell

     iteration # 19     ecut=    50.00 Ry     beta= 0.70
     Davidson diagonalization with overlap
     ethr =  5.24E-06,  avg # of iterations =  1.8

     negative rho (up, down):  1.867E-02 1.718E-02

     total cpu time spent up to now is     3204.4 secs

     total energy              =   -6056.52588887 Ry
     estimated scf accuracy    <       0.01155267 Ry

     total magnetization       =    61.32 Bohr mag/cell
     absolute magnetization    =    68.87 Bohr mag/cell

     iteration # 20     ecut=    50.00 Ry     beta= 0.70
     Davidson diagonalization with overlap
     ethr =  3.45E-06,  avg # of iterations =  3.3

     negative rho (up, down):  2.090E-02 1.987E-02

     total cpu time spent up to now is     3220.8 secs

     total energy              =   -6056.52525416 Ry
     estimated scf accuracy    <       0.01791808 Ry

     total magnetization       =    61.32 Bohr mag/cell
     absolute magnetization    =    68.86 Bohr mag/cell

     iteration # 21     ecut=    50.00 Ry     beta= 0.70
     Davidson diagonalization with overlap
     ethr =  3.45E-06,  avg # of iterations =  1.5

     negative rho (up, down):  2.153E-02 2.051E-02

     total cpu time spent up to now is     3236.1 secs

     total energy              =   -6056.52544492 Ry
     estimated scf accuracy    <       0.01117047 Ry

     total magnetization       =    61.32 Bohr mag/cell
     absolute magnetization    =    68.86 Bohr mag/cell

     iteration # 22     ecut=    50.00 Ry     beta= 0.70
     Davidson diagonalization with overlap
     ethr =  3.33E-06,  avg # of iterations =  1.2

     negative rho (up, down):  1.716E-02 1.628E-02

     total cpu time spent up to now is     3250.2 secs

     total energy              =   -6056.52551299 Ry
     estimated scf accuracy    <       0.00253718 Ry

     total magnetization       =    61.32 Bohr mag/cell
     absolute magnetization    =    68.86 Bohr mag/cell

     iteration # 23     ecut=    50.00 Ry     beta= 0.70
     Davidson diagonalization with overlap
     c_bands:  2 eigenvalues not converged
     ethr =  7.57E-07,  avg # of iterations =  4.4

     negative rho (up, down):  1.394E-02 1.317E-02

     total cpu time spent up to now is     3268.0 secs

     total energy              =   -6056.52554057 Ry
     estimated scf accuracy    <       0.00138281 Ry

     total magnetization       =    61.32 Bohr mag/cell
     absolute magnetization    =    68.86 Bohr mag/cell

     iteration # 24     ecut=    50.00 Ry     beta= 0.70
     Davidson diagonalization with overlap
     c_bands:  1 eigenvalues not converged
     ethr =  4.13E-07,  avg # of iterations =  2.7

     negative rho (up, down):  8.162E-03 7.470E-03

     total cpu time spent up to now is     3283.9 secs

     total energy              =   -6056.52559738 Ry
     estimated scf accuracy    <       0.00175154 Ry

     total magnetization       =    61.32 Bohr mag/cell
     absolute magnetization    =    68.87 Bohr mag/cell

     iteration # 25     ecut=    50.00 Ry     beta= 0.70
     Davidson diagonalization with overlap
     ethr =  4.13E-07,  avg # of iterations =  1.7

     negative rho (up, down):  7.717E-03 7.020E-03

     total cpu time spent up to now is     3299.7 secs

     total energy              =   -6056.52553581 Ry
     estimated scf accuracy    <       0.00124729 Ry

     total magnetization       =    61.32 Bohr mag/cell
     absolute magnetization    =    68.87 Bohr mag/cell

     iteration # 26     ecut=    50.00 Ry     beta= 0.70
     Davidson diagonalization with overlap
     ethr =  3.72E-07,  avg # of iterations =  1.1

     negative rho (up, down):  4.769E-03 3.990E-03

     total cpu time spent up to now is     3313.4 secs

     total energy              =   -6056.52558234 Ry
     estimated scf accuracy    <       0.00045666 Ry

     total magnetization       =    61.32 Bohr mag/cell
     absolute magnetization    =    68.87 Bohr mag/cell

     iteration # 27     ecut=    50.00 Ry     beta= 0.70
     Davidson diagonalization with overlap
     ethr =  1.36E-07,  avg # of iterations =  3.9

     negative rho (up, down):  4.704E-03 3.848E-03

     total cpu time spent up to now is     3330.7 secs

     total energy              =   -6056.52568145 Ry
     estimated scf accuracy    <       0.00045316 Ry

     total magnetization       =    61.32 Bohr mag/cell
     absolute magnetization    =    68.87 Bohr mag/cell

     iteration # 28     ecut=    50.00 Ry     beta= 0.70
     Davidson diagonalization with overlap
     ethr =  1.35E-07,  avg # of iterations =  1.5

     negative rho (up, down):  4.445E-03 3.588E-03

     total cpu time spent up to now is     3345.1 secs

     total energy              =   -6056.52567012 Ry
     estimated scf accuracy    <       0.00021670 Ry

     total magnetization       =    61.32 Bohr mag/cell
     absolute magnetization    =    68.87 Bohr mag/cell

     iteration # 29     ecut=    50.00 Ry     beta= 0.70
     Davidson diagonalization with overlap
     ethr =  6.47E-08,  avg # of iterations =  2.2

     negative rho (up, down):  4.088E-03 3.211E-03

     total cpu time spent up to now is     3361.6 secs

     total energy              =   -6056.52566653 Ry
     estimated scf accuracy    <       0.00012178 Ry

     total magnetization       =    61.32 Bohr mag/cell
     absolute magnetization    =    68.87 Bohr mag/cell

     iteration # 30     ecut=    50.00 Ry     beta= 0.70
     Davidson diagonalization with overlap
     ethr =  3.64E-08,  avg # of iterations =  3.4

     negative rho (up, down):  2.887E-03 1.779E-03

     total cpu time spent up to now is     3377.5 secs

     total energy              =   -6056.52567629 Ry
     estimated scf accuracy    <       0.00007197 Ry

     total magnetization       =    61.32 Bohr mag/cell
     absolute magnetization    =    68.87 Bohr mag/cell

     iteration # 31     ecut=    50.00 Ry     beta= 0.70
     Davidson diagonalization with overlap
     ethr =  2.15E-08,  avg # of iterations =  2.9

     negative rho (up, down):  2.904E-03 1.789E-03

     total cpu time spent up to now is     3394.5 secs

     total energy              =   -6056.52568012 Ry
     estimated scf accuracy    <       0.00007159 Ry

     total magnetization       =    61.32 Bohr mag/cell
     absolute magnetization    =    68.86 Bohr mag/cell

     iteration # 32     ecut=    50.00 Ry     beta= 0.70
     Davidson diagonalization with overlap
     ethr =  2.14E-08,  avg # of iterations =  1.6

     negative rho (up, down):  2.951E-03 1.914E-03

     total cpu time spent up to now is     3408.9 secs

     total energy              =   -6056.52568548 Ry
     estimated scf accuracy    <       0.00006455 Ry

     total magnetization       =    61.32 Bohr mag/cell
     absolute magnetization    =    68.86 Bohr mag/cell

     iteration # 33     ecut=    50.00 Ry     beta= 0.70
     Davidson diagonalization with overlap
     ethr =  1.93E-08,  avg # of iterations =  1.8

     negative rho (up, down):  2.873E-03 1.841E-03

     total cpu time spent up to now is     3425.2 secs

     total energy              =   -6056.52568692 Ry
     estimated scf accuracy    <       0.00005594 Ry

     total magnetization       =    61.32 Bohr mag/cell
     absolute magnetization    =    68.86 Bohr mag/cell

     iteration # 34     ecut=    50.00 Ry     beta= 0.70
     Davidson diagonalization with overlap
     ethr =  1.67E-08,  avg # of iterations =  1.1

     negative rho (up, down):  2.831E-03 1.747E-03

     total cpu time spent up to now is     3438.7 secs

     total energy              =   -6056.52568586 Ry
     estimated scf accuracy    <       0.00002936 Ry

     total magnetization       =    61.32 Bohr mag/cell
     absolute magnetization    =    68.86 Bohr mag/cell

     iteration # 35     ecut=    50.00 Ry     beta= 0.70
     Davidson diagonalization with overlap
     ethr =  8.76E-09,  avg # of iterations =  1.5

     negative rho (up, down):  2.762E-03 1.684E-03

     total cpu time spent up to now is     3454.0 secs

     total energy              =   -6056.52568689 Ry
     estimated scf accuracy    <       0.00000882 Ry

     total magnetization       =    61.32 Bohr mag/cell
     absolute magnetization    =    68.86 Bohr mag/cell

     iteration # 36     ecut=    50.00 Ry     beta= 0.70
     Davidson diagonalization with overlap
     ethr =  2.63E-09,  avg # of iterations =  5.0

     negative rho (up, down):  2.656E-03 1.585E-03

     total cpu time spent up to now is     3472.3 secs

     total energy              =   -6056.52568665 Ry
     estimated scf accuracy    <       0.00000967 Ry

     total magnetization       =    61.32 Bohr mag/cell
     absolute magnetization    =    68.86 Bohr mag/cell

     iteration # 37     ecut=    50.00 Ry     beta= 0.70
     Davidson diagonalization with overlap
     ethr =  2.63E-09,  avg # of iterations =  2.0

     negative rho (up, down):  2.668E-03 1.596E-03

     total cpu time spent up to now is     3488.4 secs

     total energy              =   -6056.52568689 Ry
     estimated scf accuracy    <       0.00000741 Ry

     total magnetization       =    61.32 Bohr mag/cell
     absolute magnetization    =    68.86 Bohr mag/cell

     iteration # 38     ecut=    50.00 Ry     beta= 0.70
     Davidson diagonalization with overlap
     ethr =  2.21E-09,  avg # of iterations =  1.3

     negative rho (up, down):  2.619E-03 1.542E-03

     total cpu time spent up to now is     3502.8 secs

     total energy              =   -6056.52568673 Ry
     estimated scf accuracy    <       0.00000604 Ry

     total magnetization       =    61.32 Bohr mag/cell
     absolute magnetization    =    68.86 Bohr mag/cell

     iteration # 39     ecut=    50.00 Ry     beta= 0.70
     Davidson diagonalization with overlap
     ethr =  1.80E-09,  avg # of iterations =  1.2

     negative rho (up, down):  2.523E-03 1.438E-03

     total cpu time spent up to now is     3517.0 secs

     total energy              =   -6056.52568668 Ry
     estimated scf accuracy    <       0.00000263 Ry

     total magnetization       =    61.32 Bohr mag/cell
     absolute magnetization    =    68.86 Bohr mag/cell

     iteration # 40     ecut=    50.00 Ry     beta= 0.70
     Davidson diagonalization with overlap
     ethr =  7.85E-10,  avg # of iterations =  3.2

     negative rho (up, down):  2.486E-03 1.398E-03

     total cpu time spent up to now is     3533.7 secs

     total energy              =   -6056.52568665 Ry
     estimated scf accuracy    <       0.00000546 Ry

     total magnetization       =    61.32 Bohr mag/cell
     absolute magnetization    =    68.86 Bohr mag/cell

     iteration # 41     ecut=    50.00 Ry     beta= 0.70
     Davidson diagonalization with overlap
     ethr =  7.85E-10,  avg # of iterations =  1.2

     negative rho (up, down):  2.449E-03 1.351E-03

     total cpu time spent up to now is     3548.5 secs

     total energy              =   -6056.52568681 Ry
     estimated scf accuracy    <       0.00000203 Ry

     total magnetization       =    61.32 Bohr mag/cell
     absolute magnetization    =    68.86 Bohr mag/cell

     iteration # 42     ecut=    50.00 Ry     beta= 0.70
     Davidson diagonalization with overlap
     ethr =  6.05E-10,  avg # of iterations =  1.8

     negative rho (up, down):  2.337E-03 1.232E-03

     total cpu time spent up to now is     3563.7 secs

     total energy              =   -6056.52568665 Ry
     estimated scf accuracy    <       0.00000350 Ry

     total magnetization       =    61.32 Bohr mag/cell
     absolute magnetization    =    68.86 Bohr mag/cell

     iteration # 43     ecut=    50.00 Ry     beta= 0.70
     Davidson diagonalization with overlap
     ethr =  6.05E-10,  avg # of iterations =  1.4

     negative rho (up, down):  2.289E-03 1.185E-03

     total cpu time spent up to now is     3578.4 secs

     total energy              =   -6056.52568671 Ry
     estimated scf accuracy    <       0.00000129 Ry

     total magnetization       =    61.32 Bohr mag/cell
     absolute magnetization    =    68.86 Bohr mag/cell

     iteration # 44     ecut=    50.00 Ry     beta= 0.70
     Davidson diagonalization with overlap
     ethr =  3.84E-10,  avg # of iterations =  1.6

     negative rho (up, down):  2.246E-03 1.142E-03

     total cpu time spent up to now is     3593.7 secs

     total energy              =   -6056.52568673 Ry
     estimated scf accuracy    <       0.00000059 Ry

     total magnetization       =    61.32 Bohr mag/cell
     absolute magnetization    =    68.86 Bohr mag/cell

     iteration # 45     ecut=    50.00 Ry     beta= 0.70
     Davidson diagonalization with overlap
     ethr =  1.77E-10,  avg # of iterations =  3.0

     negative rho (up, down):  2.242E-03 1.137E-03

     total cpu time spent up to now is     3610.2 secs

     total energy              =   -6056.52568673 Ry
     estimated scf accuracy    <       0.00000082 Ry

     total magnetization       =    61.32 Bohr mag/cell
     absolute magnetization    =    68.86 Bohr mag/cell

     iteration # 46     ecut=    50.00 Ry     beta= 0.70
     Davidson diagonalization with overlap
     ethr =  1.77E-10,  avg # of iterations =  1.5

     negative rho (up, down):  2.223E-03 1.118E-03

     total cpu time spent up to now is     3624.7 secs

     total energy              =   -6056.52568671 Ry
     estimated scf accuracy    <       0.00000016 Ry

     total magnetization       =    61.32 Bohr mag/cell
     absolute magnetization    =    68.86 Bohr mag/cell

     iteration # 47     ecut=    50.00 Ry     beta= 0.70
     Davidson diagonalization with overlap
     ethr =  4.67E-11,  avg # of iterations =  5.7

     negative rho (up, down):  2.230E-03 1.126E-03

     total cpu time spent up to now is     3643.6 secs

     total energy              =   -6056.52568672 Ry
     estimated scf accuracy    <       0.00000060 Ry

     total magnetization       =    61.32 Bohr mag/cell
     absolute magnetization    =    68.86 Bohr mag/cell

     iteration # 48     ecut=    50.00 Ry     beta= 0.70
     Davidson diagonalization with overlap
     ethr =  4.67E-11,  avg # of iterations =  1.8

     negative rho (up, down):  2.217E-03 1.114E-03

     total cpu time spent up to now is     3670.7 secs

     total energy              =   -6056.52568672 Ry
     estimated scf accuracy    <       0.00000014 Ry

     total magnetization       =    61.32 Bohr mag/cell
     absolute magnetization    =    68.86 Bohr mag/cell

     iteration # 49     ecut=    50.00 Ry     beta= 0.70
     Davidson diagonalization with overlap
     ethr =  4.03E-11,  avg # of iterations =  1.2

     negative rho (up, down):  2.209E-03 1.106E-03

     total cpu time spent up to now is     3685.0 secs

     total energy              =   -6056.52568672 Ry
     estimated scf accuracy    <       0.00000002 Ry

     total magnetization       =    61.32 Bohr mag/cell
     absolute magnetization    =    68.86 Bohr mag/cell

     iteration # 50     ecut=    50.00 Ry     beta= 0.70
     Davidson diagonalization with overlap
     ethr =  7.28E-12,  avg # of iterations =  6.9

     negative rho (up, down):  2.210E-03 1.108E-03

     total cpu time spent up to now is     3705.7 secs

     total energy              =   -6056.52568673 Ry
     estimated scf accuracy    <       0.00000008 Ry

     total magnetization       =    61.32 Bohr mag/cell
     absolute magnetization    =    68.86 Bohr mag/cell

     iteration # 51     ecut=    50.00 Ry     beta= 0.70
     Davidson diagonalization with overlap
     ethr =  7.28E-12,  avg # of iterations =  1.8

     negative rho (up, down):  2.213E-03 1.113E-03

     Magnetic moment per site  (integrated on atomic sphere of radius R)
     atom   1 (R=0.104)  charge=  6.2725  magn=  1.7724
     atom   2 (R=0.104)  charge=  6.2728  magn=  1.7757
     atom   3 (R=0.104)  charge=  6.2730  magn=  1.7735
     atom   4 (R=0.104)  charge=  6.2732  magn=  1.7777
     atom   5 (R=0.104)  charge=  6.2730  magn=  1.7782
     atom   6 (R=0.104)  charge=  6.2731  magn=  1.7777
     atom   7 (R=0.104)  charge=  6.2726  magn=  1.7772
     atom   8 (R=0.104)  charge=  6.2728  magn=  1.7704
     atom   9 (R=0.104)  charge=  6.2734  magn=  1.7728
     atom  10 (R=0.104)  charge=  6.2796  magn=  1.7122
     atom  11 (R=0.104)  charge=  6.2803  magn=  1.6913
     atom  12 (R=0.104)  charge=  6.2803  magn=  1.7102
     atom  13 (R=0.104)  charge=  6.2800  magn=  1.7102
     atom  14 (R=0.104)  charge=  6.2804  magn=  1.7003
     atom  15 (R=0.104)  charge=  6.2805  magn=  1.6997
     atom  16 (R=0.104)  charge=  6.2797  magn=  1.6954
     atom  17 (R=0.104)  charge=  6.2803  magn=  1.7084
     atom  18 (R=0.104)  charge=  6.2802  magn=  1.7028
     atom  19 (R=0.104)  charge=  6.2772  magn=  1.7143
     atom  20 (R=0.104)  charge=  6.2796  magn=  1.6903
     atom  21 (R=0.104)  charge=  6.2788  magn=  1.7117
     atom  22 (R=0.104)  charge=  6.2805  magn=  1.6936
     atom  23 (R=0.104)  charge=  6.2805  magn=  1.6942
     atom  24 (R=0.104)  charge=  6.2800  magn=  1.7057
     atom  25 (R=0.104)  charge=  6.2799  magn=  1.6739
     atom  26 (R=0.104)  charge=  6.2759  magn=  1.7148
     atom  27 (R=0.104)  charge=  6.2822  magn=  1.6642
     atom  28 (R=0.104)  charge=  6.2776  magn=  1.6859
     atom  29 (R=0.104)  charge=  6.3002  magn=  1.1479
     atom  30 (R=0.104)  charge=  6.2737  magn=  1.7864
     atom  31 (R=0.104)  charge=  6.2818  magn=  1.7488
     atom  32 (R=0.104)  charge=  6.2743  magn=  1.7780
     atom  33 (R=0.104)  charge=  6.2766  magn=  1.7844
     atom  34 (R=0.104)  charge=  6.2734  magn=  1.7993
     atom  35 (R=0.104)  charge=  6.2768  magn=  1.7809
     atom  36 (R=0.104)  charge=  6.2721  magn=  1.7739
     atom  37 (R=0.061)  charge=  0.8456  magn= -0.0224
     atom  38 (R=0.070)  charge=  3.2246  magn= -0.0110
     atom  39 (R=0.061)  charge=  0.5079  magn= -0.0044

     total cpu time spent up to now is     3721.1 secs

     End of self-consistent calculation

 ------ SPIN UP ------------


          k = 0.0000 0.0000 0.0000 ( 51087 PWs)   bands (ev):

   -21.2805  -9.8434  -7.4762  -6.5537  -6.1102  -5.5265  -5.0072  -4.6076
    -4.5739  -4.5733  -4.5710  -4.5696  -4.5570  -4.5098  -4.2165  -4.0464
    -4.0420  -4.0400  -4.0372  -4.0155  -3.9774  -3.5328  -3.5288  -3.5231
    -3.5174  -3.4992  -3.4858  -3.3980  -3.3946  -3.3866  -3.3821  -3.3770
    -3.3622  -3.3212  -3.3128  -3.0067  -3.0049  -3.0031  -3.0020  -2.9484
    -2.9423  -2.9382  -2.9337  -2.9296  -2.9276  -2.9232  -2.9112  -2.7736
    -2.7697  -2.7107  -2.7059  -2.7043  -2.7006  -2.6909  -2.6871  -2.6695
    -2.6672  -2.6637  -2.6564  -2.5792  -2.5657  -2.5644  -2.5557  -2.5270
    -2.5096  -2.0623  -2.0450  -2.0246  -2.0227  -2.0224  -1.9489  -1.9381
    -1.9172  -1.8934  -1.8789  -1.8732  -1.8720  -1.8438  -1.8419  -1.8372
    -1.7948  -1.7914  -1.7678  -1.7473  -1.7431  -1.7199  -1.7147  -1.7125
    -1.7097  -1.6994  -1.6944  -1.6832  -1.6764  -1.6674  -1.6659  -1.6611
    -1.6564  -1.6552  -1.6496  -1.6492  -1.6470  -1.6437  -1.6382  -1.6348
    -1.6308  -1.5971  -1.5788  -1.5590  -1.5552  -1.4867  -1.4816  -1.3996
    -1.3108  -1.2045  -1.2020  -1.1973  -1.1967  -1.1808  -1.1674  -1.1573
    -1.1517  -1.1252  -1.1150  -1.1076  -1.0707  -1.0440  -0.9903  -0.9809
    -0.9665  -0.9548  -0.8847  -0.7940  -0.7836  -0.7691  -0.7550  -0.7510
    -0.7316  -0.7115  -0.7091  -0.7068  -0.7052  -0.6912  -0.6391  -0.5869
    -0.5499  -0.4663  -0.4624  -0.4578  -0.4219  -0.4086  -0.4020  -0.3949
    -0.3912  -0.3885  -0.3866  -0.3785  -0.3739  -0.3732  -0.3708  -0.3656
    -0.3541  -0.3501  -0.3259  -0.3232  -0.3163  -0.3135  -0.3123  -0.2961
    -0.2872  -0.2860  -0.2652  -0.2596  -0.2571  -0.2507  -0.2387  -0.2335
    -0.2323  -0.2306  -0.1990  -0.1849  -0.1730  -0.1609  -0.1552  -0.1533
    -0.1492  -0.1444  -0.1365  -0.1250  -0.1118  -0.1002  -0.0683  -0.0657
    -0.0625  -0.0578   0.0020   0.0045   0.0088   0.0099   0.0327   0.0649
     0.4175   0.9018

          k = 0.0000 0.2309 0.0000 ( 51134 PWs)   bands (ev):

   -21.2805  -9.8432  -7.3292  -6.5172  -6.0384  -5.5423  -5.2806  -4.9992
    -4.8255  -4.8132  -4.4525  -4.3043  -4.2361  -4.2313  -4.1644  -4.1139
    -4.0906  -4.0581  -3.9582  -3.9220  -3.9024  -3.6485  -3.5445  -3.5263
    -3.4481  -3.4223  -3.4166  -3.4031  -3.3989  -3.3823  -3.3755  -3.3612
    -3.3225  -3.2819  -3.2771  -3.2530  -3.2465  -3.0474  -3.0231  -3.0185
    -2.9676  -2.9656  -2.9590  -2.9467  -2.8698  -2.8394  -2.8289  -2.8015
    -2.7942  -2.7886  -2.7648  -2.7441  -2.6737  -2.6580  -2.6289  -2.6069
    -2.5780  -2.5629  -2.5518  -2.5452  -2.5170  -2.5075  -2.4887  -2.4810
    -2.4164  -2.1478  -2.1409  -2.1196  -2.1045  -2.0851  -2.0173  -2.0044
    -1.9922  -1.9906  -1.9713  -1.9668  -1.9492  -1.9255  -1.9115  -1.8599
    -1.8520  -1.8406  -1.8269  -1.8116  -1.7808  -1.7783  -1.7718  -1.7644
    -1.7506  -1.7425  -1.7393  -1.7344  -1.7184  -1.6846  -1.6540  -1.6437
    -1.6299  -1.5781  -1.5621  -1.5602  -1.5435  -1.5383  -1.5326  -1.5212
    -1.5079  -1.5032  -1.4980  -1.4921  -1.4679  -1.4624  -1.4523  -1.4328
    -1.4262  -1.4160  -1.3872  -1.3616  -1.3229  -1.2895  -1.2342  -1.2257
    -1.2175  -1.2069  -1.1963  -1.1892  -1.1846  -1.1780  -1.0706  -1.0326
    -1.0238  -1.0042  -0.9649  -0.9305  -0.9231  -0.8741  -0.8619  -0.8363
    -0.8002  -0.7405  -0.7357  -0.7129  -0.7017  -0.6825  -0.6777  -0.6591
    -0.6465  -0.6211  -0.6190  -0.5800  -0.5597  -0.5527  -0.5388  -0.5220
    -0.5100  -0.4905  -0.4614  -0.4554  -0.4283  -0.4159  -0.3995  -0.3869
    -0.3833  -0.3775  -0.3641  -0.3595  -0.3506  -0.3323  -0.3255  -0.3162
    -0.2694  -0.2521  -0.2462  -0.2140  -0.2010  -0.1955  -0.1626  -0.1393
    -0.1365  -0.1271  -0.1193  -0.1060  -0.0935  -0.0848  -0.0772  -0.0477
    -0.0373   0.0009   0.0126   0.0162   0.0389   0.0440   0.0822   0.1007
     0.1079   0.1478   0.3769   0.3961   0.5000   0.5932   0.6424   0.6840
     0.7653   0.7722

          k = 0.0000 0.4619 0.0000 ( 51204 PWs)   bands (ev):

   -21.2805  -9.8429  -6.9130  -6.4844  -6.1499  -5.8350  -5.3950  -5.0192
    -4.9622  -4.9487  -4.7692  -4.1172  -4.0913  -4.0673  -4.0425  -3.9795
    -3.8788  -3.8742  -3.8323  -3.7461  -3.7408  -3.7294  -3.6411  -3.5631
    -3.5540  -3.5528  -3.5461  -3.4945  -3.4473  -3.4367  -3.4292  -3.2860
    -3.2711  -3.2629  -3.2547  -3.2302  -3.2246  -3.1226  -3.1133  -3.1009
    -3.0983  -3.0938  -2.9712  -2.8960  -2.8793  -2.8026  -2.7852  -2.7692
    -2.7481  -2.7183  -2.7094  -2.7040  -2.6927  -2.6701  -2.6209  -2.6051
    -2.5747  -2.5564  -2.5340  -2.4147  -2.3954  -2.3926  -2.3653  -2.3333
    -2.2827  -2.2705  -2.2610  -2.2459  -2.1799  -2.1485  -2.1189  -2.1119
    -2.1085  -2.1003  -2.0815  -2.0793  -2.0693  -2.0421  -2.0123  -1.9806
    -1.9728  -1.9459  -1.9410  -1.9188  -1.8968  -1.8644  -1.8335  -1.7923
    -1.7866  -1.7641  -1.7575  -1.7353  -1.6966  -1.6811  -1.6734  -1.6694
    -1.6577  -1.6298  -1.6227  -1.6058  -1.5887  -1.5858  -1.5721  -1.5609
    -1.5460  -1.5253  -1.4924  -1.4527  -1.4134  -1.4076  -1.4002  -1.3676
    -1.3438  -1.3210  -1.3057  -1.2891  -1.2558  -1.2457  -1.2390  -1.2340
    -1.2289  -1.2215  -1.2152  -1.2047  -1.1958  -1.1847  -1.1743  -1.1690
    -1.1373  -1.1068  -1.0729  -1.0496  -1.0142  -0.9970  -0.9831  -0.9422
    -0.9270  -0.9163  -0.8800  -0.8723  -0.8462  -0.8227  -0.7956  -0.7815
    -0.7366  -0.7292  -0.6836  -0.6687  -0.6519  -0.6362  -0.6228  -0.5578
    -0.5302  -0.4842  -0.4744  -0.4601  -0.4566  -0.4500  -0.4375  -0.4341
    -0.4156  -0.4063  -0.3404  -0.3150  -0.2964  -0.2942  -0.2867  -0.2827
    -0.2657  -0.2485  -0.2356  -0.2196  -0.2140  -0.1904  -0.1295  -0.1089
    -0.1048  -0.0909  -0.0798  -0.0357  -0.0127   0.0138   0.0245   0.0611
     0.0708   0.1099   0.1170   0.1347   0.1394   0.1426   0.1678   0.1762
     0.2424   0.2739   0.4123   0.8637   1.1738   1.3583   1.3860   1.4291
     1.6828   1.7539

          k = 0.2000-0.1155 0.0000 ( 51134 PWs)   bands (ev):

   -21.2805  -9.8442  -7.3279  -6.5168  -6.0317  -5.5244  -5.3025  -5.0124
    -4.8154  -4.8001  -4.4588  -4.3334  -4.2339  -4.2293  -4.1677  -4.1202
    -4.0782  -4.0401  -3.9709  -3.9165  -3.8975  -3.6517  -3.5413  -3.5297
    -3.4516  -3.4308  -3.4051  -3.4013  -3.3974  -3.3872  -3.3759  -3.3586
    -3.3244  -3.2788  -3.2769  -3.2503  -3.2473  -3.0518  -3.0232  -3.0164
    -2.9676  -2.9660  -2.9552  -2.9495  -2.8796  -2.8362  -2.8293  -2.8035
    -2.7942  -2.7927  -2.7569  -2.7446  -2.6722  -2.6576  -2.6392  -2.5993
    -2.5857  -2.5561  -2.5531  -2.5269  -2.5224  -2.4979  -2.4917  -2.4815
    -2.4253  -2.1465  -2.1417  -2.1207  -2.1094  -2.0867  -2.0192  -2.0051
    -1.9949  -1.9875  -1.9817  -1.9632  -1.9490  -1.9299  -1.9095  -1.8598
    -1.8478  -1.8400  -1.8290  -1.7973  -1.7833  -1.7762  -1.7671  -1.7621
    -1.7522  -1.7458  -1.7377  -1.7348  -1.7176  -1.6898  -1.6606  -1.6423
    -1.6272  -1.5850  -1.5665  -1.5554  -1.5476  -1.5414  -1.5317  -1.5277
    -1.5123  -1.5006  -1.4969  -1.4915  -1.4826  -1.4696  -1.4571  -1.4411
    -1.4221  -1.4116  -1.3983  -1.3481  -1.3037  -1.2786  -1.2388  -1.2225
    -1.2143  -1.2078  -1.1952  -1.1919  -1.1826  -1.1687  -1.0452  -1.0299
    -1.0083  -0.9921  -0.9649  -0.9351  -0.9143  -0.8973  -0.8640  -0.8326
    -0.8105  -0.7568  -0.7277  -0.7219  -0.7091  -0.6852  -0.6651  -0.6488
    -0.6468  -0.6290  -0.6068  -0.5852  -0.5626  -0.5543  -0.5371  -0.5336
    -0.5275  -0.4842  -0.4609  -0.4572  -0.4423  -0.4090  -0.3984  -0.3833
    -0.3821  -0.3759  -0.3698  -0.3650  -0.3478  -0.3367  -0.3261  -0.3037
    -0.2698  -0.2451  -0.2439  -0.2143  -0.2003  -0.1822  -0.1672  -0.1388
    -0.1347  -0.1293  -0.1198  -0.1085  -0.0911  -0.0844  -0.0778  -0.0527
    -0.0290   0.0045   0.0151   0.0260   0.0407   0.0425   0.0870   0.0932
     0.1235   0.1546   0.3834   0.3906   0.4545   0.5597   0.6500   0.6569
     0.7101   0.8585

          k = 0.2000 0.1155 0.0000 ( 51134 PWs)   bands (ev):

   -21.2805  -9.8443  -7.3278  -6.5171  -6.0308  -5.5237  -5.2974  -5.0227
    -4.8146  -4.7945  -4.4639  -4.3342  -4.2340  -4.2292  -4.1677  -4.1199
    -4.0751  -4.0408  -3.9713  -3.9147  -3.8981  -3.6558  -3.5381  -3.5297
    -3.4554  -3.4334  -3.4046  -3.4027  -3.3946  -3.3872  -3.3734  -3.3572
    -3.3264  -3.2792  -3.2747  -3.2501  -3.2474  -3.0481  -3.0218  -3.0163
    -2.9675  -2.9642  -2.9561  -2.9499  -2.8740  -2.8339  -2.8304  -2.8041
    -2.7967  -2.7910  -2.7594  -2.7493  -2.6710  -2.6592  -2.6444  -2.5933
    -2.5873  -2.5557  -2.5534  -2.5271  -2.5189  -2.5048  -2.4880  -2.4798
    -2.4258  -2.1481  -2.1427  -2.1143  -2.1069  -2.0868  -2.0149  -2.0020
    -1.9909  -1.9870  -1.9807  -1.9652  -1.9563  -1.9344  -1.9128  -1.8618
    -1.8496  -1.8340  -1.8299  -1.7993  -1.7829  -1.7776  -1.7660  -1.7576
    -1.7534  -1.7459  -1.7379  -1.7330  -1.7134  -1.6916  -1.6699  -1.6390
    -1.6252  -1.5934  -1.5595  -1.5578  -1.5471  -1.5420  -1.5324  -1.5217
    -1.5094  -1.5033  -1.4997  -1.4961  -1.4835  -1.4639  -1.4519  -1.4353
    -1.4252  -1.4164  -1.4045  -1.3462  -1.3069  -1.2836  -1.2374  -1.2230
    -1.2157  -1.2064  -1.1936  -1.1891  -1.1835  -1.1674  -1.0802  -1.0370
    -1.0107  -0.9954  -0.9519  -0.9344  -0.9168  -0.8881  -0.8581  -0.8394
    -0.8019  -0.7414  -0.7274  -0.7167  -0.6986  -0.6860  -0.6794  -0.6593
    -0.6469  -0.6265  -0.6102  -0.5766  -0.5594  -0.5534  -0.5357  -0.5306
    -0.5218  -0.4893  -0.4619  -0.4561  -0.4383  -0.4119  -0.4014  -0.3892
    -0.3826  -0.3767  -0.3686  -0.3608  -0.3431  -0.3365  -0.3279  -0.3058
    -0.2663  -0.2504  -0.2488  -0.2137  -0.1989  -0.1902  -0.1615  -0.1451
    -0.1328  -0.1289  -0.1137  -0.1062  -0.0902  -0.0814  -0.0791  -0.0414
    -0.0311   0.0008   0.0148   0.0231   0.0397   0.0438   0.0829   0.0917
     0.1097   0.1484   0.3774   0.3936   0.4692   0.5632   0.6478   0.6791
     0.7063   0.8573

          k = 0.2000 0.3464 0.0000 ( 51202 PWs)   bands (ev):

   -21.2805  -9.8441  -7.0442  -6.4796  -5.9064  -5.6785  -5.6506  -5.3556
    -4.9975  -4.5580  -4.4581  -4.2398  -4.2364  -4.1937  -4.0216  -4.0168
    -3.9248  -3.9202  -3.9040  -3.7887  -3.7810  -3.6525  -3.6410  -3.5767
    -3.5324  -3.4425  -3.4345  -3.4131  -3.3979  -3.3845  -3.3751  -3.3548
    -3.3405  -3.3130  -3.3043  -3.2654  -3.2272  -3.1827  -3.1764  -3.0506
    -3.0381  -2.9624  -2.9507  -2.9270  -2.8990  -2.8931  -2.8056  -2.7573
    -2.7505  -2.7313  -2.7214  -2.7089  -2.6722  -2.6647  -2.6452  -2.6310
    -2.6152  -2.5008  -2.4924  -2.4433  -2.4356  -2.4160  -2.3812  -2.3745
    -2.3637  -2.2723  -2.1801  -2.1748  -2.1458  -2.1293  -2.1086  -2.0907
    -2.0839  -2.0658  -2.0500  -2.0316  -2.0295  -2.0152  -2.0037  -1.9891
    -1.9686  -1.9417  -1.9027  -1.8742  -1.8201  -1.8101  -1.7913  -1.7795
    -1.7589  -1.7441  -1.7180  -1.7082  -1.6795  -1.6642  -1.6556  -1.6525
    -1.6403  -1.6318  -1.6197  -1.6157  -1.5975  -1.5917  -1.5714  -1.5540
    -1.5488  -1.5233  -1.5034  -1.4824  -1.4685  -1.4442  -1.4335  -1.4168
    -1.4089  -1.3937  -1.3775  -1.3626  -1.3294  -1.3077  -1.2892  -1.2585
    -1.2499  -1.2414  -1.2276  -1.2128  -1.2015  -1.1845  -1.1792  -1.1309
    -1.0919  -1.0814  -1.0535  -1.0381  -0.9739  -0.9431  -0.9267  -0.8843
    -0.8240  -0.8134  -0.8036  -0.7872  -0.7823  -0.7616  -0.7543  -0.7278
    -0.7218  -0.7013  -0.6791  -0.6675  -0.6427  -0.6273  -0.6106  -0.6065
    -0.5845  -0.5661  -0.5547  -0.5264  -0.5193  -0.5055  -0.4527  -0.3821
    -0.3584  -0.3374  -0.3235  -0.3175  -0.3054  -0.2801  -0.2734  -0.2671
    -0.2634  -0.2316  -0.1804  -0.1638  -0.1554  -0.1503  -0.1200  -0.0967
    -0.0905  -0.0820  -0.0743  -0.0539  -0.0502  -0.0379  -0.0311  -0.0226
    -0.0040   0.0662   0.0785   0.0917   0.1045   0.1380   0.1471   0.1591
     0.4520   0.4832   0.4956   0.6730   0.7892   0.8438   1.1237   1.3728
     1.3918   1.6060

          k = 0.2000-0.5774 0.0000 ( 51262 PWs)   bands (ev):

   -21.2805  -9.8438  -6.6526  -6.4330  -6.2976  -5.8186  -5.6936  -5.2873
    -4.9573  -4.8737  -4.5791  -4.2270  -3.9829  -3.9339  -3.8252  -3.8071
    -3.8047  -3.7778  -3.7727  -3.7531  -3.7116  -3.6929  -3.6922  -3.6885
    -3.6015  -3.5884  -3.5433  -3.5403  -3.5149  -3.5076  -3.4104  -3.3688
    -3.3587  -3.3493  -3.3294  -3.2868  -3.2102  -3.1860  -3.0683  -3.0601
    -3.0583  -2.9809  -2.9637  -2.9493  -2.9296  -2.8533  -2.8468  -2.8373
    -2.7763  -2.7640  -2.6870  -2.6559  -2.6244  -2.6183  -2.5793  -2.5606
    -2.4836  -2.4784  -2.4660  -2.4566  -2.4435  -2.4153  -2.3990  -2.3415
    -2.2678  -2.2644  -2.2514  -2.2424  -2.2024  -2.1836  -2.1330  -2.1236
    -2.0962  -2.0822  -2.0699  -2.0645  -2.0484  -2.0192  -2.0015  -1.9906
    -1.9855  -1.9766  -1.9446  -1.9329  -1.9271  -1.8790  -1.8575  -1.8362
    -1.8272  -1.7905  -1.7551  -1.7345  -1.7128  -1.6887  -1.6767  -1.6588
    -1.6503  -1.6405  -1.6306  -1.6226  -1.6136  -1.5866  -1.5812  -1.5726
    -1.5303  -1.4980  -1.4868  -1.4815  -1.4669  -1.4622  -1.4536  -1.4470
    -1.4394  -1.4203  -1.4106  -1.3803  -1.3725  -1.3504  -1.3217  -1.3038
    -1.2611  -1.2329  -1.2264  -1.1855  -1.1725  -1.1667  -1.1486  -1.0995
    -1.0765  -1.0640  -1.0593  -1.0030  -0.9744  -0.9479  -0.9325  -0.9183
    -0.8993  -0.8954  -0.8784  -0.8638  -0.8265  -0.8183  -0.7968  -0.7715
    -0.7556  -0.7297  -0.7121  -0.6973  -0.6896  -0.6613  -0.6225  -0.6145
    -0.6019  -0.5873  -0.5752  -0.5603  -0.5331  -0.5046  -0.4907  -0.4345
    -0.3529  -0.3173  -0.3074  -0.2977  -0.2948  -0.2878  -0.2792  -0.2676
    -0.2384  -0.2263  -0.2131  -0.2061  -0.1522  -0.1433  -0.0883  -0.0847
    -0.0614  -0.0528  -0.0484  -0.0274   0.0128   0.0173   0.0258   0.0370
     0.0437   0.1073   0.1180   0.1238   0.1385   0.1495   0.1705   0.2055
     0.3058   0.5244   0.5878   0.8826   1.3795   1.4302   1.4701   1.7099
     1.9082   1.9762

          k = 0.2000-0.3464 0.0000 ( 51202 PWs)   bands (ev):

   -21.2805  -9.8439  -7.0441  -6.4797  -5.9077  -5.6813  -5.6494  -5.3571
    -4.9926  -4.5623  -4.4526  -4.2420  -4.2368  -4.1910  -4.0210  -4.0170
    -3.9243  -3.9207  -3.9023  -3.7928  -3.7794  -3.6491  -3.6407  -3.5777
    -3.5333  -3.4442  -3.4357  -3.4071  -3.3987  -3.3863  -3.3752  -3.3524
    -3.3406  -3.3158  -3.2980  -3.2670  -3.2295  -3.1888  -3.1733  -3.0551
    -3.0399  -2.9615  -2.9555  -2.9256  -2.9068  -2.8890  -2.8050  -2.7673
    -2.7489  -2.7277  -2.7210  -2.7062  -2.6749  -2.6611  -2.6422  -2.6255
    -2.6154  -2.5085  -2.4884  -2.4440  -2.4334  -2.4141  -2.3853  -2.3744
    -2.3670  -2.2729  -2.1852  -2.1758  -2.1488  -2.1261  -2.1130  -2.0926
    -2.0872  -2.0657  -2.0500  -2.0357  -2.0218  -2.0172  -2.0050  -1.9879
    -1.9716  -1.9541  -1.8943  -1.8500  -1.8180  -1.8056  -1.7947  -1.7825
    -1.7619  -1.7301  -1.7264  -1.7069  -1.6886  -1.6635  -1.6579  -1.6515
    -1.6441  -1.6317  -1.6209  -1.6102  -1.5979  -1.5787  -1.5714  -1.5536
    -1.5373  -1.5237  -1.5014  -1.4849  -1.4684  -1.4549  -1.4238  -1.4181
    -1.4046  -1.3891  -1.3791  -1.3519  -1.3216  -1.3040  -1.2885  -1.2723
    -1.2495  -1.2413  -1.2322  -1.2126  -1.2008  -1.1892  -1.1715  -1.1343
    -1.0933  -1.0794  -1.0606  -1.0172  -0.9776  -0.9454  -0.9317  -0.9071
    -0.8247  -0.8075  -0.8030  -0.7911  -0.7815  -0.7746  -0.7439  -0.7302
    -0.7255  -0.6984  -0.6807  -0.6701  -0.6368  -0.6234  -0.6184  -0.6080
    -0.5971  -0.5772  -0.5390  -0.5264  -0.5149  -0.5072  -0.4453  -0.3787
    -0.3609  -0.3377  -0.3208  -0.3146  -0.3093  -0.2826  -0.2747  -0.2693
    -0.2496  -0.2329  -0.1755  -0.1703  -0.1635  -0.1528  -0.1191  -0.1023
    -0.0902  -0.0815  -0.0759  -0.0606  -0.0484  -0.0410  -0.0327  -0.0188
    -0.0031   0.0599   0.0833   0.0946   0.1023   0.1369   0.1492   0.1738
     0.4653   0.4844   0.4914   0.6770   0.7980   0.8423   1.1311   1.3581
     1.3798   1.5654

          k = 0.4000-0.2309 0.0000 ( 51204 PWs)   bands (ev):

   -21.2805  -9.8454  -6.9071  -6.4820  -6.1426  -5.8213  -5.3849  -5.0609
    -4.9631  -4.9085  -4.8137  -4.1369  -4.0751  -4.0640  -4.0222  -3.9925
    -3.8760  -3.8735  -3.8346  -3.7455  -3.7385  -3.7338  -3.6500  -3.5594
    -3.5559  -3.5485  -3.5475  -3.4949  -3.4512  -3.4412  -3.4330  -3.2737
    -3.2683  -3.2665  -3.2462  -3.2279  -3.2251  -3.1206  -3.1154  -3.1032
    -3.0991  -3.0927  -2.9858  -2.8886  -2.8837  -2.8010  -2.7911  -2.7608
    -2.7513  -2.7194  -2.7110  -2.7058  -2.6834  -2.6785  -2.6136  -2.6066
    -2.5821  -2.5517  -2.5383  -2.4062  -2.4000  -2.3849  -2.3729  -2.3354
    -2.2863  -2.2722  -2.2629  -2.2454  -2.1825  -2.1379  -2.1158  -2.1121
    -2.1114  -2.0923  -2.0793  -2.0731  -2.0669  -2.0417  -2.0217  -2.0025
    -1.9645  -1.9480  -1.9343  -1.9066  -1.8974  -1.8621  -1.8260  -1.7962
    -1.7828  -1.7805  -1.7611  -1.7419  -1.7096  -1.6821  -1.6771  -1.6698
    -1.6573  -1.6347  -1.6265  -1.6032  -1.5990  -1.5879  -1.5664  -1.5605
    -1.5491  -1.5347  -1.4851  -1.4417  -1.4207  -1.4067  -1.3763  -1.3679
    -1.3500  -1.3153  -1.3015  -1.2769  -1.2589  -1.2477  -1.2424  -1.2371
    -1.2353  -1.2236  -1.2186  -1.2011  -1.1944  -1.1843  -1.1669  -1.1564
    -1.1362  -1.1055  -1.0683  -1.0354  -1.0072  -0.9903  -0.9768  -0.9470
    -0.9341  -0.9070  -0.8815  -0.8751  -0.8547  -0.8364  -0.8113  -0.7654
    -0.7333  -0.7061  -0.6859  -0.6701  -0.6494  -0.6335  -0.6224  -0.6002
    -0.5322  -0.4841  -0.4721  -0.4633  -0.4545  -0.4510  -0.4390  -0.4349
    -0.4205  -0.4066  -0.3308  -0.3159  -0.3036  -0.2840  -0.2775  -0.2697
    -0.2582  -0.2541  -0.2402  -0.2335  -0.2120  -0.1925  -0.1278  -0.1074
    -0.1036  -0.0872  -0.0686  -0.0554  -0.0113   0.0100   0.0267   0.0619
     0.0726   0.1142   0.1158   0.1346   0.1401   0.1462   0.1606   0.1851
     0.2421   0.2817   0.3732   0.9477   1.1520   1.3283   1.3803   1.3980
     1.6232   1.7818

          k = 0.4000 0.0000 0.0000 ( 51202 PWs)   bands (ev):

   -21.2805  -9.8457  -7.0402  -6.4801  -5.8925  -5.6633  -5.6576  -5.3656
    -5.0100  -4.5244  -4.4950  -4.2464  -4.2380  -4.1877  -4.0235  -4.0178
    -3.9245  -3.9222  -3.9166  -3.7870  -3.7671  -3.6532  -3.6437  -3.5736
    -3.5311  -3.4403  -3.4318  -3.4100  -3.3980  -3.3855  -3.3710  -3.3632
    -3.3372  -3.3113  -3.3071  -3.2660  -3.2257  -3.1858  -3.1727  -3.0556
    -3.0361  -2.9642  -2.9474  -2.9231  -2.9104  -2.8957  -2.8131  -2.7644
    -2.7472  -2.7263  -2.7211  -2.7052  -2.6613  -2.6594  -2.6512  -2.6334
    -2.6158  -2.5074  -2.4848  -2.4407  -2.4364  -2.4241  -2.3807  -2.3750
    -2.3674  -2.2549  -2.1874  -2.1761  -2.1549  -2.1350  -2.1005  -2.0865
    -2.0727  -2.0669  -2.0561  -2.0428  -2.0334  -2.0163  -2.0123  -1.9907
    -1.9672  -1.9345  -1.9034  -1.8672  -1.8253  -1.8123  -1.7940  -1.7716
    -1.7655  -1.7389  -1.7223  -1.7162  -1.6795  -1.6634  -1.6544  -1.6519
    -1.6432  -1.6344  -1.6255  -1.6096  -1.6041  -1.5863  -1.5691  -1.5544
    -1.5439  -1.5216  -1.5011  -1.4801  -1.4637  -1.4444  -1.4410  -1.4149
    -1.4058  -1.3809  -1.3748  -1.3537  -1.3308  -1.3049  -1.2902  -1.2679
    -1.2509  -1.2384  -1.2331  -1.2109  -1.2064  -1.1833  -1.1636  -1.1310
    -1.0849  -1.0680  -1.0614  -1.0240  -0.9701  -0.9517  -0.9276  -0.8986
    -0.8269  -0.8077  -0.8061  -0.7810  -0.7784  -0.7637  -0.7551  -0.7376
    -0.7217  -0.7037  -0.6869  -0.6752  -0.6418  -0.6315  -0.6139  -0.6106
    -0.5961  -0.5677  -0.5394  -0.5275  -0.5156  -0.4988  -0.4341  -0.3997
    -0.3597  -0.3346  -0.3241  -0.3156  -0.3061  -0.2811  -0.2752  -0.2693
    -0.2474  -0.2398  -0.1825  -0.1721  -0.1534  -0.1478  -0.1126  -0.1063
    -0.0835  -0.0810  -0.0749  -0.0606  -0.0442  -0.0391  -0.0331  -0.0160
    -0.0041   0.0640   0.0786   0.0922   0.1018   0.1363   0.1414   0.1728
     0.4807   0.4864   0.5450   0.5548   0.8223   0.8355   1.1342   1.3595
     1.3889   1.6190

          k = 0.4000 0.2309 0.0000 ( 51204 PWs)   bands (ev):

   -21.2805  -9.8458  -6.9076  -6.4826  -6.1395  -5.8194  -5.3782  -5.0729
    -4.9629  -4.8965  -4.8275  -4.1381  -4.0712  -4.0643  -4.0234  -3.9930
    -3.8754  -3.8733  -3.8368  -3.7479  -3.7398  -3.7328  -3.6526  -3.5594
    -3.5557  -3.5479  -3.5466  -3.4973  -3.4539  -3.4411  -3.4310  -3.2733
    -3.2675  -3.2630  -3.2464  -3.2264  -3.2234  -3.1182  -3.1119  -3.0992
    -3.0966  -3.0935  -2.9805  -2.8905  -2.8808  -2.7992  -2.7926  -2.7636
    -2.7529  -2.7208  -2.7115  -2.7048  -2.6874  -2.6811  -2.6138  -2.6041
    -2.5786  -2.5451  -2.5422  -2.4021  -2.3994  -2.3847  -2.3710  -2.3357
    -2.2881  -2.2750  -2.2642  -2.2457  -2.1823  -2.1458  -2.1170  -2.1133
    -2.1109  -2.0953  -2.0811  -2.0699  -2.0641  -2.0427  -2.0268  -2.0004
    -1.9631  -1.9489  -1.9330  -1.9123  -1.8913  -1.8594  -1.8221  -1.7916
    -1.7825  -1.7746  -1.7546  -1.7384  -1.7068  -1.6794  -1.6769  -1.6655
    -1.6595  -1.6313  -1.6259  -1.6057  -1.5985  -1.5868  -1.5744  -1.5627
    -1.5502  -1.5329  -1.4877  -1.4712  -1.4231  -1.4031  -1.3821  -1.3701
    -1.3458  -1.3199  -1.3038  -1.2888  -1.2566  -1.2502  -1.2430  -1.2346
    -1.2334  -1.2275  -1.2158  -1.2078  -1.1940  -1.1825  -1.1697  -1.1576
    -1.1438  -1.1023  -1.0747  -1.0347  -1.0021  -0.9957  -0.9868  -0.9570
    -0.9271  -0.9157  -0.8771  -0.8660  -0.8567  -0.8071  -0.7949  -0.7628
    -0.7382  -0.6943  -0.6904  -0.6690  -0.6508  -0.6280  -0.6224  -0.5866
    -0.5446  -0.4834  -0.4723  -0.4637  -0.4534  -0.4496  -0.4381  -0.4328
    -0.4268  -0.4090  -0.3367  -0.3111  -0.2949  -0.2929  -0.2818  -0.2737
    -0.2645  -0.2419  -0.2378  -0.2275  -0.2172  -0.1968  -0.1256  -0.1098
    -0.1010  -0.0967  -0.0724  -0.0393  -0.0125   0.0117   0.0246   0.0632
     0.0718   0.1120   0.1175   0.1349   0.1400   0.1437   0.1576   0.1843
     0.2425   0.2756   0.3662   0.9504   1.1506   1.3083   1.3822   1.3936
     1.7008   1.7737

          k = 0.4000-0.6928 0.0000 ( 51262 PWs)   bands (ev):

   -21.2805  -9.8456  -6.6480  -6.4242  -6.2976  -5.8426  -5.6686  -5.2103
    -5.0531  -4.9104  -4.5309  -4.2217  -3.9867  -3.9402  -3.8487  -3.8094
    -3.8003  -3.7826  -3.7720  -3.7580  -3.7019  -3.6967  -3.6905  -3.6836
    -3.6097  -3.5846  -3.5437  -3.5384  -3.5116  -3.5087  -3.3965  -3.3739
    -3.3606  -3.3519  -3.3264  -3.2860  -3.1965  -3.1846  -3.0698  -3.0604
    -3.0582  -2.9781  -2.9684  -2.9504  -2.9265  -2.8555  -2.8472  -2.8306
    -2.7813  -2.7646  -2.6832  -2.6685  -2.6255  -2.6215  -2.5662  -2.5619
    -2.4873  -2.4745  -2.4642  -2.4586  -2.4400  -2.4191  -2.4028  -2.3380
    -2.2754  -2.2631  -2.2528  -2.2418  -2.2039  -2.1810  -2.1436  -2.1212
    -2.0937  -2.0786  -2.0701  -2.0602  -2.0460  -2.0245  -2.0089  -1.9837
    -1.9768  -1.9719  -1.9386  -1.9301  -1.9211  -1.9009  -1.8613  -1.8362
    -1.8161  -1.7751  -1.7581  -1.7406  -1.7218  -1.6962  -1.6811  -1.6688
    -1.6497  -1.6426  -1.6349  -1.6276  -1.6091  -1.5859  -1.5746  -1.5612
    -1.5297  -1.4962  -1.4881  -1.4798  -1.4689  -1.4591  -1.4567  -1.4462
    -1.4338  -1.4305  -1.4120  -1.3879  -1.3658  -1.3517  -1.3274  -1.3126
    -1.2755  -1.2381  -1.1981  -1.1869  -1.1723  -1.1640  -1.1562  -1.0872
    -1.0774  -1.0690  -1.0546  -1.0222  -0.9635  -0.9422  -0.9226  -0.9170
    -0.8965  -0.8896  -0.8790  -0.8702  -0.8293  -0.8148  -0.7860  -0.7767
    -0.7590  -0.7246  -0.7163  -0.7080  -0.6805  -0.6562  -0.6289  -0.6081
    -0.5941  -0.5840  -0.5732  -0.5614  -0.5412  -0.5206  -0.4878  -0.4235
    -0.3617  -0.3134  -0.3078  -0.3022  -0.2947  -0.2879  -0.2752  -0.2560
    -0.2393  -0.2277  -0.2130  -0.2048  -0.1569  -0.1446  -0.0894  -0.0798
    -0.0611  -0.0510  -0.0410  -0.0226   0.0020   0.0203   0.0242   0.0303
     0.0442   0.0844   0.1194   0.1212   0.1383   0.1496   0.1704   0.2062
     0.3037   0.5220   0.6304   0.8628   1.3220   1.4291   1.4557   1.8255
     1.8990   1.9685

          k = 0.4000-0.4619 0.0000 ( 51262 PWs)   bands (ev):

   -21.2805  -9.8454  -6.6454  -6.4268  -6.2999  -5.8408  -5.6682  -5.2298
    -5.0341  -4.9038  -4.5373  -4.2221  -3.9860  -3.9396  -3.8409  -3.8097
    -3.8005  -3.7832  -3.7747  -3.7580  -3.7021  -3.6944  -3.6884  -3.6842
    -3.6051  -3.5887  -3.5437  -3.5399  -3.5138  -3.5085  -3.3969  -3.3714
    -3.3589  -3.3555  -3.3259  -3.2866  -3.2004  -3.1864  -3.0773  -3.0619
    -3.0582  -2.9741  -2.9644  -2.9597  -2.9277  -2.8488  -2.8434  -2.8352
    -2.7782  -2.7647  -2.6838  -2.6641  -2.6314  -2.6176  -2.5719  -2.5627
    -2.4870  -2.4754  -2.4659  -2.4584  -2.4438  -2.4169  -2.4026  -2.3375
    -2.2736  -2.2603  -2.2552  -2.2441  -2.1974  -2.1837  -2.1392  -2.1212
    -2.0994  -2.0796  -2.0707  -2.0617  -2.0445  -2.0200  -2.0086  -1.9843
    -1.9772  -1.9697  -1.9413  -1.9309  -1.9189  -1.8852  -1.8725  -1.8331
    -1.8242  -1.7949  -1.7598  -1.7494  -1.7150  -1.6900  -1.6810  -1.6680
    -1.6481  -1.6404  -1.6303  -1.6252  -1.6173  -1.5842  -1.5609  -1.5462
    -1.5253  -1.4894  -1.4869  -1.4835  -1.4735  -1.4628  -1.4531  -1.4494
    -1.4397  -1.4264  -1.4131  -1.3862  -1.3715  -1.3452  -1.3267  -1.3157
    -1.2667  -1.2372  -1.2063  -1.1855  -1.1665  -1.1649  -1.1542  -1.0946
    -1.0831  -1.0668  -1.0456  -1.0057  -0.9869  -0.9367  -0.9193  -0.9128
    -0.9011  -0.8866  -0.8799  -0.8667  -0.8453  -0.8215  -0.7893  -0.7644
    -0.7591  -0.7303  -0.7134  -0.7059  -0.6830  -0.6588  -0.6295  -0.6131
    -0.5963  -0.5865  -0.5803  -0.5657  -0.5324  -0.5203  -0.4845  -0.4181
    -0.3622  -0.3163  -0.3073  -0.2992  -0.2924  -0.2842  -0.2734  -0.2622
    -0.2371  -0.2249  -0.2128  -0.2073  -0.1611  -0.1413  -0.0891  -0.0776
    -0.0706  -0.0516  -0.0400  -0.0300   0.0071   0.0184   0.0250   0.0335
     0.0443   0.0853   0.1159   0.1244   0.1362   0.1498   0.1711   0.2110
     0.2991   0.5243   0.6345   0.8854   1.3109   1.4298   1.4535   1.7908
     1.9152   1.9655

 ------ SPIN DOWN ----------


          k = 0.0000 0.0000 0.0000 ( 51087 PWs)   bands (ev):

   -21.3142  -9.9414  -7.6077  -6.6044  -6.1681  -5.5270  -5.0347  -4.4018
    -4.3759  -4.3738  -4.3720  -4.3658  -4.3533  -4.2442  -3.5107  -3.4996
    -3.4975  -3.4964  -3.4715  -3.4602  -3.3481  -2.5697  -2.5497  -2.5488
    -2.5460  -2.5201  -2.4816  -2.0935  -2.0832  -2.0801  -2.0788  -2.0756
    -2.0667  -1.8839  -1.8824  -1.8188  -1.7990  -1.7925  -1.7887  -1.6924
    -1.6902  -1.6489  -1.6441  -1.6209  -1.5439  -1.5360  -1.5356  -1.5307
    -1.5221  -1.4835  -1.2887  -1.2685  -1.2645  -1.2635  -1.2608  -1.2543
    -1.2531  -1.2425  -1.2295  -1.1998  -1.1811  -1.1746  -1.1729  -1.1592
    -1.1163  -0.8858  -0.6261  -0.6066  -0.5946  -0.5877  -0.5657  -0.4386
    -0.3795  -0.2860  -0.2718  -0.2652  -0.2648  -0.2524  -0.2420  -0.2209
    -0.2131  -0.1925  -0.1768  -0.1751  -0.1745  -0.1604  -0.1429  -0.1035
    -0.0742  -0.0678  -0.0635  -0.0352  -0.0299  -0.0191  -0.0099  -0.0055
     0.0007   0.0066   0.0184   0.0213   0.0311   0.0326   0.0793   0.1457
     0.1633   0.1789   0.2084   0.2373   0.2497   0.2511   0.2529   0.2571
     0.2588   0.2593   0.2612   0.2808   0.3249   0.3276   0.3456   0.4194
     0.4263   0.4353   0.4505   0.4841   0.5331   0.6375   0.6393   0.7001
     0.7197   0.7304   0.7323   0.7386   0.7387   0.8539   1.0399   1.0580
     1.0844   1.0860   1.2308   1.2672   1.2811   1.2969   1.2996   1.3021
     1.3052   1.4531   1.4629   1.4663   1.4709   1.4834   1.4957   1.5013
     1.5075   1.5347   1.5500   1.5597   1.5767   1.6059   1.6159   1.6188
     1.6258   1.6280   1.6324   1.6570   1.6834   1.6980   1.7087   1.7251
     1.7374   1.7424   1.7486   1.7516   1.7528   1.7598   1.7643   1.8018
     1.8063   1.8274   1.8326   1.8408   1.8459   1.8471   1.8544   1.8811
     1.8884   1.8930   1.8983   1.8991   1.9062   1.9113   1.9148   1.9201
     1.9233   1.9704   1.9768   2.0144   2.1264   2.1305   2.1344   2.1350
     2.1393   2.1417

          k = 0.0000 0.2309 0.0000 ( 51134 PWs)   bands (ev):

   -21.3142  -9.9412  -7.4592  -6.5616  -6.0974  -5.5645  -5.2958  -5.0190
    -4.7633  -4.7492  -4.2287  -4.0893  -3.8299  -3.8225  -3.7479  -3.7072
    -3.5293  -3.2852  -3.1650  -3.1407  -3.0397  -2.7617  -2.5811  -2.5435
    -2.4838  -2.4622  -2.4325  -2.2036  -2.1242  -2.1164  -2.1090  -2.0802
    -2.0703  -2.0372  -2.0261  -1.9930  -1.9848  -1.8633  -1.8379  -1.7652
    -1.7561  -1.7049  -1.6256  -1.5841  -1.5700  -1.5570  -1.4781  -1.4400
    -1.4116  -1.3918  -1.3457  -1.3141  -1.3061  -1.2826  -1.2735  -1.2568
    -1.2452  -1.1941  -1.1614  -1.1518  -1.1181  -1.0811  -1.0697  -1.0398
    -0.9304  -0.8911  -0.7033  -0.6498  -0.6406  -0.6274  -0.5754  -0.5401
    -0.5039  -0.4669  -0.4461  -0.4049  -0.3090  -0.2872  -0.2701  -0.2677
    -0.2454  -0.2311  -0.2276  -0.2062  -0.1959  -0.1743  -0.1362  -0.0978
    -0.0677  -0.0655  -0.0516  -0.0363  -0.0251  -0.0054   0.0053   0.0205
     0.0287   0.0366   0.0397   0.0429   0.0485   0.0592   0.0850   0.1000
     0.1163   0.1417   0.1469   0.1516   0.1900   0.1925   0.2112   0.2244
     0.2458   0.2664   0.3059   0.3237   0.3521   0.3631   0.3710   0.3933
     0.4188   0.5574   0.5818   0.6052   0.6110   0.6657   0.6702   0.6857
     0.7042   0.7105   0.7138   0.7189   0.7431   0.9279   1.0264   1.0482
     1.0525   1.0660   1.0795   1.0880   1.1107   1.1687   1.2165   1.2425
     1.2533   1.2668   1.3304   1.3369   1.3647   1.3888   1.4176   1.4272
     1.4665   1.4819   1.5226   1.5331   1.5434   1.5568   1.5747   1.5816
     1.6108   1.6294   1.6726   1.6791   1.7131   1.7171   1.7304   1.7435
     1.7818   1.7874   1.7973   1.7990   1.8169   1.8540   1.8765   1.8797
     1.8846   1.8918   1.9180   1.9364   1.9460   1.9554   1.9742   1.9827
     1.9943   2.0284   2.0357   2.0461   2.0593   2.0665   2.0733   2.0951
     2.1129   2.1205   2.1308   2.1552   2.2012   2.2301   2.2418   2.2631
     2.3042   2.3276

          k = 0.0000 0.4619 0.0000 ( 51204 PWs)   bands (ev):

   -21.3142  -9.9409  -7.0320  -6.5370  -6.2410  -5.8789  -5.4362  -5.0411
    -4.9701  -4.9524  -4.7638  -3.8835  -3.8740  -3.7691  -3.2649  -3.2083
    -3.2035  -3.0839  -2.9457  -2.8817  -2.7742  -2.7527  -2.6080  -2.6017
    -2.5626  -2.5338  -2.4761  -2.4554  -2.3766  -2.3581  -2.2994  -2.2950
    -2.2719  -2.0881  -2.0651  -1.9913  -1.9838  -1.8783  -1.8654  -1.8517
    -1.8491  -1.8185  -1.5851  -1.5610  -1.5421  -1.5245  -1.5042  -1.4520
    -1.3381  -1.3268  -1.3135  -1.3019  -1.2753  -1.2711  -1.2697  -1.2432
    -1.1866  -1.1495  -1.1456  -1.1295  -1.1031  -1.0252  -0.9676  -0.9216
    -0.8195  -0.7929  -0.7206  -0.6780  -0.6600  -0.6443  -0.6008  -0.5912
    -0.5759  -0.5613  -0.5461  -0.5091  -0.4638  -0.4334  -0.4194  -0.3987
    -0.3619  -0.3328  -0.3090  -0.3066  -0.2957  -0.2596  -0.1813  -0.1377
    -0.1130  -0.0965  -0.0871  -0.0353  -0.0153  -0.0022   0.0136   0.0481
     0.0668   0.0754   0.0847   0.1033   0.1081   0.1216   0.1325   0.1548
     0.1655   0.1737   0.2002   0.2032   0.2121   0.2193   0.2374   0.2454
     0.2715   0.2810   0.3072   0.3670   0.4153   0.4331   0.4421   0.4596
     0.4710   0.4738   0.5026   0.5147   0.5703   0.5795   0.5872   0.6269
     0.6459   0.6604   0.6812   0.6881   0.7000   0.7247   0.8377   0.8731
     0.9259   0.9754   1.0079   1.0394   1.1070   1.1245   1.1390   1.1593
     1.1658   1.1731   1.2164   1.2505   1.2675   1.3064   1.4035   1.4132
     1.4360   1.4495   1.5114   1.5212   1.5474   1.5517   1.5844   1.5907
     1.6290   1.6409   1.6743   1.7333   1.7541   1.7654   1.7785   1.7979
     1.8079   1.8119   1.8322   1.8650   1.8841   1.8849   1.9060   1.9207
     1.9359   1.9563   2.0293   2.0379   2.0536   2.0630   2.0691   2.0846
     2.0933   2.1217   2.1299   2.1356   2.1441   2.1559   2.1652   2.1678
     2.1978   2.2152   2.3254   2.3357   2.3755   2.4824   2.6542   2.8032
     2.8991   2.9325

          k = 0.2000-0.1155 0.0000 ( 51134 PWs)   bands (ev):

   -21.3142  -9.9421  -7.4580  -6.5612  -6.0907  -5.5414  -5.3219  -5.0378
    -4.7498  -4.7346  -4.2358  -4.1314  -3.8291  -3.8219  -3.7305  -3.6785
    -3.5356  -3.2867  -3.1587  -3.1326  -3.0556  -2.7848  -2.5676  -2.5342
    -2.4961  -2.4543  -2.4293  -2.2087  -2.1291  -2.1147  -2.1101  -2.0789
    -2.0703  -2.0384  -2.0265  -1.9888  -1.9841  -1.8489  -1.8392  -1.7645
    -1.7563  -1.7269  -1.6212  -1.5812  -1.5778  -1.5579  -1.5048  -1.4175
    -1.4112  -1.3940  -1.3390  -1.3131  -1.3073  -1.2855  -1.2648  -1.2571
    -1.2469  -1.1783  -1.1738  -1.1473  -1.1204  -1.0833  -1.0678  -1.0371
    -0.9672  -0.8756  -0.6849  -0.6509  -0.6391  -0.6171  -0.5912  -0.5469
    -0.4958  -0.4712  -0.4342  -0.4016  -0.3057  -0.2830  -0.2765  -0.2608
    -0.2517  -0.2306  -0.2275  -0.2030  -0.1958  -0.1764  -0.1188  -0.1092
    -0.0755  -0.0659  -0.0589  -0.0399  -0.0205  -0.0021   0.0071   0.0217
     0.0297   0.0334   0.0384   0.0433   0.0513   0.0685   0.0825   0.0994
     0.1139   0.1391   0.1468   0.1526   0.1728   0.1978   0.2132   0.2329
     0.2514   0.2993   0.3164   0.3253   0.3432   0.3656   0.3685   0.3934
     0.3990   0.5521   0.5845   0.6056   0.6094   0.6632   0.6668   0.6866
     0.7008   0.7101   0.7142   0.7184   0.7534   0.9331   1.0199   1.0336
     1.0502   1.0716   1.0766   1.0864   1.0979   1.1592   1.1967   1.2388
     1.2502   1.2819   1.3296   1.3342   1.3607   1.3913   1.3973   1.4202
     1.4805   1.5035   1.5269   1.5353   1.5448   1.5538   1.5714   1.5830
     1.6055   1.6334   1.6683   1.6881   1.7029   1.7225   1.7286   1.7636
     1.7809   1.7878   1.7945   1.8019   1.8137   1.8477   1.8693   1.8834
     1.8864   1.8918   1.9221   1.9359   1.9463   1.9582   1.9722   1.9888
     1.9931   2.0282   2.0349   2.0436   2.0599   2.0629   2.0740   2.0956
     2.1009   2.1242   2.1298   2.1518   2.2162   2.2306   2.2430   2.2540
     2.3102   2.3336

          k = 0.2000 0.1155 0.0000 ( 51134 PWs)   bands (ev):

   -21.3142  -9.9423  -7.4580  -6.5615  -6.0898  -5.5399  -5.3169  -5.0499
    -4.7481  -4.7290  -4.2445  -4.1278  -3.8284  -3.8217  -3.7278  -3.6776
    -3.5364  -3.2866  -3.1570  -3.1328  -3.0581  -2.7887  -2.5614  -2.5354
    -2.5007  -2.4506  -2.4299  -2.2145  -2.1261  -2.1159  -2.1104  -2.0750
    -2.0698  -2.0355  -2.0264  -1.9901  -1.9815  -1.8508  -1.8376  -1.7667
    -1.7558  -1.7050  -1.6470  -1.5824  -1.5726  -1.5590  -1.4846  -1.4303
    -1.4137  -1.3883  -1.3475  -1.3145  -1.3017  -1.2885  -1.2648  -1.2585
    -1.2497  -1.1822  -1.1617  -1.1550  -1.1203  -1.0798  -1.0687  -1.0522
    -0.9435  -0.8872  -0.6806  -0.6501  -0.6405  -0.6213  -0.5938  -0.5469
    -0.4922  -0.4776  -0.4285  -0.4020  -0.3075  -0.2845  -0.2800  -0.2641
    -0.2396  -0.2296  -0.2190  -0.2097  -0.1990  -0.1830  -0.1349  -0.1095
    -0.0757  -0.0656  -0.0575  -0.0454  -0.0238   0.0025   0.0093   0.0185
     0.0293   0.0316   0.0393   0.0447   0.0552   0.0659   0.0926   0.1007
     0.1136   0.1419   0.1492   0.1517   0.1686   0.1925   0.2195   0.2300
     0.2548   0.2676   0.3194   0.3310   0.3550   0.3644   0.3722   0.3926
     0.4227   0.5557   0.5871   0.6091   0.6102   0.6545   0.6672   0.6904
     0.7048   0.7121   0.7138   0.7189   0.7372   0.9206   1.0238   1.0398
     1.0524   1.0716   1.0808   1.0870   1.1002   1.1590   1.2080   1.2341
     1.2517   1.2799   1.3288   1.3342   1.3625   1.3891   1.4089   1.4209
     1.4766   1.4896   1.5174   1.5350   1.5436   1.5553   1.5709   1.5810
     1.6111   1.6399   1.6729   1.6805   1.7002   1.7241   1.7335   1.7617
     1.7789   1.7897   1.7949   1.8021   1.8172   1.8456   1.8757   1.8824
     1.8847   1.9010   1.9161   1.9370   1.9462   1.9544   1.9706   1.9895
     1.9940   2.0275   2.0335   2.0457   2.0592   2.0644   2.0728   2.0952
     2.0978   2.1245   2.1282   2.1527   2.2151   2.2303   2.2442   2.2489
     2.3191   2.3294

          k = 0.2000 0.3464 0.0000 ( 51202 PWs)   bands (ev):

   -21.3142  -9.9421  -7.1689  -6.5211  -5.9505  -5.7568  -5.7283  -5.3749
    -5.0238  -4.5061  -4.3786  -4.0190  -4.0121  -3.9099  -3.1965  -3.1816
    -3.1712  -3.1674  -3.0601  -2.9792  -2.9006  -2.8727  -2.8346  -2.5061
    -2.4308  -2.4226  -2.4068  -2.3501  -2.3281  -2.3106  -2.2226  -2.2103
    -2.2023  -2.1963  -2.1787  -2.0616  -1.9978  -1.8445  -1.8250  -1.8127
    -1.7394  -1.7278  -1.6997  -1.6879  -1.5688  -1.4982  -1.4723  -1.4268
    -1.3589  -1.3411  -1.3125  -1.3014  -1.2848  -1.2823  -1.2477  -1.2383
    -1.2278  -1.1812  -1.1278  -1.1239  -1.0555  -0.9919  -0.9582  -0.9095
    -0.8455  -0.8343  -0.7355  -0.6897  -0.6137  -0.6007  -0.5702  -0.5478
    -0.5324  -0.5264  -0.5076  -0.5018  -0.4426  -0.4153  -0.3972  -0.3776
    -0.3696  -0.3398  -0.3299  -0.3143  -0.2721  -0.2322  -0.1703  -0.1559
    -0.1358  -0.1107  -0.0942  -0.0612  -0.0322  -0.0221  -0.0111   0.0062
     0.0189   0.0316   0.0435   0.0576   0.0723   0.0889   0.1044   0.1290
     0.1419   0.1543   0.1688   0.1892   0.1990   0.2159   0.2233   0.2279
     0.2372   0.3049   0.3280   0.3397   0.3715   0.4539   0.4678   0.4762
     0.5094   0.5134   0.5514   0.5849   0.6242   0.6257   0.6407   0.6560
     0.6665   0.6856   0.7050   0.7735   0.7837   0.8190   0.9079   0.9552
     0.9738   1.0577   1.0690   1.1000   1.1131   1.1257   1.1374   1.1572
     1.1744   1.1871   1.1934   1.2139   1.2484   1.2705   1.3306   1.3704
     1.3891   1.4068   1.4155   1.4566   1.4720   1.5008   1.5211   1.5585
     1.5721   1.6266   1.7062   1.7499   1.7654   1.7763   1.7955   1.8113
     1.8294   1.8387   1.8619   1.8675   1.8863   1.9070   1.9315   1.9384
     1.9553   1.9733   1.9873   1.9972   2.0134   2.0332   2.0426   2.0621
     2.0773   2.0829   2.0847   2.1134   2.1226   2.1265   2.1642   2.2020
     2.2178   2.2377   2.3295   2.3429   2.4092   2.4604   2.5078   2.6491
     2.7738   2.8002

          k = 0.2000-0.5774 0.0000 ( 51262 PWs)   bands (ev):

   -21.3142  -9.9418  -6.7289  -6.5537  -6.3671  -5.8804  -5.7445  -5.3432
    -4.9689  -4.9002  -4.5466  -4.0783  -3.5268  -3.4204  -3.2108  -3.2077
    -3.1909  -3.0030  -2.9498  -2.8012  -2.7869  -2.7846  -2.6619  -2.6498
    -2.6395  -2.6279  -2.6114  -2.6029  -2.3974  -2.2878  -2.2399  -2.2361
    -2.2275  -2.2122  -2.1779  -2.1715  -2.0715  -2.0516  -1.8041  -1.7308
    -1.7108  -1.7040  -1.6921  -1.6318  -1.5419  -1.5305  -1.4709  -1.4438
    -1.4120  -1.4059  -1.3063  -1.2950  -1.2532  -1.2341  -1.2181  -1.1901
    -1.1242  -1.1124  -1.0738  -1.0473  -1.0064  -0.9852  -0.9737  -0.8775
    -0.8590  -0.7502  -0.7005  -0.6924  -0.6811  -0.6514  -0.6094  -0.6077
    -0.5669  -0.5385  -0.5075  -0.4895  -0.4563  -0.4324  -0.3946  -0.3823
    -0.3619  -0.3492  -0.3290  -0.3261  -0.3093  -0.3046  -0.2811  -0.2616
    -0.2509  -0.2235  -0.2001  -0.1646  -0.1411  -0.0873  -0.0662  -0.0349
    -0.0082   0.0317   0.0564   0.0752   0.0894   0.1063   0.1175   0.1319
     0.1527   0.1776   0.2170   0.2260   0.2483   0.2563   0.2877   0.3390
     0.3635   0.3696   0.3894   0.4033   0.4167   0.4635   0.4856   0.5003
     0.5169   0.5344   0.5686   0.5831   0.6089   0.6210   0.6584   0.6712
     0.6853   0.6932   0.6962   0.7440   0.7557   0.7718   0.7768   0.7871
     0.8894   0.9335   0.9465   1.0399   1.0591   1.0852   1.0995   1.1104
[...]
     atom    8 type  1   force =     0.00012961   -0.00184395   -0.10246554
     atom    9 type  1   force =     0.00323325   -0.00189068   -0.10509931
     atom   10 type  1   force =     0.00203159    0.00097586   -0.00869358
     atom   11 type  1   force =     0.00098357    0.00009420   -0.01312198
     atom   12 type  1   force =    -0.00305202    0.00125374   -0.00993901
     atom   13 type  1   force =     0.00037455   -0.00095888   -0.01016551
     atom   14 type  1   force =     0.00018026   -0.00159400   -0.01007669
     atom   15 type  1   force =    -0.00031907   -0.00038564   -0.01207806
     atom   16 type  1   force =     0.00063551   -0.00121064   -0.01868088
     atom   17 type  1   force =     0.00014408    0.00040707   -0.01042559
     atom   18 type  1   force =    -0.00053499    0.00175963   -0.01188233
     atom   19 type  1   force =     0.00038511    0.00932085    0.00293183
     atom   20 type  1   force =    -0.00193765    0.01015692    0.00949943
     atom   21 type  1   force =     0.00125536   -0.00076293    0.01583285
     atom   22 type  1   force =    -0.00085310   -0.00192328    0.01713770
     atom   23 type  1   force =     0.00231010   -0.00070025    0.01739128
     atom   24 type  1   force =    -0.00078262   -0.00188600    0.01841465
     atom   25 type  1   force =    -0.01154636   -0.00282069    0.00377426
     atom   26 type  1   force =    -0.00155295   -0.00816730   -0.00156008
     atom   27 type  1   force =     0.00881304   -0.00265627    0.01125106
     atom   28 type  1   force =     0.05146987    0.01123846    0.09419592
     atom   29 type  1   force =    -0.01874898    0.00212265   -0.00954316
     atom   30 type  1   force =     0.00564669    0.00022528    0.11773028
     atom   31 type  1   force =    -0.01942517   -0.05779498    0.17238064
     atom   32 type  1   force =    -0.00525455   -0.00364682    0.11425527
     atom   33 type  1   force =     0.01227587   -0.01368140    0.12412364
     atom   34 type  1   force =     0.00234444    0.00719112    0.11188062
     atom   35 type  1   force =    -0.00872790    0.03092502    0.14090104
     atom   36 type  1   force =     0.00242715   -0.00102559    0.10297645
     atom   37 type  2   force =    -0.42069831    0.06274794    0.20748096
     atom   38 type  3   force =     2.15365515    0.02160429   -1.03479186
     atom   39 type  4   force =    -0.04842628   -0.01104528   -0.05830842
     The ionic contribution  to forces
     atom    1 type  1   force =    -0.00655763    0.00698166 -111.18277792
     atom    2 type  1   force =     0.00671721    0.00678741 -111.18246053
     atom    3 type  1   force =    -0.00015957    0.00271257 -111.16938508
     atom    4 type  1   force =    -0.00008849    0.00478486 -111.16903716
     atom    5 type  1   force =    -0.00021977   -0.00308956 -111.16962557
     atom    6 type  1   force =     0.00030825   -0.00285339 -111.16944921
     atom    7 type  1   force =    -0.00700382   -0.00388567 -111.17452785
     atom    8 type  1   force =     0.00024872   -0.00759282 -111.18807585
     atom    9 type  1   force =     0.00675508   -0.00384506 -111.17402922
     atom   10 type  1   force =    -0.05486461   -0.01497599  -40.22399306
     atom   11 type  1   force =     0.05663940   -0.01535111  -40.22048929
     atom   12 type  1   force =    -0.00177178   -0.00677677  -40.11148561
     atom   13 type  1   force =     0.00058377    0.07185742  -40.17795301
     atom   14 type  1   force =     0.03328113    0.02667310  -40.10995953
     atom   15 type  1   force =    -0.03386632    0.02833453  -40.11115055
     atom   16 type  1   force =    -0.02065691   -0.01362794  -40.09960855
     atom   17 type  1   force =     0.00116745   -0.06390438  -40.13866995
     atom   18 type  1   force =     0.01948895   -0.01223187  -40.09729116
     atom   19 type  1   force =    -0.33899688    0.36962908   30.96715010
     atom   20 type  1   force =     0.34749553    0.36065508   30.98130354
     atom   21 type  1   force =    -0.00808690    0.11868335   31.62013659
     atom   22 type  1   force =    -0.00397361    0.21663952   31.63648765
     atom   23 type  1   force =    -0.01293728   -0.14246947   31.61546127
     atom   24 type  1   force =     0.01690353   -0.13011819   31.62363624
     atom   25 type  1   force =    -0.34507196   -0.18747556   31.38043694
     atom   26 type  1   force =     0.01265247   -0.42059068   30.67488814
     atom   27 type  1   force =     0.33202872   -0.18526742   31.40703314
     atom   28 type  1   force =    -3.68252879   -1.12911197   97.80173665
     atom   29 type  1   force =     3.91614564   -1.25055233   97.95811279
     atom   30 type  1   force =    -0.08861216   -0.20801609  103.98246230
     atom   31 type  1   force =     0.02646069    3.70773549  101.62489481
     atom   32 type  1   force =     1.19072928    1.02232148  103.92853714
     atom   33 type  1   force =    -1.22718366    1.09781615  103.87811204
     atom   34 type  1   force =    -0.67475604   -0.55093124  104.21780412
     atom   35 type  1   force =     0.06478484   -2.61034913  103.19919976
     atom   36 type  1   force =     0.61088623   -0.46608197  104.29517849
     atom   37 type  2   force =     6.37229375    0.17532241   56.18360133
     atom   38 type  3   force =    -8.31440886   -0.13463743   87.86327356
     atom   39 type  4   force =     1.80617439    0.34680192   15.03052251
     The local contribution  to forces
     atom    1 type  1   force =     0.00370349   -0.00911249  111.28547990
     atom    2 type  1   force =    -0.00516283   -0.01001596  111.28898451
     atom    3 type  1   force =     0.00176299   -0.00216292  111.27571027
     atom    4 type  1   force =     0.00155779   -0.00375270  111.27700052
     atom    5 type  1   force =    -0.00225823    0.00459187  111.27752855
     atom    6 type  1   force =     0.00049485    0.00110785  111.27661648
     atom    7 type  1   force =     0.01040135    0.00348573  111.27702012
     atom    8 type  1   force =    -0.00013949    0.01008449  111.29321980
     atom    9 type  1   force =    -0.01013015    0.00587938  111.28188269
     atom   10 type  1   force =     0.05243041    0.01420107   40.21210962
     atom   11 type  1   force =    -0.05727443    0.01494867   40.21129239
     atom   12 type  1   force =     0.00488445    0.00563244   40.10068294
     atom   13 type  1   force =    -0.00074356   -0.07080521   40.16748908
     atom   14 type  1   force =    -0.03404123   -0.02479036   40.09956349
     atom   15 type  1   force =     0.03484555   -0.02791727   40.10142858
     atom   16 type  1   force =     0.01963050    0.01512901   40.09574106
     atom   17 type  1   force =    -0.00180728    0.06377495   40.12847741
     atom   18 type  1   force =    -0.01877762    0.01085564   40.08739788
     atom   19 type  1   force =     0.33742514   -0.38122387  -30.94829866
     atom   20 type  1   force =    -0.34503494   -0.37177293  -30.97155671
     atom   21 type  1   force =     0.00700933   -0.11906480  -31.61333639
     atom   22 type  1   force =     0.00460938   -0.21587475  -31.62824956
     atom   23 type  1   force =     0.01098640    0.14325010  -31.60916582
     atom   24 type  1   force =    -0.01534980    0.13148972  -31.61807104
     atom   25 type  1   force =     0.35938800    0.19209915  -31.36253110
     atom   26 type  1   force =    -0.01164800    0.42980543  -30.65232645
     atom   27 type  1   force =    -0.34027920    0.18794799  -31.40198072
     atom   28 type  1   force =     3.61532842    1.11442252  -97.89744989
     atom   29 type  1   force =    -3.89316748    1.24713943  -97.92890600
     atom   30 type  1   force =     0.08094151    0.20714901 -104.11073197
     atom   31 type  1   force =    -0.00399784   -3.63805993 -101.80812701
     atom   32 type  1   force =    -1.17992368   -1.01302366 -104.05047508
     atom   33 type  1   force =     1.20944293   -1.07871035 -104.01410176
     atom   34 type  1   force =     0.67002783    0.54114584 -104.33701275
     atom   35 type  1   force =    -0.05416896    2.56959169 -103.35164888
     atom   36 type  1   force =    -0.61221241    0.46607605 -104.40443699
     atom   37 type  2   force =    -5.95459219   -0.23885738  -56.39315556
     atom   38 type  3   force =     6.18145128    0.11250501  -86.83652871
     atom   39 type  4   force =    -1.76018309   -0.33673494  -14.97239205
     The core correction contribution to forces
     atom    1 type  1   force =    -0.00018995   -0.00032624    0.01024885
     atom    2 type  1   force =    -0.00000707   -0.00026931    0.01051787
     atom    3 type  1   force =     0.00008429    0.00006702    0.01003008
     atom    4 type  1   force =    -0.00000294    0.00005968    0.01010508
     atom    5 type  1   force =    -0.00001255    0.00018269    0.01028684
     atom    6 type  1   force =    -0.00006413   -0.00012367    0.01014714
     atom    7 type  1   force =     0.00034111    0.00008943    0.01057478
     atom    8 type  1   force =    -0.00003229    0.00026327    0.01046118
     atom    9 type  1   force =    -0.00016289    0.00022259    0.01030509
     atom   10 type  1   force =    -0.00000497    0.00003093   -0.00155659
     atom   11 type  1   force =    -0.00016908    0.00003313   -0.00167189
     atom   12 type  1   force =     0.00012669    0.00015329   -0.00163899
     atom   13 type  1   force =    -0.00000603   -0.00007064   -0.00185773
     atom   14 type  1   force =    -0.00012622    0.00001958   -0.00174005
     atom   15 type  1   force =     0.00007435   -0.00002396   -0.00193508
     atom   16 type  1   force =     0.00017047    0.00003563   -0.00185017
     atom   17 type  1   force =     0.00001374    0.00015628   -0.00184655
     atom   18 type  1   force =    -0.00024005   -0.00010868   -0.00170385
     atom   19 type  1   force =     0.00002357   -0.00006709    0.00092807
     atom   20 type  1   force =    -0.00051891    0.00069762    0.00067461
     atom   21 type  1   force =     0.00040469   -0.00002539    0.00162398
     atom   22 type  1   force =     0.00013619   -0.00050119    0.00221043
     atom   23 type  1   force =    -0.00017157    0.00013954    0.00171290
     atom   24 type  1   force =    -0.00001278   -0.00016100    0.00210512
     atom   25 type  1   force =     0.00016650   -0.00001554    0.00140561
     atom   26 type  1   force =    -0.00046439   -0.00014518    0.00052485
     atom   27 type  1   force =     0.00139868   -0.00092045   -0.00010949
     atom   28 type  1   force =     0.00855839    0.00276259    0.00295660
     atom   29 type  1   force =    -0.00311551    0.00360182   -0.00830041
     atom   30 type  1   force =    -0.00115299    0.00005561   -0.00921999
     atom   31 type  1   force =     0.00187859   -0.00612247   -0.00527998
     atom   32 type  1   force =    -0.00296946   -0.00262470   -0.00871579
     atom   33 type  1   force =     0.00036048   -0.00029164   -0.00963913
     atom   34 type  1   force =     0.00016464    0.00015082   -0.01007230
     atom   35 type  1   force =     0.00138274    0.00304491   -0.00769122
     atom   36 type  1   force =    -0.00165936    0.00153224   -0.00912250
     atom   37 type  2   force =     0.00458253   -0.00097716   -0.00217162
     atom   38 type  3   force =    -0.01745078   -0.00011291    0.00935860
     atom   39 type  4   force =     0.00000000    0.00000000    0.00000000
     The Hubbard contrib.    to forces
     atom    1 type  1   force =     0.00000000    0.00000000    0.00000000
     atom    2 type  1   force =     0.00000000    0.00000000    0.00000000
     atom    3 type  1   force =     0.00000000    0.00000000    0.00000000
     atom    4 type  1   force =     0.00000000    0.00000000    0.00000000
     atom    5 type  1   force =     0.00000000    0.00000000    0.00000000
     atom    6 type  1   force =     0.00000000    0.00000000    0.00000000
     atom    7 type  1   force =     0.00000000    0.00000000    0.00000000
     atom    8 type  1   force =     0.00000000    0.00000000    0.00000000
     atom    9 type  1   force =     0.00000000    0.00000000    0.00000000
     atom   10 type  1   force =     0.00000000    0.00000000    0.00000000
     atom   11 type  1   force =     0.00000000    0.00000000    0.00000000
     atom   12 type  1   force =     0.00000000    0.00000000    0.00000000
     atom   13 type  1   force =     0.00000000    0.00000000    0.00000000
     atom   14 type  1   force =     0.00000000    0.00000000    0.00000000
     atom   15 type  1   force =     0.00000000    0.00000000    0.00000000
     atom   16 type  1   force =     0.00000000    0.00000000    0.00000000
     atom   17 type  1   force =     0.00000000    0.00000000    0.00000000
     atom   18 type  1   force =     0.00000000    0.00000000    0.00000000
     atom   19 type  1   force =     0.00000000    0.00000000    0.00000000
     atom   20 type  1   force =     0.00000000    0.00000000    0.00000000
     atom   21 type  1   force =     0.00000000    0.00000000    0.00000000
     atom   22 type  1   force =     0.00000000    0.00000000    0.00000000
     atom   23 type  1   force =     0.00000000    0.00000000    0.00000000
     atom   24 type  1   force =     0.00000000    0.00000000    0.00000000
     atom   25 type  1   force =     0.00000000    0.00000000    0.00000000
     atom   26 type  1   force =     0.00000000    0.00000000    0.00000000
     atom   27 type  1   force =     0.00000000    0.00000000    0.00000000
     atom   28 type  1   force =     0.00000000    0.00000000    0.00000000
     atom   29 type  1   force =     0.00000000    0.00000000    0.00000000
     atom   30 type  1   force =     0.00000000    0.00000000    0.00000000
     atom   31 type  1   force =     0.00000000    0.00000000    0.00000000
     atom   32 type  1   force =     0.00000000    0.00000000    0.00000000
     atom   33 type  1   force =     0.00000000    0.00000000    0.00000000
     atom   34 type  1   force =     0.00000000    0.00000000    0.00000000
     atom   35 type  1   force =     0.00000000    0.00000000    0.00000000
     atom   36 type  1   force =     0.00000000    0.00000000    0.00000000
     atom   37 type  2   force =     0.00000000    0.00000000    0.00000000
     atom   38 type  3   force =     0.00000000    0.00000000    0.00000000
     atom   39 type  4   force =     0.00000000    0.00000000    0.00000000
     The SCF correction term to forces
     atom    1 type  1   force =     0.00000000    0.00000000   -0.00000000
     atom    2 type  1   force =    -0.00000000    0.00000000   -0.00000000
     atom    3 type  1   force =     0.00000000   -0.00000000   -0.00000000
     atom    4 type  1   force =    -0.00000000   -0.00000000   -0.00000000
     atom    5 type  1   force =    -0.00000000   -0.00000000   -0.00000000
     atom    6 type  1   force =     0.00000000   -0.00000000    0.00000000
     atom    7 type  1   force =    -0.00000000   -0.00000000    0.00000000
     atom    8 type  1   force =    -0.00000000    0.00000000    0.00000000
     atom    9 type  1   force =     0.00000000   -0.00000000    0.00000000
     atom   10 type  1   force =    -0.00000000    0.00000000    0.00000000
     atom   11 type  1   force =     0.00000000   -0.00000000    0.00000000
     atom   12 type  1   force =     0.00000000   -0.00000000   -0.00000000
     atom   13 type  1   force =    -0.00000000    0.00000000   -0.00000000
     atom   14 type  1   force =     0.00000000   -0.00000000   -0.00000000
     atom   15 type  1   force =     0.00000000   -0.00000000   -0.00000000
     atom   16 type  1   force =    -0.00000000    0.00000000   -0.00000000
     atom   17 type  1   force =     0.00000000    0.00000000    0.00000000
     atom   18 type  1   force =     0.00000000    0.00000000   -0.00000000
     atom   19 type  1   force =     0.00000000   -0.00000000   -0.00000000
     atom   20 type  1   force =    -0.00000000   -0.00000000   -0.00000000
     atom   21 type  1   force =     0.00000000   -0.00000000   -0.00000000
     atom   22 type  1   force =    -0.00000000    0.00000000   -0.00000000
     atom   23 type  1   force =     0.00000000    0.00000000   -0.00000000
     atom   24 type  1   force =    -0.00000000    0.00000000   -0.00000000
     atom   25 type  1   force =     0.00000000    0.00000000   -0.00000000
     atom   26 type  1   force =     0.00000000   -0.00000000    0.00000000
     atom   27 type  1   force =    -0.00000000    0.00000000   -0.00000000
     atom   28 type  1   force =     0.00000000   -0.00000000   -0.00000000
     atom   29 type  1   force =    -0.00000000   -0.00000000   -0.00000000
     atom   30 type  1   force =    -0.00000000   -0.00000000   -0.00000000
     atom   31 type  1   force =     0.00000000   -0.00000000   -0.00000000
     atom   32 type  1   force =     0.00000000   -0.00000000   -0.00000000
     atom   33 type  1   force =    -0.00000000   -0.00000000   -0.00000000
     atom   34 type  1   force =     0.00000000    0.00000000    0.00000000
     atom   35 type  1   force =    -0.00000000    0.00000000   -0.00000000
     atom   36 type  1   force =    -0.00000000    0.00000000   -0.00000000
     atom   37 type  2   force =    -0.00000225   -0.00001018   -0.00002725
     atom   38 type  3   force =    -0.00000403   -0.00001545   -0.00004489
     atom   39 type  4   force =     0.00000124   -0.00000055   -0.00000326

     Total force =     0.006595     Total SCF correction =     0.000056

     Writing all to output data dir ./pwscf.save/

     init_run     :     11.44s CPU     11.86s WALL (       1 calls)
     electrons    :    790.31s CPU   3709.25s WALL (       1 calls)
     forces       :      3.64s CPU      3.75s WALL (       1 calls)

     Called by init_run:
     wfcinit      :      8.32s CPU      8.64s WALL (       1 calls)
     potinit      :      2.01s CPU      2.08s WALL (       1 calls)
     hinit0       :      0.85s CPU      0.86s WALL (       1 calls)

     Called by electrons:
     c_bands      :    667.75s CPU   3582.77s WALL (      51 calls)
     sum_band     :     81.76s CPU     84.45s WALL (      51 calls)
     v_of_rho     :      9.13s CPU      9.56s WALL (      52 calls)
     newd         :      2.79s CPU      2.85s WALL (      52 calls)
     PAW_pot      :     13.43s CPU     13.61s WALL (      52 calls)
     mix_rho      :     16.67s CPU     17.03s WALL (      51 calls)
     vdW_kernel   :      1.09s CPU      1.10s WALL (       1 calls)

     Called by c_bands:
     init_us_2    :      8.99s CPU      9.18s WALL (    2704 calls)
     init_us_2:cp :      8.97s CPU      9.17s WALL (    2704 calls)
     cegterg      :    644.95s CPU    667.10s WALL (    1326 calls)

     Called by *egterg:
     cdiaghg      :    203.12s CPU    209.64s WALL (    4716 calls)
     h_psi        :    289.81s CPU    299.53s WALL (    4742 calls)
     s_psi        :     37.62s CPU     39.49s WALL (    4742 calls)
     g_psi        :      0.95s CPU      0.97s WALL (    3390 calls)

     Called by h_psi:
     h_psi:calbec :     50.84s CPU     51.94s WALL (    4742 calls)
     vloc_psi     :    197.90s CPU    204.19s WALL (    4742 calls)
     add_vuspsi   :     38.62s CPU     40.91s WALL (    4742 calls)

     General routines
     calbec       :     74.37s CPU     76.37s WALL (    6172 calls)
     fft          :      6.16s CPU      6.62s WALL (    4705 calls)
     ffts         :      9.72s CPU      9.95s WALL (   21796 calls)
     fftw         :    225.46s CPU    232.58s WALL ( 1374520 calls)
     interpolate  :      0.39s CPU      0.40s WALL (     104 calls)

     Parallel routines

     PWSCF        :  13m31.30s CPU      1h 2m WALL


   This run was terminated on:   8: 2:25  11Dec2025            

=------------------------------------------------------------------------------=
   JOB DONE.
=------------------------------------------------------------------------------=
