
     Program PWSCF v.7.1 starts on  6Dec2025 at 15:40:16 
        Git branch: heads/qe-7.1
        Last git commit: 48ba0178f8fede6d020eb786884699a9f063f55d-dirty
        Last git commit date: Fri Jan 27 14:22:33 2023 +0000
        Last git commit subject: Merge branch 'fix_hubbard' into 'develop'

     This program is part of the open-source Quantum ESPRESSO suite
     for quantum simulation of materials; please cite
         "P. Giannozzi et al., J. Phys.:Condens. Matter 21 395502 (2009);
         "P. Giannozzi et al., J. Phys.:Condens. Matter 29 465901 (2017);
         "P. Giannozzi et al., J. Chem. Phys. 152 154105 (2020);
          URL http://www.quantum-espresso.org", 
     in publications or presentations arising from this work. More details at
     http://www.quantum-espresso.org/quote

     Parallel version (MPI), running on    48 processors

     MPI processes distributed on     1 nodes
     37483 MiB available memory on the printing compute node when the environment starts

     Reading input from espresso.pwi
Warning: card &CELL ignored
Warning: card / ignored
Warning: card &FCP ignored
Warning: card / ignored
Warning: card &RISM ignored
Warning: card / ignored

     Current dimensions of program PWSCF are:
     Max number of different atomic species (ntypx) = 10
     Max number of k-points (npk) =  40000
     Max angular momentum in pseudopotentials (lmaxx) =  4
     file Pt.pbe-n-kjpaw_psl.1.0.0.UPF: wavefunction(s)  6S 5D renormalized
     file C.pbe-n-kjpaw_psl.1.0.0.UPF: wavefunction(s)  2S 2P renormalized
     file H.pbe-kjpaw_psl.1.0.0.UPF: wavefunction(s)  1S renormalized

     **************************************************************************
     Initializing libbeef V0.1.2 with the BEEF-vdW functional.
     Citation: Wellendorff et al., PRB 85, 235149 (2012).
     **************************************************************************


     IMPORTANT: XC functional enforced from input :
     Exchange-correlation= BEEF-VDW
                           (   1   4  43  14   2   0   0)
     Any further DFT definition will be discarded
     Please, verify this is what you really want


     R & G space division:  proc/nbgrp/npool/nimage =      48
     Subspace diagonalization in iterative solution of the eigenvalue problem:
     one sub-group per band group will be used
     custom distributed-memory algorithm (size of sub-group:  2*  2 procs)


     Parallelization info
     --------------------
     sticks:   dense  smooth     PW     G-vecs:    dense   smooth      PW
     Min         151      59     16                29407     7165    1028
     Max         152      60     17                29420     7176    1042
     Sum        7267    2839    769              1411785   344073   49691

     Using Slab Decomposition



     bravais-lattice index     =            0
     lattice parameter (alat)  =      16.0349  a.u.
     unit-cell volume          =   10068.6169 (a.u.)^3
     number of atoms/cell      =           39
     number of atomic types    =            3
     number of electrons       =       369.00
     number of Kohn-Sham states=          222
     kinetic-energy cutoff     =      40.0000  Ry
     charge density cutoff     =     410.0000  Ry
     scf convergence threshold =      1.0E-06
     mixing beta               =       0.7000
     number of iterations used =            8  local-TF  mixing
     Exchange-correlation= BEEF-VDW
                           (   1   4  43  14   2   0   0)

     celldm(1)=  16.034858  celldm(2)=   0.000000  celldm(3)=   0.000000
     celldm(4)=   0.000000  celldm(5)=   0.000000  celldm(6)=   0.000000

     crystal axes: (cart. coord. in units of alat)
               a(1) = (   1.000000   0.000000   0.000000 )  
               a(2) = (   0.500000   0.866025   0.000000 )  
               a(3) = (   0.000000   0.000000   2.819966 )  

     reciprocal axes: (cart. coord. in units 2 pi/alat)
               b(1) = (  1.000000 -0.577350  0.000000 )  
               b(2) = (  0.000000  1.154701  0.000000 )  
               b(3) = (  0.000000  0.000000  0.354614 )  


     PseudoPot. # 1 for Pt read from file:
     /users/kbadger1/espresso/pseudo/pslibrary.1.0.0/pbe/PSEUDOPOTENTIALS/Pt.pbe-n-kjpaw_psl.1.0.0.UPF
     MD5 check sum: 2e24a0b5bf98a4ed1a57fa81bca8c143
     Pseudo is Projector augmented-wave + core cor, Zval = 10.0
     Generated using 'atomic' code by A. Dal Corso  v.7.0
     Shape of augmentation charge: PSQ
     Using radial grid of 1277 points,  6 beta functions with: 
                l(1) =   0
                l(2) =   0
                l(3) =   1
                l(4) =   1
                l(5) =   2
                l(6) =   2
     Q(r) pseudized with 0 coefficients 


     PseudoPot. # 2 for C  read from file:
     /users/kbadger1/espresso/pseudo/pslibrary.1.0.0/pbe/PSEUDOPOTENTIALS/C.pbe-n-kjpaw_psl.1.0.0.UPF
     MD5 check sum: 6408e75cdba28732cea38a4db8498ce4
     Pseudo is Projector augmented-wave + core cor, Zval =  4.0
     Generated using 'atomic' code by A. Dal Corso  v.7.0
     Shape of augmentation charge: PSQ
     Using radial grid of 1073 points,  4 beta functions with: 
                l(1) =   0
                l(2) =   0
                l(3) =   1
                l(4) =   1
     Q(r) pseudized with 0 coefficients 


     PseudoPot. # 3 for H  read from file:
     /users/kbadger1/espresso/pseudo/pslibrary.1.0.0/pbe/PSEUDOPOTENTIALS/H.pbe-kjpaw_psl.1.0.0.UPF
     MD5 check sum: fe4c6fa958fa6d3815bf5d2419cbf1df
     Pseudo is Projector augmented-wave, Zval =  1.0
     Generated using 'atomic' code by A. Dal Corso  v.7.0
     Shape of augmentation charge: PSQ
     Using radial grid of  929 points,  2 beta functions with: 
                l(1) =   0
                l(2) =   0
     Q(r) pseudized with 0 coefficients 


     atomic species   valence    mass     pseudopotential
        Pt            10.00   195.08400     Pt( 1.00)
        C              4.00    12.01100     C ( 1.00)
        H              1.00     1.00800     H ( 1.00)

     No symmetry found



   Cartesian axes

     site n.     atom                  positions (alat units)
         1           Pt  tau(   1) = (   0.0000000   0.0000000   1.0017346  )
         2           Pt  tau(   2) = (   0.3333333   0.0000000   1.0017346  )
         3           Pt  tau(   3) = (   0.6666667   0.0000000   1.0017346  )
         4           Pt  tau(   4) = (   0.1666667   0.2886751   1.0017346  )
         5           Pt  tau(   5) = (   0.5000000   0.2886751   1.0017346  )
         6           Pt  tau(   6) = (   0.8333333   0.2886751   1.0017346  )
         7           Pt  tau(   7) = (   0.3333333   0.5773503   1.0017346  )
         8           Pt  tau(   8) = (   0.6666667   0.5773503   1.0017346  )
         9           Pt  tau(   9) = (   1.0000000   0.5773503   1.0017346  )
        10           Pt  tau(  10) = (   0.1666667   0.0962250   1.2739001  )
        11           Pt  tau(  11) = (   0.5000000   0.0962250   1.2739001  )
        12           Pt  tau(  12) = (   0.8333333   0.0962250   1.2739001  )
        13           Pt  tau(  13) = (   0.3333333   0.3849002   1.2739001  )
        14           Pt  tau(  14) = (   0.6666667   0.3849002   1.2739001  )
        15           Pt  tau(  15) = (   1.0000000   0.3849002   1.2739001  )
        16           Pt  tau(  16) = (   0.5000000   0.6735753   1.2739001  )
        17           Pt  tau(  17) = (   0.8333333   0.6735753   1.2739001  )
        18           Pt  tau(  18) = (   1.1666667   0.6735753   1.2739001  )
        19           Pt  tau(  19) = (   0.0038480   0.1902539   1.5521256  )
        20           Pt  tau(  20) = (   0.3294005   0.1902520   1.5521002  )
        21           Pt  tau(  21) = (   0.6666242   0.1930440   1.5379508  )
        22           Pt  tau(  22) = (   0.1666187   0.4769889   1.5501742  )
        23           Pt  tau(  23) = (   0.4968380   0.4809518   1.5455198  )
        24           Pt  tau(  24) = (   0.8364065   0.4809581   1.5455153  )
        25           Pt  tau(  25) = (   0.3348512   0.7681074   1.5472941  )
        26           Pt  tau(  26) = (   0.6666264   0.7697214   1.5467596  )
        27           Pt  tau(  27) = (   0.9984059   0.7681071   1.5472812  )
        28           Pt  tau(  28) = (  -0.0151017  -0.0140436   1.8319053  )
        29           Pt  tau(  29) = (   0.3482889  -0.0140056   1.8318717  )
        30           Pt  tau(  30) = (   0.6665963   0.0029979   1.8121446  )
        31           Pt  tau(  31) = (   0.1665303   0.2847765   1.8695050  )
        32           Pt  tau(  32) = (   0.5043200   0.2845725   1.8144220  )
        33           Pt  tau(  33) = (   0.8288333   0.2845728   1.8144204  )
        34           Pt  tau(  34) = (   0.3358536   0.5713436   1.8357248  )
        35           Pt  tau(  35) = (   0.6665777   0.5680655   1.8131355  )
        36           Pt  tau(  36) = (   0.9972731   0.5713628   1.8357089  )
        37           C   tau(  37) = (   0.1665976   0.0602823   1.9340348  )
        38           H   tau(  38) = (   0.1664783   0.3526511   2.0588373  )
        39           C   tau(  39) = (   0.1665565   0.5101338   1.9785265  )

     number of k points=    13  Marzari-Vanderbilt smearing, width (Ry)=  0.0010
                       cart. coord. in units 2pi/alat
        k(    1) = (   0.0000000   0.0000000   0.0000000), wk =   0.0800000
        k(    2) = (   0.0000000   0.2309401   0.0000000), wk =   0.1600000
        k(    3) = (   0.0000000   0.4618802   0.0000000), wk =   0.1600000
        k(    4) = (   0.2000000  -0.1154701   0.0000000), wk =   0.1600000
        k(    5) = (   0.2000000   0.1154701   0.0000000), wk =   0.1600000
        k(    6) = (   0.2000000   0.3464102   0.0000000), wk =   0.1600000
        k(    7) = (   0.2000000  -0.5773503   0.0000000), wk =   0.1600000
        k(    8) = (   0.2000000  -0.3464102   0.0000000), wk =   0.1600000
        k(    9) = (   0.4000000  -0.2309401   0.0000000), wk =   0.1600000
        k(   10) = (   0.4000000  -0.0000000   0.0000000), wk =   0.1600000
        k(   11) = (   0.4000000   0.2309401   0.0000000), wk =   0.1600000
        k(   12) = (   0.4000000  -0.6928203   0.0000000), wk =   0.1600000
        k(   13) = (   0.4000000  -0.4618802   0.0000000), wk =   0.1600000

     Dense  grid:  1411785 G-vectors     FFT dimensions: ( 108, 108, 300)

     Smooth grid:   344073 G-vectors     FFT dimensions: (  72,  72, 192)

     Estimated max dynamical RAM per process >     207.37 MB

     Estimated total dynamical RAM >       9.72 GB

     Initial potential from superposition of free atoms

     starting charge     368.9938, renormalised to     369.0000

     negative rho (up, down):  3.214E-03 0.000E+00


     %%%%%%%%%%%%%%%%%%%%%%%%%%%%%%%%%%%%%%%%%%%%%%%%%%%%%%%%%%%%%%%%%%%%%%%%
     %                                                                      %
     % You are using vdW-DF, which was implemented by the Thonhauser group. %
     % Please cite the following two papers that made this development      %
     % possible and the two reviews that describe the various versions:     %
     %                                                                      %
     %   T. Thonhauser et al., PRL 115, 136402 (2015).                      %
     %   T. Thonhauser et al., PRB 76, 125112 (2007).                       %
     %   K. Berland et al., Rep. Prog. Phys. 78, 066501 (2015).             %
     %   D.C. Langreth et al., J. Phys.: Condens. Matter 21, 084203 (2009). %
     %                                                                      %
     % If you are calculating stress with vdW-DF, please also cite:         %
     %                                                                      %
     %   R. Sabatini et al., J. Phys.: Condens. Matter 24, 424209 (2012).   %
     %                                                                      %
     %%%%%%%%%%%%%%%%%%%%%%%%%%%%%%%%%%%%%%%%%%%%%%%%%%%%%%%%%%%%%%%%%%%%%%%%

     %%%%%%%%%%%%%%%%%%%%%%%%%%%%%%%%%%%%%%%%%%%%%%%%%%%%%%%%%%%%%%%%%%%%%%%%
     %                                                                      %
     %  vdW-DF NEWS:                                                        %
     %                                                                      %
     %  * vdW-DF3 is now available. DOI: 10.1021/acs.jctc.0c00471           %
     %    use with input_dft = 'vdW-DF3-opt1' or 'vdW-DF3-opt2'             %
     %                                                                      %
     %  * Unscreened and range-separated hybrid vdW-DF-cx functionals       %
     %    DOI: 10.1063/1.4986522 and 10.1088/1361-648X/ac2ad2               %
     %    use with input_dft = 'vdW-DF-cx0'    and 'vdW-DF-ahcx'            %
     %  * Unscreened and range-separated hybrid vdW-DF2-b86r functionals    %
     %    DOI: 10.1063/1.4986522 and DOI: 10.1103/PhysRevX.12.041003        %
     %    use with input_dft = 'vdW-DF2-br0' and 'vdW-DF2-ahbr'             %
     %                                                                      %
     %%%%%%%%%%%%%%%%%%%%%%%%%%%%%%%%%%%%%%%%%%%%%%%%%%%%%%%%%%%%%%%%%%%%%%%%


     Starting wfcs are  333 randomized atomic wfcs
     Checking if some PAW data can be deallocated... 

     total cpu time spent up to now is       12.8 secs

     per-process dynamical memory:   212.5 Mb

     Self-consistent Calculation

     iteration #  1     ecut=    40.00 Ry     beta= 0.70
     Davidson diagonalization with overlap
     ethr =  1.00E-02,  avg # of iterations =  2.0

     Threshold (ethr) on eigenvalues was too large:
     Diagonalizing with lowered threshold

     Davidson diagonalization with overlap
     ethr =  6.71E-04,  avg # of iterations =  2.6

     negative rho (up, down):  1.573E-02 0.000E+00

     total cpu time spent up to now is       49.7 secs

     total energy              =  -27792.78199518 Ry
     estimated scf accuracy    <       2.73298418 Ry

     iteration #  2     ecut=    40.00 Ry     beta= 0.70
     Davidson diagonalization with overlap
     ethr =  7.41E-04,  avg # of iterations =  2.2

     negative rho (up, down):  1.244E-02 0.000E+00

     total cpu time spent up to now is       63.2 secs

     total energy              =  -27793.13034114 Ry
     estimated scf accuracy    <       0.83742466 Ry

     iteration #  3     ecut=    40.00 Ry     beta= 0.70
     Davidson diagonalization with overlap
     ethr =  2.27E-04,  avg # of iterations =  2.3

     negative rho (up, down):  9.220E-03 0.000E+00

     total cpu time spent up to now is       81.6 secs

     total energy              =  -27793.20565442 Ry
     estimated scf accuracy    <       0.35870833 Ry

     iteration #  4     ecut=    40.00 Ry     beta= 0.70
     Davidson diagonalization with overlap
     ethr =  9.72E-05,  avg # of iterations =  7.1

     negative rho (up, down):  4.154E-03 0.000E+00

     total cpu time spent up to now is       98.7 secs

     total energy              =  -27793.23481110 Ry
     estimated scf accuracy    <       0.04351328 Ry

     iteration #  5     ecut=    40.00 Ry     beta= 0.70
     Davidson diagonalization with overlap
     c_bands:  1 eigenvalues not converged
     c_bands:  2 eigenvalues not converged
     c_bands:  2 eigenvalues not converged
     ethr =  1.18E-05,  avg # of iterations = 16.6

     negative rho (up, down):  2.705E-03 0.000E+00

     total cpu time spent up to now is      145.2 secs

     total energy              =  -27793.26062068 Ry
     estimated scf accuracy    <       0.05084303 Ry

     iteration #  6     ecut=    40.00 Ry     beta= 0.70
     Davidson diagonalization with overlap
     ethr =  1.18E-05,  avg # of iterations =  1.5

     negative rho (up, down):  9.250E-04 0.000E+00

     total cpu time spent up to now is      158.0 secs

     total energy              =  -27793.26118324 Ry
     estimated scf accuracy    <       0.00755389 Ry

     iteration #  7     ecut=    40.00 Ry     beta= 0.70
     Davidson diagonalization with overlap
     ethr =  2.05E-06,  avg # of iterations = 11.3

     negative rho (up, down):  3.793E-04 0.000E+00

     total cpu time spent up to now is      185.9 secs

     total energy              =  -27793.26182787 Ry
     estimated scf accuracy    <       0.00362386 Ry

     iteration #  8     ecut=    40.00 Ry     beta= 0.70
     Davidson diagonalization with overlap
     ethr =  9.82E-07,  avg # of iterations =  1.9

     negative rho (up, down):  2.721E-04 0.000E+00

     total cpu time spent up to now is      203.6 secs

     total energy              =  -27793.26208452 Ry
     estimated scf accuracy    <       0.00081256 Ry

     iteration #  9     ecut=    40.00 Ry     beta= 0.70
     Davidson diagonalization with overlap
     ethr =  2.20E-07,  avg # of iterations =  4.0

     negative rho (up, down):  2.629E-04 0.000E+00

     total cpu time spent up to now is      223.5 secs

     total energy              =  -27793.26221301 Ry
     estimated scf accuracy    <       0.00048858 Ry

     iteration # 10     ecut=    40.00 Ry     beta= 0.70
     Davidson diagonalization with overlap
     ethr =  1.32E-07,  avg # of iterations =  2.0

     negative rho (up, down):  2.963E-04 0.000E+00

     total cpu time spent up to now is      241.7 secs

     total energy              =  -27793.26224360 Ry
     estimated scf accuracy    <       0.00031402 Ry

     iteration # 11     ecut=    40.00 Ry     beta= 0.70
     Davidson diagonalization with overlap
     ethr =  8.51E-08,  avg # of iterations =  2.8

     negative rho (up, down):  3.509E-04 0.000E+00

     total cpu time spent up to now is      262.7 secs

     total energy              =  -27793.26231110 Ry
     estimated scf accuracy    <       0.00028715 Ry

     iteration # 12     ecut=    40.00 Ry     beta= 0.70
     Davidson diagonalization with overlap
     ethr =  7.78E-08,  avg # of iterations =  1.3

     negative rho (up, down):  3.916E-04 0.000E+00

     total cpu time spent up to now is      275.1 secs

     total energy              =  -27793.26229639 Ry
     estimated scf accuracy    <       0.00017816 Ry

     iteration # 13     ecut=    40.00 Ry     beta= 0.70
     Davidson diagonalization with overlap
     ethr =  4.83E-08,  avg # of iterations =  1.1

     negative rho (up, down):  7.585E-04 0.000E+00

     total cpu time spent up to now is      291.5 secs

     total energy              =  -27793.26234747 Ry
     estimated scf accuracy    <       0.00005830 Ry

     iteration # 14     ecut=    40.00 Ry     beta= 0.70
     Davidson diagonalization with overlap
     ethr =  1.58E-08,  avg # of iterations =  2.0

     negative rho (up, down):  1.184E-03 0.000E+00

     total cpu time spent up to now is      308.2 secs

     total energy              =  -27793.26237357 Ry
     estimated scf accuracy    <       0.00003085 Ry

     iteration # 15     ecut=    40.00 Ry     beta= 0.70
     Davidson diagonalization with overlap
     ethr =  8.36E-09,  avg # of iterations =  2.0

     negative rho (up, down):  1.416E-03 0.000E+00

     total cpu time spent up to now is      325.7 secs

     total energy              =  -27793.26238161 Ry
     estimated scf accuracy    <       0.00002592 Ry

     iteration # 16     ecut=    40.00 Ry     beta= 0.70
     Davidson diagonalization with overlap
     ethr =  7.02E-09,  avg # of iterations =  1.0

     negative rho (up, down):  2.597E-03 0.000E+00

     total cpu time spent up to now is      337.6 secs

     total energy              =  -27793.26238185 Ry
     estimated scf accuracy    <       0.00001259 Ry

     iteration # 17     ecut=    40.00 Ry     beta= 0.70
     Davidson diagonalization with overlap
     ethr =  3.41E-09,  avg # of iterations =  2.0

     negative rho (up, down):  2.929E-03 0.000E+00

     total cpu time spent up to now is      355.6 secs

     total energy              =  -27793.26238110 Ry
     estimated scf accuracy    <       0.00000383 Ry

     iteration # 18     ecut=    40.00 Ry     beta= 0.70
     Davidson diagonalization with overlap
     ethr =  1.04E-09,  avg # of iterations =  3.8

     negative rho (up, down):  3.084E-03 0.000E+00

     total cpu time spent up to now is      377.7 secs

     End of self-consistent calculation

          k = 0.0000 0.0000 0.0000 ( 42913 PWs)   bands (ev):

   -10.0336  -9.2694  -5.9475  -4.7646  -4.5729  -4.2689  -3.9821  -3.6425
    -3.6273  -3.5751  -3.5743  -3.5251  -3.4818  -3.4249  -3.4151  -3.0908
    -3.0671  -3.0668  -3.0493  -2.9924  -2.9623  -2.8072  -2.8038  -2.6792
    -2.6728  -2.5002  -2.4481  -2.4266  -2.4120  -2.4080  -2.3802  -2.3175
    -2.2979  -2.2679  -2.2489  -2.2329  -2.2025  -2.1420  -2.1039  -2.0871
    -2.0382  -2.0298  -1.9578  -1.9497  -1.8914  -1.8539  -1.6944  -1.6641
    -1.6354  -1.5905  -1.5473  -1.5356  -1.4910  -1.4862  -1.4279  -1.4080
    -1.2703  -1.2631  -1.2294  -1.1901  -1.1137  -1.0425  -0.9516  -0.8878
    -0.8328  -0.8143  -0.7354  -0.6948  -0.6898  -0.6446  -0.6161  -0.5907
    -0.5534  -0.5513  -0.5271  -0.5184  -0.4983  -0.4863  -0.4631  -0.4506
    -0.4133  -0.4043  -0.3903  -0.3885  -0.3803  -0.3688  -0.3608  -0.3292
    -0.3291  -0.2965  -0.2465  -0.1538  -0.1410  -0.1037  -0.0995  -0.0424
    -0.0346  -0.0084  -0.0019   0.0445   0.0514   0.1053   0.1104   0.1490
     0.1559   0.1568   0.1731   0.2135   0.2306   0.2683   0.2773   0.3157
     0.4684   0.5104   0.5114   0.5399   0.6323   0.7156   0.7293   0.7436
     0.8245   0.8951   0.9289   0.9315   0.9347   0.9720   1.0023   1.0058
     1.0282   1.0371   1.0766   1.0784   1.1513   1.1538   1.2531   1.2697
     1.3070   1.3323   1.3708   1.3904   1.4629   1.4827   1.4962   1.4999
     1.5481   1.5527   1.5730   1.6157   1.6829   1.7370   1.7567   1.8344
     1.8474   1.8606   1.8830   1.8958   1.9158   1.9470   1.9494   1.9749
     1.9852   1.9898   1.9997   2.0175   2.0378   2.0432   2.0776   2.0797
     2.0940   2.1158   2.1462   2.1862   2.1879   2.2189   2.2559   2.2572
     2.3020   2.3236   2.3319   2.3429   2.3486   2.3659   2.3811   2.4124
     2.4146   2.4541   2.4745   2.5022   2.5169   2.6316   2.6418   2.6698
     2.6707   2.7352   2.7652   2.7828   2.7929   2.8027   3.0312   3.1844
     3.4178   3.5766   3.6404   3.6824   4.1751   4.5784   4.7071   4.8431
     5.1270   5.5786   5.8708   5.9696   6.1427   6.2273   6.8513   6.9374
     7.5002   7.5928   7.6358   7.6451   7.7107   7.8294

          k = 0.0000 0.2309 0.0000 ( 42996 PWs)   bands (ev):

   -10.0080  -9.2967  -5.8042  -4.7388  -4.4716  -4.2098  -4.0931  -3.9048
    -3.6458  -3.5998  -3.4909  -3.4135  -3.3362  -3.2919  -3.2739  -3.1323
    -3.1035  -3.0702  -2.9960  -2.9809  -2.9069  -2.7887  -2.7829  -2.6353
    -2.5758  -2.5573  -2.5122  -2.4648  -2.4526  -2.4076  -2.3381  -2.3030
    -2.2931  -2.2803  -2.2779  -2.2099  -2.2062  -2.1748  -2.1407  -2.0864
    -2.0270  -1.9967  -1.9663  -1.9105  -1.8301  -1.8248  -1.7451  -1.6824
    -1.6620  -1.6244  -1.6118  -1.5985  -1.4873  -1.4828  -1.3840  -1.3744
    -1.3206  -1.3075  -1.2360  -1.2261  -1.1589  -1.0185  -0.9687  -0.9668
    -0.8955  -0.8844  -0.8615  -0.8554  -0.8143  -0.7646  -0.7347  -0.6770
    -0.6650  -0.6306  -0.5919  -0.5760  -0.5703  -0.5373  -0.5141  -0.4613
    -0.4411  -0.4144  -0.3727  -0.3632  -0.3399  -0.3213  -0.3063  -0.3027
    -0.2800  -0.2370  -0.1944  -0.1699  -0.1518  -0.1340  -0.0971  -0.0847
    -0.0781  -0.0602  -0.0378  -0.0311   0.0264   0.0462   0.0657   0.0722
     0.1016   0.1545   0.1658   0.2180   0.2269   0.3160   0.3273   0.3361
     0.3907   0.3909   0.4024   0.4169   0.4317   0.5243   0.5547   0.6483
     0.6658   0.7434   0.7525   0.8088   0.8166   0.8982   0.9231   0.9788
     1.0134   1.0421   1.1130   1.1161   1.1389   1.1535   1.1663   1.1859
     1.2317   1.2746   1.3116   1.3307   1.3861   1.3866   1.4334   1.4613
     1.4811   1.5093   1.5399   1.5481   1.5897   1.6296   1.6545   1.7408
     1.7621   1.7713   1.8448   1.8940   1.8976   1.9079   1.9345   1.9588
     1.9743   2.0077   2.0133   2.0665   2.1088   2.1230   2.1971   2.2037
     2.2458   2.3055   2.3135   2.3286   2.3351   2.3401   2.3899   2.4045
     2.4313   2.4483   2.4945   2.4976   2.5326   2.5685   2.6192   2.6335
     2.6395   2.6706   2.6783   2.7051   2.7627   2.7799   2.7934   2.7951
     2.8534   2.9152   2.9472   3.0449   3.0648   3.1310   3.2236   3.3155
     3.5125   3.6931   3.8381   4.1677   4.3328   4.6416   4.6789   5.0617
     5.1185   5.5709   5.6773   6.1483   6.2654   6.4094   6.5006   6.8192
     6.9191   7.0785   7.4393   7.4556   7.7865   7.8356

          k = 0.0000 0.4619 0.0000 ( 43046 PWs)   bands (ev):

    -9.9618  -9.3454  -5.3973  -4.8477  -4.5992  -4.1374  -4.0970  -3.9112
    -3.6793  -3.5740  -3.4968  -3.3231  -3.2290  -3.1925  -3.0989  -3.0389
    -3.0045  -2.9618  -2.8901  -2.8159  -2.7776  -2.7604  -2.7034  -2.6815
    -2.6397  -2.6173  -2.5812  -2.5471  -2.5095  -2.4975  -2.4528  -2.4127
    -2.3953  -2.3026  -2.2472  -2.2029  -2.1585  -2.1025  -2.0869  -2.0559
    -1.9871  -1.9425  -1.9276  -1.8934  -1.8560  -1.8423  -1.7664  -1.7624
    -1.6711  -1.6101  -1.6062  -1.5399  -1.5294  -1.4665  -1.4496  -1.4237
    -1.3946  -1.3535  -1.3135  -1.2844  -1.2047  -1.1808  -1.1313  -1.0669
    -1.0385  -0.9748  -0.9705  -0.9370  -0.8856  -0.8773  -0.8380  -0.8128
    -0.7734  -0.7332  -0.7078  -0.7056  -0.6692  -0.6104  -0.5968  -0.5230
    -0.5064  -0.4532  -0.4216  -0.4186  -0.3907  -0.3904  -0.3683  -0.3010
    -0.3006  -0.2803  -0.2585  -0.2477  -0.2058  -0.1773  -0.1545  -0.1397
    -0.0880  -0.0624  -0.0611  -0.0354  -0.0178   0.0045   0.0126   0.0316
     0.1035   0.1050   0.1306   0.1756   0.1892   0.2423   0.3011   0.3249
     0.3345   0.3696   0.3961   0.4536   0.4556   0.5624   0.5784   0.6110
     0.6143   0.6922   0.7111   0.7673   0.7838   0.7975   0.8174   0.8376
     0.8649   0.9013   0.9147   0.9785   1.0018   1.0459   1.0541   1.1033
     1.1355   1.1781   1.2378   1.2683   1.3008   1.3495   1.3647   1.4190
     1.4606   1.4813   1.5062   1.5923   1.5935   1.6275   1.6474   1.6758
     1.6864   1.7498   1.7655   1.8163   1.8426   1.8663   1.8945   1.9606
     1.9810   2.0210   2.0539   2.0730   2.1255   2.1959   2.2164   2.2372
     2.3314   2.3480   2.3620   2.3819   2.4259   2.4279   2.4898   2.5127
     2.5373   2.5898   2.5968   2.6445   2.6614   2.6818   2.6839   2.7566
     2.8044   2.8634   2.9192   2.9262   2.9411   2.9641   3.0051   3.0921
     3.1823   3.2274   3.2656   3.6113   3.8945   3.9351   4.0529   4.1339
     4.1691   4.3642   4.4970   4.6485   4.8003   4.8312   5.0717   5.2073
     5.3298   5.4115   5.5556   5.6138   5.8202   5.8938   6.1952   6.4604
     6.4966   6.7681   6.9596   7.0823   7.2129   7.7125

          k = 0.2000-0.1155 0.0000 ( 42996 PWs)   bands (ev):

   -10.0175  -9.2795  -5.8074  -4.7096  -4.4926  -4.3204  -3.9809  -3.8968
    -3.6553  -3.6024  -3.4968  -3.4383  -3.3774  -3.3014  -3.2793  -3.1651
    -3.0983  -3.0292  -3.0034  -2.9578  -2.8970  -2.7982  -2.7579  -2.6495
    -2.6077  -2.5700  -2.4891  -2.4761  -2.4405  -2.3721  -2.3444  -2.3212
    -2.3000  -2.2797  -2.2696  -2.2277  -2.1908  -2.1618  -2.1068  -2.0791
    -2.0418  -2.0081  -1.9405  -1.8900  -1.8498  -1.8156  -1.7484  -1.6830
    -1.6488  -1.6265  -1.6214  -1.5853  -1.5212  -1.4721  -1.4087  -1.3763
    -1.3416  -1.2722  -1.2521  -1.2109  -1.1569  -1.0596  -0.9825  -0.9476
    -0.9215  -0.8824  -0.8657  -0.8434  -0.8112  -0.7888  -0.7312  -0.6903
    -0.6591  -0.6135  -0.5991  -0.5774  -0.5605  -0.5293  -0.5251  -0.4636
    -0.4391  -0.4158  -0.3899  -0.3882  -0.3548  -0.3250  -0.3110  -0.2975
    -0.2782  -0.2414  -0.2143  -0.1863  -0.1588  -0.1210  -0.1054  -0.0864
    -0.0720  -0.0416  -0.0205   0.0165   0.0342   0.0462   0.0641   0.0833
     0.0950   0.1243   0.1782   0.2236   0.2676   0.3121   0.3253   0.3453
     0.3728   0.3937   0.4067   0.4490   0.4781   0.4998   0.5686   0.6033
     0.6544   0.7217   0.7406   0.7859   0.8339   0.8753   0.9210   0.9697
     1.0283   1.0512   1.0865   1.0986   1.1548   1.1688   1.1968   1.2117
     1.2304   1.2668   1.3261   1.3456   1.4041   1.4228   1.4369   1.4523
     1.5171   1.5283   1.5500   1.5843   1.6333   1.6678   1.6941   1.7456
     1.7774   1.7825   1.8428   1.8730   1.9118   1.9325   1.9643   1.9839
     1.9962   2.0174   2.0379   2.0590   2.1064   2.1305   2.1813   2.2068
     2.2546   2.2718   2.2901   2.3192   2.3268   2.3423   2.3695   2.3898
     2.4167   2.4538   2.4811   2.5058   2.5469   2.5602   2.6179   2.6294
     2.6429   2.6629   2.6891   2.7045   2.7448   2.7614   2.7751   2.7855
     2.8284   2.9147   2.9383   2.9986   3.0272   3.0772   3.1409   3.3778
     3.5468   3.7865   3.8532   4.0522   4.3286   4.5237   4.6911   5.0376
     5.1338   5.5515   5.7303   6.0131   6.3239   6.3914   6.5955   6.6886
     6.8905   7.1095   7.4670   7.5584   7.7172   7.8596

          k = 0.2000 0.1155 0.0000 ( 42996 PWs)   bands (ev):

   -10.0175  -9.2795  -5.8074  -4.7096  -4.4926  -4.3204  -3.9809  -3.8968
    -3.6553  -3.6025  -3.4968  -3.4383  -3.3773  -3.3015  -3.2793  -3.1651
    -3.0983  -3.0292  -3.0032  -2.9577  -2.8970  -2.7982  -2.7579  -2.6495
    -2.6076  -2.5701  -2.4892  -2.4761  -2.4405  -2.3720  -2.3444  -2.3211
    -2.3000  -2.2797  -2.2696  -2.2277  -2.1908  -2.1619  -2.1069  -2.0792
    -2.0416  -2.0082  -1.9406  -1.8899  -1.8498  -1.8155  -1.7485  -1.6831
    -1.6488  -1.6265  -1.6215  -1.5853  -1.5212  -1.4722  -1.4087  -1.3762
    -1.3416  -1.2722  -1.2521  -1.2110  -1.1570  -1.0596  -0.9826  -0.9478
    -0.9216  -0.8825  -0.8657  -0.8433  -0.8113  -0.7888  -0.7313  -0.6903
    -0.6589  -0.6134  -0.5991  -0.5774  -0.5605  -0.5291  -0.5250  -0.4636
    -0.4391  -0.4157  -0.3899  -0.3882  -0.3548  -0.3250  -0.3109  -0.2975
    -0.2782  -0.2415  -0.2142  -0.1861  -0.1588  -0.1211  -0.1053  -0.0864
    -0.0720  -0.0418  -0.0204   0.0166   0.0342   0.0463   0.0641   0.0833
     0.0951   0.1241   0.1782   0.2238   0.2676   0.3121   0.3253   0.3452
     0.3728   0.3937   0.4066   0.4489   0.4782   0.4997   0.5685   0.6033
     0.6545   0.7216   0.7406   0.7860   0.8340   0.8752   0.9209   0.9697
     1.0284   1.0514   1.0866   1.0987   1.1548   1.1686   1.1968   1.2118
     1.2304   1.2670   1.3261   1.3455   1.4041   1.4227   1.4370   1.4523
     1.5170   1.5283   1.5500   1.5842   1.6333   1.6678   1.6941   1.7456
     1.7773   1.7825   1.8429   1.8729   1.9117   1.9325   1.9643   1.9840
     1.9962   2.0174   2.0379   2.0590   2.1064   2.1304   2.1813   2.2068
     2.2546   2.2719   2.2901   2.3193   2.3268   2.3423   2.3695   2.3898
     2.4167   2.4537   2.4812   2.5058   2.5469   2.5603   2.6179   2.6295
     2.6429   2.6630   2.6890   2.7044   2.7448   2.7613   2.7751   2.7855
     2.8284   2.9147   2.9382   2.9986   3.0271   3.0773   3.1408   3.3776
     3.5469   3.7863   3.8533   4.0522   4.3287   4.5237   4.6912   5.0377
     5.1338   5.5515   5.7303   6.0130   6.3238   6.3914   6.5955   6.6886
     6.8905   7.1096   7.4671   7.5584   7.7172   7.8601

          k = 0.2000 0.3464 0.0000 ( 43046 PWs)   bands (ev):

    -9.9821  -9.3171  -5.5316  -4.7043  -4.4628  -4.2799  -4.2243  -3.9546
    -3.8366  -3.4057  -3.2989  -3.2613  -3.2195  -3.1975  -3.1753  -3.1410
    -3.1051  -3.0521  -2.9996  -2.9287  -2.7730  -2.7255  -2.6838  -2.6583
    -2.6257  -2.5875  -2.5556  -2.5083  -2.4739  -2.3986  -2.3859  -2.3667
    -2.3577  -2.3350  -2.2681  -2.2489  -2.1956  -2.1669  -2.1598  -2.0940
    -2.0435  -2.0071  -1.9220  -1.8696  -1.8121  -1.7872  -1.7361  -1.7071
    -1.6606  -1.6379  -1.5692  -1.5595  -1.5034  -1.4753  -1.4277  -1.4022
    -1.3468  -1.2978  -1.2529  -1.2309  -1.2153  -1.1554  -1.1470  -1.0681
    -1.0332  -0.9846  -0.9574  -0.9095  -0.8791  -0.8622  -0.8143  -0.7920
    -0.7666  -0.7156  -0.6911  -0.6581  -0.6323  -0.6122  -0.5658  -0.5243
    -0.5197  -0.4696  -0.4563  -0.4200  -0.3870  -0.3619  -0.3458  -0.3209
    -0.2784  -0.2477  -0.2306  -0.2016  -0.1870  -0.1505  -0.1390  -0.1197
    -0.0860  -0.0752  -0.0651  -0.0363  -0.0051   0.0135   0.0458   0.0789
     0.1027   0.1210   0.1380   0.1668   0.1878   0.1954   0.2611   0.2805
     0.3054   0.3341   0.3576   0.4229   0.4587   0.5416   0.5676   0.5900
     0.6486   0.6812   0.7228   0.7530   0.7838   0.8045   0.8271   0.8855
     0.9075   0.9378   0.9562   0.9886   1.0321   1.0711   1.1179   1.1411
     1.1857   1.2327   1.2681   1.2824   1.3239   1.3577   1.3748   1.4065
     1.4214   1.4746   1.5097   1.5407   1.5920   1.6159   1.6726   1.6921
     1.7297   1.7411   1.7771   1.8292   1.8423   1.8703   1.9007   1.9607
     2.0295   2.0515   2.0693   2.1360   2.1624   2.1881   2.2665   2.2895
     2.3461   2.3783   2.4169   2.4453   2.4629   2.4760   2.5064   2.5253
     2.5561   2.5714   2.5761   2.6023   2.6533   2.6695   2.6907   2.7260
     2.7446   2.7847   2.8026   2.8705   2.9058   2.9780   3.0036   3.0442
     3.1198   3.1823   3.2044   3.3039   3.5808   3.6971   3.8124   3.8878
     4.0299   4.0856   4.2534   4.5622   4.5979   4.7077   5.0798   5.1479
     5.2617   5.3697   5.5722   5.8473   6.0954   6.3350   6.3883   6.5341
     6.7495   6.9008   7.0743   7.1792   7.2610   7.4447

          k = 0.2000-0.5774 0.0000 ( 43014 PWs)   bands (ev):

    -9.9580  -9.3424  -5.0623  -5.0017  -4.6028  -4.4815  -3.9932  -3.8705
    -3.7445  -3.6192  -3.3829  -3.2294  -3.1818  -3.1161  -3.0302  -2.9859
    -2.9626  -2.8837  -2.8162  -2.7685  -2.7576  -2.7529  -2.7408  -2.7215
    -2.6993  -2.6491  -2.6038  -2.5361  -2.5184  -2.5097  -2.4724  -2.4153
    -2.4078  -2.3552  -2.2941  -2.2779  -2.1770  -2.1263  -2.1177  -2.1106
    -2.0297  -1.9589  -1.9453  -1.8832  -1.8462  -1.7971  -1.7590  -1.6986
    -1.6829  -1.6213  -1.5631  -1.5239  -1.4884  -1.4132  -1.3999  -1.3662
    -1.3453  -1.2829  -1.2556  -1.2296  -1.2128  -1.1791  -1.1613  -1.0838
    -1.0574  -1.0383  -1.0109  -0.9792  -0.9688  -0.9396  -0.8941  -0.8585
    -0.8413  -0.7873  -0.7745  -0.7244  -0.7047  -0.6909  -0.6552  -0.6489
    -0.5968  -0.5366  -0.5328  -0.5055  -0.4543  -0.4289  -0.3933  -0.3582
    -0.3380  -0.2913  -0.2469  -0.2334  -0.2155  -0.1717  -0.1252  -0.1047
    -0.0746  -0.0674  -0.0208   0.0147   0.0256   0.0339   0.0402   0.0693
     0.1033   0.1311   0.1408   0.1763   0.2041   0.2194   0.2266   0.2332
     0.2879   0.3107   0.3480   0.4050   0.4629   0.4806   0.5349   0.6099
     0.6225   0.6357   0.6852   0.7001   0.7147   0.7850   0.8004   0.8300
     0.8660   0.8853   0.9486   0.9648   1.0195   1.0300   1.1000   1.1118
     1.1350   1.2041   1.2205   1.2561   1.3155   1.3622   1.3914   1.4050
     1.4461   1.4678   1.4818   1.5217   1.5632   1.5705   1.5817   1.6189
     1.6489   1.6733   1.7443   1.7966   1.8178   1.9001   1.9493   1.9812
     2.0282   2.1109   2.1174   2.1314   2.1845   2.2162   2.2454   2.2960
     2.3642   2.3960   2.4459   2.4565   2.4778   2.5125   2.5178   2.5594
     2.5661   2.6427   2.6463   2.6777   2.7074   2.7324   2.7814   2.7894
     2.8375   2.9027   2.9334   2.9462   2.9657   3.0004   3.0180   3.0911
     3.1993   3.4521   3.5513   3.7785   3.9762   4.1116   4.1671   4.3226
     4.3830   4.5592   4.5951   4.7709   4.8335   4.9493   5.1337   5.3113
     5.4399   5.6096   5.6899   5.7796   5.8710   6.0127   6.0794   6.2574
     6.3262   6.3934   6.7362   7.0788   7.1042   7.1815

          k = 0.2000-0.3464 0.0000 ( 43046 PWs)   bands (ev):

    -9.9821  -9.3171  -5.5316  -4.7043  -4.4628  -4.2799  -4.2243  -3.9547
    -3.8366  -3.4057  -3.2989  -3.2613  -3.2195  -3.1975  -3.1752  -3.1410
    -3.1051  -3.0521  -2.9996  -2.9286  -2.7730  -2.7257  -2.6837  -2.6584
    -2.6257  -2.5876  -2.5555  -2.5083  -2.4739  -2.3986  -2.3858  -2.3667
    -2.3576  -2.3350  -2.2681  -2.2488  -2.1956  -2.1670  -2.1598  -2.0941
    -2.0435  -2.0073  -1.9220  -1.8696  -1.8121  -1.7871  -1.7361  -1.7071
    -1.6606  -1.6377  -1.5691  -1.5594  -1.5034  -1.4753  -1.4277  -1.4021
    -1.3468  -1.2978  -1.2529  -1.2308  -1.2153  -1.1554  -1.1469  -1.0680
    -1.0331  -0.9844  -0.9573  -0.9094  -0.8790  -0.8622  -0.8142  -0.7919
    -0.7666  -0.7157  -0.6912  -0.6583  -0.6324  -0.6123  -0.5658  -0.5244
    -0.5197  -0.4698  -0.4564  -0.4200  -0.3871  -0.3620  -0.3458  -0.3210
    -0.2784  -0.2477  -0.2308  -0.2019  -0.1870  -0.1504  -0.1390  -0.1199
    -0.0861  -0.0753  -0.0652  -0.0363  -0.0051   0.0135   0.0459   0.0790
     0.1027   0.1210   0.1381   0.1669   0.1878   0.1954   0.2611   0.2805
     0.3055   0.3340   0.3575   0.4228   0.4588   0.5416   0.5675   0.5900
     0.6485   0.6812   0.7228   0.7530   0.7838   0.8045   0.8271   0.8855
     0.9074   0.9377   0.9562   0.9886   1.0322   1.0711   1.1178   1.1414
     1.1855   1.2327   1.2681   1.2824   1.3239   1.3576   1.3749   1.4064
     1.4214   1.4746   1.5097   1.5406   1.5920   1.6159   1.6725   1.6922
     1.7299   1.7412   1.7772   1.8292   1.8424   1.8704   1.9006   1.9607
     2.0295   2.0516   2.0691   2.1360   2.1624   2.1881   2.2665   2.2894
     2.3462   2.3783   2.4170   2.4453   2.4629   2.4760   2.5063   2.5253
     2.5560   2.5714   2.5761   2.6023   2.6534   2.6693   2.6907   2.7259
     2.7446   2.7847   2.8026   2.8705   2.9058   2.9783   3.0038   3.0442
     3.1197   3.1823   3.2043   3.3040   3.5809   3.6970   3.8124   3.8878
     4.0300   4.0858   4.2534   4.5623   4.5977   4.7076   5.0799   5.1479
     5.2617   5.3695   5.5721   5.8474   6.0956   6.3350   6.3883   6.5342
     6.7494   6.9010   7.0741   7.1792   7.2610   7.4447

          k = 0.4000-0.2309 0.0000 ( 43046 PWs)   bands (ev):

    -9.9902  -9.2971  -5.4105  -4.8285  -4.6059  -4.2472  -4.0760  -3.8484
    -3.6813  -3.6382  -3.5185  -3.3453  -3.2578  -3.1674  -3.0958  -3.0479
    -2.9863  -2.9258  -2.8880  -2.8386  -2.7770  -2.7401  -2.7156  -2.6986
    -2.6307  -2.5913  -2.5716  -2.5577  -2.5426  -2.4916  -2.4528  -2.4186
    -2.3871  -2.3452  -2.2338  -2.1815  -2.1506  -2.1161  -2.0891  -2.0547
    -1.9955  -1.9704  -1.9237  -1.8910  -1.8520  -1.8158  -1.7575  -1.7302
    -1.6436  -1.5908  -1.5818  -1.5364  -1.5015  -1.4849  -1.4599  -1.4442
    -1.4250  -1.3457  -1.3145  -1.2739  -1.2131  -1.1900  -1.1456  -1.1131
    -1.0624  -1.0308  -1.0043  -0.9519  -0.8929  -0.8526  -0.8420  -0.8055
    -0.7555  -0.7325  -0.6929  -0.6619  -0.6437  -0.5650  -0.5453  -0.5372
    -0.5014  -0.4729  -0.4567  -0.4302  -0.3836  -0.3798  -0.3642  -0.3230
    -0.3058  -0.2864  -0.2775  -0.2593  -0.2174  -0.1983  -0.1439  -0.1317
    -0.1156  -0.0910  -0.0671  -0.0469  -0.0187   0.0197   0.0410   0.0689
     0.0796   0.1389   0.1616   0.2044   0.2171   0.2363   0.3073   0.3253
     0.3553   0.3688   0.3838   0.4344   0.4523   0.5010   0.5710   0.6029
     0.6220   0.6762   0.6914   0.7258   0.7561   0.7683   0.8092   0.8439
     0.8663   0.9125   0.9516   0.9949   1.0302   1.0582   1.0747   1.1059
     1.1216   1.1622   1.2623   1.2750   1.3282   1.3595   1.4318   1.4533
     1.4849   1.5425   1.5740   1.6012   1.6218   1.6395   1.6736   1.6890
     1.7413   1.7686   1.7844   1.8503   1.8754   1.9025   1.9304   1.9637
     1.9783   2.0080   2.1052   2.1177   2.1528   2.2001   2.2374   2.2839
     2.3411   2.3508   2.3575   2.3768   2.4016   2.4384   2.4702   2.5134
     2.5327   2.5621   2.5997   2.6308   2.6580   2.6703   2.6845   2.7582
     2.8025   2.8442   2.8910   2.9221   2.9426   2.9686   3.0070   3.1096
     3.1854   3.2373   3.3543   3.5059   3.7230   3.8132   3.9833   4.1125
     4.1532   4.3263   4.4161   4.5474   4.7091   4.8730   5.0062   5.1672
     5.2882   5.4332   5.4797   5.6280   5.8786   5.9657   6.1605   6.2764
     6.4058   6.8255   6.9219   7.1743   7.3261   7.5851

          k = 0.4000-0.0000 0.0000 ( 43046 PWs)   bands (ev):

    -9.9986  -9.2882  -5.5398  -4.6751  -4.4268  -4.3942  -4.2328  -3.9409
    -3.7979  -3.4661  -3.2943  -3.2759  -3.2318  -3.2178  -3.1679  -3.1348
    -3.1230  -3.0533  -2.9909  -2.9109  -2.8221  -2.6837  -2.6816  -2.6513
    -2.6150  -2.5609  -2.5443  -2.4942  -2.4653  -2.4443  -2.3998  -2.3864
    -2.3476  -2.3092  -2.2479  -2.2351  -2.1948  -2.1781  -2.1489  -2.0952
    -2.0654  -2.0240  -1.9262  -1.8340  -1.8260  -1.7599  -1.7420  -1.6945
    -1.6360  -1.6183  -1.5748  -1.5363  -1.5115  -1.4876  -1.4545  -1.4224
    -1.3952  -1.2863  -1.2568  -1.2354  -1.2190  -1.1702  -1.1459  -1.0664
    -1.0274  -1.0045  -0.9677  -0.9225  -0.8711  -0.8484  -0.8274  -0.8046
    -0.7691  -0.7027  -0.6838  -0.6466  -0.6318  -0.6010  -0.5707  -0.5481
    -0.5296  -0.4643  -0.4216  -0.3998  -0.3834  -0.3654  -0.3433  -0.3368
    -0.2983  -0.2491  -0.2224  -0.1992  -0.1819  -0.1724  -0.1688  -0.1076
    -0.0828  -0.0701  -0.0507  -0.0329   0.0112   0.0324   0.0513   0.0901
     0.1175   0.1230   0.1447   0.1679   0.1821   0.1994   0.2095   0.2620
     0.2964   0.3383   0.3814   0.3966   0.4840   0.4982   0.5503   0.5865
     0.6233   0.6783   0.7085   0.7389   0.7929   0.8174   0.8406   0.8977
     0.9153   0.9413   0.9914   0.9963   1.0422   1.0744   1.0954   1.1580
     1.1751   1.2365   1.2597   1.2979   1.3397   1.3797   1.3961   1.4166
     1.4418   1.4941   1.5386   1.5617   1.6444   1.6578   1.6890   1.7394
     1.7546   1.7685   1.7848   1.8127   1.8417   1.8601   1.9065   1.9545
     2.0174   2.0434   2.0759   2.1460   2.2012   2.2493   2.3141   2.3275
     2.3536   2.3708   2.4085   2.4303   2.4567   2.4817   2.5093   2.5253
     2.5692   2.5764   2.5837   2.5999   2.6106   2.6652   2.6802   2.7145
     2.7625   2.8107   2.8530   2.8654   2.9230   2.9305   2.9669   2.9929
     3.1057   3.1252   3.2287   3.2929   3.4780   3.5951   3.7613   3.9481
     4.0947   4.1740   4.2836   4.4048   4.5526   4.8237   4.8986   4.9728
     5.0973   5.4495   5.4830   5.7965   6.1818   6.2923   6.4535   6.6410
     6.7341   6.8368   7.0399   7.2089   7.3625   7.4564

          k = 0.4000 0.2309 0.0000 ( 43046 PWs)   bands (ev):

    -9.9902  -9.2972  -5.4104  -4.8285  -4.6059  -4.2473  -4.0759  -3.8485
    -3.6813  -3.6382  -3.5185  -3.3452  -3.2577  -3.1674  -3.0958  -3.0479
    -2.9865  -2.9259  -2.8879  -2.8384  -2.7770  -2.7400  -2.7156  -2.6987
    -2.6307  -2.5912  -2.5716  -2.5576  -2.5426  -2.4916  -2.4529  -2.4186
    -2.3871  -2.3453  -2.2340  -2.1815  -2.1507  -2.1161  -2.0892  -2.0547
    -1.9957  -1.9704  -1.9238  -1.8911  -1.8520  -1.8158  -1.7575  -1.7303
    -1.6436  -1.5908  -1.5818  -1.5364  -1.5014  -1.4850  -1.4599  -1.4442
    -1.4250  -1.3458  -1.3146  -1.2741  -1.2132  -1.1903  -1.1458  -1.1132
    -1.0625  -1.0309  -1.0044  -0.9519  -0.8928  -0.8526  -0.8419  -0.8054
    -0.7555  -0.7323  -0.6928  -0.6619  -0.6436  -0.5649  -0.5450  -0.5372
    -0.5013  -0.4729  -0.4566  -0.4303  -0.3835  -0.3799  -0.3643  -0.3228
    -0.3059  -0.2865  -0.2775  -0.2592  -0.2173  -0.1983  -0.1439  -0.1316
    -0.1156  -0.0908  -0.0671  -0.0470  -0.0186   0.0196   0.0410   0.0691
     0.0796   0.1391   0.1616   0.2045   0.2171   0.2362   0.3073   0.3254
     0.3553   0.3688   0.3837   0.4344   0.4522   0.5011   0.5709   0.6031
     0.6220   0.6762   0.6913   0.7257   0.7560   0.7682   0.8092   0.8439
     0.8664   0.9126   0.9517   0.9948   1.0302   1.0583   1.0749   1.1058
     1.1217   1.1622   1.2622   1.2751   1.3283   1.3595   1.4318   1.4534
     1.4848   1.5426   1.5740   1.6011   1.6218   1.6395   1.6736   1.6889
     1.7413   1.7686   1.7844   1.8503   1.8753   1.9024   1.9304   1.9638
     1.9783   2.0079   2.1051   2.1177   2.1527   2.2001   2.2375   2.2840
     2.3412   2.3508   2.3575   2.3768   2.4016   2.4385   2.4702   2.5136
     2.5328   2.5622   2.5997   2.6308   2.6580   2.6704   2.6844   2.7580
     2.8024   2.8442   2.8910   2.9220   2.9425   2.9686   3.0069   3.1094
     3.1854   3.2372   3.3542   3.5060   3.7228   3.8133   3.9833   4.1125
     4.1532   4.3264   4.4159   4.5474   4.7093   4.8728   5.0062   5.1673
     5.2882   5.4333   5.4797   5.6281   5.8784   5.9657   6.1604   6.2763
     6.4056   6.8257   6.9219   7.1741   7.3262   7.5849

          k = 0.4000-0.6928 0.0000 ( 43014 PWs)   bands (ev):

    -9.9761  -9.3120  -5.0930  -4.9814  -4.6406  -4.3842  -4.1095  -3.8926
    -3.7519  -3.6141  -3.3226  -3.2473  -3.1644  -3.1327  -3.0389  -2.9602
    -2.9302  -2.9144  -2.8681  -2.7939  -2.7688  -2.7556  -2.7327  -2.7051
    -2.6723  -2.6296  -2.6120  -2.5752  -2.5305  -2.4957  -2.4664  -2.4445
    -2.3979  -2.3555  -2.2834  -2.2460  -2.1960  -2.1455  -2.1298  -2.0950
    -2.0004  -1.9708  -1.9297  -1.8678  -1.8516  -1.7968  -1.7463  -1.7048
    -1.6753  -1.6119  -1.5524  -1.5183  -1.4965  -1.4141  -1.3894  -1.3768
    -1.3340  -1.2925  -1.2678  -1.2343  -1.2091  -1.1827  -1.1657  -1.1312
    -1.0710  -1.0512  -1.0383  -0.9942  -0.9597  -0.9292  -0.8952  -0.8631
    -0.8348  -0.7905  -0.7590  -0.7286  -0.6984  -0.6646  -0.6420  -0.6220
    -0.5953  -0.5506  -0.5154  -0.5055  -0.4603  -0.4215  -0.3824  -0.3576
    -0.3058  -0.2865  -0.2734  -0.2453  -0.2086  -0.1733  -0.1483  -0.1156
    -0.0899  -0.0605  -0.0227   0.0106   0.0276   0.0412   0.0593   0.0840
     0.1118   0.1355   0.1583   0.1797   0.2058   0.2146   0.2296   0.2513
     0.2751   0.2953   0.3460   0.3926   0.4103   0.4756   0.5417   0.5775
     0.6048   0.6512   0.6649   0.7110   0.7567   0.7725   0.7921   0.8441
     0.8522   0.8773   0.9462   0.9589   1.0248   1.0430   1.0864   1.1209
     1.1520   1.2029   1.2246   1.2553   1.3074   1.3744   1.3884   1.4126
     1.4388   1.4726   1.5130   1.5245   1.5556   1.5878   1.6188   1.6733
     1.7120   1.7346   1.7644   1.7952   1.8355   1.8964   1.9410   1.9706
     2.0991   2.1167   2.1280   2.1655   2.2005   2.2201   2.2523   2.3399
     2.3649   2.4178   2.4377   2.4601   2.4893   2.5123   2.5305   2.5492
     2.5716   2.6068   2.6369   2.6537   2.7080   2.7276   2.7414   2.8191
     2.8356   2.8971   2.9173   2.9434   2.9764   3.0121   3.0420   3.1687
     3.2070   3.3521   3.5010   3.7687   3.9496   4.0685   4.1639   4.2450
     4.3832   4.4250   4.5696   4.7010   4.8918   4.9816   5.1640   5.2211
     5.3589   5.4209   5.6745   5.7669   5.9572   5.9872   6.0246   6.1740
     6.4085   6.5842   6.7551   6.9314   7.1069   7.1543

          k = 0.4000-0.4619 0.0000 ( 43014 PWs)   bands (ev):

    -9.9761  -9.3120  -5.0931  -4.9813  -4.6407  -4.3841  -4.1096  -3.8927
    -3.7518  -3.6142  -3.3226  -3.2473  -3.1644  -3.1328  -3.0389  -2.9602
    -2.9303  -2.9144  -2.8681  -2.7939  -2.7689  -2.7556  -2.7328  -2.7051
    -2.6723  -2.6295  -2.6121  -2.5751  -2.5304  -2.4959  -2.4665  -2.4445
    -2.3979  -2.3555  -2.2833  -2.2459  -2.1959  -2.1454  -2.1298  -2.0949
    -2.0004  -1.9707  -1.9296  -1.8679  -1.8514  -1.7968  -1.7464  -1.7048
    -1.6753  -1.6119  -1.5525  -1.5183  -1.4965  -1.4143  -1.3893  -1.3768
    -1.3341  -1.2924  -1.2676  -1.2342  -1.2089  -1.1825  -1.1656  -1.1311
    -1.0710  -1.0511  -1.0384  -0.9942  -0.9596  -0.9292  -0.8952  -0.8631
    -0.8348  -0.7904  -0.7593  -0.7287  -0.6983  -0.6646  -0.6422  -0.6221
    -0.5954  -0.5508  -0.5155  -0.5055  -0.4603  -0.4215  -0.3825  -0.3575
    -0.3058  -0.2867  -0.2734  -0.2453  -0.2085  -0.1732  -0.1483  -0.1156
    -0.0900  -0.0604  -0.0227   0.0105   0.0276   0.0412   0.0592   0.0840
     0.1119   0.1353   0.1585   0.1798   0.2058   0.2145   0.2296   0.2513
     0.2751   0.2954   0.3459   0.3925   0.4104   0.4755   0.5416   0.5775
     0.6048   0.6512   0.6649   0.7110   0.7566   0.7725   0.7921   0.8440
     0.8523   0.8773   0.9461   0.9590   1.0248   1.0429   1.0864   1.1208
     1.1520   1.2029   1.2247   1.2553   1.3075   1.3743   1.3883   1.4127
     1.4387   1.4726   1.5130   1.5244   1.5556   1.5877   1.6189   1.6734
     1.7119   1.7346   1.7644   1.7952   1.8355   1.8964   1.9410   1.9706
     2.0992   2.1167   2.1280   2.1655   2.2006   2.2201   2.2523   2.3399
     2.3649   2.4178   2.4377   2.4601   2.4893   2.5123   2.5304   2.5492
     2.5716   2.6068   2.6370   2.6538   2.7079   2.7275   2.7413   2.8191
     2.8355   2.8971   2.9174   2.9434   2.9767   3.0121   3.0421   3.1687
     3.2070   3.3520   3.5011   3.7689   3.9496   4.0684   4.1638   4.2450
     4.3831   4.4249   4.5696   4.7010   4.8919   4.9817   5.1639   5.2211
     5.3591   5.4207   5.6748   5.7672   5.9572   5.9872   6.0246   6.1737
     6.4085   6.5841   6.7551   6.9314   7.1069   7.1541

     the Fermi energy is     2.7314 ev

!    total energy              =  -27793.26238070 Ry
     total all-electron energy =  -1326795.555992 Ry
     estimated scf accuracy    <       0.00000070 Ry
     smearing contrib. (-TS)   =      -0.00002328 Ry
     internal energy E=F+TS    =  -27793.26235742 Ry

     The total energy is F=E-TS. E is the sum of the following terms:
     one-electron contribution =  -20717.13877002 Ry
     hartree contribution      =   10670.99772937 Ry
     xc contribution           =    -900.23531652 Ry
     ewald contribution        =    8640.32732738 Ry
     one-center paw contrib.   =  -25487.21332762 Ry

     convergence has been achieved in  18 iterations

     negative rho (up, down):  3.084E-03 0.000E+00

     Forces acting on atoms (cartesian axes, Ry/au):

     atom    1 type  1   force =     0.00011267    0.00023628   -0.00401824
     atom    2 type  1   force =    -0.00008828    0.00024731   -0.00399917
     atom    3 type  1   force =    -0.00001247   -0.00366289   -0.00744657
     atom    4 type  1   force =     0.00002032    0.00152597   -0.00568874
     atom    5 type  1   force =    -0.00073412    0.00055065   -0.00830519
     atom    6 type  1   force =     0.00073261    0.00056483   -0.00831041
     atom    7 type  1   force =    -0.00150598    0.00034228   -0.00868456
     atom    8 type  1   force =     0.00000457    0.00044630   -0.00410243
     atom    9 type  1   force =     0.00151844    0.00036413   -0.00869333
     atom   10 type  1   force =    -0.00000855    0.00244459    0.02076274
     atom   11 type  1   force =    -0.00423911   -0.00043112    0.00172179
     atom   12 type  1   force =     0.00419222   -0.00042333    0.00175638
     atom   13 type  1   force =    -0.00132426   -0.00160158    0.00998703
     atom   14 type  1   force =    -0.00001960    0.00152414   -0.00187973
     atom   15 type  1   force =     0.00130211   -0.00159923    0.01001025
     atom   16 type  1   force =    -0.00261940   -0.00049899    0.00927174
     atom   17 type  1   force =     0.00260356   -0.00048438    0.00926331
     atom   18 type  1   force =    -0.00001811   -0.00133210    0.00437801
     atom   19 type  1   force =    -0.00071947   -0.00034663   -0.00005610
     atom   20 type  1   force =     0.00072865   -0.00034409   -0.00006447
     atom   21 type  1   force =    -0.00000171   -0.00033589   -0.00067901
     atom   22 type  1   force =     0.00000149    0.00083991   -0.00014995
     atom   23 type  1   force =    -0.00005520    0.00053828    0.00050476
     atom   24 type  1   force =     0.00005441    0.00054544    0.00051959
     atom   25 type  1   force =     0.00039802   -0.00016612    0.00099848
     atom   26 type  1   force =     0.00001799    0.00021550    0.00025670
     atom   27 type  1   force =    -0.00041481   -0.00016783    0.00099499
     atom   28 type  1   force =    -0.00081284   -0.00129593    0.00172378
     atom   29 type  1   force =     0.00079913   -0.00130569    0.00171771
     atom   30 type  1   force =    -0.00000746   -0.00160567   -0.00037326
     atom   31 type  1   force =     0.00002287   -0.00968304   -0.01655885
     atom   32 type  1   force =     0.00111516    0.00028808   -0.00014384
     atom   33 type  1   force =    -0.00112159    0.00028834   -0.00013363
     atom   34 type  1   force =    -0.00398949   -0.00205198    0.00423975
     atom   35 type  1   force =     0.00001347    0.00006700    0.00075156
     atom   36 type  1   force =     0.00402860   -0.00203981    0.00426630
     atom   37 type  2   force =    -0.00000333   -0.00166721    0.00331204
     atom   38 type  3   force =     0.00003435    0.04186120   -0.01631378
     atom   39 type  2   force =    -0.00000488   -0.02184673    0.00916435
     The non-local contrib.  to forces
     atom    1 type  1   force =     0.00156271    0.00005967   -0.01864865
     atom    2 type  1   force =    -0.00155812    0.00007459   -0.01862837
     atom    3 type  1   force =    -0.00001339   -0.00108995   -0.02113494
     atom    4 type  1   force =     0.00001331   -0.00062349   -0.02022928
     atom    5 type  1   force =     0.00056567    0.00051908   -0.02377971
     atom    6 type  1   force =    -0.00058081    0.00053113   -0.02378542
     atom    7 type  1   force =    -0.00134527   -0.00022998   -0.02012740
     atom    8 type  1   force =    -0.00000197   -0.00051634   -0.02085371
     atom    9 type  1   force =     0.00134950   -0.00021141   -0.02012229
     atom   10 type  1   force =     0.00000060   -0.00028839    0.00405570
     atom   11 type  1   force =    -0.00525570   -0.00007796    0.00202291
     atom   12 type  1   force =     0.00519281   -0.00007119    0.00204839
     atom   13 type  1   force =    -0.00165670   -0.00348844    0.00245294
     atom   14 type  1   force =    -0.00002367    0.00341124   -0.00199054
     atom   15 type  1   force =     0.00162893   -0.00347464    0.00247286
     atom   16 type  1   force =     0.00328148    0.00048654    0.00051450
     atom   17 type  1   force =    -0.00329513    0.00050662    0.00051202
     atom   18 type  1   force =    -0.00002363   -0.00196916    0.00353957
     atom   19 type  1   force =    -0.01319110   -0.00574851    0.00621436
     atom   20 type  1   force =     0.01320678   -0.00575702    0.00620626
     atom   21 type  1   force =    -0.00000698    0.00239919    0.01534212
     atom   22 type  1   force =    -0.00000074    0.00891991    0.02290011
     atom   23 type  1   force =     0.01057302   -0.00527237    0.00185331
     atom   24 type  1   force =    -0.01055998   -0.00525886    0.00187681
     atom   25 type  1   force =    -0.00162129    0.00129692    0.00165497
     atom   26 type  1   force =     0.00003095   -0.00346718    0.01714112
     atom   27 type  1   force =     0.00160014    0.00129477    0.00164992
     atom   28 type  1   force =     0.08513868    0.04122848   -0.00477745
     atom   29 type  1   force =    -0.08515640    0.04112049   -0.00479599
     atom   30 type  1   force =    -0.00001889   -0.03715273    0.02732513
     atom   31 type  1   force =     0.00010201    0.02789781   -0.00517373
     atom   32 type  1   force =    -0.01927911   -0.00246136    0.02123305
     atom   33 type  1   force =     0.01929660   -0.00244987    0.02123363
     atom   34 type  1   force =    -0.06853191   -0.01924453   -0.01194743
     atom   35 type  1   force =     0.00004079    0.03570018    0.02943171
     atom   36 type  1   force =     0.06856876   -0.01925347   -0.01193523
     atom   37 type  2   force =    -0.00003470    0.09653962   -0.21934518
     atom   38 type  3   force =     0.00001558    0.00715094   -0.03032184
     atom   39 type  2   force =    -0.00005346   -0.42659551   -0.41555402
     The ionic contribution  to forces
     atom    1 type  1   force =     0.01202653    0.01438508  -94.32144013
     atom    2 type  1   force =    -0.01212477    0.01436496  -94.32163041
     atom    3 type  1   force =     0.00009725   -0.02392614  -94.35128908
     atom    4 type  1   force =    -0.00006415    0.00100605  -94.28295912
     atom    5 type  1   force =    -0.03885249   -0.00033106  -94.35109757
     atom    6 type  1   force =     0.03891534   -0.00041786  -94.35097558
     atom    7 type  1   force =    -0.02106401   -0.01016494  -94.31908611
     atom    8 type  1   force =    -0.00004165    0.01521458  -94.35490473
     atom    9 type  1   force =     0.02110368   -0.01025162  -94.31916937
     atom   10 type  1   force =    -0.00095615    0.16729023  -33.24953824
     atom   11 type  1   force =    -0.32824330   -0.06547736  -33.39890928
     atom   12 type  1   force =     0.32861335   -0.06543867  -33.39761170
     atom   13 type  1   force =    -0.20381941   -0.12075257  -33.21937933
     atom   14 type  1   force =    -0.00008510    0.20028477  -33.58799172
     atom   15 type  1   force =     0.20329256   -0.12166626  -33.21906358
     atom   16 type  1   force =    -0.02779517    0.05575239  -33.44947585
     atom   17 type  1   force =     0.02698438    0.05551284  -33.45024782
     atom   18 type  1   force =     0.00036695   -0.15232024  -33.18563350
     atom   19 type  1   force =     0.38733353    0.22487765   29.20902960
     atom   20 type  1   force =    -0.38782858    0.22631689   29.20508893
     atom   21 type  1   force =     0.00041145   -0.05990725   25.76477304
     atom   22 type  1   force =     0.00107607   -0.22363289   28.79994590
     atom   23 type  1   force =    -0.24026964   -0.03968952   27.33386164
     atom   24 type  1   force =     0.23940396   -0.04064015   27.33243964
     atom   25 type  1   force =    -0.15480399   -0.21645599   27.57555061
     atom   26 type  1   force =    -0.00085693    0.23123910   27.90494126
     atom   27 type  1   force =     0.15576083   -0.21625045   27.57312883
     atom   28 type  1   force =    -2.41497010   -0.89100045   88.39448280
     atom   29 type  1   force =     2.41444145   -0.88951827   88.38910493
     atom   30 type  1   force =    -0.00027375    0.43936188   87.81101745
     atom   31 type  1   force =     0.00259360   -0.90564810   90.39849992
     atom   32 type  1   force =     0.51737200   -0.07171116   88.13552963
     atom   33 type  1   force =    -0.52016339   -0.07276932   88.13432054
     atom   34 type  1   force =     3.35439700    1.26425501   87.83148640
     atom   35 type  1   force =    -0.00056754   -0.27551716   88.17389662
     atom   36 type  1   force =    -3.35241476    1.26641777   87.82952226
     atom   37 type  2   force =     0.00129692   -0.93799339   44.73496647
     atom   38 type  3   force =    -0.00072572   -0.30870564   12.23554951
     atom   39 type  2   force =     0.00043377    1.54390726   46.36326713
     The local contribution  to forces
     atom    1 type  1   force =    -0.01368434   -0.01411075   94.31928254
     atom    2 type  1   force =     0.01375499   -0.01412892   94.31943101
     atom    3 type  1   force =    -0.00004772    0.02148216   94.34807789
     atom    4 type  1   force =     0.00001575    0.00115325   94.28084412
     atom    5 type  1   force =     0.03763962    0.00032135   94.34981790
     atom    6 type  1   force =    -0.03763346    0.00038448   94.34971840
     atom    7 type  1   force =     0.02104164    0.01078524   94.31362657
     atom    8 type  1   force =     0.00005523   -0.01436850   94.35516264
     atom    9 type  1   force =    -0.02107805    0.01081278   94.31368304
     atom   10 type  1   force =     0.00087490   -0.16429628   33.26750103
     atom   11 type  1   force =     0.32855283    0.06501346   33.39943485
     atom   12 type  1   force =    -0.32883638    0.06497042   33.39813906
     atom   13 type  1   force =     0.20416056    0.12239284   33.22839589
     atom   14 type  1   force =     0.00012013   -0.20146843   33.58847341
     atom   15 type  1   force =    -0.20366051    0.12323112   33.22804767
     atom   16 type  1   force =     0.02169923   -0.05662557   33.45902259
     atom   17 type  1   force =    -0.02093858   -0.05645153   33.45975757
     atom   18 type  1   force =    -0.00031631    0.15286634   33.18844711
     atom   19 type  1   force =    -0.37495448   -0.21911073  -29.21222414
     atom   20 type  1   force =     0.37541065   -0.22049490  -29.20823912
     atom   21 type  1   force =    -0.00037394    0.05675532  -25.77890036
     atom   22 type  1   force =    -0.00104865    0.21590479  -28.81834926
     atom   23 type  1   force =     0.22952271    0.04538501  -27.33389244
     atom   24 type  1   force =    -0.22869347    0.04627535  -27.33249204
     atom   25 type  1   force =     0.15594295    0.21440511  -27.57466510
     atom   26 type  1   force =     0.00078667   -0.22761668  -27.91905723
     atom   27 type  1   force =    -0.15684122    0.21419935  -27.57220866
     atom   28 type  1   force =     2.30778124    0.84065717  -88.38841793
     atom   29 type  1   force =    -2.30726498    0.83929586  -88.38300651
     atom   30 type  1   force =     0.00030309   -0.40605921  -87.82321732
     atom   31 type  1   force =    -0.00265209    0.86735761  -90.42972563
     atom   32 type  1   force =    -0.49990816    0.07450167  -88.14107774
     atom   33 type  1   force =     0.50265921    0.07552485  -88.13985818
     atom   34 type  1   force =    -3.27023129   -1.24044621  -87.81783078
     atom   35 type  1   force =     0.00051385    0.24210577  -88.18610901
     atom   36 type  1   force =     3.26828391   -1.24259405  -87.81582301
     atom   37 type  2   force =    -0.00127243    0.84166426  -44.51655795
     atom   38 type  3   force =     0.00074528    0.34342476  -12.22160914
     atom   39 type  2   force =    -0.00040424   -1.14686927  -45.94697462
     The core correction contribution to forces
     atom    1 type  1   force =     0.00012882   -0.00007734    0.01700391
     atom    2 type  1   force =    -0.00012928   -0.00007714    0.01700422
     atom    3 type  1   force =    -0.00000047   -0.00007699    0.01715022
     atom    4 type  1   force =    -0.00000047   -0.00000118    0.01680712
     atom    5 type  1   force =     0.00001022    0.00004351    0.01695865
     atom    6 type  1   force =    -0.00001125    0.00004330    0.01695866
     atom    7 type  1   force =    -0.00012202   -0.00001067    0.01710380
     atom    8 type  1   force =     0.00000021    0.00004901    0.01671029
     atom    9 type  1   force =     0.00012174   -0.00001069    0.01710365
     atom   10 type  1   force =     0.00000256   -0.00028765   -0.00047523
     atom   11 type  1   force =     0.00086783    0.00013348   -0.00003378
     atom   12 type  1   force =    -0.00086655    0.00013251   -0.00003841
     atom   13 type  1   force =     0.00006594    0.00032621   -0.00064302
     atom   14 type  1   force =     0.00000107   -0.00075470    0.00045304
     atom   15 type  1   force =    -0.00006365    0.00032869   -0.00064437
     atom   16 type  1   force =     0.00014382   -0.00014101    0.00006284
     atom   17 type  1   force =    -0.00014164   -0.00014122    0.00006366
     atom   18 type  1   force =     0.00000027    0.00014627   -0.00112150
     atom   19 type  1   force =     0.00002264   -0.00037109   -0.00280056
     atom   20 type  1   force =    -0.00002152   -0.00037475   -0.00280213
     atom   21 type  1   force =    -0.00000003    0.00040314   -0.00168152
     atom   22 type  1   force =    -0.00000222   -0.00027195   -0.00431495
     atom   23 type  1   force =     0.00009427    0.00020813   -0.00101710
     atom   24 type  1   force =    -0.00009275    0.00021116   -0.00102024
     atom   25 type  1   force =     0.00090501    0.00053533   -0.00115790
     atom   26 type  1   force =     0.00000162   -0.00005044   -0.00245450
     atom   27 type  1   force =    -0.00090634    0.00053424   -0.00115975
     atom   28 type  1   force =     0.02086355    0.00758980    0.00012856
     atom   29 type  1   force =    -0.02086351    0.00758969    0.00013477
     atom   30 type  1   force =     0.00000155    0.00221611   -0.01559490
     atom   31 type  1   force =    -0.00001049    0.00080856    0.01942961
     atom   32 type  1   force =     0.00300477   -0.00003521   -0.01589532
     atom   33 type  1   force =    -0.00299669   -0.00003329   -0.01589248
     atom   34 type  1   force =    -0.01940239   -0.00644913    0.00216980
     atom   35 type  1   force =     0.00000144   -0.00223279   -0.01655425
     atom   36 type  1   force =     0.01938905   -0.00645147    0.00216747
     atom   37 type  2   force =     0.00000442   -0.00192146    0.00427240
     atom   38 type  3   force =     0.00000000    0.00000000    0.00000000
     atom   39 type  2   force =     0.00002421    0.00778670    0.00838506
     The Hubbard contrib.    to forces
     atom    1 type  1   force =     0.00000000    0.00000000    0.00000000
     atom    2 type  1   force =     0.00000000    0.00000000    0.00000000
     atom    3 type  1   force =     0.00000000    0.00000000    0.00000000
     atom    4 type  1   force =     0.00000000    0.00000000    0.00000000
     atom    5 type  1   force =     0.00000000    0.00000000    0.00000000
     atom    6 type  1   force =     0.00000000    0.00000000    0.00000000
     atom    7 type  1   force =     0.00000000    0.00000000    0.00000000
     atom    8 type  1   force =     0.00000000    0.00000000    0.00000000
     atom    9 type  1   force =     0.00000000    0.00000000    0.00000000
     atom   10 type  1   force =     0.00000000    0.00000000    0.00000000
     atom   11 type  1   force =     0.00000000    0.00000000    0.00000000
     atom   12 type  1   force =     0.00000000    0.00000000    0.00000000
     atom   13 type  1   force =     0.00000000    0.00000000    0.00000000
     atom   14 type  1   force =     0.00000000    0.00000000    0.00000000
     atom   15 type  1   force =     0.00000000    0.00000000    0.00000000
     atom   16 type  1   force =     0.00000000    0.00000000    0.00000000
     atom   17 type  1   force =     0.00000000    0.00000000    0.00000000
     atom   18 type  1   force =     0.00000000    0.00000000    0.00000000
     atom   19 type  1   force =     0.00000000    0.00000000    0.00000000
     atom   20 type  1   force =     0.00000000    0.00000000    0.00000000
     atom   21 type  1   force =     0.00000000    0.00000000    0.00000000
     atom   22 type  1   force =     0.00000000    0.00000000    0.00000000
     atom   23 type  1   force =     0.00000000    0.00000000    0.00000000
     atom   24 type  1   force =     0.00000000    0.00000000    0.00000000
     atom   25 type  1   force =     0.00000000    0.00000000    0.00000000
     atom   26 type  1   force =     0.00000000    0.00000000    0.00000000
     atom   27 type  1   force =     0.00000000    0.00000000    0.00000000
     atom   28 type  1   force =     0.00000000    0.00000000    0.00000000
     atom   29 type  1   force =     0.00000000    0.00000000    0.00000000
     atom   30 type  1   force =     0.00000000    0.00000000    0.00000000
     atom   31 type  1   force =     0.00000000    0.00000000    0.00000000
     atom   32 type  1   force =     0.00000000    0.00000000    0.00000000
     atom   33 type  1   force =     0.00000000    0.00000000    0.00000000
     atom   34 type  1   force =     0.00000000    0.00000000    0.00000000
     atom   35 type  1   force =     0.00000000    0.00000000    0.00000000
     atom   36 type  1   force =     0.00000000    0.00000000    0.00000000
     atom   37 type  2   force =     0.00000000    0.00000000    0.00000000
     atom   38 type  3   force =     0.00000000    0.00000000    0.00000000
     atom   39 type  2   force =     0.00000000    0.00000000    0.00000000
     The SCF correction term to forces
     atom    1 type  1   force =     0.00000000   -0.00000000   -0.00000000
     atom    2 type  1   force =    -0.00000000    0.00000000   -0.00000000
     atom    3 type  1   force =    -0.00000000   -0.00000000   -0.00000000
     atom    4 type  1   force =     0.00000000   -0.00000000   -0.00000000
     atom    5 type  1   force =    -0.00000000   -0.00000000   -0.00000000
     atom    6 type  1   force =     0.00000000    0.00000000   -0.00000000
     atom    7 type  1   force =    -0.00000000   -0.00000000   -0.00000000
     atom    8 type  1   force =    -0.00000000    0.00000000   -0.00000000
     atom    9 type  1   force =     0.00000000    0.00000000   -0.00000000
     atom   10 type  1   force =     0.00000000    0.00000000   -0.00000000
     atom   11 type  1   force =    -0.00000000   -0.00000000   -0.00000000
     atom   12 type  1   force =     0.00000000   -0.00000000   -0.00000000
     atom   13 type  1   force =    -0.00000000   -0.00000000   -0.00000000
     atom   14 type  1   force =    -0.00000000    0.00000000   -0.00000000
     atom   15 type  1   force =     0.00000000   -0.00000000   -0.00000000
     atom   16 type  1   force =     0.00000000    0.00000000   -0.00000000
     atom   17 type  1   force =    -0.00000000    0.00000000   -0.00000000
     atom   18 type  1   force =    -0.00000000   -0.00000000   -0.00000000
     atom   19 type  1   force =     0.00007023    0.00000546   -0.00036423
     atom   20 type  1   force =    -0.00003839   -0.00003490   -0.00040729
     atom   21 type  1   force =    -0.00003192    0.00001311   -0.00030118
     atom   22 type  1   force =    -0.00002268   -0.00008055   -0.00042064
     atom   23 type  1   force =     0.00002472   -0.00009357   -0.00038953
     atom   24 type  1   force =    -0.00000306   -0.00004266   -0.00037346
     atom   25 type  1   force =    -0.00002436    0.00005192   -0.00047299
     atom   26 type  1   force =     0.00005596    0.00011010   -0.00040284
     atom   27 type  1   force =    -0.00002793    0.00005366   -0.00050425
     atom   28 type  1   force =     0.00037408    0.00022846    0.00021891
     atom   29 type  1   force =    -0.00035714    0.00020594    0.00019162
     atom   30 type  1   force =    -0.00001918    0.00002768    0.00000749
     atom   31 type  1   force =    -0.00000987   -0.00009953    0.00032209
     atom   32 type  1   force =    -0.00007405   -0.00000645   -0.00002234
     atom   33 type  1   force =     0.00008297    0.00001537   -0.00002603
     atom   34 type  1   force =    -0.00022061   -0.00016772    0.00027288
     atom   35 type  1   force =     0.00002521    0.00001039   -0.00000239
     atom   36 type  1   force =     0.00020192   -0.00015918    0.00024593
     atom   37 type  2   force =     0.00000276    0.00004317   -0.00011258
     atom   38 type  3   force =    -0.00000049   -0.00000946   -0.00002119
     atom   39 type  2   force =    -0.00000487   -0.00007652   -0.00004809

     Total force =     0.055326     Total SCF correction =     0.001557

     Writing all to output data dir ./pwscf.save/

     init_run     :     12.10s CPU     12.50s WALL (       1 calls)
     electrons    :    353.90s CPU    365.20s WALL (       1 calls)
     forces       :      3.86s CPU      4.39s WALL (       1 calls)

     Called by init_run:
     wfcinit      :      7.03s CPU      7.25s WALL (       1 calls)
     potinit      :      3.26s CPU      3.35s WALL (       1 calls)
     hinit0       :      1.01s CPU      1.04s WALL (       1 calls)

     Called by electrons:
     c_bands      :    299.65s CPU    306.40s WALL (      19 calls)
     sum_band     :     35.31s CPU     36.74s WALL (      19 calls)
     v_of_rho     :      8.71s CPU     10.64s WALL (      19 calls)
     newd         :      4.53s CPU      5.27s WALL (      19 calls)
     PAW_pot      :      4.06s CPU      4.20s WALL (      19 calls)
     mix_rho      :      3.80s CPU      3.97s WALL (      19 calls)
     vdW_kernel   :      1.75s CPU      1.77s WALL (       1 calls)

     Called by c_bands:
     init_us_2    :      2.85s CPU      2.97s WALL (     520 calls)
     init_us_2:cp :      2.84s CPU      2.96s WALL (     520 calls)
     cegterg      :    291.31s CPU    297.78s WALL (     247 calls)

     Called by *egterg:
     cdiaghg      :     68.12s CPU     69.22s WALL (    1138 calls)
     h_psi        :    146.05s CPU    149.53s WALL (    1164 calls)
     s_psi        :     15.08s CPU     15.51s WALL (    1164 calls)
     g_psi        :      0.45s CPU      0.46s WALL (     904 calls)

     Called by h_psi:
     h_psi:calbec :     19.51s CPU     20.18s WALL (    1164 calls)
     vloc_psi     :    110.20s CPU    112.61s WALL (    1164 calls)
     add_vuspsi   :     15.22s CPU     15.60s WALL (    1164 calls)

     General routines
     calbec       :     28.21s CPU     29.13s WALL (    1463 calls)
     fft          :      5.18s CPU      7.08s WALL (    1257 calls)
     ffts         :      2.21s CPU      2.28s WALL (    4265 calls)
     fftw         :    110.89s CPU    113.25s WALL (  317728 calls)
     interpolate  :      0.60s CPU      0.64s WALL (      19 calls)

     Parallel routines

     PWSCF        :   6m11.79s CPU   6m26.91s WALL


   This run was terminated on:  15:46:43   6Dec2025            

=------------------------------------------------------------------------------=
   JOB DONE.
=------------------------------------------------------------------------------=
