
     Program PWSCF v.7.1 starts on  2Dec2025 at 15:37:24 
        Git branch: heads/qe-7.1
        Last git commit: 48ba0178f8fede6d020eb786884699a9f063f55d-dirty
        Last git commit date: Fri Jan 27 14:22:33 2023 +0000
        Last git commit subject: Merge branch 'fix_hubbard' into 'develop'

     This program is part of the open-source Quantum ESPRESSO suite
     for quantum simulation of materials; please cite
         "P. Giannozzi et al., J. Phys.:Condens. Matter 21 395502 (2009);
         "P. Giannozzi et al., J. Phys.:Condens. Matter 29 465901 (2017);
         "P. Giannozzi et al., J. Chem. Phys. 152 154105 (2020);
          URL http://www.quantum-espresso.org", 
     in publications or presentations arising from this work. More details at
     http://www.quantum-espresso.org/quote

     Parallel version (MPI), running on    96 processors

     MPI processes distributed on     2 nodes
     281146 MiB available memory on the printing compute node when the environment starts

     Reading input from espresso.pwi
Warning: card &CELL ignored
Warning: card / ignored
Warning: card &FCP ignored
Warning: card / ignored
Warning: card &RISM ignored
Warning: card / ignored

     Current dimensions of program PWSCF are:
     Max number of different atomic species (ntypx) = 10
     Max number of k-points (npk) =  40000
     Max angular momentum in pseudopotentials (lmaxx) =  4
     file Co.pbe-n-kjpaw_psl.1.0.0.UPF: wavefunction(s)  4S 3D renormalized
     file C.pbe-n-kjpaw_psl.1.0.0.UPF: wavefunction(s)  2S 2P renormalized
     file O.pbe-nl-kjpaw_psl.1.0.0.UPF: wavefunction(s)  2S 2P renormalized
     file H.pbe-kjpaw_psl.1.0.0.UPF: wavefunction(s)  1S renormalized

     **************************************************************************
     Initializing libbeef V0.1.2 with the BEEF-vdW functional.
     Citation: Wellendorff et al., PRB 85, 235149 (2012).
     **************************************************************************


     IMPORTANT: XC functional enforced from input :
     Exchange-correlation= BEEF-VDW
                           (   1   4  43  14   2   0   0)
     Any further DFT definition will be discarded
     Please, verify this is what you really want


     R & G space division:  proc/nbgrp/npool/nimage =      96
     Subspace diagonalization in iterative solution of the eigenvalue problem:
     one sub-group per band group will be used
     custom distributed-memory algorithm (size of sub-group:  2*  2 procs)


     Parallelization info
     --------------------
     sticks:   dense  smooth     PW     G-vecs:    dense   smooth      PW
     Min          43      23      6                 7829     3049     440
     Max          44      24      7                 7845     3068     465
     Sum        4153    2221    613               752179   293251   42993

     Using Slab Decomposition



     bravais-lattice index     =            0
     lattice parameter (alat)  =      14.1729  a.u.
     unit-cell volume          =    8574.3059 (a.u.)^3
     number of atoms/cell      =           39
     number of atomic types    =            4
     number of electrons       =       335.00
     number of Kohn-Sham states=          202
     kinetic-energy cutoff     =      40.0000  Ry
     charge density cutoff     =     300.0000  Ry
     scf convergence threshold =      1.0E-06
     mixing beta               =       0.7000
     number of iterations used =            8  local-TF  mixing
     Exchange-correlation= BEEF-VDW
                           (   1   4  43  14   2   0   0)

     celldm(1)=  14.172946  celldm(2)=   0.000000  celldm(3)=   0.000000
     celldm(4)=   0.000000  celldm(5)=   0.000000  celldm(6)=   0.000000

     crystal axes: (cart. coord. in units of alat)
               a(1) = (   1.000000   0.000000   0.000000 )  
               a(2) = (   0.500000   0.866025   0.000000 )  
               a(3) = (   0.000000   0.000000   3.477667 )  

     reciprocal axes: (cart. coord. in units 2 pi/alat)
               b(1) = (  1.000000 -0.577350  0.000000 )  
               b(2) = (  0.000000  1.154701  0.000000 )  
               b(3) = (  0.000000  0.000000  0.287549 )  


     PseudoPot. # 1 for Co read from file:
     /users/kbadger1/espresso/pseudo/pslibrary.1.0.0/pbe/PSEUDOPOTENTIALS/Co.pbe-n-kjpaw_psl.1.0.0.UPF
     MD5 check sum: 88af6ec42553d4236c267fdfcb472151
     Pseudo is Projector augmented-wave + core cor, Zval =  9.0
     Generated using 'atomic' code by A. Dal Corso  v.7.0
     Shape of augmentation charge: PSQ
     Using radial grid of 1193 points,  6 beta functions with: 
                l(1) =   0
                l(2) =   0
                l(3) =   1
                l(4) =   1
                l(5) =   2
                l(6) =   2
     Q(r) pseudized with 0 coefficients 


     PseudoPot. # 2 for C  read from file:
     /users/kbadger1/espresso/pseudo/pslibrary.1.0.0/pbe/PSEUDOPOTENTIALS/C.pbe-n-kjpaw_psl.1.0.0.UPF
     MD5 check sum: 6408e75cdba28732cea38a4db8498ce4
     Pseudo is Projector augmented-wave + core cor, Zval =  4.0
     Generated using 'atomic' code by A. Dal Corso  v.7.0
     Shape of augmentation charge: PSQ
     Using radial grid of 1073 points,  4 beta functions with: 
                l(1) =   0
                l(2) =   0
                l(3) =   1
                l(4) =   1
     Q(r) pseudized with 0 coefficients 


     PseudoPot. # 3 for O  read from file:
     /users/kbadger1/espresso/pseudo/pslibrary.1.0.0/pbe/PSEUDOPOTENTIALS/O.pbe-nl-kjpaw_psl.1.0.0.UPF
     MD5 check sum: f0439fab3598ca4e468f064226030408
     Pseudo is Projector augmented-wave + core cor, Zval =  6.0
     Generated using 'atomic' code by A. Dal Corso  v.7.0
     Shape of augmentation charge: PSQ
     Using radial grid of 1095 points,  4 beta functions with: 
                l(1) =   0
                l(2) =   0
                l(3) =   1
                l(4) =   1
     Q(r) pseudized with 0 coefficients 


     PseudoPot. # 4 for H  read from file:
     /users/kbadger1/espresso/pseudo/pslibrary.1.0.0/pbe/PSEUDOPOTENTIALS/H.pbe-kjpaw_psl.1.0.0.UPF
     MD5 check sum: fe4c6fa958fa6d3815bf5d2419cbf1df
     Pseudo is Projector augmented-wave, Zval =  1.0
     Generated using 'atomic' code by A. Dal Corso  v.7.0
     Shape of augmentation charge: PSQ
     Using radial grid of  929 points,  2 beta functions with: 
                l(1) =   0
                l(2) =   0
     Q(r) pseudized with 0 coefficients 


     atomic species   valence    mass     pseudopotential
        Co             9.00    58.93319     Co( 1.00)
        C              4.00    12.00000     C ( 1.00)
        O              6.00    15.99491     O ( 1.00)
        H              1.00     1.00783     H ( 1.00)

     Starting magnetic structure 
     atomic species   magnetization
        Co           1.000
        C            1.000
        O            0.000
        H            0.000

     No symmetry found



   Cartesian axes

     site n.     atom                  positions (alat units)
         1           Co  tau(   1) = (   0.0000000   0.1924501   1.3333333  )
         2           Co  tau(   2) = (   0.3333333   0.1924501   1.3333333  )
         3           Co  tau(   3) = (   0.6666667   0.1924501   1.3333333  )
         4           Co  tau(   4) = (   0.1666667   0.4811252   1.3333333  )
         5           Co  tau(   5) = (   0.5000000   0.4811252   1.3333333  )
         6           Co  tau(   6) = (   0.8333333   0.4811252   1.3333333  )
         7           Co  tau(   7) = (   0.3333333   0.7698004   1.3333333  )
         8           Co  tau(   8) = (   0.6666667   0.7698004   1.3333333  )
         9           Co  tau(   9) = (   1.0000000   0.7698004   1.3333333  )
        10           Co  tau(  10) = (   0.0000000   0.0000000   1.6036667  )
        11           Co  tau(  11) = (   0.3333333   0.0000000   1.6036667  )
        12           Co  tau(  12) = (   0.6666667   0.0000000   1.6036667  )
        13           Co  tau(  13) = (   0.1666667   0.2886751   1.6036667  )
        14           Co  tau(  14) = (   0.5000000   0.2886751   1.6036667  )
        15           Co  tau(  15) = (   0.8333333   0.2886751   1.6036667  )
        16           Co  tau(  16) = (   0.3333333   0.5773503   1.6036667  )
        17           Co  tau(  17) = (   0.6666667   0.5773503   1.6036667  )
        18           Co  tau(  18) = (   1.0000000   0.5773503   1.6036667  )
        19           Co  tau(  19) = (   0.0000000   0.1924501   1.8740000  )
        20           Co  tau(  20) = (   0.3333333   0.1924501   1.8740000  )
        21           Co  tau(  21) = (   0.6666667   0.1924501   1.8740000  )
        22           Co  tau(  22) = (   0.1666667   0.4811252   1.8740000  )
        23           Co  tau(  23) = (   0.5000000   0.4811252   1.8740000  )
        24           Co  tau(  24) = (   0.8333333   0.4811252   1.8740000  )
        25           Co  tau(  25) = (   0.3333333   0.7698004   1.8740000  )
        26           Co  tau(  26) = (   0.6666667   0.7698004   1.8740000  )
        27           Co  tau(  27) = (   1.0000000   0.7698004   1.8740000  )
        28           Co  tau(  28) = (   0.0000000   0.0000000   2.1443333  )
        29           Co  tau(  29) = (   0.3333333   0.0000000   2.1443333  )
        30           Co  tau(  30) = (   0.6666667   0.0000000   2.1443333  )
        31           Co  tau(  31) = (   0.1666667   0.2886751   2.1443333  )
        32           Co  tau(  32) = (   0.5000000   0.2886751   2.1443333  )
        33           Co  tau(  33) = (   0.8333333   0.2886751   2.1443333  )
        34           Co  tau(  34) = (   0.3333333   0.5773503   2.1443333  )
        35           Co  tau(  35) = (   0.6666667   0.5773503   2.1443333  )
        36           Co  tau(  36) = (   1.0000000   0.5773503   2.1443333  )
        37           C   tau(  37) = (   0.4102706   0.1842966   2.3538106  )
        38           O   tau(  38) = (   0.3227412   0.0740228   2.4411978  )
        39           H   tau(  39) = (   0.4960189   0.2852287   2.4261862  )

     number of k points=    13  Marzari-Vanderbilt smearing, width (Ry)=  0.0010
                       cart. coord. in units 2pi/alat
        k(    1) = (   0.0000000   0.0000000   0.0000000), wk =   0.0400000
        k(    2) = (   0.0000000   0.2309401   0.0000000), wk =   0.0800000
        k(    3) = (   0.0000000   0.4618802   0.0000000), wk =   0.0800000
        k(    4) = (   0.2000000  -0.1154701   0.0000000), wk =   0.0800000
        k(    5) = (   0.2000000   0.1154701   0.0000000), wk =   0.0800000
        k(    6) = (   0.2000000   0.3464102   0.0000000), wk =   0.0800000
        k(    7) = (   0.2000000  -0.5773503   0.0000000), wk =   0.0800000
        k(    8) = (   0.2000000  -0.3464102   0.0000000), wk =   0.0800000
        k(    9) = (   0.4000000  -0.2309401   0.0000000), wk =   0.0800000
        k(   10) = (   0.4000000   0.0000000   0.0000000), wk =   0.0800000
        k(   11) = (   0.4000000   0.2309401   0.0000000), wk =   0.0800000
        k(   12) = (   0.4000000  -0.6928203   0.0000000), wk =   0.0800000
        k(   13) = (   0.4000000  -0.4618802   0.0000000), wk =   0.0800000

     Dense  grid:   752179 G-vectors     FFT dimensions: (  80,  80, 288)

     Smooth grid:   293251 G-vectors     FFT dimensions: (  60,  60, 200)

     Estimated max dynamical RAM per process >      84.82 MB

     Estimated total dynamical RAM >       7.95 GB
     Generating pointlists ...
     new r_m :   0.1034 (alat units)  1.4654 (a.u.) for type    1
     new r_m :   0.0623 (alat units)  0.8824 (a.u.) for type    2
     new r_m :   0.0684 (alat units)  0.9688 (a.u.) for type    3
     new r_m :   0.0623 (alat units)  0.8824 (a.u.) for type    4

     Initial potential from superposition of free atoms

     starting charge     334.9897, renormalised to     335.0000

     negative rho (up, down):  3.030E-03 4.713E-04


     %%%%%%%%%%%%%%%%%%%%%%%%%%%%%%%%%%%%%%%%%%%%%%%%%%%%%%%%%%%%%%%%%%%%%%%%
     %                                                                      %
     % You are using vdW-DF, which was implemented by the Thonhauser group. %
     % Please cite the following two papers that made this development      %
     % possible and the two reviews that describe the various versions:     %
     %                                                                      %
     %   T. Thonhauser et al., PRL 115, 136402 (2015).                      %
     %   T. Thonhauser et al., PRB 76, 125112 (2007).                       %
     %   K. Berland et al., Rep. Prog. Phys. 78, 066501 (2015).             %
     %   D.C. Langreth et al., J. Phys.: Condens. Matter 21, 084203 (2009). %
     %                                                                      %
     % If you are calculating stress with vdW-DF, please also cite:         %
     %                                                                      %
     %   R. Sabatini et al., J. Phys.: Condens. Matter 24, 424209 (2012).   %
     %   C.M. Frostenson et al., Electr. Struct. 4, 014001 (2022).          %
     %                                                                      %
     %%%%%%%%%%%%%%%%%%%%%%%%%%%%%%%%%%%%%%%%%%%%%%%%%%%%%%%%%%%%%%%%%%%%%%%%

     %%%%%%%%%%%%%%%%%%%%%%%%%%%%%%%%%%%%%%%%%%%%%%%%%%%%%%%%%%%%%%%%%%%%%%%%
     %                                                                      %
     %  vdW-DF NEWS:                                                        %
     %                                                                      %
     %  * vdW-DF3 is now available. DOI: 10.1021/acs.jctc.0c00471           %
     %    use with input_dft = 'vdW-DF3-opt1' or 'vdW-DF3-opt2'             %
     %                                                                      %
     %  * Unscreened and range-separated hybrid vdW-DF-cx functionals       %
     %    DOI: 10.1063/1.4986522 and 10.1088/1361-648X/ac2ad2               %
     %    use with input_dft = 'vdW-DF-cx0'    and 'vdW-DF-ahcx'            %
     %  * Unscreened and range-separated hybrid vdW-DF2-b86r functionals    %
     %    DOI: 10.1063/1.4986522 and DOI: 10.1103/PhysRevX.12.041003        %
     %    use with input_dft = 'vdW-DF2-br0' and 'vdW-DF2-ahbr'             %
     %                                                                      %
     %%%%%%%%%%%%%%%%%%%%%%%%%%%%%%%%%%%%%%%%%%%%%%%%%%%%%%%%%%%%%%%%%%%%%%%%


     Starting wfcs are  333 randomized atomic wfcs
     Checking if some PAW data can be deallocated... 

     total cpu time spent up to now is       15.6 secs

     per-process dynamical memory:   212.4 Mb

     Self-consistent Calculation

     iteration #  1     ecut=    40.00 Ry     beta= 0.70
     Davidson diagonalization with overlap
     ethr =  1.00E-02,  avg # of iterations =  2.0

     negative rho (up, down):  5.085E-05 8.607E-07

     total cpu time spent up to now is       34.2 secs

     total energy              =   -6052.96966582 Ry
     estimated scf accuracy    <      39.80893362 Ry

     total magnetization       =    69.00 Bohr mag/cell
     absolute magnetization    =    81.35 Bohr mag/cell

     iteration #  2     ecut=    40.00 Ry     beta= 0.70
     Davidson diagonalization with overlap
     ethr =  1.00E-02,  avg # of iterations =  1.0

     negative rho (up, down):  2.040E-05 4.910E-07

     total cpu time spent up to now is       46.6 secs

     total energy              =   -6052.41958213 Ry
     estimated scf accuracy    <      24.71975206 Ry

     total magnetization       =    68.52 Bohr mag/cell
     absolute magnetization    =    76.73 Bohr mag/cell

     iteration #  3     ecut=    40.00 Ry     beta= 0.70
     Davidson diagonalization with overlap
     ethr =  7.38E-03,  avg # of iterations =  1.0

     negative rho (up, down):  8.423E-07 1.536E-06

     total cpu time spent up to now is       59.7 secs

     total energy              =   -6055.02309202 Ry
     estimated scf accuracy    <      86.88303825 Ry

     total magnetization       =    65.82 Bohr mag/cell
     absolute magnetization    =    73.10 Bohr mag/cell

     iteration #  4     ecut=    40.00 Ry     beta= 0.70
     Davidson diagonalization with overlap
     ethr =  7.38E-03,  avg # of iterations =  1.0

     negative rho (up, down):  8.399E-07 3.311E-07

     total cpu time spent up to now is       74.6 secs

     total energy              =   -6056.19123770 Ry
     estimated scf accuracy    <       5.73257066 Ry

     total magnetization       =    60.36 Bohr mag/cell
     absolute magnetization    =    70.49 Bohr mag/cell

     iteration #  5     ecut=    40.00 Ry     beta= 0.70
     Davidson diagonalization with overlap
     ethr =  1.71E-03,  avg # of iterations =  1.5

     negative rho (up, down):  9.934E-07 4.380E-07

     total cpu time spent up to now is       88.5 secs

     total energy              =   -6056.24053969 Ry
     estimated scf accuracy    <       2.24682316 Ry

     total magnetization       =    60.21 Bohr mag/cell
     absolute magnetization    =    69.75 Bohr mag/cell

     iteration #  6     ecut=    40.00 Ry     beta= 0.70
     Davidson diagonalization with overlap
     ethr =  6.71E-04,  avg # of iterations =  1.7

     negative rho (up, down):  7.339E-07 3.340E-07

     total cpu time spent up to now is      104.5 secs

     total energy              =   -6056.35499682 Ry
     estimated scf accuracy    <       0.59450203 Ry

     total magnetization       =    60.20 Bohr mag/cell
     absolute magnetization    =    69.58 Bohr mag/cell

     iteration #  7     ecut=    40.00 Ry     beta= 0.70
     Davidson diagonalization with overlap
     c_bands:  1 eigenvalues not converged
     ethr =  1.77E-04,  avg # of iterations =  4.9

     negative rho (up, down):  8.344E-07 4.183E-07

     total cpu time spent up to now is      124.7 secs

     total energy              =   -6056.38870048 Ry
     estimated scf accuracy    <       0.73309603 Ry

     total magnetization       =    60.37 Bohr mag/cell
     absolute magnetization    =    69.30 Bohr mag/cell

     iteration #  8     ecut=    40.00 Ry     beta= 0.70
     Davidson diagonalization with overlap
     ethr =  1.77E-04,  avg # of iterations =  1.7

     negative rho (up, down):  1.782E-07 8.192E-08

     total cpu time spent up to now is      137.9 secs

     total energy              =   -6056.39353224 Ry
     estimated scf accuracy    <       0.14451750 Ry

     total magnetization       =    60.53 Bohr mag/cell
     absolute magnetization    =    69.26 Bohr mag/cell

     iteration #  9     ecut=    40.00 Ry     beta= 0.70
     Davidson diagonalization with overlap
     c_bands:  1 eigenvalues not converged
     c_bands:  3 eigenvalues not converged
     c_bands:  1 eigenvalues not converged
     c_bands:  1 eigenvalues not converged
     ethr =  4.31E-05,  avg # of iterations = 12.7

     negative rho (up, down):  1.701E-07 7.309E-08

     total cpu time spent up to now is      168.2 secs

     total energy              =   -6056.41716201 Ry
     estimated scf accuracy    <       0.26040503 Ry

     total magnetization       =    61.25 Bohr mag/cell
     absolute magnetization    =    69.21 Bohr mag/cell

     iteration # 10     ecut=    40.00 Ry     beta= 0.70
     Davidson diagonalization with overlap
     ethr =  4.31E-05,  avg # of iterations =  1.4

     negative rho (up, down):  1.082E-07 5.871E-08

     total cpu time spent up to now is      184.9 secs

     total energy              =   -6056.42264931 Ry
     estimated scf accuracy    <       0.21437072 Ry

     total magnetization       =    61.24 Bohr mag/cell
     absolute magnetization    =    69.10 Bohr mag/cell

     iteration # 11     ecut=    40.00 Ry     beta= 0.70
     Davidson diagonalization with overlap
     ethr =  4.31E-05,  avg # of iterations =  1.0

     negative rho (up, down):  4.128E-08 2.322E-08

     total cpu time spent up to now is      196.3 secs

     total energy              =   -6056.41293492 Ry
     estimated scf accuracy    <       0.11400763 Ry

     total magnetization       =    61.25 Bohr mag/cell
     absolute magnetization    =    68.99 Bohr mag/cell

     iteration # 12     ecut=    40.00 Ry     beta= 0.70
     Davidson diagonalization with overlap
     ethr =  3.40E-05,  avg # of iterations =  2.0

     negative rho (up, down):  1.294E-07 9.548E-09

     total cpu time spent up to now is      209.7 secs

     total energy              =   -6056.41698133 Ry
     estimated scf accuracy    <       0.12037320 Ry

     total magnetization       =    61.09 Bohr mag/cell
     absolute magnetization    =    68.64 Bohr mag/cell

     iteration # 13     ecut=    40.00 Ry     beta= 0.70
     Davidson diagonalization with overlap
     ethr =  3.40E-05,  avg # of iterations =  1.1

     negative rho (up, down):  4.691E-08 2.921E-08

     total cpu time spent up to now is      224.6 secs

     total energy              =   -6056.41452657 Ry
     estimated scf accuracy    <       0.09806324 Ry

     total magnetization       =    61.15 Bohr mag/cell
     absolute magnetization    =    68.62 Bohr mag/cell

     iteration # 14     ecut=    40.00 Ry     beta= 0.70
     Davidson diagonalization with overlap
     ethr =  2.93E-05,  avg # of iterations =  1.3

     negative rho (up, down):  6.788E-07 5.640E-08

     total cpu time spent up to now is      237.6 secs

     total energy              =   -6056.41281139 Ry
     estimated scf accuracy    <       0.10224670 Ry

     total magnetization       =    61.25 Bohr mag/cell
     absolute magnetization    =    68.74 Bohr mag/cell

     iteration # 15     ecut=    40.00 Ry     beta= 0.70
     Davidson diagonalization with overlap
     ethr =  2.93E-05,  avg # of iterations =  1.0

     negative rho (up, down):  5.444E-04 1.763E-04

     total cpu time spent up to now is      252.5 secs

     total energy              =   -6056.41107255 Ry
     estimated scf accuracy    <       0.08617071 Ry

     total magnetization       =    61.24 Bohr mag/cell
     absolute magnetization    =    68.70 Bohr mag/cell

     iteration # 16     ecut=    40.00 Ry     beta= 0.70
     Davidson diagonalization with overlap
     ethr =  2.57E-05,  avg # of iterations =  1.1

     negative rho (up, down):  1.020E-02 8.554E-03

     total cpu time spent up to now is      264.6 secs

     total energy              =   -6056.40748537 Ry
     estimated scf accuracy    <       0.06264214 Ry

     total magnetization       =    61.25 Bohr mag/cell
     absolute magnetization    =    68.69 Bohr mag/cell

     iteration # 17     ecut=    40.00 Ry     beta= 0.70
     Davidson diagonalization with overlap
     ethr =  1.87E-05,  avg # of iterations =  2.9

     negative rho (up, down):  1.231E-02 1.070E-02

     total cpu time spent up to now is      281.3 secs

     total energy              =   -6056.40814041 Ry
     estimated scf accuracy    <       0.02781177 Ry

     total magnetization       =    61.24 Bohr mag/cell
     absolute magnetization    =    68.71 Bohr mag/cell

     iteration # 18     ecut=    40.00 Ry     beta= 0.70
     Davidson diagonalization with overlap
     c_bands:  4 eigenvalues not converged
     ethr =  8.30E-06,  avg # of iterations =  3.1

     negative rho (up, down):  4.560E-03 3.525E-03

     total cpu time spent up to now is      296.1 secs

     total energy              =   -6056.40814852 Ry
     estimated scf accuracy    <       0.03939989 Ry

     total magnetization       =    61.24 Bohr mag/cell
     absolute magnetization    =    68.67 Bohr mag/cell

     iteration # 19     ecut=    40.00 Ry     beta= 0.70
     Davidson diagonalization with overlap
     ethr =  8.30E-06,  avg # of iterations =  1.2

     negative rho (up, down):  1.241E-02 1.110E-02

     total cpu time spent up to now is      311.6 secs

     total energy              =   -6056.40759730 Ry
     estimated scf accuracy    <       0.03205124 Ry

     total magnetization       =    61.24 Bohr mag/cell
     absolute magnetization    =    68.69 Bohr mag/cell

     iteration # 20     ecut=    40.00 Ry     beta= 0.70
     Davidson diagonalization with overlap
     ethr =  8.30E-06,  avg # of iterations =  1.1

     negative rho (up, down):  1.546E-02 1.422E-02

     total cpu time spent up to now is      323.8 secs

     total energy              =   -6056.40693320 Ry
     estimated scf accuracy    <       0.01903069 Ry

     total magnetization       =    61.24 Bohr mag/cell
     absolute magnetization    =    68.68 Bohr mag/cell

     iteration # 21     ecut=    40.00 Ry     beta= 0.70
     Davidson diagonalization with overlap
     ethr =  5.68E-06,  avg # of iterations =  1.3

     negative rho (up, down):  1.069E-02 9.630E-03

     total cpu time spent up to now is      338.8 secs

     total energy              =   -6056.40681232 Ry
     estimated scf accuracy    <       0.02020404 Ry

     total magnetization       =    61.24 Bohr mag/cell
     absolute magnetization    =    68.68 Bohr mag/cell

     iteration # 22     ecut=    40.00 Ry     beta= 0.70
     Davidson diagonalization with overlap
     ethr =  5.68E-06,  avg # of iterations =  1.1

     negative rho (up, down):  1.776E-02 1.684E-02

     total cpu time spent up to now is      351.5 secs

     total energy              =   -6056.40681442 Ry
     estimated scf accuracy    <       0.01266100 Ry

     total magnetization       =    61.24 Bohr mag/cell
     absolute magnetization    =    68.69 Bohr mag/cell

     iteration # 23     ecut=    40.00 Ry     beta= 0.70
     Davidson diagonalization with overlap
     c_bands:  4 eigenvalues not converged
     ethr =  3.78E-06,  avg # of iterations =  2.1

     negative rho (up, down):  2.163E-02 2.080E-02

     total cpu time spent up to now is      368.1 secs

     total energy              =   -6056.40722176 Ry
     estimated scf accuracy    <       0.00538525 Ry

     total magnetization       =    61.24 Bohr mag/cell
     absolute magnetization    =    68.69 Bohr mag/cell

     iteration # 24     ecut=    40.00 Ry     beta= 0.70
     Davidson diagonalization with overlap
     c_bands:  4 eigenvalues not converged
     ethr =  1.61E-06,  avg # of iterations =  4.4

     negative rho (up, down):  1.311E-02 1.230E-02

     total cpu time spent up to now is      383.4 secs

     total energy              =   -6056.40684607 Ry
     estimated scf accuracy    <       0.00516976 Ry

     total magnetization       =    61.24 Bohr mag/cell
     absolute magnetization    =    68.70 Bohr mag/cell

     iteration # 25     ecut=    40.00 Ry     beta= 0.70
     Davidson diagonalization with overlap
     c_bands:  1 eigenvalues not converged
     ethr =  1.54E-06,  avg # of iterations =  2.0

     negative rho (up, down):  9.363E-03 8.594E-03

     total cpu time spent up to now is      399.4 secs

     total energy              =   -6056.40680114 Ry
     estimated scf accuracy    <       0.00435643 Ry

     total magnetization       =    61.24 Bohr mag/cell
     absolute magnetization    =    68.70 Bohr mag/cell

     iteration # 26     ecut=    40.00 Ry     beta= 0.70
     Davidson diagonalization with overlap
     ethr =  1.30E-06,  avg # of iterations =  1.3

     negative rho (up, down):  1.044E-02 9.754E-03

     total cpu time spent up to now is      412.2 secs

     total energy              =   -6056.40717024 Ry
     estimated scf accuracy    <       0.00430624 Ry

     total magnetization       =    61.24 Bohr mag/cell
     absolute magnetization    =    68.70 Bohr mag/cell

     iteration # 27     ecut=    40.00 Ry     beta= 0.70
     Davidson diagonalization with overlap
     ethr =  1.29E-06,  avg # of iterations =  1.1

     negative rho (up, down):  9.141E-03 8.482E-03

     total cpu time spent up to now is      427.7 secs

     total energy              =   -6056.40748335 Ry
     estimated scf accuracy    <       0.00142285 Ry

     total magnetization       =    61.24 Bohr mag/cell
     absolute magnetization    =    68.71 Bohr mag/cell

     iteration # 28     ecut=    40.00 Ry     beta= 0.70
     Davidson diagonalization with overlap
     ethr =  4.25E-07,  avg # of iterations =  1.8

     negative rho (up, down):  7.274E-03 6.586E-03

     total cpu time spent up to now is      441.1 secs

     total energy              =   -6056.40749219 Ry
     estimated scf accuracy    <       0.00080174 Ry

     total magnetization       =    61.24 Bohr mag/cell
     absolute magnetization    =    68.71 Bohr mag/cell

     iteration # 29     ecut=    40.00 Ry     beta= 0.70
     Davidson diagonalization with overlap
     ethr =  2.39E-07,  avg # of iterations =  2.0

     negative rho (up, down):  6.633E-03 5.914E-03

     total cpu time spent up to now is      457.0 secs

     total energy              =   -6056.40754047 Ry
     estimated scf accuracy    <       0.00052805 Ry

     total magnetization       =    61.24 Bohr mag/cell
     absolute magnetization    =    68.71 Bohr mag/cell

     iteration # 30     ecut=    40.00 Ry     beta= 0.70
     Davidson diagonalization with overlap
     ethr =  1.58E-07,  avg # of iterations =  2.1

     negative rho (up, down):  4.227E-03 3.357E-03

     total cpu time spent up to now is      470.1 secs

     total energy              =   -6056.40752867 Ry
     estimated scf accuracy    <       0.00014276 Ry

     total magnetization       =    61.24 Bohr mag/cell
     absolute magnetization    =    68.71 Bohr mag/cell

     iteration # 31     ecut=    40.00 Ry     beta= 0.70
     Davidson diagonalization with overlap
     ethr =  4.26E-08,  avg # of iterations =  3.5

     negative rho (up, down):  4.562E-03 3.708E-03

     total cpu time spent up to now is      488.4 secs

     total energy              =   -6056.40753916 Ry
     estimated scf accuracy    <       0.00018297 Ry

     total magnetization       =    61.24 Bohr mag/cell
     absolute magnetization    =    68.71 Bohr mag/cell

     iteration # 32     ecut=    40.00 Ry     beta= 0.70
     Davidson diagonalization with overlap
     ethr =  4.26E-08,  avg # of iterations =  1.3

     negative rho (up, down):  4.068E-03 3.086E-03

     total cpu time spent up to now is      500.8 secs

     total energy              =   -6056.40756287 Ry
     estimated scf accuracy    <       0.00013267 Ry

     total magnetization       =    61.24 Bohr mag/cell
     absolute magnetization    =    68.71 Bohr mag/cell

     iteration # 33     ecut=    40.00 Ry     beta= 0.70
     Davidson diagonalization with overlap
     ethr =  3.96E-08,  avg # of iterations =  1.5

     negative rho (up, down):  2.579E-03 1.451E-03

     total cpu time spent up to now is      516.7 secs

     total energy              =   -6056.40755660 Ry
     estimated scf accuracy    <       0.00008925 Ry

     total magnetization       =    61.24 Bohr mag/cell
     absolute magnetization    =    68.71 Bohr mag/cell

     iteration # 34     ecut=    40.00 Ry     beta= 0.70
     Davidson diagonalization with overlap
     ethr =  2.66E-08,  avg # of iterations =  1.9

     negative rho (up, down):  2.401E-03 1.318E-03

     total cpu time spent up to now is      529.9 secs

     total energy              =   -6056.40755896 Ry
     estimated scf accuracy    <       0.00012241 Ry

     total magnetization       =    61.24 Bohr mag/cell
     absolute magnetization    =    68.71 Bohr mag/cell

     iteration # 35     ecut=    40.00 Ry     beta= 0.70
     Davidson diagonalization with overlap
     ethr =  2.66E-08,  avg # of iterations =  1.3

     negative rho (up, down):  2.247E-03 1.174E-03

     total cpu time spent up to now is      546.0 secs

     total energy              =   -6056.40756176 Ry
     estimated scf accuracy    <       0.00002546 Ry

     total magnetization       =    61.24 Bohr mag/cell
     absolute magnetization    =    68.71 Bohr mag/cell

     iteration # 36     ecut=    40.00 Ry     beta= 0.70
     Davidson diagonalization with overlap
     ethr =  7.60E-09,  avg # of iterations =  3.4

     negative rho (up, down):  2.280E-03 1.218E-03

     total cpu time spent up to now is      560.3 secs

     total energy              =   -6056.40756259 Ry
     estimated scf accuracy    <       0.00001179 Ry

     total magnetization       =    61.24 Bohr mag/cell
     absolute magnetization    =    68.71 Bohr mag/cell

     iteration # 37     ecut=    40.00 Ry     beta= 0.70
     Davidson diagonalization with overlap
     ethr =  3.52E-09,  avg # of iterations =  4.5

     negative rho (up, down):  2.239E-03 1.220E-03

     total cpu time spent up to now is      578.4 secs

     total energy              =   -6056.40756090 Ry
     estimated scf accuracy    <       0.00005475 Ry

     total magnetization       =    61.24 Bohr mag/cell
     absolute magnetization    =    68.71 Bohr mag/cell

     iteration # 38     ecut=    40.00 Ry     beta= 0.70
     Davidson diagonalization with overlap
     ethr =  3.52E-09,  avg # of iterations =  1.9

     negative rho (up, down):  2.261E-03 1.213E-03

     total cpu time spent up to now is      591.6 secs

     total energy              =   -6056.40756336 Ry
     estimated scf accuracy    <       0.00000834 Ry

     total magnetization       =    61.24 Bohr mag/cell
     absolute magnetization    =    68.71 Bohr mag/cell

     iteration # 39     ecut=    40.00 Ry     beta= 0.70
     Davidson diagonalization with overlap
     ethr =  2.49E-09,  avg # of iterations =  1.3

     negative rho (up, down):  2.272E-03 1.226E-03

     total cpu time spent up to now is      607.8 secs

     total energy              =   -6056.40756344 Ry
     estimated scf accuracy    <       0.00000463 Ry

     total magnetization       =    61.24 Bohr mag/cell
     absolute magnetization    =    68.71 Bohr mag/cell

     iteration # 40     ecut=    40.00 Ry     beta= 0.70
     Davidson diagonalization with overlap
     ethr =  1.38E-09,  avg # of iterations =  3.4

     negative rho (up, down):  2.328E-03 1.249E-03

     total cpu time spent up to now is      622.2 secs

     total energy              =   -6056.40756476 Ry
     estimated scf accuracy    <       0.00000132 Ry

     total magnetization       =    61.24 Bohr mag/cell
     absolute magnetization    =    68.71 Bohr mag/cell

     iteration # 41     ecut=    40.00 Ry     beta= 0.70
     Davidson diagonalization with overlap
     ethr =  3.94E-10,  avg # of iterations =  7.7

     negative rho (up, down):  2.320E-03 1.237E-03

     total cpu time spent up to now is      644.1 secs

     total energy              =   -6056.40756503 Ry
     estimated scf accuracy    <       0.00000282 Ry

     total magnetization       =    61.24 Bohr mag/cell
     absolute magnetization    =    68.71 Bohr mag/cell

     iteration # 42     ecut=    40.00 Ry     beta= 0.70
     Davidson diagonalization with overlap
     ethr =  3.94E-10,  avg # of iterations =  1.5

     negative rho (up, down):  2.226E-03 1.128E-03

     Magnetic moment per site  (integrated on atomic sphere of radius R)
     atom   1 (R=0.103)  charge=  6.2593  magn=  1.7703
     atom   2 (R=0.103)  charge=  6.2602  magn=  1.7631
     atom   3 (R=0.103)  charge=  6.2596  magn=  1.7664
     atom   4 (R=0.103)  charge=  6.2596  magn=  1.7682
     atom   5 (R=0.103)  charge=  6.2598  magn=  1.7650
     atom   6 (R=0.103)  charge=  6.2589  magn=  1.7736
     atom   7 (R=0.103)  charge=  6.2594  magn=  1.7742
     atom   8 (R=0.103)  charge=  6.2592  magn=  1.7688
     atom   9 (R=0.103)  charge=  6.2593  magn=  1.7660
     atom  10 (R=0.103)  charge=  6.2661  magn=  1.6893
     atom  11 (R=0.103)  charge=  6.2665  magn=  1.6972
     atom  12 (R=0.103)  charge=  6.2661  magn=  1.6956
     atom  13 (R=0.103)  charge=  6.2663  magn=  1.6938
     atom  14 (R=0.103)  charge=  6.2671  magn=  1.6868
     atom  15 (R=0.103)  charge=  6.2663  magn=  1.6963
     atom  16 (R=0.103)  charge=  6.2663  magn=  1.6927
     atom  17 (R=0.103)  charge=  6.2665  magn=  1.6976
     atom  18 (R=0.103)  charge=  6.2663  magn=  1.6958
     atom  19 (R=0.103)  charge=  6.2642  magn=  1.7042
     atom  20 (R=0.103)  charge=  6.2634  magn=  1.7181
     atom  21 (R=0.103)  charge=  6.2652  magn=  1.6932
     atom  22 (R=0.103)  charge=  6.2660  magn=  1.7054
     atom  23 (R=0.103)  charge=  6.2654  magn=  1.6848
     atom  24 (R=0.103)  charge=  6.2653  magn=  1.6991
     atom  25 (R=0.103)  charge=  6.2653  magn=  1.7035
     atom  26 (R=0.103)  charge=  6.2636  magn=  1.7015
     atom  27 (R=0.103)  charge=  6.2655  magn=  1.7010
     atom  28 (R=0.103)  charge=  6.2624  magn=  1.7808
     atom  29 (R=0.103)  charge=  6.2727  magn=  1.6235
     atom  30 (R=0.103)  charge=  6.2637  magn=  1.7596
     atom  31 (R=0.103)  charge=  6.2685  magn=  1.7227
     atom  32 (R=0.103)  charge=  6.2942  magn=  1.2158
     atom  33 (R=0.103)  charge=  6.2604  magn=  1.7632
     atom  34 (R=0.103)  charge=  6.2609  magn=  1.7645
     atom  35 (R=0.103)  charge=  6.2623  magn=  1.7510
     atom  36 (R=0.103)  charge=  6.2585  magn=  1.7854
     atom  37 (R=0.062)  charge=  0.9089  magn= -0.0152
     atom  38 (R=0.068)  charge=  3.1238  magn=  0.0029
     atom  39 (R=0.062)  charge=  0.5054  magn=  0.0091

     total cpu time spent up to now is      656.5 secs

     End of self-consistent calculation

 ------ SPIN UP ------------


          k = 0.0000 0.0000 0.0000 ( 36693 PWs)   bands (ev):

   -21.6585 -10.5322  -7.5235  -6.8791  -6.2602  -5.7067  -5.2638  -4.6466
    -4.6147  -4.6133  -4.6127  -4.6056  -4.5958  -4.5594  -4.2535  -4.0822
    -4.0791  -4.0743  -4.0657  -4.0523  -4.0166  -3.5629  -3.5576  -3.5545
    -3.5524  -3.5390  -3.5094  -3.4343  -3.4233  -3.4208  -3.4201  -3.4150
    -3.3962  -3.3522  -3.3508  -3.0400  -3.0365  -3.0344  -3.0325  -3.0197
    -2.9765  -2.9702  -2.9655  -2.9627  -2.9596  -2.9566  -2.9552  -2.8077
    -2.8057  -2.7767  -2.7452  -2.7329  -2.7267  -2.7252  -2.7180  -2.7037
    -2.6973  -2.6926  -2.6917  -2.5987  -2.5964  -2.5932  -2.5880  -2.5784
    -2.5475  -2.2878  -2.0650  -2.0598  -2.0541  -2.0501  -2.0442  -1.9465
    -1.9322  -1.9170  -1.9010  -1.8910  -1.8888  -1.8804  -1.8733  -1.8720
    -1.8525  -1.8192  -1.8168  -1.7712  -1.7639  -1.7613  -1.7469  -1.7386
    -1.7373  -1.7299  -1.7255  -1.7240  -1.7099  -1.6977  -1.6941  -1.6886
    -1.6854  -1.6828  -1.6807  -1.6806  -1.6792  -1.6744  -1.6716  -1.6714
    -1.6672  -1.6301  -1.6277  -1.5979  -1.5930  -1.5194  -1.5155  -1.4841
    -1.3143  -1.2386  -1.2243  -1.2213  -1.2199  -1.2161  -1.2134  -1.1960
    -1.1876  -1.1861  -1.1547  -1.1484  -1.1342  -1.0990  -1.0125  -1.0108
    -0.9830  -0.9800  -0.8759  -0.8284  -0.8151  -0.8117  -0.8036  -0.7927
    -0.7406  -0.7309  -0.7272  -0.7251  -0.7240  -0.7096  -0.6172  -0.6112
    -0.5091  -0.4926  -0.4833  -0.4823  -0.4591  -0.4512  -0.4253  -0.4209
    -0.4187  -0.4141  -0.4083  -0.4045  -0.4008  -0.3997  -0.3989  -0.3937
    -0.3883  -0.3852  -0.3725  -0.3573  -0.3473  -0.3373  -0.3341  -0.3322
    -0.3208  -0.3112  -0.2969  -0.2913  -0.2873  -0.2639  -0.2610  -0.2605
    -0.2581  -0.2519  -0.2475  -0.2335  -0.2119  -0.1943  -0.1858  -0.1831
    -0.1807  -0.1758  -0.1726  -0.1686  -0.1682  -0.1531  -0.1039  -0.0993
    -0.0879  -0.0867  -0.0243  -0.0234  -0.0185  -0.0126  -0.0117   0.0056
     0.3530   1.1084

          k = 0.0000 0.2309 0.0000 ( 36641 PWs)   bands (ev):

   -21.6584 -10.5318  -7.3811  -6.8612  -6.1781  -5.6785  -5.3752  -5.2341
    -4.8618  -4.8526  -4.5001  -4.3696  -4.2718  -4.2679  -4.2025  -4.1581
    -4.1161  -4.0782  -4.0061  -3.9508  -3.9340  -3.6815  -3.5690  -3.5596
    -3.4841  -3.4685  -3.4412  -3.4338  -3.4323  -3.4255  -3.4077  -3.3922
    -3.3609  -3.3172  -3.3103  -3.2803  -3.2792  -3.0934  -3.0602  -3.0511
    -3.0216  -2.9959  -2.9942  -2.9832  -2.9180  -2.8930  -2.8624  -2.8354
    -2.8260  -2.8218  -2.7981  -2.7853  -2.7032  -2.6918  -2.6653  -2.6303
    -2.6224  -2.6000  -2.5829  -2.5670  -2.5576  -2.5359  -2.5193  -2.5110
    -2.4590  -2.3164  -2.1806  -2.1675  -2.1417  -2.1250  -2.0857  -2.0280
    -2.0186  -2.0089  -2.0055  -1.9911  -1.9823  -1.9611  -1.9398  -1.9042
    -1.8786  -1.8760  -1.8587  -1.8142  -1.8124  -1.8095  -1.8057  -1.7822
    -1.7795  -1.7699  -1.7660  -1.7644  -1.7623  -1.7341  -1.6948  -1.6769
    -1.6629  -1.6380  -1.6072  -1.5893  -1.5814  -1.5760  -1.5638  -1.5581
    -1.5511  -1.5359  -1.5264  -1.5238  -1.5160  -1.5005  -1.4774  -1.4689
    -1.4601  -1.4495  -1.4270  -1.4053  -1.3612  -1.3272  -1.2519  -1.2473
    -1.2406  -1.2378  -1.2199  -1.2187  -1.2164  -1.2077  -1.1095  -1.0722
    -1.0528  -1.0344  -0.9657  -0.9619  -0.9379  -0.8959  -0.8684  -0.8618
    -0.8020  -0.7948  -0.7663  -0.7451  -0.7285  -0.7175  -0.6774  -0.6770
    -0.6618  -0.6456  -0.6280  -0.5941  -0.5899  -0.5700  -0.5695  -0.5611
    -0.5275  -0.4917  -0.4832  -0.4793  -0.4597  -0.4434  -0.4185  -0.4137
    -0.4077  -0.4053  -0.4012  -0.3908  -0.3709  -0.3605  -0.3525  -0.3433
    -0.2915  -0.2826  -0.2669  -0.2498  -0.2336  -0.2227  -0.1961  -0.1825
    -0.1646  -0.1597  -0.1567  -0.1401  -0.1340  -0.1162  -0.1074  -0.0991
    -0.0658  -0.0265  -0.0210  -0.0132   0.0110   0.0122   0.0540   0.0584
     0.0666   0.1121   0.3360   0.3550   0.4202   0.5231   0.5991   0.6470
     0.6714   0.7902

          k = 0.0000 0.4619 0.0000 ( 36606 PWs)   bands (ev):

   -21.6584 -10.5311  -7.0280  -6.7734  -6.2256  -5.9869  -5.4865  -5.2496
    -5.0055  -4.9834  -4.8859  -4.1758  -4.1157  -4.0986  -4.0627  -4.0289
    -3.9104  -3.9084  -3.8722  -3.7775  -3.7738  -3.7683  -3.6876  -3.5954
    -3.5896  -3.5799  -3.5784  -3.5329  -3.4832  -3.4712  -3.4649  -3.3121
    -3.3077  -3.2978  -3.2837  -3.2594  -3.2577  -3.1623  -3.1519  -3.1406
    -3.1356  -3.1294  -3.0223  -2.9522  -2.9167  -2.8469  -2.8228  -2.8043
    -2.7836  -2.7620  -2.7412  -2.7374  -2.7314  -2.7062  -2.6505  -2.6426
    -2.6181  -2.5827  -2.5759  -2.4664  -2.4330  -2.4279  -2.4133  -2.3717
    -2.3241  -2.3037  -2.2961  -2.2811  -2.2434  -2.1887  -2.1490  -2.1444
    -2.1408  -2.1329  -2.1112  -2.1027  -2.0979  -2.0879  -2.0546  -2.0246
    -2.0103  -1.9872  -1.9693  -1.9430  -1.9300  -1.9108  -1.8555  -1.8266
    -1.8135  -1.8076  -1.7867  -1.7736  -1.7343  -1.7117  -1.7055  -1.7000
    -1.6859  -1.6680  -1.6608  -1.6383  -1.6341  -1.6165  -1.5997  -1.5891
    -1.5749  -1.5669  -1.5134  -1.4689  -1.4505  -1.4358  -1.4070  -1.3972
    -1.3867  -1.3709  -1.3387  -1.2971  -1.2866  -1.2739  -1.2679  -1.2622
    -1.2553  -1.2453  -1.2428  -1.2363  -1.2290  -1.2253  -1.2129  -1.1955
    -1.1791  -1.1614  -1.1048  -1.0629  -1.0358  -1.0238  -1.0092  -0.9895
    -0.9731  -0.9305  -0.9108  -0.8870  -0.8784  -0.8326  -0.8198  -0.7682
    -0.7564  -0.7285  -0.7030  -0.6868  -0.6746  -0.6605  -0.6354  -0.5932
    -0.5594  -0.5046  -0.4950  -0.4822  -0.4774  -0.4740  -0.4664  -0.4585
    -0.4462  -0.4331  -0.3848  -0.3374  -0.3317  -0.3154  -0.3084  -0.3029
    -0.2928  -0.2710  -0.2663  -0.2586  -0.2417  -0.2357  -0.1568  -0.1356
    -0.1291  -0.1249  -0.0990  -0.0807  -0.0364  -0.0268   0.0012   0.0196
     0.0384   0.0842   0.0866   0.1071   0.1098   0.1141   0.1331   0.1400
     0.2192   0.2341   0.2770   0.9525   1.0835   1.2197   1.3382   1.3669
     1.5375   1.7122

          k = 0.2000-0.1155 0.0000 ( 36641 PWs)   bands (ev):

   -21.6584 -10.5313  -7.3817  -6.8611  -6.1836  -5.6920  -5.3571  -5.2315
    -4.8644  -4.8588  -4.4982  -4.3476  -4.2711  -4.2706  -4.2001  -4.1515
    -4.1180  -4.1003  -3.9950  -3.9506  -3.9442  -3.6794  -3.5686  -3.5604
    -3.4859  -3.4622  -3.4439  -3.4346  -3.4327  -3.4185  -3.4085  -3.3964
    -3.3631  -3.3139  -3.3120  -3.2817  -3.2793  -3.1015  -3.0543  -3.0508
    -3.0020  -2.9981  -2.9926  -2.9866  -2.9227  -2.8735  -2.8656  -2.8413
    -2.8289  -2.8230  -2.7982  -2.7829  -2.6944  -2.6921  -2.6614  -2.6322
    -2.6164  -2.6017  -2.5870  -2.5739  -2.5680  -2.5419  -2.5206  -2.5123
    -2.4531  -2.3075  -2.1797  -2.1623  -2.1535  -2.1308  -2.0879  -2.0255
    -2.0158  -2.0136  -1.9995  -1.9960  -1.9813  -1.9661  -1.9474  -1.9016
    -1.8840  -1.8744  -1.8580  -1.8217  -1.8118  -1.8097  -1.8019  -1.7853
    -1.7762  -1.7691  -1.7661  -1.7639  -1.7592  -1.7260  -1.6967  -1.6841
    -1.6694  -1.6370  -1.6033  -1.5878  -1.5799  -1.5757  -1.5664  -1.5596
    -1.5455  -1.5357  -1.5319  -1.5252  -1.5215  -1.4954  -1.4846  -1.4786
    -1.4578  -1.4527  -1.4301  -1.3755  -1.3579  -1.3309  -1.2563  -1.2471
    -1.2418  -1.2335  -1.2229  -1.2188  -1.2146  -1.2104  -1.1317  -1.0774
    -1.0593  -1.0356  -0.9647  -0.9620  -0.9367  -0.8895  -0.8678  -0.8639
    -0.8257  -0.7730  -0.7519  -0.7381  -0.7245  -0.7151  -0.6843  -0.6763
    -0.6615  -0.6463  -0.6310  -0.5915  -0.5882  -0.5746  -0.5647  -0.5576
    -0.5203  -0.4998  -0.4846  -0.4792  -0.4690  -0.4438  -0.4226  -0.4189
    -0.4128  -0.4052  -0.3971  -0.3884  -0.3740  -0.3609  -0.3474  -0.3305
    -0.2984  -0.2861  -0.2731  -0.2483  -0.2282  -0.2245  -0.1928  -0.1858
    -0.1643  -0.1606  -0.1543  -0.1393  -0.1356  -0.1165  -0.1051  -0.1005
    -0.0683  -0.0256  -0.0216  -0.0125   0.0113   0.0123   0.0450   0.0539
     0.0691   0.1106   0.3461   0.3535   0.4531   0.5458   0.6027   0.6154
     0.6797   0.8414

          k = 0.2000 0.1155 0.0000 ( 36641 PWs)   bands (ev):

   -21.6584 -10.5319  -7.3812  -6.8617  -6.1756  -5.6752  -5.3587  -5.2614
    -4.8564  -4.8501  -4.5025  -4.3769  -4.2727  -4.2668  -4.2032  -4.1587
    -4.1096  -4.0771  -4.0077  -3.9491  -3.9349  -3.6822  -3.5675  -3.5633
    -3.4826  -3.4688  -3.4383  -3.4362  -3.4327  -3.4212  -3.4084  -3.3925
    -3.3624  -3.3167  -3.3102  -3.2807  -3.2785  -3.0893  -3.0524  -3.0511
    -3.0188  -2.9964  -2.9936  -2.9913  -2.9122  -2.8919  -2.8678  -2.8407
    -2.8263  -2.8227  -2.7998  -2.7903  -2.7008  -2.6906  -2.6759  -2.6349
    -2.6218  -2.5948  -2.5857  -2.5641  -2.5530  -2.5370  -2.5205  -2.5144
    -2.4605  -2.3024  -2.1846  -2.1717  -2.1482  -2.1212  -2.0836  -2.0207
    -2.0171  -2.0106  -2.0061  -1.9952  -1.9863  -1.9628  -1.9254  -1.9015
    -1.8876  -1.8726  -1.8528  -1.8221  -1.8117  -1.8085  -1.8040  -1.7802
    -1.7779  -1.7749  -1.7690  -1.7639  -1.7566  -1.7292  -1.6928  -1.6880
    -1.6643  -1.6352  -1.5989  -1.5862  -1.5789  -1.5760  -1.5589  -1.5571
    -1.5496  -1.5373  -1.5335  -1.5239  -1.5180  -1.5002  -1.4755  -1.4684
    -1.4578  -1.4548  -1.4299  -1.4066  -1.3599  -1.3304  -1.2531  -1.2460
    -1.2429  -1.2364  -1.2253  -1.2201  -1.2164  -1.2109  -1.1035  -1.0663
    -1.0529  -1.0333  -0.9695  -0.9611  -0.9344  -0.8957  -0.8717  -0.8633
    -0.8033  -0.7848  -0.7675  -0.7414  -0.7341  -0.7182  -0.6847  -0.6792
    -0.6588  -0.6478  -0.6289  -0.5874  -0.5820  -0.5783  -0.5702  -0.5564
    -0.5265  -0.4950  -0.4846  -0.4781  -0.4646  -0.4308  -0.4222  -0.4193
    -0.4119  -0.4030  -0.3938  -0.3856  -0.3718  -0.3606  -0.3546  -0.3374
    -0.2920  -0.2821  -0.2644  -0.2530  -0.2351  -0.2245  -0.1928  -0.1860
    -0.1624  -0.1605  -0.1575  -0.1386  -0.1290  -0.1171  -0.1057  -0.0994
    -0.0675  -0.0265  -0.0221  -0.0141   0.0120   0.0132   0.0516   0.0569
     0.0685   0.1063   0.3230   0.3553   0.4181   0.5193   0.5964   0.6337
     0.6847   0.7836

          k = 0.2000 0.3464 0.0000 ( 36608 PWs)   bands (ev):

   -21.6584 -10.5315  -7.1235  -6.8167  -6.0684  -5.7143  -5.6981  -5.4826
    -5.2520  -4.5740  -4.5393  -4.2862  -4.2772  -4.2323  -4.0560  -4.0512
    -3.9607  -3.9589  -3.9516  -3.8238  -3.8004  -3.6803  -3.6729  -3.6092
    -3.5622  -3.4741  -3.4714  -3.4510  -3.4255  -3.4204  -3.4123  -3.3893
    -3.3667  -3.3517  -3.3397  -3.3012  -3.2589  -3.2254  -3.2120  -3.0955
    -3.0853  -2.9988  -2.9887  -2.9586  -2.9414  -2.9364  -2.8578  -2.8315
    -2.7877  -2.7590  -2.7546  -2.7505  -2.7018  -2.6897  -2.6735  -2.6660
    -2.6503  -2.5616  -2.5324  -2.4743  -2.4655  -2.4546  -2.4307  -2.4083
    -2.4058  -2.2900  -2.2639  -2.2069  -2.1957  -2.1651  -2.1442  -2.1273
    -2.1065  -2.0974  -2.0926  -2.0742  -2.0607  -2.0459  -2.0392  -2.0245
    -2.0034  -1.9862  -1.9285  -1.9040  -1.8503  -1.8441  -1.8263  -1.8081
    -1.7900  -1.7790  -1.7572  -1.7366  -1.7279  -1.6960  -1.6864  -1.6846
    -1.6715  -1.6667  -1.6530  -1.6404  -1.6340  -1.6205  -1.6081  -1.5892
    -1.5793  -1.5491  -1.5260  -1.5094  -1.4939  -1.4898  -1.4562  -1.4474
    -1.4250  -1.4158  -1.4090  -1.3828  -1.3563  -1.3405  -1.3185  -1.2796
    -1.2742  -1.2708  -1.2645  -1.2433  -1.2299  -1.2271  -1.2072  -1.1732
    -1.1202  -1.1013  -1.0985  -1.0591  -0.9825  -0.9746  -0.9562  -0.8814
    -0.8521  -0.8328  -0.8278  -0.8153  -0.8064  -0.7970  -0.7831  -0.7795
    -0.7476  -0.7359  -0.7101  -0.6779  -0.6678  -0.6576  -0.6373  -0.6274
    -0.6076  -0.5943  -0.5589  -0.5478  -0.5422  -0.5289  -0.4608  -0.3914
    -0.3826  -0.3597  -0.3476  -0.3391  -0.3238  -0.3111  -0.3052  -0.2936
    -0.2895  -0.2796  -0.2146  -0.1994  -0.1902  -0.1806  -0.1453  -0.1386
    -0.1115  -0.1102  -0.1035  -0.0944  -0.0757  -0.0702  -0.0651  -0.0446
    -0.0353  -0.0172   0.0501   0.0585   0.0634   0.1094   0.1124   0.1229
     0.4394   0.4499   0.5119   0.5669   0.7614   0.7756   1.0293   1.2779
     1.3395   1.4863

          k = 0.2000-0.5774 0.0000 ( 36660 PWs)   bands (ev):

   -21.6584 -10.5308  -6.9404  -6.4814  -6.4399  -5.9906  -5.7633  -5.3592
    -5.1371  -5.0230  -4.5982  -4.2642  -4.0176  -3.9763  -3.8830  -3.8421
    -3.8346  -3.8221  -3.8113  -3.7881  -3.7373  -3.7283  -3.7259  -3.7184
    -3.6412  -3.6259  -3.5767  -3.5717  -3.5438  -3.5407  -3.4342  -3.4099
    -3.3901  -3.3851  -3.3622  -3.3256  -3.2353  -3.2237  -3.1226  -3.0987
    -3.0915  -3.0290  -3.0059  -2.9920  -2.9627  -2.8890  -2.8766  -2.8708
    -2.8041  -2.7988  -2.7403  -2.6947  -2.6710  -2.6527  -2.6111  -2.5977
    -2.5381  -2.5112  -2.5007  -2.4912  -2.4863  -2.4503  -2.4404  -2.3815
    -2.3230  -2.2977  -2.2862  -2.2745  -2.2529  -2.2133  -2.1879  -2.1546
    -2.1320  -2.1110  -2.1003  -2.0956  -2.0803  -2.0628  -2.0311  -2.0207
    -2.0146  -2.0026  -1.9887  -1.9623  -1.9591  -1.9340  -1.8889  -1.8752
    -1.8600  -1.8370  -1.7963  -1.7838  -1.7397  -1.7265  -1.7126  -1.6930
    -1.6834  -1.6691  -1.6640  -1.6599  -1.6507  -1.6345  -1.6057  -1.5957
    -1.5378  -1.5217  -1.5163  -1.5099  -1.4993  -1.4875  -1.4840  -1.4757
    -1.4665  -1.4607  -1.4427  -1.4145  -1.3986  -1.3605  -1.3548  -1.3288
    -1.2747  -1.2616  -1.2306  -1.2098  -1.2070  -1.1930  -1.1809  -1.1381
    -1.1086  -1.1045  -1.0914  -1.0364  -1.0059  -0.9718  -0.9532  -0.9347
    -0.9332  -0.9157  -0.9014  -0.8846  -0.8573  -0.8441  -0.8156  -0.7916
    -0.7659  -0.7545  -0.7386  -0.7273  -0.7059  -0.6845  -0.6557  -0.6430
    -0.6274  -0.6135  -0.6053  -0.5935  -0.5630  -0.5429  -0.5125  -0.4509
    -0.3494  -0.3409  -0.3362  -0.3296  -0.3205  -0.3122  -0.3053  -0.2967
    -0.2557  -0.2528  -0.2409  -0.2314  -0.2065  -0.1826  -0.1149  -0.1105
    -0.1006  -0.0825  -0.0655  -0.0590  -0.0181  -0.0050  -0.0024   0.0052
     0.0134   0.0822   0.0903   0.0978   0.1119   0.1160   0.1419   0.1690
     0.2067   0.4804   0.5425   0.8051   1.2544   1.3875   1.4899   1.7133
     1.8478   1.9107

          k = 0.2000-0.3464 0.0000 ( 36608 PWs)   bands (ev):

   -21.6584 -10.5307  -7.1236  -6.8188  -6.0805  -5.7376  -5.6941  -5.4756
    -5.2247  -4.6030  -4.5082  -4.2803  -4.2746  -4.2324  -4.0540  -4.0511
    -3.9655  -3.9548  -3.9366  -3.8230  -3.8171  -3.6771  -3.6735  -3.6122
    -3.5637  -3.4835  -3.4725  -3.4469  -3.4238  -3.4190  -3.4150  -3.3884
    -3.3702  -3.3520  -3.3443  -3.2994  -3.2607  -3.2172  -3.2100  -3.1001
    -3.0883  -2.9949  -2.9851  -2.9638  -2.9488  -2.9290  -2.8372  -2.7955
    -2.7822  -2.7698  -2.7543  -2.7472  -2.7010  -2.6928  -2.6731  -2.6662
    -2.6492  -2.5368  -2.5306  -2.4884  -2.4734  -2.4482  -2.4319  -2.4149
    -2.3983  -2.3196  -2.2834  -2.2144  -2.1984  -2.1581  -2.1438  -2.1244
    -2.1175  -2.0993  -2.0908  -2.0680  -2.0532  -2.0478  -2.0401  -2.0245
    -2.0212  -1.9927  -1.9263  -1.8995  -1.8499  -1.8422  -1.8160  -1.8097
    -1.7999  -1.7766  -1.7626  -1.7331  -1.7248  -1.6996  -1.6877  -1.6848
    -1.6770  -1.6644  -1.6521  -1.6414  -1.6316  -1.6269  -1.5991  -1.5930
    -1.5778  -1.5687  -1.5484  -1.5171  -1.4981  -1.4867  -1.4516  -1.4435
    -1.4393  -1.4207  -1.4156  -1.3691  -1.3529  -1.3368  -1.3200  -1.2939
    -1.2715  -1.2690  -1.2637  -1.2493  -1.2367  -1.2240  -1.2044  -1.1628
    -1.1333  -1.0983  -1.0946  -1.0577  -0.9857  -0.9733  -0.9559  -0.8585
    -0.8426  -0.8342  -0.8307  -0.8164  -0.8108  -0.7979  -0.7826  -0.7596
    -0.7466  -0.7282  -0.7149  -0.6887  -0.6714  -0.6541  -0.6437  -0.6256
    -0.6069  -0.5818  -0.5657  -0.5458  -0.5425  -0.5258  -0.4528  -0.3980
    -0.3813  -0.3662  -0.3474  -0.3391  -0.3316  -0.3116  -0.3040  -0.2950
    -0.2873  -0.2826  -0.2110  -0.2017  -0.1869  -0.1807  -0.1411  -0.1334
    -0.1143  -0.1097  -0.1065  -0.0889  -0.0790  -0.0690  -0.0634  -0.0489
    -0.0391  -0.0108   0.0488   0.0592   0.0654   0.1097   0.1125   0.1298
     0.4185   0.4506   0.5121   0.5860   0.7079   0.7914   1.1265   1.3112
     1.3268   1.5331

          k = 0.4000-0.2309 0.0000 ( 36606 PWs)   bands (ev):

   -21.6584 -10.5300  -7.0293  -6.7750  -6.2401  -5.9892  -5.5104  -5.2099
    -5.0056  -4.9986  -4.8592  -4.1587  -4.1188  -4.1018  -4.0846  -4.0194
    -3.9111  -3.9099  -3.8687  -3.7812  -3.7751  -3.7660  -3.6765  -3.5961
    -3.5929  -3.5809  -3.5787  -3.5309  -3.4768  -3.4692  -3.4658  -3.3151
    -3.3077  -3.2980  -3.2930  -3.2608  -3.2555  -3.1651  -3.1467  -3.1428
    -3.1307  -3.1286  -3.0175  -2.9320  -2.9180  -2.8360  -2.8204  -2.7973
    -2.7844  -2.7525  -2.7415  -2.7377  -2.7308  -2.7063  -2.6570  -2.6445
    -2.6177  -2.5828  -2.5720  -2.4767  -2.4334  -2.4266  -2.4115  -2.3796
    -2.3308  -2.3126  -2.2884  -2.2795  -2.2586  -2.1867  -2.1648  -2.1422
    -2.1372  -2.1359  -2.1238  -2.1079  -2.1013  -2.0890  -2.0454  -2.0390
    -2.0023  -1.9983  -1.9712  -1.9506  -1.9239  -1.9092  -1.8453  -1.8325
    -1.8175  -1.8085  -1.7812  -1.7680  -1.7362  -1.7102  -1.7049  -1.6983
    -1.6889  -1.6692  -1.6613  -1.6357  -1.6267  -1.6162  -1.6099  -1.5920
    -1.5737  -1.5631  -1.5147  -1.5024  -1.4483  -1.4333  -1.4187  -1.4047
    -1.3824  -1.3631  -1.3420  -1.2995  -1.2910  -1.2723  -1.2673  -1.2634
    -1.2589  -1.2524  -1.2365  -1.2339  -1.2295  -1.2217  -1.2135  -1.1963
    -1.1847  -1.1647  -1.0894  -1.0616  -1.0359  -1.0278  -1.0042  -0.9987
    -0.9662  -0.9374  -0.9070  -0.8877  -0.8802  -0.8315  -0.8159  -0.7679
    -0.7575  -0.7230  -0.7084  -0.6783  -0.6701  -0.6613  -0.6288  -0.5860
    -0.5326  -0.5065  -0.5026  -0.4887  -0.4813  -0.4776  -0.4679  -0.4569
    -0.4513  -0.4293  -0.3970  -0.3397  -0.3232  -0.3181  -0.3086  -0.3065
    -0.3015  -0.2785  -0.2614  -0.2564  -0.2462  -0.2330  -0.1563  -0.1372
    -0.1297  -0.1250  -0.1008  -0.0690  -0.0345  -0.0253   0.0033   0.0147
     0.0386   0.0822   0.0855   0.1042   0.1086   0.1146   0.1207   0.1437
     0.2195   0.2334   0.3192   0.9223   1.1587   1.2616   1.3372   1.3639
     1.5734   1.6952

          k = 0.4000 0.0000 0.0000 ( 36608 PWs)   bands (ev):

   -21.6584 -10.5308  -7.1248  -6.8176  -6.0776  -5.7330  -5.6915  -5.4755
    -5.2368  -4.5968  -4.5149  -4.2800  -4.2742  -4.2346  -4.0548  -4.0510
    -3.9650  -3.9566  -3.9385  -3.8237  -3.8133  -3.6814  -3.6714  -3.6124
    -3.5633  -3.4799  -3.4734  -3.4467  -3.4271  -3.4175  -3.4094  -3.3883
    -3.3698  -3.3508  -3.3467  -3.2961  -3.2595  -3.2136  -3.2108  -3.1012
    -3.0833  -2.9959  -2.9872  -2.9606  -2.9435  -2.9320  -2.8430  -2.7998
    -2.7874  -2.7711  -2.7542  -2.7507  -2.7055  -2.6952  -2.6755  -2.6666
    -2.6488  -2.5529  -2.5307  -2.4839  -2.4731  -2.4520  -2.4300  -2.4128
    -2.4011  -2.3109  -2.2638  -2.2117  -2.1991  -2.1599  -2.1389  -2.1184
    -2.1121  -2.1081  -2.0938  -2.0719  -2.0601  -2.0416  -2.0390  -2.0236
    -2.0158  -1.9884  -1.9307  -1.9017  -1.8503  -1.8454  -1.8271  -1.8103
    -1.7974  -1.7762  -1.7576  -1.7328  -1.7197  -1.6971  -1.6910  -1.6855
    -1.6705  -1.6644  -1.6514  -1.6475  -1.6343  -1.6276  -1.6058  -1.5884
    -1.5791  -1.5681  -1.5344  -1.5172  -1.4962  -1.4810  -1.4543  -1.4439
    -1.4362  -1.4222  -1.4126  -1.3734  -1.3559  -1.3421  -1.3189  -1.2875
    -1.2733  -1.2684  -1.2659  -1.2450  -1.2320  -1.2252  -1.2075  -1.1678
    -1.1230  -1.1014  -1.0935  -1.0594  -0.9839  -0.9689  -0.9544  -0.8801
    -0.8386  -0.8365  -0.8292  -0.8187  -0.8083  -0.7961  -0.7829  -0.7630
    -0.7524  -0.7333  -0.7101  -0.6780  -0.6663  -0.6601  -0.6375  -0.6259
    -0.6023  -0.5890  -0.5558  -0.5513  -0.5424  -0.5263  -0.4608  -0.3975
    -0.3832  -0.3543  -0.3494  -0.3427  -0.3272  -0.3151  -0.3036  -0.2963
    -0.2881  -0.2815  -0.2109  -0.2030  -0.1884  -0.1816  -0.1443  -0.1335
    -0.1129  -0.1082  -0.1033  -0.0862  -0.0768  -0.0717  -0.0637  -0.0532
    -0.0378  -0.0135   0.0501   0.0585   0.0645   0.1109   0.1145   0.1213
     0.4215   0.4506   0.5129   0.5895   0.7217   0.7910   1.0850   1.2858
     1.3496   1.5059

          k = 0.4000 0.2309 0.0000 ( 36606 PWs)   bands (ev):

   -21.6584 -10.5313  -7.0314  -6.7712  -6.2171  -5.9857  -5.4693  -5.2790
    -5.0043  -4.9732  -4.9019  -4.1791  -4.1061  -4.0995  -4.0600  -4.0303
    -3.9115  -3.9068  -3.8726  -3.7774  -3.7743  -3.7697  -3.6920  -3.5958
    -3.5911  -3.5794  -3.5773  -3.5342  -3.4833  -3.4709  -3.4613  -3.3110
    -3.3060  -3.2949  -3.2800  -3.2610  -3.2532  -3.1580  -3.1453  -3.1412
    -3.1346  -3.1291  -3.0137  -2.9583  -2.9268  -2.8574  -2.8299  -2.8025
    -2.7892  -2.7590  -2.7433  -2.7362  -2.7329  -2.7165  -2.6456  -2.6415
    -2.6211  -2.5909  -2.5750  -2.4685  -2.4292  -2.4240  -2.4187  -2.3700
    -2.3244  -2.3043  -2.2962  -2.2826  -2.2378  -2.1885  -2.1568  -2.1450
    -2.1378  -2.1341  -2.1163  -2.1025  -2.0927  -2.0900  -2.0725  -2.0213
    -1.9999  -1.9844  -1.9668  -1.9352  -1.9137  -1.9099  -1.8636  -1.8232
    -1.8157  -1.8126  -1.7844  -1.7682  -1.7270  -1.7073  -1.6994  -1.6976
    -1.6819  -1.6697  -1.6575  -1.6347  -1.6292  -1.6182  -1.5981  -1.5840
    -1.5753  -1.5614  -1.5151  -1.4808  -1.4465  -1.4337  -1.4122  -1.4025
    -1.3766  -1.3655  -1.3385  -1.3013  -1.2862  -1.2780  -1.2689  -1.2654
    -1.2590  -1.2513  -1.2410  -1.2366  -1.2335  -1.2239  -1.2117  -1.1922
    -1.1813  -1.1462  -1.1126  -1.0630  -1.0355  -1.0230  -1.0118  -0.9844
    -0.9606  -0.9437  -0.9080  -0.8998  -0.8812  -0.8305  -0.8225  -0.7810
    -0.7581  -0.7240  -0.7064  -0.6860  -0.6720  -0.6538  -0.6244  -0.5934
    -0.5655  -0.5099  -0.4997  -0.4832  -0.4794  -0.4701  -0.4653  -0.4582
    -0.4493  -0.4284  -0.3875  -0.3343  -0.3269  -0.3181  -0.3088  -0.3029
    -0.2949  -0.2657  -0.2623  -0.2559  -0.2457  -0.2358  -0.1524  -0.1351
    -0.1308  -0.1279  -0.1000  -0.0814  -0.0352  -0.0281   0.0018   0.0213
     0.0379   0.0844   0.0860   0.1089   0.1101   0.1129   0.1317   0.1463
     0.2173   0.2296   0.2728   0.9271   1.0812   1.2084   1.3354   1.3618
     1.5661   1.6971

          k = 0.4000-0.6928 0.0000 ( 36660 PWs)   bands (ev):

   -21.6584 -10.5309  -6.9436  -6.4794  -6.4321  -5.9978  -5.7617  -5.3188
    -5.1826  -5.0324  -4.5850  -4.2633  -4.0187  -3.9769  -3.8879  -3.8436
    -3.8335  -3.8224  -3.8096  -3.7918  -3.7350  -3.7288  -3.7256  -3.7184
    -3.6412  -3.6281  -3.5765  -3.5709  -3.5436  -3.5401  -3.4310  -3.4048
    -3.3904  -3.3846  -3.3591  -3.3245  -3.2394  -3.2195  -3.1235  -3.0933
    -3.0902  -3.0297  -3.0075  -2.9900  -2.9600  -2.8967  -2.8789  -2.8700
    -2.8147  -2.8022  -2.7375  -2.6985  -2.6682  -2.6572  -2.6158  -2.5943
    -2.5360  -2.5127  -2.5013  -2.4906  -2.4874  -2.4586  -2.4441  -2.3720
    -2.3228  -2.2937  -2.2875  -2.2771  -2.2436  -2.2155  -2.1850  -2.1586
    -2.1352  -2.1110  -2.1027  -2.0956  -2.0818  -2.0666  -2.0326  -2.0204
    -2.0094  -2.0005  -1.9945  -1.9627  -1.9604  -1.9241  -1.8856  -1.8708
    -1.8618  -1.8510  -1.7869  -1.7826  -1.7461  -1.7203  -1.7039  -1.6951
    -1.6760  -1.6718  -1.6636  -1.6554  -1.6481  -1.6179  -1.6094  -1.5870
    -1.5327  -1.5230  -1.5158  -1.5101  -1.4916  -1.4884  -1.4851  -1.4739
    -1.4685  -1.4586  -1.4382  -1.4215  -1.4019  -1.3684  -1.3537  -1.3351
    -1.2801  -1.2709  -1.2255  -1.2130  -1.2057  -1.1968  -1.1845  -1.1348
    -1.1133  -1.1049  -1.0969  -1.0396  -0.9956  -0.9721  -0.9569  -0.9426
    -0.9231  -0.9128  -0.8992  -0.8879  -0.8547  -0.8419  -0.8073  -0.7949
    -0.7741  -0.7544  -0.7364  -0.7289  -0.7093  -0.6795  -0.6502  -0.6401
    -0.6292  -0.6207  -0.6053  -0.5892  -0.5599  -0.5400  -0.5187  -0.4573
    -0.3523  -0.3397  -0.3348  -0.3289  -0.3231  -0.3125  -0.3060  -0.2904
    -0.2588  -0.2513  -0.2426  -0.2321  -0.2082  -0.1790  -0.1144  -0.1109
    -0.1005  -0.0809  -0.0661  -0.0562  -0.0218  -0.0067  -0.0013   0.0069
     0.0097   0.0862   0.0911   0.0952   0.1123   0.1179   0.1394   0.1665
     0.2030   0.4855   0.5404   0.8197   1.2173   1.3895   1.4839   1.7313
     1.8351   1.8954

          k = 0.4000-0.4619 0.0000 ( 36660 PWs)   bands (ev):

   -21.6584 -10.5301  -6.9405  -6.4805  -6.4534  -5.9765  -5.7701  -5.4135
    -5.0545  -5.0230  -4.6244  -4.2668  -4.0151  -3.9742  -3.8661  -3.8427
    -3.8367  -3.8154  -3.8081  -3.7890  -3.7444  -3.7290  -3.7272  -3.7184
    -3.6379  -3.6269  -3.5756  -3.5744  -3.5430  -3.5384  -3.4495  -3.4068
    -3.3889  -3.3815  -3.3659  -3.3260  -3.2378  -3.2250  -3.1188  -3.0936
    -3.0888  -3.0216  -3.0112  -2.9895  -2.9625  -2.8818  -2.8762  -2.8724
    -2.8057  -2.8004  -2.7291  -2.6918  -2.6606  -2.6524  -2.6078  -2.5959
    -2.5438  -2.5121  -2.5021  -2.4884  -2.4843  -2.4591  -2.4444  -2.3804
    -2.3353  -2.2986  -2.2779  -2.2746  -2.2480  -2.2196  -2.2044  -2.1543
    -2.1410  -2.1126  -2.1056  -2.0939  -2.0850  -2.0485  -2.0356  -2.0259
    -2.0139  -2.0056  -1.9846  -1.9678  -1.9602  -1.9519  -1.8882  -1.8751
    -1.8549  -1.8202  -1.8013  -1.7801  -1.7410  -1.7300  -1.7225  -1.6981
    -1.6793  -1.6714  -1.6644  -1.6605  -1.6460  -1.6363  -1.6106  -1.6037
    -1.5451  -1.5231  -1.5137  -1.5092  -1.4936  -1.4899  -1.4837  -1.4721
    -1.4690  -1.4618  -1.4421  -1.4090  -1.3997  -1.3614  -1.3553  -1.3269
    -1.2723  -1.2643  -1.2283  -1.2155  -1.2040  -1.1953  -1.1806  -1.1216
    -1.1104  -1.1022  -1.0938  -1.0392  -1.0183  -0.9699  -0.9592  -0.9386
    -0.9233  -0.9115  -0.9017  -0.8888  -0.8536  -0.8471  -0.8177  -0.7943
    -0.7714  -0.7555  -0.7410  -0.7229  -0.7085  -0.6764  -0.6511  -0.6375
    -0.6276  -0.6147  -0.6055  -0.5843  -0.5588  -0.5394  -0.5212  -0.4484
    -0.3526  -0.3447  -0.3359  -0.3285  -0.3190  -0.3165  -0.3083  -0.2962
    -0.2599  -0.2498  -0.2365  -0.2319  -0.2083  -0.1825  -0.1162  -0.1096
    -0.0964  -0.0839  -0.0672  -0.0605  -0.0179  -0.0054  -0.0015   0.0082
     0.0138   0.0767   0.0898   0.0933   0.1120   0.1159   0.1420   0.1689
     0.2622   0.4585   0.5204   0.7942   1.3271   1.3802   1.5244   1.6606
     1.8594   1.9385

 ------ SPIN DOWN ----------


          k = 0.0000 0.0000 0.0000 ( 36693 PWs)   bands (ev):

   -21.6560 -10.5554  -7.6431  -6.8321  -6.3089  -5.6870  -5.2911  -4.4424
    -4.4164  -4.4121  -4.4107  -4.4037  -4.3907  -4.2901  -3.5439  -3.5382
    -3.5344  -3.5211  -3.5121  -3.4983  -3.3805  -2.5955  -2.5894  -2.5844
    -2.5794  -2.5684  -2.5175  -2.1707  -2.1258  -2.1222  -2.1165  -2.1113
    -2.1069  -1.9328  -1.9169  -1.8574  -1.8445  -1.8311  -1.8240  -1.8069
    -1.7334  -1.7301  -1.6826  -1.6787  -1.6279  -1.5842  -1.5783  -1.5684
    -1.5523  -1.4744  -1.3611  -1.3243  -1.3077  -1.3017  -1.2877  -1.2844
    -1.2802  -1.2794  -1.2673  -1.2332  -1.2230  -1.2049  -1.2028  -1.1974
    -1.1846  -1.0645  -0.7217  -0.6422  -0.6316  -0.6241  -0.6223  -0.4710
    -0.4314  -0.3384  -0.3096  -0.3010  -0.2976  -0.2920  -0.2821  -0.2707
    -0.2416  -0.2212  -0.2091  -0.2043  -0.2019  -0.1982  -0.1669  -0.1391
    -0.1164  -0.1124  -0.0989  -0.0975  -0.0686  -0.0493  -0.0435  -0.0430
    -0.0387  -0.0360  -0.0136  -0.0124  -0.0099  -0.0082   0.0561   0.0845
     0.1259   0.1466   0.1597   0.1700   0.2004   0.2105   0.2155   0.2177
     0.2197   0.2227   0.2247   0.2260   0.2961   0.2969   0.3550   0.3722
     0.3870   0.3998   0.4039   0.4096   0.5956   0.6057   0.6364   0.6597
     0.6868   0.6933   0.7040   0.7051   0.7454   0.9825   0.9989   1.0439
     1.0450   1.1735   1.2066   1.2254   1.2480   1.2623   1.2695   1.2724
     1.3710   1.4075   1.4276   1.4332   1.4403   1.4429   1.4564   1.4674
     1.4869   1.4953   1.5225   1.5276   1.5435   1.5624   1.5735   1.5867
     1.5929   1.5941   1.5964   1.6122   1.6490   1.6673   1.6741   1.6775
     1.6967   1.7099   1.7139   1.7186   1.7213   1.7251   1.7304   1.7674
     1.7677   1.7905   1.7955   1.8031   1.8123   1.8129   1.8208   1.8223
     1.8552   1.8600   1.8647   1.8665   1.8704   1.8718   1.8792   1.8818
     1.8924   1.9053   1.9449   1.9460   2.0926   2.0984   2.1010   2.1035
     2.1043   2.1056

          k = 0.0000 0.2309 0.0000 ( 36641 PWs)   bands (ev):

   -21.6560 -10.5549  -7.4964  -6.8136  -6.2190  -5.6813  -5.3920  -5.2612
    -4.7945  -4.7813  -4.2770  -4.1651  -3.8671  -3.8600  -3.7713  -3.7196
    -3.5732  -3.3208  -3.1905  -3.1669  -3.0873  -2.8229  -2.6029  -2.5743
    -2.5364  -2.4869  -2.4649  -2.2508  -2.1707  -2.1591  -2.1524  -2.1365
    -2.1108  -2.0665  -2.0604  -2.0415  -2.0226  -1.9083  -1.8790  -1.8414
    -1.7946  -1.7830  -1.7326  -1.6276  -1.6021  -1.5945  -1.5572  -1.4993
    -1.4491  -1.4166  -1.3802  -1.3591  -1.3361  -1.3172  -1.2980  -1.2919
    -1.2839  -1.2437  -1.2150  -1.1729  -1.1553  -1.1395  -1.1182  -1.0967
    -1.0341  -0.9579  -0.7786  -0.6885  -0.6785  -0.6643  -0.6341  -0.5703
    -0.5376  -0.5087  -0.4582  -0.4435  -0.3514  -0.3257  -0.3130  -0.3019
    -0.2765  -0.2682  -0.2583  -0.2439  -0.2274  -0.2219  -0.1850  -0.1501
    -0.1224  -0.0983  -0.0925  -0.0798  -0.0671  -0.0410  -0.0288  -0.0130
    -0.0094  -0.0009   0.0081   0.0099   0.0161   0.0176   0.0345   0.0612
     0.0953   0.1018   0.1127   0.1168   0.1450   0.1593   0.1689   0.1852
     0.2250   0.2353   0.2668   0.2856   0.3138   0.3299   0.3332   0.3636
     0.4890   0.4953   0.5559   0.5713   0.5842   0.6209   0.6294   0.6378
     0.6572   0.6744   0.6826   0.6841   0.8584   0.9589   0.9855   1.0102
     1.0123   1.0307   1.0502   1.0559   1.0922   1.1154   1.1875   1.2008
     1.2080   1.2816   1.2918   1.3160   1.3302   1.3544   1.3799   1.3825
     1.4357   1.4733   1.4887   1.4966   1.5050   1.5257   1.5499   1.5528
     1.5821   1.6014   1.6328   1.6552   1.6736   1.6858   1.6961   1.7175
     1.7392   1.7513   1.7593   1.7663   1.7779   1.7887   1.8373   1.8444
     1.8515   1.8552   1.8986   1.9044   1.9109   1.9271   1.9413   1.9528
     1.9608   1.9958   2.0009   2.0043   2.0308   2.0353   2.0409   2.0565
     2.0654   2.0914   2.0962   2.1101   2.1854   2.1943   2.2017   2.2200
     2.2741   2.2922

          k = 0.0000 0.4619 0.0000 ( 36606 PWs)   bands (ev):

   -21.6560 -10.5543  -7.0884  -6.7757  -6.3115  -6.0012  -5.5254  -5.2811
    -5.0139  -4.9825  -4.8730  -3.9362  -3.8942  -3.7925  -3.3237  -3.2445
    -3.2387  -3.1253  -2.9822  -2.9253  -2.7954  -2.7865  -2.6439  -2.6399
    -2.5846  -2.5631  -2.5185  -2.5075  -2.3964  -2.3920  -2.3514  -2.3232
    -2.3132  -2.1211  -2.1032  -2.0619  -2.0225  -1.9569  -1.9055  -1.8983
    -1.8890  -1.8832  -1.7509  -1.5989  -1.5919  -1.5622  -1.5453  -1.4899
    -1.3730  -1.3666  -1.3548  -1.3357  -1.3211  -1.3095  -1.3008  -1.2907
    -1.2284  -1.1973  -1.1798  -1.1748  -1.1465  -1.1158  -1.0169  -0.9649
    -0.8629  -0.8280  -0.7946  -0.7294  -0.6997  -0.6662  -0.6449  -0.6251
    -0.6115  -0.5933  -0.5624  -0.5242  -0.5158  -0.4688  -0.4494  -0.4209
    -0.3954  -0.3663  -0.3431  -0.3346  -0.3290  -0.2830  -0.2363  -0.1926
    -0.1524  -0.1424  -0.1138  -0.0786  -0.0622  -0.0415  -0.0245   0.0023
     0.0229   0.0386   0.0458   0.0634   0.0653   0.0729   0.0903   0.1108
     0.1266   0.1558   0.1673   0.1701   0.1748   0.1804   0.1964   0.2249
     0.2320   0.2493   0.2813   0.3706   0.3768   0.3830   0.4173   0.4319
     0.4359   0.4535   0.4651   0.5266   0.5403   0.5463   0.5682   0.5878
     0.6049   0.6343   0.6484   0.6581   0.6890   0.7119   0.8243   0.8463
     0.8707   0.8967   0.9613   1.0505   1.0779   1.0893   1.1102   1.1213
     1.1305   1.1753   1.1880   1.2158   1.2276   1.2605   1.3451   1.3960
     1.4138   1.4460   1.4733   1.4880   1.5161   1.5314   1.5510   1.5763
     1.6013   1.6138   1.6362   1.6884   1.7202   1.7334   1.7433   1.7632
     1.7713   1.7771   1.8032   1.8206   1.8380   1.8508   1.8664   1.8787
     1.8994   1.9167   1.9765   1.9945   2.0080   2.0330   2.0390   2.0524
     2.0563   2.0621   2.0936   2.0994   2.1033   2.1247   2.1302   2.1332
     2.1395   2.1814   2.2800   2.3474   2.3787   2.4675   2.4939   2.7941
     2.8616   2.8971

          k = 0.2000-0.1155 0.0000 ( 36641 PWs)   bands (ev):

   -21.6560 -10.5545  -7.4969  -6.8131  -6.2248  -5.6989  -5.3753  -5.2484
    -4.7995  -4.7903  -4.2770  -4.1310  -3.8661  -3.8621  -3.7731  -3.7487
    -3.5687  -3.3190  -3.1896  -3.1821  -3.0756  -2.8032  -2.6067  -2.5912
    -2.5269  -2.4855  -2.4727  -2.2625  -2.1686  -2.1593  -2.1488  -2.1183
    -2.1087  -2.0683  -2.0606  -2.0398  -2.0257  -1.9154  -1.8787  -1.8254
    -1.7954  -1.7879  -1.6859  -1.6559  -1.6057  -1.5961  -1.5806  -1.4796
    -1.4566  -1.4201  -1.3876  -1.3644  -1.3374  -1.3188  -1.2988  -1.2899
    -1.2846  -1.2722  -1.2075  -1.1699  -1.1577  -1.1402  -1.1119  -1.0969
    -1.0291  -0.9621  -0.7811  -0.6909  -0.6767  -0.6674  -0.6239  -0.5682
    -0.5327  -0.5129  -0.4612  -0.4437  -0.3440  -0.3276  -0.3202  -0.3007
    -0.2785  -0.2684  -0.2573  -0.2424  -0.2366  -0.2232  -0.1849  -0.1469
    -0.1134  -0.1010  -0.0925  -0.0843  -0.0654  -0.0420  -0.0296  -0.0132
    -0.0074  -0.0020   0.0063   0.0103   0.0131   0.0170   0.0409   0.0597
     0.0964   0.1024   0.1123   0.1141   0.1477   0.1603   0.1777   0.1818
     0.2196   0.2379   0.2498   0.2808   0.3200   0.3272   0.3321   0.3628
     0.4810   0.5095   0.5623   0.5741   0.6001   0.6119   0.6271   0.6528
     0.6627   0.6714   0.6776   0.6853   0.8592   0.9561   0.9985   1.0106
     1.0173   1.0302   1.0493   1.0572   1.1051   1.1325   1.1781   1.2008
     1.2179   1.2713   1.2905   1.3094   1.3379   1.3450   1.3786   1.3985
     1.4348   1.4588   1.4806   1.4986   1.5077   1.5242   1.5465   1.5534
     1.5752   1.5977   1.6363   1.6467   1.6630   1.6839   1.6926   1.7123
     1.7472   1.7544   1.7572   1.7623   1.7879   1.7895   1.8397   1.8480
     1.8516   1.8549   1.8956   1.9026   1.9113   1.9272   1.9452   1.9503
     1.9641   1.9909   2.0004   2.0044   2.0316   2.0364   2.0375   2.0641
     2.0694   2.0897   2.0925   2.1123   2.1808   2.1988   2.2018   2.2365
     2.2718   2.2906

          k = 0.2000 0.1155 0.0000 ( 36641 PWs)   bands (ev):

   -21.6560 -10.5550  -7.4964  -6.8143  -6.2165  -5.6761  -5.3770  -5.2894
    -4.7863  -4.7809  -4.2794  -4.1745  -3.8663  -3.8614  -3.7625  -3.7165
    -3.5747  -3.3203  -3.1891  -3.1697  -3.0873  -2.8262  -2.6009  -2.5710
    -2.5317  -2.4891  -2.4684  -2.2488  -2.1790  -2.1539  -2.1502  -2.1303
    -2.1123  -2.0668  -2.0601  -2.0357  -2.0246  -1.9110  -1.8785  -1.8430
    -1.7949  -1.7884  -1.7242  -1.6540  -1.6042  -1.5963  -1.5350  -1.4762
    -1.4613  -1.4281  -1.3850  -1.3664  -1.3371  -1.3051  -1.3009  -1.2913
    -1.2845  -1.2447  -1.2204  -1.1807  -1.1548  -1.1355  -1.1154  -1.0953
    -1.0296  -0.9472  -0.7926  -0.6872  -0.6777  -0.6529  -0.6253  -0.5770
    -0.5471  -0.5143  -0.4504  -0.4417  -0.3531  -0.3194  -0.3167  -0.3023
    -0.2696  -0.2650  -0.2582  -0.2423  -0.2318  -0.2138  -0.1991  -0.1564
    -0.1165  -0.0969  -0.0909  -0.0864  -0.0694  -0.0389  -0.0274  -0.0134
    -0.0090  -0.0008   0.0023   0.0092   0.0112   0.0233   0.0383   0.0613
     0.0975   0.1017   0.1162   0.1173   0.1420   0.1626   0.1761   0.1799
     0.2236   0.2350   0.2617   0.2845   0.3181   0.3243   0.3337   0.3634
     0.4933   0.5141   0.5409   0.5704   0.5874   0.6208   0.6296   0.6421
     0.6548   0.6701   0.6820   0.6857   0.8426   0.9582   0.9874   1.0013
     1.0138   1.0300   1.0472   1.0558   1.0892   1.1269   1.1862   1.2082
     1.2150   1.2770   1.2893   1.3193   1.3420   1.3473   1.3779   1.3840
     1.4393   1.4703   1.4888   1.4969   1.5040   1.5260   1.5478   1.5546
     1.5721   1.6043   1.6317   1.6466   1.6663   1.6877   1.7005   1.7289
     1.7447   1.7547   1.7551   1.7660   1.7759   1.7868   1.8403   1.8438
     1.8479   1.8545   1.8962   1.9054   1.9132   1.9285   1.9378   1.9519
     1.9613   1.9984   2.0008   2.0077   2.0308   2.0365   2.0399   2.0589
     2.0654   2.0913   2.0947   2.1103   2.1805   2.1960   2.2060   2.2180
     2.2753   2.2895

          k = 0.2000 0.3464 0.0000 ( 36608 PWs)   bands (ev):

   -21.6560 -10.5546  -7.2152  -6.7875  -6.0829  -5.7875  -5.7723  -5.4955
    -5.2821  -4.5223  -4.4570  -4.0647  -4.0511  -3.9490  -3.2241  -3.2159
    -3.2091  -3.2021  -3.0995  -3.0100  -2.9171  -2.9028  -2.8972  -2.5422
    -2.4736  -2.4574  -2.4522  -2.3719  -2.3591  -2.3365  -2.2590  -2.2524
    -2.2447  -2.2346  -2.2259  -2.0932  -2.0610  -1.9693  -1.8585  -1.8543
    -1.8198  -1.7938  -1.7307  -1.7223  -1.6431  -1.5661  -1.5201  -1.5010
    -1.3972  -1.3731  -1.3393  -1.3375  -1.3313  -1.3118  -1.2839  -1.2748
    -1.2599  -1.2305  -1.1890  -1.1543  -1.1097  -1.0565  -1.0035  -0.9553
    -0.8913  -0.8580  -0.7918  -0.7510  -0.6659  -0.6357  -0.6257  -0.5978
    -0.5746  -0.5550  -0.5458  -0.5220  -0.4718  -0.4519  -0.4332  -0.4166
    -0.3968  -0.3783  -0.3638  -0.3564  -0.3104  -0.2319  -0.1966  -0.1836
    -0.1685  -0.1543  -0.1165  -0.0975  -0.0804  -0.0710  -0.0525  -0.0410
    -0.0216  -0.0038   0.0109   0.0239   0.0348   0.0547   0.0783   0.0953
     0.1091   0.1141   0.1335   0.1514   0.1546   0.1644   0.1836   0.1877
     0.2080   0.2721   0.2816   0.3043   0.4042   0.4232   0.4355   0.4531
     0.4734   0.4874   0.5200   0.5562   0.5875   0.6013   0.6073   0.6136
     0.6261   0.6396   0.6750   0.7078   0.7567   0.7926   0.9086   0.9272
     0.9899   1.0236   1.0402   1.0530   1.0808   1.0904   1.1046   1.1131
     1.1318   1.1464   1.1626   1.1865   1.2017   1.2498   1.3144   1.3316
     1.3566   1.3648   1.4050   1.4131   1.4314   1.4487   1.4915   1.5091
     1.5725   1.6268   1.6858   1.7232   1.7334   1.7457   1.7652   1.7836
     1.7952   1.7981   1.8100   1.8245   1.8376   1.8931   1.9005   1.9041
     1.9172   1.9499   1.9620   1.9672   1.9812   2.0050   2.0132   2.0362
     2.0410   2.0501   2.0531   2.0764   2.0826   2.0950   2.1276   2.1561
     2.1775   2.1884   2.2851   2.3071   2.3346   2.4187   2.4538   2.5884
     2.7063   2.7735

          k = 0.2000-0.5774 0.0000 ( 36660 PWs)   bands (ev):

   -21.6560 -10.5539  -6.9042  -6.5929  -6.5207  -6.0104  -5.8211  -5.4027
    -5.1750  -5.0362  -4.5583  -4.1110  -3.5926  -3.4693  -3.2488  -3.2444
    -3.2115  -3.0226  -2.9882  -2.8370  -2.8286  -2.8218  -2.6977  -2.6865
    -2.6789  -2.6602  -2.6421  -2.6253  -2.4496  -2.3137  -2.2967  -2.2816
    -2.2635  -2.2531  -2.2082  -2.2050  -2.1151  -2.0868  -1.9218  -1.8200
    -1.7542  -1.7445  -1.7383  -1.6647  -1.6199  -1.5603  -1.5062  -1.4940
    -1.4484  -1.4426  -1.4294  -1.3347  -1.2911  -1.2725  -1.2602  -1.2299
    -1.2012  -1.1394  -1.1130  -1.0955  -1.0432  -1.0284  -1.0101  -0.9351
    -0.9122  -0.8531  -0.7553  -0.7212  -0.7171  -0.6697  -0.6459  -0.6375
    -0.5886  -0.5676  -0.5494  -0.5186  -0.4862  -0.4650  -0.4346  -0.4197
    -0.3992  -0.3838  -0.3762  -0.3567  -0.3539  -0.3393  -0.3103  -0.2881
    -0.2819  -0.2576  -0.2318  -0.2023  -0.1519  -0.1305  -0.0934  -0.0788
    -0.0286  -0.0041   0.0090   0.0401   0.0492   0.0747   0.0820   0.1004
     0.1188   0.1586   0.1804   0.1923   0.2035   0.2133   0.2889   0.3114
     0.3277   0.3528   0.3591   0.3731   0.3769   0.4195   0.4430   0.4650
     0.4756   0.4936   0.5316   0.5637   0.5816   0.5964   0.6108   0.6336
     0.6515   0.6579   0.6636   0.6995   0.7207   0.7320   0.7401   0.7744
     0.8185   0.9005   0.9907   1.0094   1.0274   1.0321   1.0623   1.0779
     1.0864   1.1089   1.1189   1.1579   1.2292   1.2627   1.2782   1.2880
     1.3184   1.3424   1.3687   1.4036   1.4173   1.4389   1.4836   1.5131
     1.5515   1.6571   1.6833   1.7036   1.7401   1.7847   1.8004   1.8130
     1.8271   1.8372   1.8482   1.8644   1.8811   1.9081   1.9105   1.9238
     1.9490   1.9770   1.9989   2.0096   2.0124   2.0152   2.0244   2.0281
     2.0440   2.0746   2.0843   2.1146   2.1207   2.1397   2.1426   2.1607
     2.1766   2.2341   2.3259   2.4792   2.6489   2.7503   2.9234   2.9936
     3.0337   3.0412

          k = 0.2000-0.3464 0.0000 ( 36608 PWs)   bands (ev):

   -21.6560 -10.5538  -7.2161  -6.7878  -6.0962  -5.8130  -5.7664  -5.4884
    -5.2513  -4.5496  -4.4257  -4.0575  -4.0507  -3.9482  -3.2243  -3.2192
    -3.2111  -3.2052  -3.0965  -3.0221  -2.9350  -2.9022  -2.8711  -2.5431
    -2.4714  -2.4614  -2.4515  -2.3766  -2.3637  -2.3381  -2.2701  -2.2515
    -2.2492  -2.2329  -2.2258  -2.0937  -2.0494  -1.9032  -1.8718  -1.8557
    -1.8246  -1.7842  -1.7419  -1.7256  -1.6380  -1.5731  -1.5207  -1.4949
    -1.4122  -1.3682  -1.3446  -1.3383  -1.3348  -1.3105  -1.2998  -1.2799
    -1.2642  -1.2305  -1.1889  -1.1650  -1.1144  -1.0731  -1.0037  -0.9643
    -0.8946  -0.8626  -0.7758  -0.7470  -0.6626  -0.6346  -0.6278  -0.6058
    -0.5729  -0.5581  -0.5392  -0.4996  -0.4754  -0.4428  -0.4354  -0.4124
    -0.4067  -0.3750  -0.3618  -0.3569  -0.3145  -0.2439  -0.1977  -0.1914
    -0.1752  -0.1642  -0.1100  -0.0989  -0.0769  -0.0698  -0.0510  -0.0346
    -0.0256  -0.0043   0.0057   0.0244   0.0396   0.0466   0.0797   0.0976
     0.1048   0.1102   0.1236   0.1517   0.1597   0.1732   0.1763   0.1853
     0.2077   0.2732   0.2912   0.2961   0.4151   0.4244   0.4284   0.4687
     0.4753   0.5175   0.5215   0.5754   0.5938   0.6001   0.6059   0.6151
     0.6221   0.6350   0.6666   0.7196   0.7574   0.8159   0.9010   0.9217
     0.9803   1.0158   1.0534   1.0612   1.0837   1.0915   1.1070   1.1157
     1.1240   1.1527   1.1604   1.1898   1.2068   1.2374   1.3205   1.3368
     1.3478   1.3704   1.3930   1.4109   1.4276   1.4446   1.4990   1.5160
     1.5676   1.6149   1.6815   1.7183   1.7296   1.7444   1.7632   1.7784
     1.7881   1.8009   1.8207   1.8296   1.8323   1.8949   1.9025   1.9056
     1.9124   1.9497   1.9601   1.9659   1.9839   2.0068   2.0128   2.0365
     2.0466   2.0484   2.0539   2.0783   2.0838   2.1047   2.1305   2.1463
     2.1805   2.1887   2.2644   2.3082   2.3472   2.4322   2.4616   2.5968
     2.6862   2.7794

          k = 0.4000-0.2309 0.0000 ( 36606 PWs)   bands (ev):

   -21.6560 -10.5531  -7.0896  -6.7759  -6.3239  -6.0095  -5.5489  -5.2334
    -5.0100  -5.0017  -4.8477  -3.9249  -3.9010  -3.8103  -3.3045  -3.2455
    -3.2417  -3.1231  -2.9810  -2.9148  -2.7981  -2.7906  -2.6461  -2.6396
    -2.5916  -2.5790  -2.5210  -2.5002  -2.4029  -2.3927  -2.3484  -2.3227
    -2.3173  -2.1238  -2.1029  -2.0273  -2.0214  -1.9466  -1.9065  -1.9015
    -1.8874  -1.8715  -1.6939  -1.6347  -1.5909  -1.5634  -1.5476  -1.5290
    -1.3867  -1.3698  -1.3504  -1.3492  -1.3356  -1.3073  -1.3018  -1.2903
    -1.2574  -1.1942  -1.1850  -1.1761  -1.1572  -1.1257  -1.0118  -0.9459
    -0.8754  -0.8258  -0.7721  -0.7269  -0.6990  -0.6678  -0.6434  -0.6267
    -0.6115  -0.5991  -0.5663  -0.5349  -0.5061  -0.4682  -0.4522  -0.4183
    -0.3906  -0.3685  -0.3460  -0.3352  -0.3242  -0.2903  -0.2276  -0.1918
    -0.1549  -0.1436  -0.1205  -0.0803  -0.0617  -0.0419  -0.0290   0.0078
     0.0214   0.0366   0.0478   0.0651   0.0694   0.0727   0.0792   0.1143
     0.1263   0.1567   0.1622   0.1690   0.1771   0.1801   0.2038   0.2154
     0.2309   0.2502   0.2850   0.3708   0.3782   0.3859   0.4184   0.4327
     0.4348   0.4541   0.4625   0.5263   0.5407   0.5513   0.5781   0.5876
     0.6083   0.6319   0.6473   0.6506   0.6896   0.7686   0.8340   0.8459
     0.8719   0.9192   0.9611   1.0510   1.0794   1.0845   1.1094   1.1226
[...]
     atom    9 type  1   force =     0.00133153    0.00154851   -0.10326612
     atom   10 type  1   force =     0.00139191    0.00142835   -0.01130870
     atom   11 type  1   force =    -0.00033363   -0.00080244   -0.00857333
     atom   12 type  1   force =    -0.00095013    0.00070539   -0.00999311
     atom   13 type  1   force =    -0.00185237   -0.00010322   -0.01053998
     atom   14 type  1   force =     0.00138299    0.00145336   -0.01030002
     atom   15 type  1   force =    -0.00003550   -0.00010461   -0.00990208
     atom   16 type  1   force =     0.00043867   -0.00165067   -0.00936612
     atom   17 type  1   force =    -0.00060983   -0.00088860   -0.00959743
     atom   18 type  1   force =     0.00057853    0.00014822   -0.01191301
     atom   19 type  1   force =    -0.00092621   -0.00031463    0.01269094
     atom   20 type  1   force =    -0.00475052    0.00430037    0.00307538
     atom   21 type  1   force =     0.00304437   -0.00551863    0.01018549
     atom   22 type  1   force =     0.00185929    0.00027449    0.01690211
     atom   23 type  1   force =    -0.00112079    0.00548520    0.00765996
     atom   24 type  1   force =    -0.00064717    0.00116699    0.01768648
     atom   25 type  1   force =     0.00033948    0.00051902    0.01874929
     atom   26 type  1   force =    -0.00525267   -0.00443406    0.00445800
     atom   27 type  1   force =     0.00709640   -0.00156901    0.00550571
     atom   28 type  1   force =     0.01719586    0.00226480    0.12519390
     atom   29 type  1   force =     0.00641300    0.05224639    0.17004759
     atom   30 type  1   force =    -0.02416349    0.00831188    0.12891686
     atom   31 type  1   force =     0.03023563   -0.03838572    0.15138203
     atom   32 type  1   force =     0.00664244    0.01079363    0.16334327
     atom   33 type  1   force =    -0.00474168    0.00093534    0.11053022
     atom   34 type  1   force =     0.00003433   -0.00641107    0.11214548
     atom   35 type  1   force =    -0.00201773   -0.00208793    0.12492570
     atom   36 type  1   force =    -0.00140335    0.00343732    0.10722076
     atom   37 type  2   force =    -0.15256384   -0.18954202    0.21287269
     atom   38 type  3   force =     1.31662367    1.60410629   -1.62010345
     atom   39 type  4   force =    -0.03911409   -0.04610830   -0.03477985
     The ionic contribution  to forces
     atom    1 type  1   force =    -0.00649811    0.00141173 -111.16115735
     atom    2 type  1   force =    -0.00295996    0.00286780 -111.18012258
     atom    3 type  1   force =     0.00945797    0.00113509 -111.16703138
     atom    4 type  1   force =    -0.00346835    0.00492970 -111.16014030
     atom    5 type  1   force =     0.00177945    0.00734234 -111.16354669
     atom    6 type  1   force =     0.00168894   -0.00154197 -111.15665250
     atom    7 type  1   force =     0.00121440   -0.00128843 -111.15614189
     atom    8 type  1   force =    -0.00596019   -0.00608750 -111.16555425
     atom    9 type  1   force =     0.00474583   -0.00876877 -111.16801079
     atom   10 type  1   force =    -0.04268402   -0.01667147  -40.10292645
     atom   11 type  1   force =    -0.01499201   -0.05357629  -40.21910232
     atom   12 type  1   force =     0.05766466   -0.03194759  -40.13133278
     atom   13 type  1   force =    -0.05989740    0.04096164  -40.16390945
     atom   14 type  1   force =     0.03995680    0.04687495  -40.20578008
     atom   15 type  1   force =     0.01995675    0.01284882  -40.08654621
     atom   16 type  1   force =    -0.00564450    0.03819175  -40.09195900
     atom   17 type  1   force =     0.00137945   -0.00850135  -40.09916283
     atom   18 type  1   force =     0.00426327   -0.02817940  -40.08886729
     atom   19 type  1   force =    -0.31205192    0.06809690   31.50296629
     atom   20 type  1   force =    -0.17461152    0.16014035   30.48147200
     atom   21 type  1   force =     0.48290830    0.05221055   31.21775867
     atom   22 type  1   force =    -0.16350045    0.23414027   31.55227197
     atom   23 type  1   force =     0.09096506    0.36296843   31.38995088
     atom   24 type  1   force =     0.07325153   -0.07004521   31.68971534
     atom   25 type  1   force =     0.04989682   -0.05643341   31.71331901
     atom   26 type  1   force =    -0.29387514   -0.30642048   31.28514061
     atom   27 type  1   force =     0.24470458   -0.44395528   31.17206154
     atom   28 type  1   force =    -1.64728268   -0.54970485  103.73570967
     atom   29 type  1   force =    -0.93625669   -3.80258530   97.77158869
     atom   30 type  1   force =     2.39801103   -1.31630503  103.11546541
     atom   31 type  1   force =    -3.00525045    2.09753068  101.80073260
     atom   32 type  1   force =     2.89014662    3.39393514   98.39918109
     atom   33 type  1   force =     0.67340393    0.35247660  104.28704589
     atom   34 type  1   force =    -0.23418011    1.26974297  104.16984679
     atom   35 type  1   force =    -0.01489839   -0.35944623  103.97738928
     atom   36 type  1   force =     0.24155157   -0.95757347  104.19020049
     atom   37 type  2   force =     3.17468017    4.18604111   54.54102906
     atom   38 type  3   force =    -4.95445586   -6.00020970   88.63765297
     atom   39 type  4   force =     1.41684064    1.68539489   15.03744589
     The local contribution  to forces
     atom    1 type  1   force =     0.00808955   -0.00173276  111.26875695
     atom    2 type  1   force =     0.00248110   -0.00390226  111.28319977
     atom    3 type  1   force =    -0.01022237    0.00024234  111.27340933
     atom    4 type  1   force =     0.00090563   -0.00552971  111.26788467
     atom    5 type  1   force =    -0.00125137   -0.01044604  111.27086353
     atom    6 type  1   force =     0.00023610    0.00167541  111.25988713
     atom    7 type  1   force =    -0.00151059    0.00173860  111.26247071
     atom    8 type  1   force =     0.00762526    0.00884949  111.26979765
     atom    9 type  1   force =    -0.00642448    0.00742528  111.27273913
     atom   10 type  1   force =     0.04191126    0.01484117   40.09232725
     atom   11 type  1   force =     0.01475239    0.05471898   40.20674118
     atom   12 type  1   force =    -0.05684320    0.03144284   40.12286855
     atom   13 type  1   force =     0.06214078   -0.04225228   40.15463741
     atom   14 type  1   force =    -0.04097561   -0.04771165   40.19320570
     atom   15 type  1   force =    -0.02025901   -0.01281766   40.07637838
     atom   16 type  1   force =     0.00621622   -0.03629906   40.08145871
     atom   17 type  1   force =    -0.00136600    0.00960592   40.08911162
     atom   18 type  1   force =    -0.00502607    0.02817896   40.07947439
     atom   19 type  1   force =     0.31212751   -0.06674582  -31.49290456
     atom   20 type  1   force =     0.17787132   -0.16575701  -30.46566916
     atom   21 type  1   force =    -0.48316836   -0.04817036  -31.20794126
     atom   22 type  1   force =     0.16046119   -0.23378682  -31.54635988
     atom   23 type  1   force =    -0.08948587   -0.36428518  -31.37922677
     atom   24 type  1   force =    -0.07149361    0.06892605  -31.68516330
     atom   25 type  1   force =    -0.05089310    0.05564022  -31.70593350
     atom   26 type  1   force =     0.30134182    0.30998129  -31.26634333
     atom   27 type  1   force =    -0.25269326    0.44488738  -31.15706150
     atom   28 type  1   force =     1.62220005    0.54546638 -103.87013539
     atom   29 type  1   force =     0.92324353    3.72924203  -97.94888228
     atom   30 type  1   force =    -2.36103725    1.30063277 -103.25485236
     atom   31 type  1   force =     2.96189680   -2.04835749 -101.96211084
     atom   32 type  1   force =    -2.88825732   -3.39397883  -98.55976794
     atom   33 type  1   force =    -0.66121612   -0.35197095 -104.40901776
     atom   34 type  1   force =     0.23029747   -1.25359581 -104.29143022
     atom   35 type  1   force =     0.01853531    0.36183829 -104.11648229
     atom   36 type  1   force =    -0.23920633    0.94855338 -104.30774591
     atom   37 type  2   force =    -3.02352684   -3.99783765  -54.75151406
     atom   38 type  3   force =     3.64857053    4.40919816  -87.03141790
     atom   39 type  4   force =    -1.37771893   -1.63944961  -15.00283565
     The core correction contribution to forces
     atom    1 type  1   force =     0.00018529    0.00003596    0.01031528
     atom    2 type  1   force =    -0.00021714   -0.00028896    0.01029042
     atom    3 type  1   force =    -0.00000158    0.00008477    0.01039691
     atom    4 type  1   force =    -0.00022578   -0.00012548    0.01019231
     atom    5 type  1   force =     0.00006326   -0.00019263    0.01035138
     atom    6 type  1   force =     0.00008646   -0.00004045    0.00994111
     atom    7 type  1   force =    -0.00009325   -0.00000951    0.01056405
     atom    8 type  1   force =     0.00019236    0.00031244    0.01054989
     atom    9 type  1   force =    -0.00010245   -0.00009811    0.01030821
     atom   10 type  1   force =    -0.00025308   -0.00008494   -0.00204184
     atom   11 type  1   force =    -0.00008570   -0.00003212   -0.00153621
     atom   12 type  1   force =     0.00042041   -0.00001740   -0.00197773
     atom   13 type  1   force =     0.00005249   -0.00006324   -0.00162202
     atom   14 type  1   force =     0.00015871    0.00002464   -0.00209985
     atom   15 type  1   force =     0.00004304    0.00000581   -0.00152448
     atom   16 type  1   force =     0.00013173    0.00032560   -0.00188566
     atom   17 type  1   force =     0.00001399    0.00006103   -0.00168270
     atom   18 type  1   force =    -0.00012505   -0.00013845   -0.00180270
     atom   19 type  1   force =    -0.00055677   -0.00025031    0.00161974
     atom   20 type  1   force =     0.00051939   -0.00013275    0.00199769
     atom   21 type  1   force =     0.00000343    0.00002818    0.00106731
     atom   22 type  1   force =    -0.00035775   -0.00007752    0.00179939
     atom   23 type  1   force =    -0.00005954    0.00009989    0.00119389
     atom   24 type  1   force =     0.00000481    0.00004962    0.00190616
     atom   25 type  1   force =     0.00036820    0.00008974    0.00218609
     atom   26 type  1   force =    -0.00042252   -0.00042276    0.00129036
     atom   27 type  1   force =    -0.00026891   -0.00026002    0.00094108
     atom   28 type  1   force =     0.00064435   -0.00008263   -0.00927231
     atom   29 type  1   force =     0.00445086    0.01368507    0.00520155
     atom   30 type  1   force =    -0.00369795    0.00404856   -0.00835350
     atom   31 type  1   force =     0.00715206   -0.00226354   -0.00608352
     atom   32 type  1   force =    -0.00784206   -0.00948306    0.01148936
     atom   33 type  1   force =    -0.00213358   -0.00024231   -0.00981274
     atom   34 type  1   force =     0.00140931   -0.00278147   -0.00922554
     atom   35 type  1   force =    -0.00063710   -0.00055479   -0.00901003
     atom   36 type  1   force =    -0.00027684    0.00013004   -0.01044749
     atom   37 type  2   force =     0.00167517    0.00150905   -0.00161673
     atom   38 type  3   force =    -0.01066102   -0.01284436    0.01375393
     atom   39 type  4   force =     0.00000000    0.00000000    0.00000000
     The Hubbard contrib.    to forces
     atom    1 type  1   force =     0.00000000    0.00000000    0.00000000
     atom    2 type  1   force =     0.00000000    0.00000000    0.00000000
     atom    3 type  1   force =     0.00000000    0.00000000    0.00000000
     atom    4 type  1   force =     0.00000000    0.00000000    0.00000000
     atom    5 type  1   force =     0.00000000    0.00000000    0.00000000
     atom    6 type  1   force =     0.00000000    0.00000000    0.00000000
     atom    7 type  1   force =     0.00000000    0.00000000    0.00000000
     atom    8 type  1   force =     0.00000000    0.00000000    0.00000000
     atom    9 type  1   force =     0.00000000    0.00000000    0.00000000
     atom   10 type  1   force =     0.00000000    0.00000000    0.00000000
     atom   11 type  1   force =     0.00000000    0.00000000    0.00000000
     atom   12 type  1   force =     0.00000000    0.00000000    0.00000000
     atom   13 type  1   force =     0.00000000    0.00000000    0.00000000
     atom   14 type  1   force =     0.00000000    0.00000000    0.00000000
     atom   15 type  1   force =     0.00000000    0.00000000    0.00000000
     atom   16 type  1   force =     0.00000000    0.00000000    0.00000000
     atom   17 type  1   force =     0.00000000    0.00000000    0.00000000
     atom   18 type  1   force =     0.00000000    0.00000000    0.00000000
     atom   19 type  1   force =     0.00000000    0.00000000    0.00000000
     atom   20 type  1   force =     0.00000000    0.00000000    0.00000000
     atom   21 type  1   force =     0.00000000    0.00000000    0.00000000
     atom   22 type  1   force =     0.00000000    0.00000000    0.00000000
     atom   23 type  1   force =     0.00000000    0.00000000    0.00000000
     atom   24 type  1   force =     0.00000000    0.00000000    0.00000000
     atom   25 type  1   force =     0.00000000    0.00000000    0.00000000
     atom   26 type  1   force =     0.00000000    0.00000000    0.00000000
     atom   27 type  1   force =     0.00000000    0.00000000    0.00000000
     atom   28 type  1   force =     0.00000000    0.00000000    0.00000000
     atom   29 type  1   force =     0.00000000    0.00000000    0.00000000
     atom   30 type  1   force =     0.00000000    0.00000000    0.00000000
     atom   31 type  1   force =     0.00000000    0.00000000    0.00000000
     atom   32 type  1   force =     0.00000000    0.00000000    0.00000000
     atom   33 type  1   force =     0.00000000    0.00000000    0.00000000
     atom   34 type  1   force =     0.00000000    0.00000000    0.00000000
     atom   35 type  1   force =     0.00000000    0.00000000    0.00000000
     atom   36 type  1   force =     0.00000000    0.00000000    0.00000000
     atom   37 type  2   force =     0.00000000    0.00000000    0.00000000
     atom   38 type  3   force =     0.00000000    0.00000000    0.00000000
     atom   39 type  4   force =     0.00000000    0.00000000    0.00000000
     The SCF correction term to forces
     atom    1 type  1   force =    -0.00000000   -0.00000000    0.00000000
     atom    2 type  1   force =    -0.00000000   -0.00000000    0.00000000
     atom    3 type  1   force =     0.00000000    0.00000000    0.00000000
     atom    4 type  1   force =     0.00000000    0.00000000    0.00000000
     atom    5 type  1   force =     0.00000000    0.00000000    0.00000000
     atom    6 type  1   force =    -0.00000000   -0.00000000    0.00000000
     atom    7 type  1   force =     0.00000000    0.00000000    0.00000000
     atom    8 type  1   force =    -0.00000000   -0.00000000    0.00000000
     atom    9 type  1   force =     0.00000000   -0.00000000    0.00000000
     atom   10 type  1   force =    -0.00000000    0.00000000    0.00000000
     atom   11 type  1   force =    -0.00000000   -0.00000000    0.00000000
     atom   12 type  1   force =     0.00000000   -0.00000000    0.00000000
     atom   13 type  1   force =    -0.00000000   -0.00000000    0.00000000
     atom   14 type  1   force =     0.00000000    0.00000000    0.00000000
     atom   15 type  1   force =     0.00000000   -0.00000000    0.00000000
     atom   16 type  1   force =     0.00000000    0.00000000    0.00000000
     atom   17 type  1   force =    -0.00000000   -0.00000000    0.00000000
     atom   18 type  1   force =     0.00000000   -0.00000000    0.00000000
     atom   19 type  1   force =    -0.00000000   -0.00000000   -0.00000000
     atom   20 type  1   force =    -0.00000000    0.00000000   -0.00000000
     atom   21 type  1   force =     0.00000000   -0.00000000   -0.00000000
     atom   22 type  1   force =     0.00000000   -0.00000000   -0.00000000
     atom   23 type  1   force =    -0.00000000    0.00000000   -0.00000000
     atom   24 type  1   force =     0.00000000   -0.00000000   -0.00000000
     atom   25 type  1   force =     0.00000000    0.00000000   -0.00000000
     atom   26 type  1   force =    -0.00000000    0.00000000   -0.00000000
     atom   27 type  1   force =     0.00000000   -0.00000000   -0.00000000
     atom   28 type  1   force =    -0.00000000    0.00000000   -0.00000000
     atom   29 type  1   force =    -0.00000000    0.00000000   -0.00000000
     atom   30 type  1   force =     0.00000000   -0.00000000   -0.00000000
     atom   31 type  1   force =    -0.00000000    0.00000000   -0.00000000
     atom   32 type  1   force =    -0.00000000    0.00000000   -0.00000000
     atom   33 type  1   force =     0.00000000    0.00000000   -0.00000000
     atom   34 type  1   force =    -0.00000000   -0.00000000   -0.00000000
     atom   35 type  1   force =    -0.00000000   -0.00000000   -0.00000000
     atom   36 type  1   force =     0.00000000   -0.00000000   -0.00000000
     atom   37 type  2   force =    -0.00003377    0.00002410   -0.00007257
     atom   38 type  3   force =    -0.00002002    0.00002389   -0.00008586
     atom   39 type  4   force =    -0.00000411    0.00000246   -0.00002185

     Total force =     0.000849     Total SCF correction =     0.000126
     SCF correction compared to forces is large: reduce conv_thr to get better values

     Writing all to output data dir ./pwscf.save/

     init_run     :     14.79s CPU     15.23s WALL (       1 calls)
     electrons    :    622.81s CPU    641.15s WALL (       1 calls)
     forces       :      3.25s CPU      3.35s WALL (       1 calls)

     Called by init_run:
     wfcinit      :      8.44s CPU      8.74s WALL (       1 calls)
     potinit      :      2.20s CPU      2.28s WALL (       1 calls)
     hinit0       :      3.89s CPU      3.92s WALL (       1 calls)

     Called by electrons:
     c_bands      :    522.15s CPU    538.39s WALL (      42 calls)
     sum_band     :     68.10s CPU     69.12s WALL (      42 calls)
     v_of_rho     :     11.04s CPU     11.62s WALL (      43 calls)
     newd         :      2.61s CPU      2.65s WALL (      43 calls)
     PAW_pot      :     10.99s CPU     11.12s WALL (      43 calls)
     mix_rho      :      9.33s CPU      9.50s WALL (      42 calls)
     vdW_kernel   :      1.13s CPU      1.14s WALL (       1 calls)

     Called by c_bands:
     init_us_2    :      5.28s CPU      5.39s WALL (    2236 calls)
     init_us_2:cp :      5.26s CPU      5.38s WALL (    2236 calls)
     cegterg      :    502.75s CPU    518.36s WALL (    1092 calls)

     Called by *egterg:
     cdiaghg      :    164.50s CPU    168.15s WALL (    3623 calls)
     h_psi        :    237.16s CPU    247.16s WALL (    3649 calls)
     s_psi        :     23.28s CPU     23.75s WALL (    3649 calls)
     g_psi        :      0.47s CPU      0.47s WALL (    2531 calls)

     Called by h_psi:
     h_psi:calbec :     36.32s CPU     37.40s WALL (    3649 calls)
     vloc_psi     :    175.39s CPU    183.59s WALL (    3649 calls)
     add_vuspsi   :     24.26s CPU     24.97s WALL (    3649 calls)

     General routines
     calbec       :     53.56s CPU     54.85s WALL (    4845 calls)
     fft          :      8.91s CPU      9.48s WALL (    3904 calls)
     ffts         :      5.86s CPU      5.97s WALL (   13823 calls)
     fftw         :    203.41s CPU    211.78s WALL ( 1136128 calls)
     interpolate  :      0.53s CPU      0.54s WALL (      86 calls)

     Parallel routines

     PWSCF        :  10m46.53s CPU  11m13.04s WALL


   This run was terminated on:  15:48:37   2Dec2025            

=------------------------------------------------------------------------------=
   JOB DONE.
=------------------------------------------------------------------------------=
