
     Program PWSCF v.7.1 starts on  4Feb2025 at 13:52:12 
        Git branch: heads/qe-7.1
        Last git commit: 48ba0178f8fede6d020eb786884699a9f063f55d-dirty
        Last git commit date: Fri Jan 27 14:22:33 2023 +0000
        Last git commit subject: Merge branch 'fix_hubbard' into 'develop'

     This program is part of the open-source Quantum ESPRESSO suite
     for quantum simulation of materials; please cite
         "P. Giannozzi et al., J. Phys.:Condens. Matter 21 395502 (2009);
         "P. Giannozzi et al., J. Phys.:Condens. Matter 29 465901 (2017);
         "P. Giannozzi et al., J. Chem. Phys. 152 154105 (2020);
          URL http://www.quantum-espresso.org", 
     in publications or presentations arising from this work. More details at
     http://www.quantum-espresso.org/quote

     Parallel version (MPI), running on    48 processors

     MPI processes distributed on     1 nodes
     187493 MiB available memory on the printing compute node when the environment starts

     Reading input from espresso.pwi
Warning: card &CELL ignored
Warning: card / ignored
Warning: card &FCP ignored
Warning: card / ignored
Warning: card &RISM ignored
Warning: card / ignored

     Current dimensions of program PWSCF are:
     Max number of different atomic species (ntypx) = 10
     Max number of k-points (npk) =  40000
     Max angular momentum in pseudopotentials (lmaxx) =  4
     file Pt.pbe-n-kjpaw_psl.1.0.0.UPF: wavefunction(s)  6S 5D renormalized
     file H.pbe-kjpaw_psl.1.0.0.UPF: wavefunction(s)  1S renormalized

     **************************************************************************
     Initializing libbeef V0.1.2 with the BEEF-vdW functional.
     Citation: Wellendorff et al., PRB 85, 235149 (2012).
     **************************************************************************


     IMPORTANT: XC functional enforced from input :
     Exchange-correlation= BEEF-VDW
                           (   1   4  43  14   2   0   0)
     Any further DFT definition will be discarded
     Please, verify this is what you really want


     R & G space division:  proc/nbgrp/npool/nimage =      48
     Subspace diagonalization in iterative solution of the eigenvalue problem:
     one sub-group per band group will be used
     custom distributed-memory algorithm (size of sub-group:  2*  2 procs)


     Parallelization info
     --------------------
     sticks:   dense  smooth     PW     G-vecs:    dense   smooth      PW
     Min         150      59     16                30552     7447    1068
     Max         151      60     17                30571     7456    1081
     Sum        7243    2839    769              1467143   357639   51591

     Using Slab Decomposition



     bravais-lattice index     =            0
     lattice parameter (alat)  =      16.0028  a.u.
     unit-cell volume          =   10463.1828 (a.u.)^3
     number of atoms/cell      =           37
     number of atomic types    =            2
     number of electrons       =       361.00
     number of Kohn-Sham states=          217
     kinetic-energy cutoff     =      40.0000  Ry
     charge density cutoff     =     410.0000  Ry
     scf convergence threshold =      1.0E-06
     mixing beta               =       0.7000
     number of iterations used =            8  local-TF  mixing
     Exchange-correlation= BEEF-VDW
                           (   1   4  43  14   2   0   0)

     celldm(1)=  16.002787  celldm(2)=   0.000000  celldm(3)=   0.000000
     celldm(4)=   0.000000  celldm(5)=   0.000000  celldm(6)=   0.000000

     crystal axes: (cart. coord. in units of alat)
               a(1) = (   1.000000   0.000000   0.000000 )  
               a(2) = (   0.500000   0.866025   0.000000 )  
               a(3) = (   0.000000   0.000000   2.948128 )  

     reciprocal axes: (cart. coord. in units 2 pi/alat)
               b(1) = (  1.000000 -0.577350  0.000000 )  
               b(2) = (  0.000000  1.154701  0.000000 )  
               b(3) = (  0.000000  0.000000  0.339198 )  


     PseudoPot. # 1 for Pt read from file:
     /users/kbadger1/espresso/pseudo/pslibrary.1.0.0/pbe/PSEUDOPOTENTIALS/Pt.pbe-n-kjpaw_psl.1.0.0.UPF
     MD5 check sum: 2e24a0b5bf98a4ed1a57fa81bca8c143
     Pseudo is Projector augmented-wave + core cor, Zval = 10.0
     Generated using 'atomic' code by A. Dal Corso  v.7.0
     Shape of augmentation charge: PSQ
     Using radial grid of 1277 points,  6 beta functions with: 
                l(1) =   0
                l(2) =   0
                l(3) =   1
                l(4) =   1
                l(5) =   2
                l(6) =   2
     Q(r) pseudized with 0 coefficients 


     PseudoPot. # 2 for H  read from file:
     /users/kbadger1/espresso/pseudo/pslibrary.1.0.0/pbe/PSEUDOPOTENTIALS/H.pbe-kjpaw_psl.1.0.0.UPF
     MD5 check sum: fe4c6fa958fa6d3815bf5d2419cbf1df
     Pseudo is Projector augmented-wave, Zval =  1.0
     Generated using 'atomic' code by A. Dal Corso  v.7.0
     Shape of augmentation charge: PSQ
     Using radial grid of  929 points,  2 beta functions with: 
                l(1) =   0
                l(2) =   0
     Q(r) pseudized with 0 coefficients 


     atomic species   valence    mass     pseudopotential
        Pt            10.00   195.08400     Pt( 1.00)
        H              1.00     1.00800     H ( 1.00)

     No symmetry found



   Cartesian axes

     site n.     atom                  positions (alat units)
         1           Pt  tau(   1) = (   0.0000000   0.0000000   1.0037422  )
         2           Pt  tau(   2) = (   0.3340014   0.0000000   1.0037422  )
         3           Pt  tau(   3) = (   0.6680027   0.0000000   1.0037422  )
         4           Pt  tau(   4) = (   0.1670007   0.2892537   1.0037422  )
         5           Pt  tau(   5) = (   0.5010021   0.2892537   1.0037422  )
         6           Pt  tau(   6) = (   0.8350034   0.2892537   1.0037422  )
         7           Pt  tau(   7) = (   0.3340014   0.5785073   1.0037422  )
         8           Pt  tau(   8) = (   0.6680027   0.5785073   1.0037422  )
         9           Pt  tau(   9) = (   1.0020041   0.5785073   1.0037422  )
        10           Pt  tau(  10) = (   0.1670007   0.0964179   1.2764532  )
        11           Pt  tau(  11) = (   0.5010021   0.0964179   1.2764532  )
        12           Pt  tau(  12) = (   0.8350034   0.0964179   1.2764532  )
        13           Pt  tau(  13) = (   0.3340014   0.3856716   1.2764532  )
        14           Pt  tau(  14) = (   0.6680027   0.3856716   1.2764532  )
        15           Pt  tau(  15) = (   1.0020041   0.3856716   1.2764532  )
        16           Pt  tau(  16) = (   0.5010021   0.6749252   1.2764532  )
        17           Pt  tau(  17) = (   0.8350034   0.6749252   1.2764532  )
        18           Pt  tau(  18) = (   1.1690048   0.6749252   1.2764532  )
        19           Pt  tau(  19) = (   0.0059872   0.1930827   1.5508364  )
        20           Pt  tau(  20) = (   0.3369914   0.1912123   1.5471509  )
        21           Pt  tau(  21) = (   0.6705972   0.1916764   1.5463814  )
        22           Pt  tau(  22) = (   0.1700383   0.4790936   1.5477743  )
        23           Pt  tau(  23) = (   0.5032656   0.4795872   1.5464426  )
        24           Pt  tau(  24) = (   0.8367969   0.4798800   1.5461284  )
        25           Pt  tau(  25) = (   0.3372229   0.7692618   1.5461058  )
        26           Pt  tau(  26) = (   0.6701147   0.7684897   1.5464105  )
        27           Pt  tau(  27) = (   1.0037601   0.7681162   1.5460411  )
        28           Pt  tau(  28) = (   0.0058384  -0.0043878   1.8216380  )
        29           Pt  tau(  29) = (   0.3401699  -0.0065972   1.8205214  )
        30           Pt  tau(  30) = (   0.6728758  -0.0042522   1.8215759  )
        31           Pt  tau(  31) = (   0.1750791   0.2834720   1.8335360  )
        32           Pt  tau(  32) = (   0.5089147   0.2839172   1.8228151  )
        33           Pt  tau(  33) = (   0.8394815   0.2844761   1.8219771  )
        34           Pt  tau(  34) = (   0.3395195   0.5753173   1.8203489  )
        35           Pt  tau(  35) = (   0.6729872   0.5730224   1.8210652  )
        36           Pt  tau(  36) = (   1.0062706   0.5729888   1.8212896  )
        37           H   tau(  37) = (   0.2683427   0.2875802   1.9948132  )

     number of k points=    13  Marzari-Vanderbilt smearing, width (Ry)=  0.0200
                       cart. coord. in units 2pi/alat
        k(    1) = (   0.0000000   0.0000000   0.0000000), wk =   0.0800000
        k(    2) = (   0.0000000   0.2309401   0.0000000), wk =   0.1600000
        k(    3) = (   0.0000000   0.4618802   0.0000000), wk =   0.1600000
        k(    4) = (   0.2000000  -0.1154701   0.0000000), wk =   0.1600000
        k(    5) = (   0.2000000   0.1154701   0.0000000), wk =   0.1600000
        k(    6) = (   0.2000000   0.3464102   0.0000000), wk =   0.1600000
        k(    7) = (   0.2000000  -0.5773503   0.0000000), wk =   0.1600000
        k(    8) = (   0.2000000  -0.3464102   0.0000000), wk =   0.1600000
        k(    9) = (   0.4000000  -0.2309401   0.0000000), wk =   0.1600000
        k(   10) = (   0.4000000   0.0000000   0.0000000), wk =   0.1600000
        k(   11) = (   0.4000000   0.2309401   0.0000000), wk =   0.1600000
        k(   12) = (   0.4000000  -0.6928203   0.0000000), wk =   0.1600000
        k(   13) = (   0.4000000  -0.4618802   0.0000000), wk =   0.1600000

     Dense  grid:  1467143 G-vectors     FFT dimensions: ( 108, 108, 320)

     Smooth grid:   357639 G-vectors     FFT dimensions: (  72,  72, 192)

     Estimated max dynamical RAM per process >     211.30 MB

     Estimated total dynamical RAM >       9.90 GB

     Initial potential from superposition of free atoms

     starting charge     360.9939, renormalised to     361.0000

     negative rho (up, down):  3.618E-03 0.000E+00


     %%%%%%%%%%%%%%%%%%%%%%%%%%%%%%%%%%%%%%%%%%%%%%%%%%%%%%%%%%%%%%%%%%%%%%%%
     %                                                                      %
     % You are using vdW-DF, which was implemented by the Thonhauser group. %
     % Please cite the following two papers that made this development      %
     % possible and the two reviews that describe the various versions:     %
     %                                                                      %
     %   T. Thonhauser et al., PRL 115, 136402 (2015).                      %
     %   T. Thonhauser et al., PRB 76, 125112 (2007).                       %
     %   K. Berland et al., Rep. Prog. Phys. 78, 066501 (2015).             %
     %   D.C. Langreth et al., J. Phys.: Condens. Matter 21, 084203 (2009). %
     %                                                                      %
     % If you are calculating stress with vdW-DF, please also cite:         %
     %                                                                      %
     %   R. Sabatini et al., J. Phys.: Condens. Matter 24, 424209 (2012).   %
     %                                                                      %
     %%%%%%%%%%%%%%%%%%%%%%%%%%%%%%%%%%%%%%%%%%%%%%%%%%%%%%%%%%%%%%%%%%%%%%%%

     %%%%%%%%%%%%%%%%%%%%%%%%%%%%%%%%%%%%%%%%%%%%%%%%%%%%%%%%%%%%%%%%%%%%%%%%
     %                                                                      %
     %  vdW-DF NEWS:                                                        %
     %                                                                      %
     %  * vdW-DF3 is now available. DOI: 10.1021/acs.jctc.0c00471           %
     %    use with input_dft = 'vdW-DF3-opt1' or 'vdW-DF3-opt2'             %
     %                                                                      %
     %  * Unscreened and range-separated hybrid vdW-DF-cx functionals       %
     %    DOI: 10.1063/1.4986522 and 10.1088/1361-648X/ac2ad2               %
     %    use with input_dft = 'vdW-DF-cx0'    and 'vdW-DF-ahcx'            %
     %  * Unscreened and range-separated hybrid vdW-DF2-b86r functionals    %
     %    DOI: 10.1063/1.4986522 and DOI: 10.1103/PhysRevX.12.041003        %
     %    use with input_dft = 'vdW-DF2-br0' and 'vdW-DF2-ahbr'             %
     %                                                                      %
     %%%%%%%%%%%%%%%%%%%%%%%%%%%%%%%%%%%%%%%%%%%%%%%%%%%%%%%%%%%%%%%%%%%%%%%%


     Starting wfcs are  325 randomized atomic wfcs
     Checking if some PAW data can be deallocated... 

     total cpu time spent up to now is       23.5 secs

     per-process dynamical memory:   208.7 Mb

     Self-consistent Calculation

     iteration #  1     ecut=    40.00 Ry     beta= 0.70
     Davidson diagonalization with overlap
     ethr =  1.00E-02,  avg # of iterations =  2.0

     Threshold (ethr) on eigenvalues was too large:
     Diagonalizing with lowered threshold

     Davidson diagonalization with overlap
     ethr =  3.89E-04,  avg # of iterations =  3.9

     negative rho (up, down):  1.786E-02 0.000E+00

     total cpu time spent up to now is       66.5 secs

     total energy              =  -27755.28143435 Ry
     estimated scf accuracy    <       1.60460736 Ry

     iteration #  2     ecut=    40.00 Ry     beta= 0.70
     Davidson diagonalization with overlap
     ethr =  4.44E-04,  avg # of iterations =  2.0

     negative rho (up, down):  1.604E-02 0.000E+00

     total cpu time spent up to now is       91.4 secs

     total energy              =  -27755.38370748 Ry
     estimated scf accuracy    <       0.81522097 Ry

     iteration #  3     ecut=    40.00 Ry     beta= 0.70
     Davidson diagonalization with overlap
     ethr =  2.26E-04,  avg # of iterations =  2.0

     negative rho (up, down):  1.068E-02 0.000E+00

     total cpu time spent up to now is      115.5 secs

     total energy              =  -27755.43731744 Ry
     estimated scf accuracy    <       0.09829511 Ry

     iteration #  4     ecut=    40.00 Ry     beta= 0.70
     Davidson diagonalization with overlap
     c_bands:  1 eigenvalues not converged
     c_bands:  1 eigenvalues not converged
     c_bands:  1 eigenvalues not converged
     c_bands:  1 eigenvalues not converged
     c_bands:  1 eigenvalues not converged
     c_bands:  1 eigenvalues not converged
     c_bands:  1 eigenvalues not converged
     ethr =  2.72E-05,  avg # of iterations = 15.5

     negative rho (up, down):  7.994E-03 0.000E+00

     total cpu time spent up to now is      170.8 secs

     total energy              =  -27755.48723091 Ry
     estimated scf accuracy    <       0.08653946 Ry

     iteration #  5     ecut=    40.00 Ry     beta= 0.70
     Davidson diagonalization with overlap
     ethr =  2.40E-05,  avg # of iterations =  2.2

     negative rho (up, down):  3.905E-03 0.000E+00

     total cpu time spent up to now is      183.6 secs

     total energy              =  -27755.48727790 Ry
     estimated scf accuracy    <       0.02976286 Ry

     iteration #  6     ecut=    40.00 Ry     beta= 0.70
     Davidson diagonalization with overlap
     ethr =  8.24E-06,  avg # of iterations =  7.2

     negative rho (up, down):  1.974E-03 0.000E+00

     total cpu time spent up to now is      211.3 secs

     total energy              =  -27755.48941374 Ry
     estimated scf accuracy    <       0.00236630 Ry

     iteration #  7     ecut=    40.00 Ry     beta= 0.70
     Davidson diagonalization with overlap
     c_bands:  1 eigenvalues not converged
     c_bands:  1 eigenvalues not converged
     ethr =  6.55E-07,  avg # of iterations = 11.2

     negative rho (up, down):  1.538E-03 0.000E+00

     total cpu time spent up to now is      263.7 secs

     total energy              =  -27755.49007156 Ry
     estimated scf accuracy    <       0.00192026 Ry

     iteration #  8     ecut=    40.00 Ry     beta= 0.70
     Davidson diagonalization with overlap
     ethr =  5.32E-07,  avg # of iterations =  1.9

     negative rho (up, down):  1.307E-03 0.000E+00

     total cpu time spent up to now is      276.1 secs

     total energy              =  -27755.49020684 Ry
     estimated scf accuracy    <       0.00021559 Ry

     iteration #  9     ecut=    40.00 Ry     beta= 0.70
     Davidson diagonalization with overlap
     ethr =  5.97E-08,  avg # of iterations =  5.2

     negative rho (up, down):  9.827E-04 0.000E+00

     total cpu time spent up to now is      325.6 secs

     total energy              =  -27755.49031691 Ry
     estimated scf accuracy    <       0.00009375 Ry

     iteration # 10     ecut=    40.00 Ry     beta= 0.70
     Davidson diagonalization with overlap
     ethr =  2.60E-08,  avg # of iterations =  3.8

     negative rho (up, down):  9.350E-04 0.000E+00

     total cpu time spent up to now is      356.9 secs

     total energy              =  -27755.49033577 Ry
     estimated scf accuracy    <       0.00009458 Ry

     iteration # 11     ecut=    40.00 Ry     beta= 0.70
     Davidson diagonalization with overlap
     ethr =  2.60E-08,  avg # of iterations =  1.2

     negative rho (up, down):  1.006E-03 0.000E+00

     total cpu time spent up to now is      382.6 secs

     total energy              =  -27755.49034019 Ry
     estimated scf accuracy    <       0.00005721 Ry

     iteration # 12     ecut=    40.00 Ry     beta= 0.70
     Davidson diagonalization with overlap
     ethr =  1.58E-08,  avg # of iterations =  1.4

     negative rho (up, down):  1.205E-03 0.000E+00

     total cpu time spent up to now is      394.2 secs

     total energy              =  -27755.49034434 Ry
     estimated scf accuracy    <       0.00002450 Ry

     iteration # 13     ecut=    40.00 Ry     beta= 0.70
     Davidson diagonalization with overlap
     ethr =  6.79E-09,  avg # of iterations =  2.0

     negative rho (up, down):  1.680E-03 0.000E+00

     total cpu time spent up to now is      419.6 secs

     total energy              =  -27755.49034826 Ry
     estimated scf accuracy    <       0.00001465 Ry

     iteration # 14     ecut=    40.00 Ry     beta= 0.70
     Davidson diagonalization with overlap
     ethr =  4.06E-09,  avg # of iterations =  2.2

     negative rho (up, down):  2.057E-03 0.000E+00

     total cpu time spent up to now is      446.2 secs

     total energy              =  -27755.49035385 Ry
     estimated scf accuracy    <       0.00000815 Ry

     iteration # 15     ecut=    40.00 Ry     beta= 0.70
     Davidson diagonalization with overlap
     ethr =  2.26E-09,  avg # of iterations =  2.0

     negative rho (up, down):  2.838E-03 0.000E+00

     total cpu time spent up to now is      464.4 secs

     total energy              =  -27755.49035124 Ry
     estimated scf accuracy    <       0.00000755 Ry

     iteration # 16     ecut=    40.00 Ry     beta= 0.70
     Davidson diagonalization with overlap
     ethr =  2.09E-09,  avg # of iterations =  1.3

     negative rho (up, down):  3.035E-03 0.000E+00

     total cpu time spent up to now is      483.0 secs

     total energy              =  -27755.49035118 Ry
     estimated scf accuracy    <       0.00000160 Ry

     iteration # 17     ecut=    40.00 Ry     beta= 0.70
     Davidson diagonalization with overlap
     ethr =  4.42E-10,  avg # of iterations =  4.8

     negative rho (up, down):  3.418E-03 0.000E+00

     total cpu time spent up to now is      515.2 secs

     End of self-consistent calculation

          k = 0.0000 0.0000 0.0000 ( 44645 PWs)   bands (ev):

    -6.6416  -5.3827  -4.3704  -4.2367  -4.2260  -4.2102  -4.2071  -4.2012
    -4.1956  -4.1828  -3.7788  -3.6647  -3.6626  -3.6547  -3.6457  -3.6445
    -3.4355  -3.1920  -3.1875  -3.1850  -3.1821  -3.1817  -3.1009  -2.9770
    -2.9690  -2.9662  -2.9630  -2.9589  -2.8277  -2.7499  -2.7464  -2.7414
    -2.7384  -2.7337  -2.7218  -2.7148  -2.7081  -2.7008  -2.6841  -2.6614
    -2.5138  -2.1218  -2.1182  -2.0928  -2.0786  -2.0598  -2.0455  -2.0431
    -2.0298  -2.0286  -1.9459  -1.8823  -1.8647  -1.7910  -1.7164  -1.3364
    -1.3161  -1.3082  -1.3031  -1.2940  -1.2620  -1.2408  -1.1210  -1.1144
    -1.1139  -1.1013  -1.0943  -1.0891  -1.0783  -1.0670  -1.0529  -1.0453
    -1.0417  -1.0299  -1.0040  -0.9971  -0.9791  -0.9019  -0.8992  -0.8836
    -0.8824  -0.8705  -0.8109  -0.6912  -0.6717  -0.6619  -0.6578  -0.6502
    -0.6356  -0.6267  -0.6170  -0.5522  -0.5400  -0.4965  -0.4887  -0.4552
    -0.4535  -0.4185  -0.4139  -0.4040  -0.3620  -0.2733  -0.2685  -0.2520
    -0.2407  -0.2279  -0.2205   0.0605   0.2430   0.2484   0.2654   0.2686
     0.2769   0.2791   0.2868   0.3177   0.3230   0.3270   0.3375   0.3752
     0.3990   0.4352   0.5382   0.5578   0.5668   0.5713   0.5788   0.6569
     0.6737   0.7067   0.7314   0.7362   0.7777   0.8464   0.9732   0.9991
     1.0086   1.0132   1.0177   1.0263   1.0716   1.0904   1.2351   1.2413
     1.2513   1.2527   1.2627   1.3144   1.4135   1.4204   1.4324   1.4378
     1.4429   1.4509   1.4618   1.4639   1.4652   1.4699   1.4724   1.5526
     1.5783   1.5864   1.6022   1.6086   1.6192   1.6325   1.6419   1.6894
     1.6965   1.7170   1.7243   1.7328   1.7385   1.7441   1.7475   1.8200
     1.8256   1.8324   1.8368   1.8406   1.8444   1.8549   1.9092   1.9342
     1.9396   1.9459   1.9569   1.9698   2.1283   2.1728   2.2351   2.2478
     2.2654   2.2695   2.2749   2.2782   2.6553   3.0845   3.1323   3.1507
     3.1577   3.1651   3.1698   4.8060   5.4346   5.4480   5.4705   5.4931
     5.5057   6.6951   7.0689   7.0840   7.1075   7.1185   7.1377   7.1487
     7.2728

          k = 0.0000 0.2309 0.0000 ( 44694 PWs)   bands (ev):

    -6.4941  -5.2402  -4.7349  -4.3374  -4.3143  -4.2093  -4.0909  -4.0297
    -3.9732  -3.9655  -3.8466  -3.7476  -3.6346  -3.5947  -3.5903  -3.5723
    -3.3987  -3.2783  -3.1584  -3.1490  -3.1399  -3.0834  -3.0639  -3.0428
    -3.0083  -2.9903  -2.9823  -2.9523  -2.8833  -2.8597  -2.8400  -2.7756
    -2.7588  -2.7280  -2.7251  -2.5992  -2.5366  -2.5309  -2.5201  -2.4904
    -2.4607  -2.2418  -2.2276  -2.2159  -2.1595  -2.1474  -2.1213  -2.0523
    -1.9440  -1.9059  -1.8734  -1.8484  -1.8242  -1.7897  -1.7384  -1.5624
    -1.4790  -1.4632  -1.4141  -1.3842  -1.3765  -1.3259  -1.3121  -1.2827
    -1.2658  -1.2515  -1.2294  -1.1898  -1.1493  -1.1200  -1.0951  -1.0743
    -1.0406  -1.0088  -1.0050  -0.9212  -0.9088  -0.8891  -0.8638  -0.8193
    -0.8093  -0.7920  -0.7900  -0.7073  -0.7041  -0.6951  -0.6758  -0.6690
    -0.6393  -0.6237  -0.5902  -0.5582  -0.5316  -0.5188  -0.5093  -0.4860
    -0.4778  -0.4443  -0.4295  -0.4138  -0.3351  -0.2771  -0.2609  -0.2531
    -0.2435  -0.2349  -0.2212  -0.2038  -0.1664  -0.1516  -0.1492  -0.1274
     0.0602   0.1533   0.2019   0.2427   0.2574   0.2752   0.2890   0.3049
     0.3225   0.3603   0.4616   0.4818   0.5209   0.5884   0.6176   0.6428
     0.6735   0.6903   0.7286   0.7440   0.7532   0.8320   0.8513   0.8713
     0.8834   0.8902   0.9208   1.0635   1.0826   1.1097   1.1181   1.1375
     1.1521   1.1857   1.2341   1.2589   1.2800   1.2935   1.3251   1.3585
     1.3707   1.3782   1.4173   1.4804   1.4969   1.5216   1.5586   1.6084
     1.6440   1.6514   1.6602   1.6809   1.6938   1.7284   1.7847   1.8097
     1.8275   1.8620   1.8734   1.8850   1.9158   1.9221   1.9291   1.9346
     1.9412   1.9859   1.9945   2.1230   2.1325   2.1631   2.1913   2.1954
     2.2124   2.2309   2.2619   2.2805   2.2909   2.3559   2.3929   2.4088
     2.4318   2.5716   2.5844   2.5868   2.6168   2.9322   3.0256   3.4664
     3.7334   3.7546   3.8823   4.5497   5.0387   5.1928   5.7230   5.9326
     5.9410   6.0317   6.2196   6.6362   6.8948   6.9542   7.2641   7.2809
     7.3090

          k = 0.0000 0.4619 0.0000 ( 44748 PWs)   bands (ev):

    -6.0699  -5.4348  -4.8412  -4.3751  -4.3450  -4.2920  -4.0174  -3.8507
    -3.8266  -3.7084  -3.6304  -3.6246  -3.5485  -3.4632  -3.4282  -3.4129
    -3.4014  -3.3590  -3.2628  -3.2356  -3.2221  -3.1950  -3.1788  -3.1462
    -3.0869  -3.0556  -3.0504  -2.8658  -2.7912  -2.7835  -2.7809  -2.7679
    -2.7518  -2.6944  -2.5350  -2.5214  -2.5105  -2.4991  -2.4754  -2.4127
    -2.3136  -2.2069  -2.1978  -2.1865  -2.1736  -2.1229  -2.0988  -2.0501
    -2.0464  -2.0280  -1.9783  -1.9415  -1.8329  -1.8118  -1.7948  -1.7674
    -1.6764  -1.6367  -1.6085  -1.5937  -1.5528  -1.4583  -1.4087  -1.3893
    -1.3829  -1.3606  -1.2941  -1.2722  -1.2681  -1.1712  -1.1644  -1.1406
    -1.1168  -1.0315  -1.0130  -1.0003  -0.9836  -0.9712  -0.9424  -0.8969
    -0.8861  -0.8759  -0.8687  -0.8618  -0.8569  -0.8289  -0.7928  -0.7202
    -0.7158  -0.7079  -0.6966  -0.6819  -0.6686  -0.6107  -0.5377  -0.5230
    -0.4968  -0.4664  -0.4330  -0.4292  -0.4157  -0.4083  -0.3001  -0.2607
    -0.2338  -0.2283  -0.1845  -0.1518  -0.1251  -0.0032   0.0171   0.0394
     0.1007   0.1389   0.1790   0.1945   0.2057   0.2194   0.2337   0.2496
     0.3057   0.3180   0.3237   0.3498   0.3544   0.3788   0.3826   0.4110
     0.4509   0.5333   0.5551   0.5710   0.6265   0.6597   0.7477   0.7637
     0.8077   0.8738   0.8887   0.9687   1.0251   1.0397   1.0757   1.0985
     1.1338   1.1369   1.1552   1.2062   1.2299   1.2535   1.2843   1.3175
     1.3720   1.3968   1.4183   1.4226   1.4432   1.4726   1.5368   1.6085
     1.6537   1.6921   1.7155   1.7237   1.7457   1.8113   1.8361   1.8492
     1.9130   1.9169   1.9250   1.9854   1.9947   2.0138   2.0387   2.1141
     2.1498   2.1673   2.1762   2.1876   2.1991   2.2226   2.2275   2.3968
     2.4074   2.4358   2.4420   2.4582   2.6188   2.6594   2.8573   3.0345
     3.0847   3.2144   3.4864   3.4948   3.7922   3.8818   3.9264   4.2265
     4.4434   4.7122   4.7185   4.7479   4.8972   4.9562   5.0453   5.0937
     5.3394   5.3713   5.7552   6.0054   6.3389   6.5302   6.7659   6.9995
     7.2713

          k = 0.2000-0.1155 0.0000 ( 44694 PWs)   bands (ev):

    -6.4936  -5.2386  -4.7218  -4.3524  -4.3168  -4.2030  -4.0895  -4.0158
    -3.9828  -3.9705  -3.8258  -3.7517  -3.6739  -3.5871  -3.5811  -3.5734
    -3.3628  -3.2901  -3.1579  -3.1500  -3.1420  -3.1181  -3.0660  -3.0473
    -3.0088  -2.9805  -2.9638  -2.9375  -2.8989  -2.8683  -2.8451  -2.7643
    -2.7586  -2.7420  -2.7304  -2.5948  -2.5345  -2.5289  -2.5183  -2.4943
    -2.4602  -2.2417  -2.2403  -2.2074  -2.1585  -2.1448  -2.1275  -2.0559
    -1.9506  -1.9248  -1.8601  -1.8404  -1.8214  -1.7918  -1.7367  -1.5804
    -1.4817  -1.4731  -1.4295  -1.4163  -1.3667  -1.3405  -1.2876  -1.2755
    -1.2570  -1.2495  -1.2267  -1.1880  -1.1450  -1.1162  -1.1024  -1.0647
    -1.0070  -0.9864  -0.9798  -0.9255  -0.9163  -0.8839  -0.8601  -0.8478
    -0.8411  -0.8227  -0.7682  -0.7204  -0.6959  -0.6887  -0.6797  -0.6720
    -0.6459  -0.6251  -0.5826  -0.5485  -0.5308  -0.5213  -0.5081  -0.4887
    -0.4675  -0.4375  -0.4295  -0.4122  -0.3346  -0.2722  -0.2540  -0.2432
    -0.2314  -0.2263  -0.2146  -0.2070  -0.1675  -0.1534  -0.1375  -0.1276
    -0.0091   0.1634   0.1962   0.2371   0.2684   0.2792   0.2888   0.3003
     0.3265   0.3852   0.4768   0.4905   0.5151   0.6016   0.6227   0.6292
     0.6851   0.6990   0.7284   0.7450   0.7653   0.8263   0.8493   0.8731
     0.8828   0.8899   0.9113   1.0764   1.1035   1.1072   1.1223   1.1345
     1.1526   1.1805   1.2325   1.2594   1.2699   1.2939   1.3052   1.3575
     1.3693   1.3839   1.4122   1.4821   1.4922   1.5136   1.5518   1.6247
     1.6455   1.6565   1.6700   1.6847   1.7058   1.7265   1.7865   1.8077
     1.8352   1.8651   1.8733   1.8822   1.9131   1.9224   1.9278   1.9356
     1.9371   1.9968   2.0112   2.1227   2.1501   2.1660   2.1757   2.1872
     2.1936   2.2169   2.2356   2.2562   2.2895   2.3497   2.3936   2.4134
     2.4414   2.5596   2.5810   2.5883   2.6256   2.9036   3.0079   3.4724
     3.7508   3.7607   3.8802   4.5842   4.9965   5.1763   5.7227   5.9373
     5.9409   6.0317   6.2572   6.6412   6.9029   6.9670   7.2583   7.2766
     7.3013

          k = 0.2000 0.1155 0.0000 ( 44694 PWs)   bands (ev):

    -6.4938  -5.2387  -4.7253  -4.3554  -4.3154  -4.1979  -4.0901  -4.0175
    -3.9912  -3.9632  -3.8221  -3.7517  -3.6691  -3.5946  -3.5856  -3.5736
    -3.3843  -3.2492  -3.1596  -3.1500  -3.1422  -3.1259  -3.0647  -3.0414
    -3.0100  -2.9816  -2.9649  -2.9376  -2.9236  -2.8671  -2.8353  -2.7755
    -2.7635  -2.7414  -2.7237  -2.6144  -2.5389  -2.5272  -2.5093  -2.4998
    -2.4360  -2.2438  -2.2315  -2.1764  -2.1644  -2.1317  -2.1265  -2.0567
    -1.9416  -1.9328  -1.8719  -1.8520  -1.8133  -1.7898  -1.7506  -1.5592
    -1.4802  -1.4737  -1.4153  -1.3929  -1.3704  -1.3233  -1.3061  -1.2876
    -1.2725  -1.2530  -1.2059  -1.1895  -1.1399  -1.1229  -1.1025  -1.0737
    -1.0337  -1.0078  -1.0008  -0.9243  -0.9177  -0.8974  -0.8600  -0.8287
    -0.8168  -0.7908  -0.7838  -0.7172  -0.7091  -0.6952  -0.6860  -0.6692
    -0.6457  -0.6151  -0.5870  -0.5565  -0.5329  -0.5154  -0.5028  -0.4910
    -0.4556  -0.4485  -0.4250  -0.4159  -0.3326  -0.2737  -0.2535  -0.2479
    -0.2399  -0.2297  -0.2181  -0.2045  -0.1632  -0.1542  -0.1360  -0.1262
     0.0856   0.1257   0.1915   0.2324   0.2594   0.2754   0.2861   0.3170
     0.3221   0.3942   0.4642   0.4821   0.5009   0.5934   0.6188   0.6383
     0.6696   0.6941   0.7222   0.7433   0.7600   0.7872   0.8483   0.8774
     0.8797   0.8933   0.9027   1.0645   1.0962   1.1079   1.1246   1.1346
     1.1514   1.1868   1.2333   1.2656   1.2816   1.2923   1.3375   1.3635
     1.3715   1.3787   1.4233   1.4862   1.4930   1.5197   1.5525   1.6162
     1.6527   1.6590   1.6602   1.6779   1.6860   1.7296   1.7852   1.8055
     1.8172   1.8628   1.8730   1.8812   1.9124   1.9251   1.9283   1.9330
     1.9387   1.9857   1.9971   2.1132   2.1439   2.1674   2.1890   2.1924
     2.2104   2.2308   2.2643   2.2783   2.2902   2.3710   2.3933   2.4079
     2.4164   2.5707   2.5796   2.5902   2.6136   2.9362   3.0255   3.4546
     3.7427   3.7550   3.8794   4.5709   4.9919   5.1908   5.7334   5.9360
     5.9382   6.0359   6.2549   6.6301   6.8987   6.9671   7.2478   7.2873
     7.3056

          k = 0.2000 0.3464 0.0000 ( 44714 PWs)   bands (ev):

    -6.2073  -5.0072  -4.9665  -4.9438  -4.0974  -3.8974  -3.8927  -3.8767
    -3.8573  -3.8272  -3.8097  -3.7960  -3.7112  -3.7040  -3.4417  -3.3270
    -3.3179  -3.3013  -3.2627  -3.2397  -3.1774  -3.0722  -3.0586  -3.0574
    -3.0497  -2.9827  -2.9331  -2.9051  -2.8994  -2.8926  -2.8431  -2.8127
    -2.8006  -2.7620  -2.7365  -2.6735  -2.5866  -2.3975  -2.3116  -2.2955
    -2.2655  -2.2550  -2.2493  -2.2390  -2.1834  -2.1664  -2.0957  -2.0098
    -2.0072  -1.9829  -1.8957  -1.8769  -1.8302  -1.8207  -1.7964  -1.7330
    -1.7020  -1.5617  -1.5426  -1.5216  -1.4554  -1.4447  -1.4198  -1.4126
    -1.3805  -1.3426  -1.3290  -1.2090  -1.2024  -1.1897  -1.1709  -1.1248
    -1.1184  -1.0502  -1.0407  -1.0183  -0.9890  -0.9026  -0.8790  -0.8614
    -0.8454  -0.8395  -0.8276  -0.8139  -0.7844  -0.7659  -0.7446  -0.7219
    -0.6977  -0.6701  -0.6005  -0.5808  -0.5640  -0.5299  -0.5185  -0.4980
    -0.4814  -0.4568  -0.4359  -0.4234  -0.4162  -0.4017  -0.3931  -0.3807
    -0.3388  -0.3178  -0.2482  -0.2200  -0.1718  -0.1315  -0.1026  -0.0952
    -0.0786   0.0305   0.1155   0.1407   0.2093   0.2419   0.2730   0.2889
     0.3095   0.3368   0.3445   0.3863   0.3989   0.4193   0.4472   0.5215
     0.5291   0.6034   0.6745   0.6904   0.7302   0.7369   0.7634   0.8081
     0.8288   0.9229   0.9311   0.9520   1.0105   1.0158   1.0573   1.1322
     1.1540   1.1604   1.1904   1.2183   1.2319   1.2509   1.2578   1.2703
     1.2827   1.2884   1.3074   1.3960   1.4484   1.4992   1.5908   1.6180
     1.6422   1.7338   1.7972   1.8157   1.8163   1.8484   1.9174   1.9468
     1.9576   1.9735   1.9835   2.0021   2.0162   2.0191   2.0263   2.0621
     2.0821   2.1248   2.1624   2.1968   2.2043   2.2427   2.2544   2.2847
     2.4222   2.4551   2.4951   2.5022   2.5590   2.5646   2.5747   2.6836
     2.7169   2.9770   3.2320   3.2452   3.6301   3.7852   3.7965   3.8099
     4.1436   4.4842   4.5000   4.7008   4.7310   4.7608   5.3712   5.6335
     5.9197   5.9364   6.1278   6.2661   6.6282   6.6822   6.7028   6.7278
     6.7502

          k = 0.2000-0.5774 0.0000 ( 44692 PWs)   bands (ev):

    -5.6733  -5.6683  -5.0554  -4.5324  -4.4310  -3.9756  -3.8975  -3.7596
    -3.7250  -3.6615  -3.6073  -3.5688  -3.5037  -3.4790  -3.3944  -3.3782
    -3.3690  -3.3327  -3.3267  -3.3087  -3.2298  -3.1762  -3.1664  -3.1385
    -3.1225  -3.0834  -3.0138  -2.9125  -2.8904  -2.8014  -2.7723  -2.7592
    -2.7452  -2.7260  -2.6714  -2.6363  -2.5982  -2.5175  -2.4583  -2.3336
    -2.3175  -2.2942  -2.1861  -2.1466  -2.1292  -2.0957  -2.0086  -1.9606
    -1.9259  -1.9130  -1.8782  -1.8360  -1.8282  -1.8053  -1.7190  -1.7081
    -1.6917  -1.6793  -1.6677  -1.6583  -1.6128  -1.5933  -1.5584  -1.4792
    -1.4556  -1.4008  -1.3606  -1.3003  -1.2562  -1.2415  -1.2329  -1.1834
    -1.1725  -1.1556  -1.1017  -1.0631  -1.0501  -1.0288  -0.9951  -0.9630
    -0.9425  -0.9178  -0.8508  -0.8241  -0.8092  -0.7965  -0.7441  -0.6813
    -0.6487  -0.6131  -0.6069  -0.5910  -0.5563  -0.5500  -0.5406  -0.5315
    -0.5165  -0.4882  -0.4703  -0.4472  -0.4111  -0.4055  -0.3850  -0.3808
    -0.3687  -0.3608  -0.3353  -0.2917  -0.2822  -0.1794  -0.0745  -0.0038
     0.0347   0.0399   0.1328   0.1454   0.1696   0.1888   0.2108   0.2363
     0.2533   0.2650   0.3067   0.3629   0.3895   0.3950   0.4417   0.4627
     0.5135   0.5283   0.5651   0.6520   0.7375   0.7862   0.7992   0.8176
     0.8392   0.8922   0.9099   0.9268   0.9496   0.9537   0.9858   0.9933
     1.0498   1.1080   1.1233   1.1620   1.1774   1.1998   1.2034   1.2227
     1.2345   1.3640   1.3995   1.4409   1.4953   1.5635   1.6309   1.6474
     1.6762   1.7307   1.7697   1.7831   1.8185   1.8779   1.9314   1.9575
     1.9681   1.9960   2.0024   2.0166   2.0554   2.0878   2.1521   2.1646
     2.1728   2.1826   2.2136   2.2184   2.2267   2.2888   2.4026   2.4203
     2.4353   2.4438   2.4598   2.5053   2.5390   2.6305   2.7402   3.3702
     3.6039   3.6077   3.7856   3.8478   3.9791   3.9867   3.9914   4.2938
     4.5897   4.6220   4.8384   5.0611   5.0866   5.1577   5.2185   5.3238
     5.4470   5.5243   5.5802   5.8379   5.9873   6.0515   6.3789   6.6607
     6.6973

          k = 0.2000-0.3464 0.0000 ( 44714 PWs)   bands (ev):

    -6.2068  -5.0058  -4.9647  -4.9450  -4.0926  -3.8957  -3.8815  -3.8798
    -3.8526  -3.8266  -3.8186  -3.8054  -3.7133  -3.7012  -3.4413  -3.3164
    -3.3092  -3.3034  -3.2776  -3.2141  -3.1886  -3.0740  -3.0630  -3.0566
    -3.0489  -2.9938  -2.9476  -2.9074  -2.9047  -2.8912  -2.8478  -2.8148
    -2.7870  -2.7627  -2.7368  -2.6530  -2.5500  -2.3885  -2.3128  -2.3013
    -2.2822  -2.2664  -2.2487  -2.2417  -2.2267  -2.1792  -2.1364  -2.0130
    -2.0054  -1.9362  -1.9052  -1.8716  -1.8270  -1.8204  -1.7821  -1.7366
    -1.7200  -1.5747  -1.5444  -1.5310  -1.4766  -1.4367  -1.4265  -1.4119
    -1.3756  -1.3448  -1.3347  -1.2019  -1.1890  -1.1675  -1.1537  -1.1191
    -1.0930  -1.0664  -1.0513  -1.0307  -0.9770  -0.9030  -0.8842  -0.8684
    -0.8480  -0.8377  -0.8322  -0.8032  -0.7802  -0.7690  -0.7434  -0.7112
    -0.6885  -0.6689  -0.5980  -0.5797  -0.5517  -0.5364  -0.5092  -0.4905
    -0.4818  -0.4554  -0.4423  -0.4250  -0.4204  -0.4098  -0.4004  -0.3811
    -0.3378  -0.3158  -0.2719  -0.2181  -0.1710  -0.1614  -0.0972  -0.0848
    -0.0752   0.0497   0.1130   0.1279   0.2398   0.2448   0.2849   0.2979
     0.3052   0.3287   0.3649   0.3784   0.3980   0.4101   0.4432   0.4943
     0.5621   0.6265   0.6717   0.7055   0.7202   0.7454   0.7683   0.8138
     0.8481   0.9115   0.9434   0.9672   1.0015   1.0169   1.0638   1.1220
     1.1366   1.1548   1.1793   1.2199   1.2374   1.2461   1.2543   1.2705
     1.2777   1.2834   1.3017   1.3675   1.4812   1.4927   1.5634   1.6321
     1.6503   1.7320   1.8051   1.8081   1.8185   1.8842   1.9225   1.9351
     1.9567   1.9669   1.9897   2.0095   2.0173   2.0267   2.0379   2.0661
     2.0787   2.1013   2.1731   2.1891   2.2255   2.2433   2.2525   2.2925
     2.3605   2.4345   2.4780   2.4904   2.5460   2.5637   2.5738   2.6958
     2.7192   3.0003   3.2420   3.2577   3.6059   3.7758   3.7853   3.8038
     4.1509   4.4881   4.5040   4.7047   4.7296   4.7595   5.3794   5.6240
     5.9154   5.9245   6.1269   6.2608   6.6307   6.6844   6.7065   6.7306
     6.7488

          k = 0.4000-0.2309 0.0000 ( 44748 PWs)   bands (ev):

    -6.0677  -5.4279  -4.8370  -4.3859  -4.3472  -4.2724  -4.0027  -3.8655
    -3.8118  -3.7070  -3.6419  -3.6280  -3.5695  -3.4571  -3.4174  -3.4081
    -3.3954  -3.3271  -3.2576  -3.2398  -3.2247  -3.1835  -3.1644  -3.1483
    -3.0849  -3.0590  -3.0526  -2.9698  -2.7916  -2.7884  -2.7819  -2.7783
    -2.7679  -2.6940  -2.5393  -2.5321  -2.5150  -2.4972  -2.4793  -2.4156
    -2.2889  -2.2047  -2.1965  -2.1889  -2.1735  -2.1326  -2.0857  -2.0768
    -2.0394  -2.0270  -1.9861  -1.9272  -1.8361  -1.8214  -1.8044  -1.7761
    -1.6858  -1.6690  -1.6256  -1.6048  -1.5879  -1.4585  -1.3960  -1.3800
    -1.3727  -1.3494  -1.2931  -1.2764  -1.2109  -1.1535  -1.1320  -1.1102
    -1.0691  -1.0381  -1.0171  -1.0001  -0.9939  -0.9689  -0.9342  -0.9149
    -0.8953  -0.8917  -0.8776  -0.8581  -0.8428  -0.8314  -0.7888  -0.7352
    -0.7305  -0.7101  -0.7044  -0.6958  -0.6886  -0.5899  -0.5280  -0.5106
    -0.4679  -0.4614  -0.4497  -0.4301  -0.3909  -0.3645  -0.3188  -0.2586
    -0.2374  -0.2293  -0.1790  -0.1436  -0.1241   0.0006   0.0093   0.0537
     0.1003   0.1446   0.1761   0.1838   0.1957   0.2092   0.2218   0.2389
     0.3031   0.3210   0.3340   0.3499   0.3564   0.3748   0.4067   0.4166
     0.4319   0.5516   0.5760   0.5860   0.6227   0.6564   0.7634   0.7772
     0.8214   0.8785   0.8910   0.9451   1.0175   1.0568   1.0927   1.1188
     1.1245   1.1368   1.1446   1.2022   1.2184   1.2451   1.2771   1.3112
     1.3632   1.3911   1.4159   1.4283   1.4470   1.5095   1.5246   1.6161
     1.6701   1.6942   1.7214   1.7273   1.7416   1.8126   1.8340   1.8532
     1.9162   1.9226   1.9316   1.9762   2.0169   2.0230   2.0419   2.1246
     2.1431   2.1659   2.1767   2.1826   2.1882   2.1955   2.2118   2.3948
     2.3987   2.4099   2.4262   2.4310   2.6212   2.6601   2.8240   3.0145
     3.1100   3.2326   3.4838   3.4981   3.7935   3.8812   3.9372   4.1856
     4.4066   4.7051   4.7208   4.7439   4.9159   4.9709   5.0211   5.0720
     5.3413   5.3716   5.7921   5.9811   6.3525   6.5461   6.7471   7.0091
     7.2577

          k = 0.4000 0.0000 0.0000 ( 44714 PWs)   bands (ev):

    -6.2059  -4.9897  -4.9753  -4.9443  -4.0790  -3.8948  -3.8863  -3.8783
    -3.8566  -3.8309  -3.8254  -3.8011  -3.7110  -3.7063  -3.4562  -3.3147
    -3.3087  -3.3007  -3.2467  -3.2278  -3.1665  -3.0734  -3.0596  -3.0569
    -3.0519  -3.0238  -2.9438  -2.9158  -2.8988  -2.8932  -2.8625  -2.8215
    -2.7895  -2.7698  -2.7420  -2.6579  -2.5835  -2.4019  -2.3128  -2.3019
    -2.2761  -2.2565  -2.2444  -2.2431  -2.1822  -2.1667  -2.0868  -2.0277
    -2.0031  -1.9786  -1.9098  -1.8681  -1.8341  -1.8211  -1.7824  -1.7329
    -1.7179  -1.5775  -1.5606  -1.5343  -1.4762  -1.4401  -1.4269  -1.4184
    -1.3777  -1.3410  -1.3279  -1.2048  -1.1749  -1.1654  -1.1459  -1.1093
    -1.1041  -1.0692  -1.0413  -1.0206  -0.9753  -0.9138  -0.9015  -0.8719
    -0.8543  -0.8393  -0.8193  -0.8037  -0.7799  -0.7659  -0.7441  -0.7092
    -0.6793  -0.6440  -0.5972  -0.5786  -0.5713  -0.5337  -0.5103  -0.4908
    -0.4803  -0.4476  -0.4384  -0.4213  -0.4182  -0.3975  -0.3943  -0.3832
    -0.3500  -0.3122  -0.2268  -0.2207  -0.1795  -0.1692  -0.0917  -0.0836
    -0.0759   0.0339   0.1131   0.1326   0.2399   0.2538   0.2747   0.2901
     0.3081   0.3304   0.3541   0.3810   0.3960   0.4050   0.4502   0.4890
     0.5249   0.6268   0.6717   0.6984   0.7283   0.7436   0.7766   0.8096
     0.8325   0.9176   0.9375   0.9544   1.0090   1.0196   1.0736   1.1287
     1.1525   1.1573   1.1800   1.2164   1.2330   1.2443   1.2547   1.2734
     1.2747   1.2864   1.2995   1.3955   1.4668   1.4984   1.5738   1.6276
     1.6458   1.7299   1.8058   1.8103   1.8167   1.8655   1.9197   1.9323
     1.9585   1.9686   1.9897   2.0064   2.0205   2.0277   2.0412   2.0687
     2.0834   2.1010   2.1763   2.1888   2.2246   2.2428   2.2535   2.2920
     2.3967   2.4348   2.4698   2.4811   2.5506   2.5639   2.5746   2.7031
     2.7197   2.9757   3.2324   3.2585   3.5904   3.7727   3.7909   3.8064
     4.1549   4.4891   4.5023   4.6890   4.7264   4.7610   5.3487   5.6309
     5.9173   5.9298   6.1690   6.2738   6.6321   6.6880   6.7085   6.7394
     7.1418

          k = 0.4000 0.2309 0.0000 ( 44748 PWs)   bands (ev):

    -6.0685  -5.4302  -4.8365  -4.3827  -4.3499  -4.2702  -3.9923  -3.8897
    -3.8200  -3.7088  -3.6519  -3.6226  -3.5586  -3.4613  -3.4226  -3.4099
    -3.4005  -3.3269  -3.2602  -3.2346  -3.2105  -3.1888  -3.1668  -3.1500
    -3.0650  -3.0562  -3.0518  -3.0014  -2.7944  -2.7831  -2.7781  -2.7723
    -2.7614  -2.7030  -2.5428  -2.5261  -2.5095  -2.4960  -2.4811  -2.4110
    -2.2489  -2.2075  -2.1946  -2.1820  -2.1465  -2.1342  -2.1102  -2.0552
    -2.0451  -2.0031  -1.9833  -1.9593  -1.8299  -1.8183  -1.7934  -1.7838
    -1.6792  -1.6376  -1.6107  -1.6027  -1.5451  -1.4575  -1.3991  -1.3908
    -1.3777  -1.3576  -1.2905  -1.2762  -1.2423  -1.1724  -1.1608  -1.1331
    -1.1254  -1.0379  -1.0102  -0.9968  -0.9843  -0.9705  -0.9388  -0.9010
    -0.8983  -0.8782  -0.8687  -0.8587  -0.8511  -0.8373  -0.8154  -0.7335
    -0.7172  -0.7070  -0.6947  -0.6847  -0.6595  -0.5762  -0.5400  -0.5239
    -0.4923  -0.4690  -0.4408  -0.4181  -0.4041  -0.3969  -0.3289  -0.2596
    -0.2322  -0.2087  -0.1791  -0.1471  -0.1309  -0.0002   0.0114   0.0659
     0.1000   0.1463   0.1740   0.1947   0.2113   0.2201   0.2316   0.2938
     0.3032   0.3118   0.3195   0.3426   0.3593   0.3771   0.3835   0.3960
     0.4385   0.5298   0.5609   0.5686   0.6005   0.6531   0.7365   0.7612
     0.7912   0.8717   0.8965   0.9763   1.0299   1.0463   1.0829   1.1004
     1.1223   1.1390   1.1550   1.2093   1.2373   1.2505   1.3012   1.3168
     1.3708   1.4008   1.4165   1.4258   1.4429   1.4578   1.5620   1.6154
     1.6640   1.6993   1.7167   1.7215   1.7293   1.8181   1.8324   1.8445
     1.9132   1.9152   1.9262   1.9825   1.9935   2.0179   2.0366   2.1127
     2.1519   2.1667   2.1770   2.1879   2.1959   2.2169   2.2256   2.3958
     2.4098   2.4325   2.4397   2.4548   2.6189   2.6598   2.8295   3.0340
     3.0847   3.2346   3.4906   3.4924   3.7837   3.8826   3.9357   4.2073
     4.4220   4.7153   4.7186   4.7422   4.8960   4.9630   5.0294   5.0861
     5.3395   5.3727   5.7934   5.9980   6.3402   6.5351   6.7461   7.0078
     7.2543

          k = 0.4000-0.6928 0.0000 ( 44692 PWs)   bands (ev):

    -5.6758  -5.6613  -5.0601  -4.5197  -4.4250  -3.9928  -3.8908  -3.7712
    -3.7255  -3.6707  -3.6028  -3.5418  -3.5027  -3.4873  -3.3923  -3.3790
    -3.3625  -3.3352  -3.3290  -3.3113  -3.2239  -3.1684  -3.1640  -3.1414
    -3.1146  -3.0617  -3.0242  -2.9646  -2.9066  -2.8291  -2.7715  -2.7608
    -2.7467  -2.7300  -2.6942  -2.6333  -2.5698  -2.5154  -2.4602  -2.3402
    -2.3186  -2.2188  -2.1963  -2.1650  -2.1265  -2.0940  -2.0080  -1.9643
    -1.9338  -1.9157  -1.8950  -1.8358  -1.8323  -1.8023  -1.7181  -1.7044
    -1.6871  -1.6793  -1.6703  -1.6577  -1.6072  -1.5967  -1.5723  -1.4649
    -1.4451  -1.4058  -1.3687  -1.2975  -1.2591  -1.2396  -1.2118  -1.1776
    -1.1716  -1.1428  -1.1009  -1.0651  -1.0449  -1.0347  -1.0027  -0.9876
    -0.9395  -0.9015  -0.8418  -0.8167  -0.8121  -0.8066  -0.7550  -0.6892
    -0.6504  -0.6142  -0.5976  -0.5834  -0.5562  -0.5523  -0.5430  -0.5315
    -0.4903  -0.4769  -0.4644  -0.4606  -0.4133  -0.4019  -0.3882  -0.3833
    -0.3731  -0.3583  -0.3297  -0.2923  -0.2851  -0.1488  -0.0694  -0.0576
     0.0300   0.0410   0.1372   0.1481   0.1647   0.1951   0.2171   0.2296
     0.2444   0.2622   0.3094   0.3611   0.3894   0.4096   0.4426   0.4599
     0.5124   0.5285   0.5725   0.6636   0.7220   0.7852   0.7975   0.8133
     0.8308   0.8982   0.9223   0.9364   0.9497   0.9616   0.9833   0.9927
     1.0536   1.0923   1.1215   1.1571   1.1808   1.1970   1.2118   1.2259
     1.2357   1.3387   1.4019   1.4612   1.5047   1.5607   1.6322   1.6503
     1.6620   1.7252   1.7697   1.7817   1.8142   1.8743   1.9319   1.9521
     1.9764   1.9991   2.0057   2.0180   2.0594   2.0918   2.1459   2.1646
     2.1699   2.1903   2.2119   2.2202   2.2248   2.2892   2.4056   2.4210
     2.4323   2.4405   2.4586   2.5076   2.5405   2.6333   2.7551   3.3527
     3.6038   3.6050   3.7828   3.8490   3.9579   3.9852   3.9957   4.2882
     4.6076   4.6169   4.8055   5.0586   5.0854   5.1788   5.2174   5.3446
     5.4333   5.5223   5.5765   5.8286   6.0030   6.0503   6.3640   6.6707
     6.7080

          k = 0.4000-0.4619 0.0000 ( 44692 PWs)   bands (ev):

    -5.6764  -5.6584  -5.0617  -4.5240  -4.4199  -3.9987  -3.8834  -3.7661
    -3.7185  -3.6546  -3.6088  -3.5613  -3.4954  -3.4709  -3.3942  -3.3771
    -3.3697  -3.3327  -3.3253  -3.3171  -3.2394  -3.1712  -3.1673  -3.1383
    -3.1132  -3.0550  -3.0266  -2.9509  -2.9115  -2.8318  -2.7678  -2.7633
    -2.7426  -2.7366  -2.6911  -2.6372  -2.5670  -2.5218  -2.4796  -2.3299
    -2.3175  -2.2736  -2.1956  -2.1561  -2.1257  -2.0794  -1.9933  -1.9554
    -1.9291  -1.9083  -1.8870  -1.8638  -1.8530  -1.8145  -1.7145  -1.7131
    -1.6912  -1.6814  -1.6763  -1.6688  -1.6132  -1.6029  -1.5806  -1.4649
    -1.4278  -1.3987  -1.3583  -1.2915  -1.2695  -1.2270  -1.2092  -1.1747
    -1.1488  -1.1328  -1.0928  -1.0660  -1.0466  -1.0420  -0.9947  -0.9800
    -0.9439  -0.9303  -0.8387  -0.8282  -0.8229  -0.8005  -0.7521  -0.6650
    -0.6342  -0.6276  -0.6111  -0.5958  -0.5510  -0.5462  -0.5309  -0.5043
    -0.4815  -0.4752  -0.4631  -0.4551  -0.4231  -0.3950  -0.3865  -0.3795
    -0.3754  -0.3680  -0.3144  -0.2906  -0.2748  -0.2329  -0.0612  -0.0016
     0.0280   0.0410   0.1321   0.1434   0.1562   0.1776   0.2205   0.2427
     0.2464   0.2519   0.3187   0.3470   0.3873   0.4018   0.4493   0.4606
     0.5105   0.5446   0.5892   0.7018   0.7451   0.7816   0.7972   0.8102
     0.8237   0.8812   0.9061   0.9320   0.9469   0.9566   0.9766   0.9897
     1.0445   1.1059   1.1147   1.1610   1.1738   1.2018   1.2094   1.2299
     1.2487   1.3772   1.4009   1.4456   1.5030   1.5574   1.6154   1.6390
     1.6714   1.7314   1.7692   1.7752   1.8355   1.8768   1.9397   1.9622
     1.9883   2.0023   2.0047   2.0241   2.0373   2.0788   2.1510   2.1633
     2.1746   2.2038   2.2143   2.2205   2.2240   2.2911   2.3952   2.4060
     2.4291   2.4307   2.4350   2.5020   2.5169   2.6296   2.7578   3.3649
     3.6048   3.6090   3.7959   3.8402   3.9672   3.9896   4.0138   4.2672
     4.5899   4.6143   4.8195   5.0606   5.0827   5.1753   5.2125   5.2882
     5.4131   5.5178   5.5937   5.8371   6.0192   6.0549   6.3650   6.6885
     6.7203

     the Fermi energy is     2.2019 ev

!    total energy              =  -27755.49034931 Ry
     total all-electron energy =  -1326642.255766 Ry
     estimated scf accuracy    <       0.00000075 Ry
     smearing contrib. (-TS)   =       0.00349104 Ry
     internal energy E=F+TS    =  -27755.49384034 Ry

     The total energy is F=E-TS. E is the sum of the following terms:
     one-electron contribution =  -22809.34520862 Ry
     hartree contribution      =   11707.53112479 Ry
     xc contribution           =    -890.78332747 Ry
     ewald contribution        =    9711.10410434 Ry
     one-center paw contrib.   =  -25474.00053339 Ry

     convergence has been achieved in  17 iterations

     negative rho (up, down):  3.418E-03 0.000E+00

     Forces acting on atoms (cartesian axes, Ry/au):

     atom    1 type  1   force =     0.00209005    0.00199936   -0.00543430
     atom    2 type  1   force =     0.00057307    0.00260001   -0.00499895
     atom    3 type  1   force =    -0.00377765    0.00285815   -0.00760442
     atom    4 type  1   force =     0.00162481   -0.00053212   -0.00466249
     atom    5 type  1   force =    -0.00033674   -0.00006555   -0.00316465
     atom    6 type  1   force =    -0.00226144    0.00075696   -0.00321775
     atom    7 type  1   force =     0.00108088   -0.00240061   -0.00487712
     atom    8 type  1   force =    -0.00065789   -0.00162099   -0.00374272
     atom    9 type  1   force =    -0.00258524   -0.00055580   -0.00461873
     atom   10 type  1   force =     0.00175410    0.00211054    0.00785958
     atom   11 type  1   force =     0.00302192    0.00143603    0.00034913
     atom   12 type  1   force =    -0.00230575    0.00277125    0.00288919
     atom   13 type  1   force =     0.00298427   -0.00125940    0.00606269
     atom   14 type  1   force =     0.00068135   -0.00108351    0.00311110
     atom   15 type  1   force =    -0.00155748   -0.00160674    0.00888099
     atom   16 type  1   force =     0.00274643   -0.00432849    0.00441408
     atom   17 type  1   force =     0.00029145   -0.00341124    0.00349424
     atom   18 type  1   force =    -0.00213006   -0.00103618    0.00248469
     atom   19 type  1   force =     0.00046076   -0.00038959    0.00002655
     atom   20 type  1   force =     0.00011121   -0.00003607    0.00008535
     atom   21 type  1   force =    -0.00011832   -0.00040136   -0.00021612
     atom   22 type  1   force =     0.00052440    0.00011174   -0.00026959
     atom   23 type  1   force =    -0.00018376    0.00034850   -0.00053345
     atom   24 type  1   force =     0.00014843   -0.00004092   -0.00030683
     atom   25 type  1   force =     0.00044208   -0.00014791   -0.00008994
     atom   26 type  1   force =    -0.00038495    0.00034467   -0.00032048
     atom   27 type  1   force =     0.00032300    0.00062332   -0.00015760
     atom   28 type  1   force =     0.00014352    0.00026454    0.00016788
     atom   29 type  1   force =     0.00028931    0.00089379    0.00037906
     atom   30 type  1   force =     0.00014480    0.00030773    0.00008605
     atom   31 type  1   force =     0.00179695    0.00004277    0.00129568
     atom   32 type  1   force =     0.00013587    0.00002350   -0.00057456
     atom   33 type  1   force =     0.00033168    0.00021922    0.00045624
     atom   34 type  1   force =     0.00026382    0.00028111    0.00026021
     atom   35 type  1   force =     0.00006585    0.00030418    0.00036587
     atom   36 type  1   force =     0.00018837    0.00018253    0.00057531
     atom   37 type  2   force =    -0.00591908    0.00043657    0.00154581
     The non-local contrib.  to forces
     atom    1 type  1   force =     0.00169203    0.00040101   -0.01738828
     atom    2 type  1   force =     0.00029202    0.00202182   -0.01706932
     atom    3 type  1   force =     0.00127834    0.00218799   -0.01515792
     atom    4 type  1   force =     0.00261229   -0.00063301   -0.01804276
     atom    5 type  1   force =    -0.00028712   -0.00001893   -0.01774116
     atom    6 type  1   force =    -0.00218655    0.00029931   -0.01802631
     atom    7 type  1   force =     0.00169975   -0.00145629   -0.01628249
     atom    8 type  1   force =    -0.00029694   -0.00144489   -0.01774555
     atom    9 type  1   force =    -0.00218563   -0.00103471   -0.01642689
     atom   10 type  1   force =     0.00290397    0.00013110    0.00184866
     atom   11 type  1   force =     0.00006657    0.00100694    0.00048550
     atom   12 type  1   force =     0.00125818    0.00228297    0.00108227
     atom   13 type  1   force =     0.00255555   -0.00061390    0.00059196
     atom   14 type  1   force =     0.00079992   -0.00014880    0.00021108
     atom   15 type  1   force =    -0.00088694   -0.00002670    0.00246523
     atom   16 type  1   force =     0.00223004   -0.00365246    0.00035267
     atom   17 type  1   force =     0.00033067   -0.00285919    0.00034869
     atom   18 type  1   force =    -0.00136918   -0.00425179    0.00080965
     atom   19 type  1   force =    -0.01002825   -0.00823428   -0.00928630
     atom   20 type  1   force =     0.00395327   -0.00220125    0.00583331
     atom   21 type  1   force =    -0.00013340   -0.00085264    0.00308347
     atom   22 type  1   force =     0.00199694    0.00791292   -0.00033235
     atom   23 type  1   force =     0.00187043    0.00201773    0.00030416
     atom   24 type  1   force =    -0.00080300    0.00123024    0.00286568
     atom   25 type  1   force =     0.00050515   -0.00132786    0.00371539
     atom   26 type  1   force =     0.00010598   -0.00204339    0.00091648
     atom   27 type  1   force =     0.00004212   -0.00000211    0.00232661
     atom   28 type  1   force =     0.00233338    0.00290398    0.01683776
     atom   29 type  1   force =    -0.00346040    0.01536730    0.02224028
     atom   30 type  1   force =    -0.00020173    0.00077334    0.01487720
     atom   31 type  1   force =    -0.01638053    0.00087225   -0.09724772
     atom   32 type  1   force =    -0.02875741    0.00320500    0.02520209
     atom   33 type  1   force =     0.00237923    0.00188976    0.01587560
     atom   34 type  1   force =    -0.00200040   -0.01614589    0.02400623
     atom   35 type  1   force =    -0.00108953    0.00165852    0.01509177
     atom   36 type  1   force =     0.00076046   -0.00148066    0.01669777
     atom   37 type  2   force =    -0.01869873   -0.00076478   -0.03444080
     The ionic contribution  to forces
     atom    1 type  1   force =     0.13590498    0.09328234  -96.27671584
     atom    2 type  1   force =     0.01091989    0.15065248  -96.23093314
     atom    3 type  1   force =    -0.12633566    0.22596222  -96.24171263
     atom    4 type  1   force =     0.12371838   -0.06077445  -96.20994391
     atom    5 type  1   force =     0.00973477    0.00549810  -96.16768357
     atom    6 type  1   force =    -0.12633062    0.07726498  -96.16456896
     atom    7 type  1   force =     0.12137218   -0.22877573  -96.24076021
     atom    8 type  1   force =     0.00433826   -0.16262707  -96.18725988
     atom    9 type  1   force =    -0.14104701   -0.09376118  -96.19285363
     atom   10 type  1   force =     0.05746680    0.14720270  -32.39598285
     atom   11 type  1   force =    -0.00629632    0.18078729  -32.50143492
     atom   12 type  1   force =     0.01691823    0.29387580  -32.31245699
     atom   13 type  1   force =     0.09282691   -0.10994844  -32.47575828
     atom   14 type  1   force =     0.01215688   -0.04875653  -32.55549374
     atom   15 type  1   force =    -0.09395169   -0.07143191  -32.38761740
     atom   16 type  1   force =     0.12643574   -0.19724473  -32.45632168
     atom   17 type  1   force =    -0.01484228   -0.14044600  -32.50579878
     atom   18 type  1   force =    -0.10025354   -0.13453635  -32.37792765
     atom   19 type  1   force =    -0.02808567   -0.02055760   32.68991792
     atom   20 type  1   force =    -0.05967291    0.09314239   32.06065791
     atom   21 type  1   force =     0.05423175   -0.03024174   31.72771735
     atom   22 type  1   force =     0.05232942   -0.10971653   32.19527690
     atom   23 type  1   force =    -0.03595366   -0.05609316   31.80746804
     atom   24 type  1   force =     0.01343572   -0.07103804   31.70594834
     atom   25 type  1   force =     0.00164005    0.06975117   31.76405153
     atom   26 type  1   force =    -0.03165002    0.04467110   31.79616669
     atom   27 type  1   force =     0.05172875    0.03677503   31.73269150
     atom   28 type  1   force =    -0.06492537   -0.11798968   95.42216857
     atom   29 type  1   force =     0.05665179   -0.19646155   95.06619884
     atom   30 type  1   force =     0.01159617   -0.01144852   95.49800776
     atom   31 type  1   force =    -0.98854217    0.06148373   95.29943734
     atom   32 type  1   force =     0.31507518    0.08187987   95.18029925
     atom   33 type  1   force =    -0.03037063    0.05206210   95.46888166
     atom   34 type  1   force =     0.12302479    0.15285152   95.03201088
     atom   35 type  1   force =    -0.02444180    0.01738083   95.46511899
     atom   36 type  1   force =    -0.09301553    0.04465771   95.35269807
     atom   37 type  2   force =     0.57420826    0.03266784   12.61650653
     The local contribution  to forces
     atom    1 type  1   force =    -0.13513341   -0.09140973   96.27060707
     atom    2 type  1   force =    -0.01065466   -0.14971149   96.22503764
     atom    3 type  1   force =     0.12080718   -0.22469398   96.23101738
     atom    4 type  1   force =    -0.12430182    0.06072564   96.20534457
     atom    5 type  1   force =    -0.00976044   -0.00549844   96.16444386
     atom    6 type  1   force =     0.12587460   -0.07663026   96.16161815
     atom    7 type  1   force =    -0.12167100    0.22722370   96.23424841
     atom    8 type  1   force =    -0.00466397    0.16203182   96.18351457
     atom    9 type  1   force =     0.14016080    0.09396324   96.18687859
     atom   10 type  1   force =    -0.05843093   -0.14492866   32.40051940
     atom   11 type  1   force =     0.00949799   -0.18003700   32.49936674
     atom   12 type  1   force =    -0.02038487   -0.29259223   32.31314499
     atom   13 type  1   force =    -0.09208576    0.10914570   32.47952200
     atom   14 type  1   force =    -0.01225029    0.04787817   32.55644598
     atom   15 type  1   force =     0.09291005    0.06985241   32.39265412
     atom   16 type  1   force =    -0.12548026    0.19588287   32.45863632
     atom   17 type  1   force =     0.01473230    0.13936438   32.50719040
     atom   18 type  1   force =     0.09912917    0.13739532   32.37815035
     atom   19 type  1   force =     0.03883503    0.02833991  -32.67903667
     atom   20 type  1   force =     0.05558458   -0.09067942  -32.06411286
     atom   21 type  1   force =    -0.05394240    0.03048551  -31.72956219
     atom   22 type  1   force =    -0.05348503    0.10158941  -32.19299897
     atom   23 type  1   force =     0.03393193    0.05445451  -31.80663189
     atom   24 type  1   force =    -0.01252819    0.06981986  -31.70760460
     atom   25 type  1   force =    -0.00168335   -0.06847707  -31.76626740
     atom   26 type  1   force =     0.03112009   -0.04245028  -31.79588550
     atom   27 type  1   force =    -0.05121981   -0.03625959  -31.73356252
     atom   28 type  1   force =     0.06296952    0.11530600  -95.42127809
     atom   29 type  1   force =    -0.05302667    0.18211253  -95.07106982
     atom   30 type  1   force =    -0.01134754    0.01096490  -95.49540169
     atom   31 type  1   force =     0.99600491   -0.06211268  -95.19932659
     atom   32 type  1   force =    -0.28567947   -0.08465409  -95.18993891
     atom   33 type  1   force =     0.02870103   -0.05346663  -95.46669837
     atom   34 type  1   force =    -0.12044943   -0.13669986  -95.03885173
     atom   35 type  1   force =     0.02539198   -0.01875778  -95.46249634
     atom   36 type  1   force =     0.09245878   -0.04339090  -95.35151432
     atom   37 type  2   force =    -0.56142321   -0.03146223  -12.58040759
     The core correction contribution to forces
     atom    1 type  1   force =    -0.00035090   -0.00026101    0.01752182
     atom    2 type  1   force =     0.00004005   -0.00040121    0.01742398
     atom    3 type  1   force =     0.00042863   -0.00057407    0.01775375
     atom    4 type  1   force =    -0.00041827    0.00017451    0.01736373
     atom    5 type  1   force =     0.00000341   -0.00004490    0.01728765
     atom    6 type  1   force =     0.00036514   -0.00010718    0.01719522
     atom    7 type  1   force =    -0.00032703    0.00057139    0.01741139
     atom    8 type  1   force =     0.00003806    0.00038347    0.01725318
     atom    9 type  1   force =     0.00041893    0.00025599    0.01723804
     atom   10 type  1   force =    -0.00015930   -0.00038439    0.00086584
     atom   11 type  1   force =    -0.00022621   -0.00032751    0.00126482
     atom   12 type  1   force =    -0.00015070   -0.00081192    0.00047056
     atom   13 type  1   force =    -0.00025938    0.00021878    0.00113186
     atom   14 type  1   force =    -0.00000084    0.00004529    0.00139129
     atom   15 type  1   force =     0.00029593    0.00013236    0.00082184
     atom   16 type  1   force =    -0.00036672    0.00062523    0.00123169
     atom   17 type  1   force =     0.00002957    0.00043427    0.00122807
     atom   18 type  1   force =     0.00033638    0.00033333    0.00087364
     atom   19 type  1   force =    -0.00019998    0.00018344   -0.00170552
     atom   20 type  1   force =     0.00017656   -0.00022903   -0.00252563
     atom   21 type  1   force =    -0.00024902    0.00032422   -0.00172678
     atom   22 type  1   force =    -0.00038338    0.00031351   -0.00240521
     atom   23 type  1   force =     0.00008058    0.00009145   -0.00194500
     atom   24 type  1   force =    -0.00000528    0.00007114   -0.00177327
     atom   25 type  1   force =     0.00004079   -0.00021855   -0.00182764
     atom   26 type  1   force =     0.00005096   -0.00005825   -0.00177396
     atom   27 type  1   force =    -0.00029734   -0.00007595   -0.00188696
     atom   28 type  1   force =    -0.00025235   -0.00008691   -0.01680754
     atom   29 type  1   force =     0.00011739   -0.00029023   -0.01626044
     atom   30 type  1   force =     0.00013636   -0.00005176   -0.01654939
     atom   31 type  1   force =     0.01056977   -0.00013146   -0.00117002
     atom   32 type  1   force =    -0.00038405   -0.00032963   -0.01540018
     atom   33 type  1   force =    -0.00039012   -0.00016526   -0.01687600
     atom   34 type  1   force =    -0.00026581    0.00037242   -0.01619854
     atom   35 type  1   force =     0.00022408    0.00003883   -0.01666282
     atom   36 type  1   force =    -0.00006993    0.00039141   -0.01663943
     atom   37 type  2   force =     0.00000000    0.00000000    0.00000000
     The Hubbard contrib.    to forces
     atom    1 type  1   force =     0.00000000    0.00000000    0.00000000
     atom    2 type  1   force =     0.00000000    0.00000000    0.00000000
     atom    3 type  1   force =     0.00000000    0.00000000    0.00000000
     atom    4 type  1   force =     0.00000000    0.00000000    0.00000000
     atom    5 type  1   force =     0.00000000    0.00000000    0.00000000
     atom    6 type  1   force =     0.00000000    0.00000000    0.00000000
     atom    7 type  1   force =     0.00000000    0.00000000    0.00000000
     atom    8 type  1   force =     0.00000000    0.00000000    0.00000000
     atom    9 type  1   force =     0.00000000    0.00000000    0.00000000
     atom   10 type  1   force =     0.00000000    0.00000000    0.00000000
     atom   11 type  1   force =     0.00000000    0.00000000    0.00000000
     atom   12 type  1   force =     0.00000000    0.00000000    0.00000000
     atom   13 type  1   force =     0.00000000    0.00000000    0.00000000
     atom   14 type  1   force =     0.00000000    0.00000000    0.00000000
     atom   15 type  1   force =     0.00000000    0.00000000    0.00000000
     atom   16 type  1   force =     0.00000000    0.00000000    0.00000000
     atom   17 type  1   force =     0.00000000    0.00000000    0.00000000
     atom   18 type  1   force =     0.00000000    0.00000000    0.00000000
     atom   19 type  1   force =     0.00000000    0.00000000    0.00000000
     atom   20 type  1   force =     0.00000000    0.00000000    0.00000000
     atom   21 type  1   force =     0.00000000    0.00000000    0.00000000
     atom   22 type  1   force =     0.00000000    0.00000000    0.00000000
     atom   23 type  1   force =     0.00000000    0.00000000    0.00000000
     atom   24 type  1   force =     0.00000000    0.00000000    0.00000000
     atom   25 type  1   force =     0.00000000    0.00000000    0.00000000
     atom   26 type  1   force =     0.00000000    0.00000000    0.00000000
     atom   27 type  1   force =     0.00000000    0.00000000    0.00000000
     atom   28 type  1   force =     0.00000000    0.00000000    0.00000000
     atom   29 type  1   force =     0.00000000    0.00000000    0.00000000
     atom   30 type  1   force =     0.00000000    0.00000000    0.00000000
     atom   31 type  1   force =     0.00000000    0.00000000    0.00000000
     atom   32 type  1   force =     0.00000000    0.00000000    0.00000000
     atom   33 type  1   force =     0.00000000    0.00000000    0.00000000
     atom   34 type  1   force =     0.00000000    0.00000000    0.00000000
     atom   35 type  1   force =     0.00000000    0.00000000    0.00000000
     atom   36 type  1   force =     0.00000000    0.00000000    0.00000000
     atom   37 type  2   force =     0.00000000    0.00000000    0.00000000
     The SCF correction term to forces
     atom    1 type  1   force =    -0.00000000   -0.00000000    0.00000000
     atom    2 type  1   force =    -0.00000000    0.00000000    0.00000000
     atom    3 type  1   force =     0.00000000   -0.00000000    0.00000000
     atom    4 type  1   force =     0.00000000   -0.00000000    0.00000000
     atom    5 type  1   force =    -0.00000000   -0.00000000    0.00000000
     atom    6 type  1   force =     0.00000000   -0.00000000    0.00000000
     atom    7 type  1   force =     0.00000000    0.00000000    0.00000000
     atom    8 type  1   force =    -0.00000000    0.00000000    0.00000000
     atom    9 type  1   force =     0.00000000    0.00000000    0.00000000
     atom   10 type  1   force =    -0.00000000    0.00000000    0.00000000
     atom   11 type  1   force =    -0.00000000    0.00000000    0.00000000
     atom   12 type  1   force =     0.00000000    0.00000000    0.00000000
     atom   13 type  1   force =    -0.00000000   -0.00000000    0.00000000
     atom   14 type  1   force =    -0.00000000   -0.00000000    0.00000000
     atom   15 type  1   force =     0.00000000   -0.00000000    0.00000000
     atom   16 type  1   force =    -0.00000000    0.00000000    0.00000000
     atom   17 type  1   force =     0.00000000    0.00000000    0.00000000
     atom   18 type  1   force =     0.00000000    0.00000000    0.00000000
     atom   19 type  1   force =    -0.00005994   -0.00012096    0.00019646
     atom   20 type  1   force =     0.00007015   -0.00006866    0.00029197
     atom   21 type  1   force =    -0.00002481   -0.00011661    0.00033138
     atom   22 type  1   force =     0.00006687    0.00001253    0.00024938
     atom   23 type  1   force =    -0.00011261   -0.00012192    0.00033058
     atom   24 type  1   force =     0.00004961   -0.00012402    0.00031637
     atom   25 type  1   force =    -0.00006012    0.00012451    0.00029753
     atom   26 type  1   force =    -0.00001152    0.00022561    0.00031516
     atom   27 type  1   force =     0.00006972    0.00018604    0.00033311
     atom   28 type  1   force =     0.00001879    0.00013124   -0.00069348
     atom   29 type  1   force =     0.00000764    0.00016584   -0.00067044
     atom   30 type  1   force =    -0.00003802    0.00006988   -0.00078848
     atom   31 type  1   force =     0.00014540   -0.00006897   -0.00033798
     atom   32 type  1   force =    -0.00011794   -0.00007755   -0.00067746
     atom   33 type  1   force =     0.00001259   -0.00010066   -0.00066730
     atom   34 type  1   force =    -0.00004490   -0.00009698   -0.00064728
     atom   35 type  1   force =    -0.00001843   -0.00001612   -0.00062638
     atom   36 type  1   force =     0.00005503    0.00000507   -0.00060743
     atom   37 type  2   force =    -0.00000497   -0.00000417   -0.00005299

     Total force =     0.006928     Total SCF correction =     0.002210
     SCF correction compared to forces is large: reduce conv_thr to get better values

     Writing all to output data dir ./pwscf.save/

     init_run     :     22.83s CPU     23.30s WALL (       1 calls)
     electrons    :    465.93s CPU    492.01s WALL (       1 calls)
     forces       :     14.51s CPU     15.62s WALL (       1 calls)

     Called by init_run:
     wfcinit      :     18.39s CPU     18.73s WALL (       1 calls)
     potinit      :      3.02s CPU      3.10s WALL (       1 calls)
     hinit0       :      0.82s CPU      0.83s WALL (       1 calls)

     Called by electrons:
     c_bands      :    396.79s CPU    415.83s WALL (      18 calls)
     sum_band     :     38.54s CPU     39.95s WALL (      18 calls)
     v_of_rho     :     13.18s CPU     15.15s WALL (      18 calls)
     newd         :      5.94s CPU      6.58s WALL (      18 calls)
     PAW_pot      :      9.49s CPU     12.04s WALL (      18 calls)
     mix_rho      :      3.72s CPU      3.83s WALL (      18 calls)
     vdW_kernel   :      1.67s CPU      1.69s WALL (       1 calls)

     Called by c_bands:
     init_us_2    :      2.48s CPU      2.52s WALL (     494 calls)
     init_us_2:cp :      2.47s CPU      2.52s WALL (     494 calls)
     cegterg      :    389.42s CPU    407.97s WALL (     234 calls)

     Called by *egterg:
     cdiaghg      :     67.88s CPU     70.23s WALL (    1153 calls)
     h_psi        :    226.80s CPU    238.45s WALL (    1179 calls)
     s_psi        :     13.56s CPU     13.88s WALL (    1179 calls)
     g_psi        :      0.44s CPU      0.45s WALL (     932 calls)

     Called by h_psi:
     h_psi:calbec :     28.54s CPU     29.48s WALL (    1179 calls)
     vloc_psi     :    183.11s CPU    193.49s WALL (    1179 calls)
     add_vuspsi   :     14.04s CPU     14.37s WALL (    1179 calls)

     General routines
     calbec       :     37.50s CPU     38.68s WALL (    1465 calls)
     fft          :     15.14s CPU     17.51s WALL (    1194 calls)
     ffts         :      2.43s CPU      2.46s WALL (    4374 calls)
     fftw         :    189.62s CPU    198.64s WALL (  308330 calls)
     interpolate  :      0.98s CPU      1.16s WALL (      18 calls)

     Parallel routines

     PWSCF        :   8m24.92s CPU   8m55.81s WALL


   This run was terminated on:  14: 1: 8   4Feb2025            

=------------------------------------------------------------------------------=
   JOB DONE.
=------------------------------------------------------------------------------=
