  37  37   0   0
  0.4190497E+02  0.8468310E-09  0.8468310E-09  0.2496566E-08  0.5000000E-15
  1.000000000000000E-004
  CAR 
 unknown system                          
      8.71966466     -9.89267433  301     -0.07166982      1.00000000
     -9.893  0.0000E+00  0.0000E+00
     -9.831  0.0000E+00  0.0000E+00
     -9.769  0.0000E+00  0.0000E+00
     -9.707 -0.5057E-28 -0.3138E-29
     -9.645 -0.7729E-24 -0.4795E-25
     -9.582 -0.5433E-20 -0.3371E-21
     -9.520 -0.1754E-16 -0.1089E-17
     -9.458 -0.2518E-13 -0.1563E-14
     -9.396 -0.1690E-10 -0.1050E-11
     -9.334 -0.5150E-08 -0.3206E-09
     -9.272 -0.7065E-06 -0.4415E-07
     -9.210 -0.4295E-04 -0.2709E-05
     -9.148 -0.1120E-02 -0.7222E-04
     -9.086 -0.1155E-01 -0.7890E-03
     -9.024 -0.3375E-01 -0.2883E-02
     -8.962  0.6738E-01  0.1297E-02
     -8.900  0.3496E+00  0.2299E-01
     -8.838  0.6517E+00  0.6341E-01
     -8.776  0.2229E+01  0.2017E+00
     -8.714  0.3821E+01  0.4388E+00
     -8.652  0.2006E+01  0.5632E+00
     -8.590 -0.1194E+00  0.5558E+00
     -8.528  0.3359E+00  0.5766E+00
     -8.466  0.2782E+01  0.7492E+00
     -8.404  0.3781E+01  0.9838E+00
     -8.342  0.3559E+01  0.1205E+01
     -8.280  0.3673E+01  0.1432E+01
     -8.218  0.1625E+01  0.1533E+01
     -8.156 -0.7629E-01  0.1528E+01
     -8.093 -0.3659E+00  0.1506E+01
     -8.031 -0.2694E+00  0.1489E+01
     -7.969  0.2460E+01  0.1642E+01
     -7.907  0.7130E+01  0.2084E+01
     -7.845  0.5660E+01  0.2435E+01
     -7.783  0.9688E+00  0.2495E+01
     -7.721  0.1454E+01  0.2586E+01
     -7.659  0.4124E+01  0.2841E+01
     -7.597  0.3831E+01  0.3079E+01
     -7.535  0.3661E+01  0.3306E+01
     -7.473  0.2725E+01  0.3475E+01
     -7.411  0.4558E+00  0.3504E+01
     -7.349  0.2609E+01  0.3665E+01
     -7.287  0.7921E+01  0.4157E+01
     -7.225  0.1077E+02  0.4825E+01
     -7.163  0.1087E+02  0.5499E+01
     -7.101  0.6066E+01  0.5876E+01
     -7.039  0.1652E+01  0.5978E+01
     -6.977  0.3417E+01  0.6190E+01
     -6.915  0.5816E+01  0.6551E+01
     -6.853  0.4059E+01  0.6803E+01
     -6.791  0.1433E+01  0.6892E+01
     -6.729  0.4512E+01  0.7172E+01
     -6.667  0.1118E+02  0.7865E+01
     -6.604  0.1539E+02  0.8821E+01
     -6.542  0.1912E+02  0.1001E+02
     -6.480  0.1446E+02  0.1090E+02
     -6.418  0.6587E+01  0.1131E+02
     -6.356  0.7524E+01  0.1178E+02
     -6.294  0.1319E+02  0.1260E+02
     -6.232  0.1757E+02  0.1369E+02
     -6.170  0.2390E+02  0.1517E+02
     -6.108  0.3390E+02  0.1727E+02
     -6.046  0.3495E+02  0.1944E+02
     -5.984  0.3018E+02  0.2131E+02
     -5.922  0.3124E+02  0.2325E+02
     -5.860  0.3453E+02  0.2539E+02
     -5.798  0.3180E+02  0.2737E+02
     -5.736  0.2609E+02  0.2899E+02
     -5.674  0.3004E+02  0.3085E+02
     -5.612  0.3833E+02  0.3323E+02
     -5.550  0.4269E+02  0.3588E+02
     -5.488  0.4629E+02  0.3875E+02
     -5.426  0.5625E+02  0.4224E+02
     -5.364  0.6238E+02  0.4611E+02
     -5.302  0.5956E+02  0.4980E+02
     -5.240  0.5233E+02  0.5305E+02
     -5.178  0.4628E+02  0.5592E+02
     -5.116  0.4386E+02  0.5864E+02
     -5.053  0.5780E+02  0.6223E+02
     -4.991  0.7065E+02  0.6661E+02
     -4.929  0.4886E+02  0.6964E+02
     -4.867  0.2550E+02  0.7122E+02
     -4.805  0.3341E+02  0.7330E+02
     -4.743  0.4428E+02  0.7604E+02
     -4.681  0.3069E+02  0.7795E+02
     -4.619  0.2005E+02  0.7919E+02
     -4.557  0.3051E+02  0.8108E+02
     -4.495  0.5102E+02  0.8425E+02
     -4.433  0.6331E+02  0.8818E+02
     -4.371  0.5891E+02  0.9183E+02
     -4.309  0.4902E+02  0.9487E+02
     -4.247  0.4628E+02  0.9775E+02
     -4.185  0.4462E+02  0.1005E+03
     -4.123  0.5031E+02  0.1036E+03
     -4.061  0.6039E+02  0.1074E+03
     -3.999  0.5244E+02  0.1106E+03
     -3.937  0.4163E+02  0.1132E+03
     -3.875  0.4004E+02  0.1157E+03
     -3.813  0.3793E+02  0.1181E+03
     -3.751  0.3633E+02  0.1203E+03
     -3.689  0.5008E+02  0.1234E+03
     -3.627  0.6428E+02  0.1274E+03
     -3.564  0.6131E+02  0.1312E+03
     -3.502  0.5646E+02  0.1347E+03
     -3.440  0.6239E+02  0.1386E+03
     -3.378  0.7477E+02  0.1432E+03
     -3.316  0.7750E+02  0.1480E+03
     -3.254  0.7160E+02  0.1525E+03
     -3.192  0.6857E+02  0.1567E+03
     -3.130  0.8056E+02  0.1617E+03
     -3.068  0.8678E+02  0.1671E+03
     -3.006  0.7687E+02  0.1719E+03
     -2.944  0.7671E+02  0.1766E+03
     -2.882  0.7657E+02  0.1814E+03
     -2.820  0.7839E+02  0.1862E+03
     -2.758  0.9603E+02  0.1922E+03
     -2.696  0.1071E+03  0.1989E+03
     -2.634  0.9191E+02  0.2046E+03
     -2.572  0.6542E+02  0.2086E+03
     -2.510  0.6233E+02  0.2125E+03
     -2.448  0.6447E+02  0.2165E+03
     -2.386  0.5046E+02  0.2196E+03
     -2.324  0.3334E+02  0.2217E+03
     -2.262  0.2614E+02  0.2233E+03
     -2.200  0.2990E+02  0.2252E+03
     -2.138  0.3993E+02  0.2276E+03
     -2.075  0.5672E+02  0.2312E+03
     -2.013  0.7971E+02  0.2361E+03
     -1.951  0.9200E+02  0.2418E+03
     -1.889  0.8388E+02  0.2470E+03
     -1.827  0.6569E+02  0.2511E+03
     -1.765  0.4838E+02  0.2541E+03
     -1.703  0.4392E+02  0.2568E+03
     -1.641  0.4620E+02  0.2597E+03
     -1.579  0.5193E+02  0.2629E+03
     -1.517  0.5836E+02  0.2665E+03
     -1.455  0.5767E+02  0.2701E+03
     -1.393  0.5823E+02  0.2737E+03
     -1.331  0.6029E+02  0.2775E+03
     -1.269  0.5393E+02  0.2808E+03
     -1.207  0.5131E+02  0.2840E+03
     -1.145  0.6803E+02  0.2882E+03
     -1.083  0.8346E+02  0.2934E+03
     -1.021  0.8593E+02  0.2987E+03
     -0.959  0.7461E+02  0.3033E+03
     -0.897  0.5878E+02  0.3070E+03
     -0.835  0.5707E+02  0.3105E+03
     -0.773  0.5304E+02  0.3138E+03
     -0.711  0.4247E+02  0.3165E+03
     -0.649  0.4793E+02  0.3194E+03
     -0.587  0.6252E+02  0.3233E+03
     -0.524  0.6247E+02  0.3272E+03
     -0.462  0.5946E+02  0.3309E+03
     -0.400  0.6580E+02  0.3350E+03
     -0.338  0.8197E+02  0.3400E+03
     -0.276  0.9401E+02  0.3459E+03
     -0.214  0.7726E+02  0.3507E+03
     -0.152  0.5722E+02  0.3542E+03
     -0.090  0.7965E+02  0.3592E+03
     -0.028  0.9762E+02  0.3652E+03
      0.034  0.6240E+02  0.3691E+03
      0.096  0.3318E+02  0.3711E+03
      0.158  0.4928E+02  0.3742E+03
      0.220  0.5791E+02  0.3778E+03
      0.282  0.4433E+02  0.3805E+03
      0.344  0.3768E+02  0.3829E+03
      0.406  0.2813E+02  0.3846E+03
      0.468  0.1533E+02  0.3856E+03
      0.530  0.6401E+01  0.3860E+03
      0.592  0.3180E+01  0.3862E+03
      0.654  0.4410E+01  0.3864E+03
      0.716  0.9908E+01  0.3871E+03
      0.778  0.1475E+02  0.3880E+03
      0.840  0.1145E+02  0.3887E+03
      0.902  0.7708E+01  0.3892E+03
      0.965  0.1100E+02  0.3898E+03
      1.027  0.1047E+02  0.3905E+03
      1.089  0.4724E+01  0.3908E+03
      1.151  0.4835E+01  0.3911E+03
      1.213  0.1013E+02  0.3917E+03
      1.275  0.1229E+02  0.3925E+03
      1.337  0.1125E+02  0.3932E+03
      1.399  0.9574E+01  0.3938E+03
      1.461  0.1291E+02  0.3946E+03
      1.523  0.2541E+02  0.3961E+03
      1.585  0.2667E+02  0.3978E+03
      1.647  0.1920E+02  0.3990E+03
      1.709  0.1649E+02  0.4000E+03
      1.771  0.1015E+02  0.4006E+03
      1.833  0.1838E+01  0.4008E+03
      1.895  0.2788E+01  0.4009E+03
      1.957  0.7592E+01  0.4014E+03
      2.019  0.7012E+01  0.4018E+03
      2.081  0.3805E+01  0.4021E+03
      2.143  0.3341E+01  0.4023E+03
      2.205  0.8136E+01  0.4028E+03
      2.267  0.1149E+02  0.4035E+03
      2.329  0.1194E+02  0.4042E+03
      2.391  0.1526E+02  0.4052E+03
      2.454  0.2140E+02  0.4065E+03
      2.516  0.1987E+02  0.4077E+03
      2.578  0.1012E+02  0.4084E+03
      2.640  0.6425E+01  0.4088E+03
      2.702  0.8075E+01  0.4093E+03
      2.764  0.1351E+02  0.4101E+03
      2.826  0.1859E+02  0.4113E+03
      2.888  0.1566E+02  0.4122E+03
      2.950  0.1101E+02  0.4129E+03
      3.012  0.8024E+01  0.4134E+03
      3.074  0.1216E+02  0.4142E+03
      3.136  0.1587E+02  0.4152E+03
      3.198  0.1188E+02  0.4159E+03
      3.260  0.8832E+01  0.4164E+03
      3.322  0.6810E+01  0.4169E+03
      3.384  0.3963E+01  0.4171E+03
      3.446  0.4829E+01  0.4174E+03
      3.508  0.7809E+01  0.4179E+03
      3.570  0.1062E+02  0.4186E+03
      3.632  0.1610E+02  0.4196E+03
      3.694  0.2221E+02  0.4209E+03
      3.756  0.2018E+02  0.4222E+03
      3.818  0.1121E+02  0.4229E+03
      3.880  0.4719E+01  0.4232E+03
      3.942  0.3951E+01  0.4234E+03
      4.005  0.6239E+01  0.4238E+03
      4.067  0.8286E+01  0.4243E+03
      4.129  0.8033E+01  0.4248E+03
      4.191  0.5472E+01  0.4252E+03
      4.253  0.3348E+01  0.4254E+03
      4.315  0.5633E+01  0.4257E+03
      4.377  0.1666E+02  0.4267E+03
      4.439  0.2609E+02  0.4284E+03
      4.501  0.1889E+02  0.4295E+03
      4.563  0.8792E+01  0.4301E+03
      4.625  0.8195E+01  0.4306E+03
      4.687  0.1132E+02  0.4313E+03
      4.749  0.1349E+02  0.4321E+03
      4.811  0.1104E+02  0.4328E+03
      4.873  0.6681E+01  0.4332E+03
      4.935  0.6367E+01  0.4336E+03
      4.997  0.1175E+02  0.4344E+03
      5.059  0.1238E+02  0.4351E+03
      5.121  0.7216E+01  0.4356E+03
      5.183  0.8144E+01  0.4361E+03
      5.245  0.1313E+02  0.4369E+03
      5.307  0.1409E+02  0.4378E+03
      5.369  0.8436E+01  0.4383E+03
      5.431  0.7289E+01  0.4387E+03
      5.494  0.1734E+02  0.4398E+03
      5.556  0.2372E+02  0.4413E+03
      5.618  0.2177E+02  0.4426E+03
      5.680  0.2283E+02  0.4441E+03
      5.742  0.2640E+02  0.4457E+03
      5.804  0.2231E+02  0.4471E+03
      5.866  0.1454E+02  0.4480E+03
      5.928  0.1583E+02  0.4490E+03
      5.990  0.2615E+02  0.4506E+03
      6.052  0.3201E+02  0.4526E+03
      6.114  0.2321E+02  0.4540E+03
      6.176  0.1342E+02  0.4548E+03
      6.238  0.1719E+02  0.4559E+03
      6.300  0.2573E+02  0.4575E+03
      6.362  0.2990E+02  0.4594E+03
      6.424  0.2125E+02  0.4607E+03
      6.486  0.1198E+02  0.4614E+03
      6.548  0.1857E+02  0.4626E+03
      6.610  0.2933E+02  0.4644E+03
      6.672  0.2964E+02  0.4662E+03
      6.734  0.2581E+02  0.4678E+03
      6.796  0.1984E+02  0.4691E+03
      6.858  0.1445E+02  0.4700E+03
      6.920  0.1760E+02  0.4711E+03
      6.983  0.1864E+02  0.4722E+03
      7.045  0.1304E+02  0.4730E+03
      7.107  0.1574E+02  0.4740E+03
      7.169  0.2403E+02  0.4755E+03
      7.231  0.2523E+02  0.4771E+03
      7.293  0.1639E+02  0.4781E+03
      7.355  0.6069E+01  0.4784E+03
      7.417  0.1214E+01  0.4785E+03
      7.479  0.3554E+01  0.4787E+03
      7.541  0.7487E+01  0.4792E+03
      7.603  0.7136E+01  0.4796E+03
      7.665  0.4079E+01  0.4799E+03
      7.727  0.1382E+01  0.4800E+03
      7.789  0.2975E+00  0.4800E+03
      7.851 -0.9436E-02  0.4800E+03
      7.913 -0.4588E-01  0.4800E+03
      7.975 -0.1225E-01  0.4800E+03
      8.037 -0.1137E-02  0.4800E+03
      8.099 -0.4313E-04  0.4800E+03
      8.161 -0.7073E-06  0.4800E+03
      8.223 -0.5152E-08  0.4800E+03
      8.285 -0.1690E-10  0.4800E+03
      8.347 -0.2520E-13  0.4800E+03
      8.409  0.0000E+00  0.4800E+03
      8.472  0.0000E+00  0.4800E+03
      8.534  0.0000E+00  0.4800E+03
      8.596  0.0000E+00  0.4800E+03
      8.658  0.0000E+00  0.4800E+03
      8.720  0.0000E+00  0.4800E+03
