   37   37    1    1
  0.4190497E+02  0.8468310E-09  0.8468310E-09  0.2496566E-08  0.5000000E-15
  1.000000000000000E-004
  CAR 
 unknown system                          
    361     13    240
 
  0.1276756E-14  0.1276756E-14  0.1276756E-14  0.4000000E-01
      1         -8.892674   1.000000
      2         -7.678133   1.000000
      3         -6.789931   1.000000
      4         -6.496245   1.000000
      5         -6.473575   1.000000
      6         -6.458716   1.000000
      7         -6.454015   1.000000
      8         -6.450739   1.000000
      9         -6.439833   1.000000
     10         -6.431879   1.000000
     11         -6.107361   1.000000
     12         -5.920037   1.000000
     13         -5.915267   1.000000
     14         -5.906459   1.000000
     15         -5.899071   1.000000
     16         -5.895573   1.000000
     17         -5.791662   1.000000
     18         -5.459936   1.000000
     19         -5.457793   1.000000
     20         -5.451505   1.000000
     21         -5.449176   1.000000
     22         -5.447882   1.000000
     23         -5.347708   1.000000
     24         -5.227295   1.000000
     25         -5.225805   1.000000
     26         -5.223328   1.000000
     27         -5.219811   1.000000
     28         -5.214669   1.000000
     29         -5.111767   1.000000
     30         -5.030308   1.000000
     31         -5.021784   1.000000
     32         -5.016893   1.000000
     33         -5.013599   1.000000
     34         -5.012858   1.000000
     35         -4.971471   1.000000
     36         -4.966610   1.000000
     37         -4.957977   1.000000
     38         -4.954041   1.000000
     39         -4.927139   1.000000
     40         -4.914827   1.000000
     41         -4.689475   1.000000
     42         -4.379806   1.000000
     43         -4.379191   1.000000
     44         -4.343497   1.000000
     45         -4.341658   1.000000
     46         -4.322118   1.000000
     47         -4.320327   1.000000
     48         -4.305583   1.000000
     49         -4.290657   1.000000
     50         -4.288894   1.000000
     51         -4.206154   1.000000
     52         -4.137179   1.000000
     53         -4.129544   1.000000
     54         -4.044319   1.000000
     55         -4.024226   1.000000
     56         -3.590056   1.000000
     57         -3.569497   1.000000
     58         -3.564801   1.000000
     59         -3.557514   1.000000
     60         -3.555997   1.000000
     61         -3.496605   1.000000
     62         -3.484919   1.000000
     63         -3.383083   1.000000
     64         -3.375238   1.000000
     65         -3.373327   1.000000
     66         -3.372991   1.000000
     67         -3.364169   1.000000
     68         -3.361882   1.000000
     69         -3.348745   1.000000
     70         -3.320743   1.000000
     71         -3.308312   1.000000
     72         -3.304964   1.000000
     73         -3.299318   1.000000
     74         -3.293120   1.000000
     75         -3.267200   1.000000
     76         -3.261879   1.000000
     77         -3.258274   1.000000
     78         -3.157156   1.000000
     79         -3.146122   1.000000
     80         -3.141685   1.000000
     81         -3.135118   1.000000
     82         -3.132712   1.000000
     83         -3.084654   1.000000
     84         -2.943768   1.000000
     85         -2.936928   1.000000
     86         -2.929120   1.000000
     87         -2.923143   1.000000
     88         -2.913495   1.000000
     89         -2.900598   1.000000
     90         -2.899692   1.000000
     91         -2.891294   1.000000
     92         -2.841465   1.000000
     93         -2.816816   1.000000
     94         -2.781336   1.000000
     95         -2.775385   1.000000
     96         -2.737939   1.000000
     97         -2.736210   1.000000
     98         -2.690058   1.000000
     99         -2.686460   1.000000
    100         -2.684097   1.000000
    101         -2.617468   1.000000
    102         -2.535168   1.000000
    103         -2.519984   1.000000
    104         -2.516634   1.000000
    105         -2.507064   1.000000
    106         -2.501736   1.000000
    107         -2.492645   1.000000
    108         -2.245591   1.000000
    109         -2.025940   1.000000
    110         -2.008338   1.000000
    111         -1.997859   1.000000
    112         -1.993036   1.000000
    113         -1.985240   1.000000
    114         -1.982696   1.000000
    115         -1.979206   1.000000
    116         -1.962390   1.000000
    117         -1.952604   1.000000
    118         -1.950381   1.000000
    119         -1.944650   1.000000
    120         -1.874187   1.000000
    121         -1.857907   1.000000
    122         -1.822672   1.000000
    123         -1.729814   1.000000
    124         -1.717092   1.000000
    125         -1.713295   1.000000
    126         -1.709131   1.000000
    127         -1.705174   1.000000
    128         -1.620250   1.000000
    129         -1.581628   1.000000
    130         -1.534341   1.000000
    131         -1.532971   1.000000
    132         -1.521019   1.000000
    133         -1.492340   1.000000
    134         -1.334571   1.000000
    135         -1.278609   1.000000
    136         -1.268011   1.000000
    137         -1.261581   1.000000
    138         -1.253109   1.000000
    139         -1.245078   1.000000
    140         -1.199919   1.000000
    141         -1.175912   1.000000
    142         -1.152443   1.000000
    143         -1.031163   1.000000
    144         -1.028891   1.000000
    145         -1.024103   1.000000
    146         -1.017552   1.000000
    147         -1.013123   1.000000
    148         -0.926520   1.000000
    149         -0.862648   1.000000
    150         -0.857577   1.000000
    151         -0.842184   1.000000
    152         -0.830799   1.000000
    153         -0.828872   1.000000
    154         -0.814780   1.000000
    155         -0.809984   1.000000
    156         -0.803711   1.000000
    157         -0.802442   1.000000
    158         -0.796946   1.000000
    159         -0.795316   1.000000
    160         -0.727679   1.000000
    161         -0.704427   1.000000
    162         -0.690443   1.000000
    163         -0.672538   1.000000
    164         -0.662020   1.000000
    165         -0.652341   1.000000
    166         -0.647890   1.000000
    167         -0.635977   1.000000
    168         -0.597969   1.000000
    169         -0.592598   1.000000
    170         -0.564021   1.000000
    171         -0.558264   1.000000
    172         -0.551967   1.000000
    173         -0.543617   1.000000
    174         -0.541641   1.000000
    175         -0.539637   1.000000
    176         -0.458921   1.000000
    177         -0.445412   1.000001
    178         -0.440033   1.000001
    179         -0.437965   1.000001
    180         -0.429662   1.000003
    181         -0.422431   1.000004
    182         -0.419125   1.000005
    183         -0.351691   1.000273
    184         -0.329682   1.000804
    185         -0.318742   1.001318
    186         -0.317529   1.001390
    187         -0.307199   1.002157
    188         -0.302736   1.002587
    189         -0.113202   0.820112
    190         -0.100282   0.731495
    191         -0.015739   0.099082
    192         -0.012451   0.083523
    193          0.004493   0.020432
    194          0.009448   0.007148
    195          0.012945  -0.000929
    196          0.015976  -0.007106
    197          0.445338  -0.000000
    198          0.817044  -0.000000
    199          0.864677  -0.000000
    200          0.873166  -0.000000
    201          0.900748  -0.000000
    202          0.906217  -0.000000
    203          0.909365  -0.000000
    204          2.659751   0.000000
    205          3.147056   0.000000
    206          3.176093   0.000000
    207          3.203553   0.000000
    208          3.219384   0.000000
    209          3.230397   0.000000
    210          4.474311   0.000000
    211          4.751418   0.000000
    212          4.766796   0.000000
    213          4.816676   0.000000
    214          4.823222   0.000000
    215          4.828840   0.000000
    216          4.892465   0.000000
    217          5.033222   0.000000
    218          5.116596   0.000000
    219          5.478529   0.000000
    220          5.508734   0.000000
    221          5.797773   0.000000
    222          5.807515   0.000000
    223          5.848624   0.000000
    224          5.858790   0.000000
    225          5.871242   0.000000
    226          6.144906   0.000000
    227          6.389443   0.000000
    228          6.622533   0.000000
    229          6.625703   0.000000
    230          6.628556   0.000000
    231          6.804129   0.000000
    232          6.930670   0.000000
    233          7.124436   0.000000
    234          7.142253   0.000000
    235          7.160890   0.000000
    236          7.166207   0.000000
    237          7.171976   0.000000
    238          7.191817   0.000000
    239          7.294109   0.000000
    240          7.719665   0.000000
 
  0.2000000E+00  0.1278043E-14  0.1276756E-14  0.8000000E-01
      1         -8.744197   1.000000
      2         -7.536144   1.000000
      3         -6.970708   1.000000
      4         -6.706301   1.000000
      5         -6.559753   1.000000
      6         -6.537513   1.000000
      7         -6.354905   1.000000
      8         -6.266479   1.000000
      9         -6.225709   1.000000
     10         -6.216902   1.000000
     11         -6.098484   1.000000
     12         -6.013471   1.000000
     13         -5.973359   1.000000
     14         -5.844543   1.000000
     15         -5.834318   1.000000
     16         -5.824550   1.000000
     17         -5.696327   1.000000
     18         -5.539258   1.000000
     19         -5.420985   1.000000
     20         -5.415272   1.000000
     21         -5.406758   1.000000
     22         -5.389678   1.000000
     23         -5.332544   1.000000
     24         -5.305086   1.000000
     25         -5.273396   1.000000
     26         -5.229593   1.000000
     27         -5.216872   1.000000
     28         -5.211877   1.000000
     29         -5.148747   1.000000
     30         -5.120142   1.000000
     31         -5.113499   1.000000
     32         -5.031413   1.000000
     33         -5.017826   1.000000
     34         -5.009526   1.000000
     35         -5.008066   1.000000
     36         -4.864179   1.000000
     37         -4.808810   1.000000
     38         -4.783630   1.000000
     39         -4.770916   1.000000
     40         -4.754649   1.000000
     41         -4.665030   1.000000
     42         -4.498496   1.000000
     43         -4.496134   1.000000
     44         -4.457380   1.000000
     45         -4.414433   1.000000
     46         -4.396410   1.000000
     47         -4.390281   1.000000
     48         -4.325786   1.000000
     49         -4.212819   1.000000
     50         -4.205149   1.000000
     51         -4.120816   1.000000
     52         -4.110808   1.000000
     53         -4.074407   1.000000
     54         -4.053416   1.000000
     55         -4.033636   1.000000
     56         -3.835417   1.000000
     57         -3.743903   1.000000
     58         -3.734310   1.000000
     59         -3.679813   1.000000
     60         -3.663487   1.000000
     61         -3.606213   1.000000
     62         -3.586508   1.000000
     63         -3.558926   1.000000
     64         -3.550803   1.000000
     65         -3.532696   1.000000
     66         -3.522408   1.000000
     67         -3.493019   1.000000
     68         -3.447924   1.000000
     69         -3.402003   1.000000
     70         -3.369749   1.000000
     71         -3.362035   1.000000
     72         -3.328714   1.000000
     73         -3.267867   1.000000
     74         -3.254969   1.000000
     75         -3.253355   1.000000
     76         -3.182775   1.000000
     77         -3.174631   1.000000
     78         -3.153866   1.000000
     79         -3.133290   1.000000
     80         -3.097696   1.000000
     81         -3.085398   1.000000
     82         -3.073034   1.000000
     83         -3.030920   1.000000
     84         -2.985735   1.000000
     85         -2.965978   1.000000
     86         -2.958812   1.000000
     87         -2.941092   1.000000
     88         -2.936797   1.000000
     89         -2.916470   1.000000
     90         -2.894245   1.000000
     91         -2.859691   1.000000
     92         -2.824023   1.000000
     93         -2.807066   1.000000
     94         -2.788807   1.000000
     95         -2.771393   1.000000
     96         -2.755654   1.000000
     97         -2.725894   1.000000
     98         -2.724577   1.000000
     99         -2.696070   1.000000
    100         -2.691236   1.000000
    101         -2.604894   1.000000
    102         -2.545174   1.000000
    103         -2.543543   1.000000
    104         -2.516563   1.000000
    105         -2.503725   1.000000
    106         -2.496712   1.000000
    107         -2.493382   1.000000
    108         -2.490729   1.000000
    109         -2.441379   1.000000
    110         -2.429535   1.000000
    111         -2.419103   1.000000
    112         -2.412703   1.000000
    113         -2.238905   1.000000
    114         -2.079426   1.000000
    115         -2.054565   1.000000
    116         -2.026098   1.000000
    117         -1.991286   1.000000
    118         -1.988219   1.000000
    119         -1.975431   1.000000
    120         -1.961577   1.000000
    121         -1.936665   1.000000
    122         -1.859171   1.000000
    123         -1.790678   1.000000
    124         -1.780319   1.000000
    125         -1.737397   1.000000
    126         -1.665192   1.000000
    127         -1.644408   1.000000
    128         -1.616536   1.000000
    129         -1.582849   1.000000
    130         -1.570297   1.000000
    131         -1.539059   1.000000
    132         -1.533686   1.000000
    133         -1.512523   1.000000
    134         -1.436134   1.000000
    135         -1.433582   1.000000
    136         -1.390065   1.000000
    137         -1.385660   1.000000
    138         -1.371831   1.000000
    139         -1.315871   1.000000
    140         -1.190338   1.000000
    141         -1.169785   1.000000
    142         -1.159489   1.000000
    143         -1.142988   1.000000
    144         -1.136356   1.000000
    145         -1.122336   1.000000
    146         -1.068581   1.000000
    147         -1.029810   1.000000
    148         -1.002006   1.000000
    149         -0.997340   1.000000
    150         -0.981166   1.000000
    151         -0.958485   1.000000
    152         -0.912772   1.000000
    153         -0.904713   1.000000
    154         -0.888470   1.000000
    155         -0.845140   1.000000
    156         -0.783519   1.000000
    157         -0.773696   1.000000
    158         -0.754665   1.000000
    159         -0.725707   1.000000
    160         -0.654485   1.000000
    161         -0.631945   1.000000
    162         -0.631256   1.000000
    163         -0.596374   1.000000
    164         -0.584614   1.000000
    165         -0.561159   1.000000
    166         -0.541927   1.000000
    167         -0.485140   1.000000
    168         -0.464514   1.000000
    169         -0.414439   1.000007
    170         -0.396966   1.000021
    171         -0.390048   1.000032
    172         -0.383925   1.000046
    173         -0.354243   1.000239
    174         -0.348851   1.000316
    175         -0.342302   1.000439
    176         -0.337522   1.000554
    177         -0.328679   1.000842
    178         -0.269582   1.008548
    179         -0.261073   1.011088
    180         -0.118607   0.852815
    181         -0.116266   0.838992
    182         -0.095354   0.694337
    183         -0.082860   0.594047
    184         -0.077954   0.553069
    185         -0.065694   0.449524
    186         -0.032202   0.193091
    187         -0.019246   0.116884
    188         -0.011541   0.079410
    189          0.009520   0.006969
    190          0.063248  -0.033455
    191          0.110373  -0.013659
    192          0.137917  -0.005794
    193          0.180515  -0.001050
    194          0.295089  -0.000001
    195          0.299554  -0.000001
    196          0.314683  -0.000000
    197          0.357278  -0.000000
    198          0.660033  -0.000000
    199          0.758514  -0.000000
    200          1.216618  -0.000000
    201          1.476924  -0.000000
    202          1.487475  -0.000000
    203          1.606214  -0.000000
    204          2.358364  -0.000000
    205          2.749310   0.000000
    206          2.917672   0.000000
    207          3.485881   0.000000
    208          3.657881   0.000000
    209          3.659286   0.000000
    210          3.754540   0.000000
    211          3.991320   0.000000
    212          4.368515   0.000000
    213          4.618375   0.000000
    214          4.716598   0.000000
    215          4.957852   0.000000
    216          4.997776   0.000000
    217          4.998443   0.000000
    218          5.152918   0.000000
    219          5.239541   0.000000
    220          5.469884   0.000000
    221          5.640241   0.000000
    222          5.728102   0.000000
    223          5.776969   0.000000
    224          5.910849   0.000000
    225          6.106563   0.000000
    226          6.220089   0.000000
    227          6.262105   0.000000
    228          6.327259   0.000000
    229          6.345278   0.000000
    230          6.665400   0.000000
    231          6.691307   0.000000
    232          6.723798   0.000000
    233          6.793164   0.000000
    234          6.860176   0.000000
    235          6.923327   0.000000
    236          7.060349   0.000000
    237          7.223369   0.000000
    238          7.494720   0.000000
    239          7.509226   0.000000
    240          7.628408   0.000000
 
  0.2000000E+00  0.2000000E+00  0.1276756E-14  0.8000000E-01
      1         -8.744633   1.000000
      2         -7.539180   1.000000
      3         -6.983610   1.000000
      4         -6.690991   1.000000
      5         -6.561192   1.000000
      6         -6.542837   1.000000
      7         -6.355551   1.000000
      8         -6.271402   1.000000
      9         -6.224412   1.000000
     10         -6.214301   1.000000
     11         -6.125370   1.000000
     12         -6.004677   1.000000
     13         -5.919543   1.000000
     14         -5.850037   1.000000
     15         -5.832908   1.000000
     16         -5.826449   1.000000
     17         -5.731862   1.000000
     18         -5.532998   1.000000
     19         -5.419939   1.000000
     20         -5.413989   1.000000
     21         -5.406949   1.000000
     22         -5.368688   1.000000
     23         -5.329725   1.000000
     24         -5.298591   1.000000
     25         -5.271876   1.000000
     26         -5.244065   1.000000
     27         -5.223374   1.000000
     28         -5.215724   1.000000
     29         -5.151091   1.000000
     30         -5.116151   1.000000
     31         -5.107135   1.000000
     32         -5.034265   1.000000
     33         -5.016556   1.000000
     34         -5.007954   1.000000
     35         -5.002392   1.000000
     36         -4.860752   1.000000
     37         -4.806475   1.000000
     38         -4.784687   1.000000
     39         -4.771112   1.000000
     40         -4.754935   1.000000
     41         -4.669750   1.000000
     42         -4.497191   1.000000
     43         -4.487627   1.000000
     44         -4.460930   1.000000
     45         -4.417201   1.000000
     46         -4.402209   1.000000
     47         -4.387718   1.000000
     48         -4.324018   1.000000
     49         -4.209019   1.000000
     50         -4.177440   1.000000
     51         -4.127738   1.000000
     52         -4.111864   1.000000
     53         -4.084246   1.000000
     54         -4.052769   1.000000
     55         -4.040635   1.000000
     56         -3.828984   1.000000
     57         -3.738374   1.000000
     58         -3.734131   1.000000
     59         -3.672803   1.000000
     60         -3.651131   1.000000
     61         -3.618532   1.000000
     62         -3.583227   1.000000
     63         -3.570520   1.000000
     64         -3.543452   1.000000
     65         -3.528011   1.000000
     66         -3.524950   1.000000
     67         -3.494522   1.000000
     68         -3.447285   1.000000
     69         -3.402324   1.000000
     70         -3.374531   1.000000
     71         -3.359058   1.000000
     72         -3.350530   1.000000
     73         -3.280736   1.000000
     74         -3.267816   1.000000
     75         -3.256484   1.000000
     76         -3.184319   1.000000
     77         -3.172276   1.000000
     78         -3.152793   1.000000
     79         -3.134553   1.000000
     80         -3.087461   1.000000
     81         -3.064997   1.000000
     82         -3.060313   1.000000
     83         -3.042072   1.000000
     84         -2.997916   1.000000
     85         -2.966083   1.000000
     86         -2.960712   1.000000
     87         -2.937128   1.000000
     88         -2.933475   1.000000
     89         -2.909357   1.000000
     90         -2.894536   1.000000
     91         -2.865068   1.000000
     92         -2.818333   1.000000
     93         -2.800677   1.000000
     94         -2.792729   1.000000
     95         -2.775273   1.000000
     96         -2.754282   1.000000
     97         -2.728042   1.000000
     98         -2.716714   1.000000
     99         -2.708004   1.000000
    100         -2.689993   1.000000
    101         -2.608365   1.000000
    102         -2.556583   1.000000
    103         -2.538944   1.000000
    104         -2.522242   1.000000
    105         -2.514789   1.000000
    106         -2.504874   1.000000
    107         -2.495567   1.000000
    108         -2.485469   1.000000
    109         -2.444193   1.000000
    110         -2.428680   1.000000
    111         -2.424252   1.000000
    112         -2.415694   1.000000
    113         -2.171756   1.000000
    114         -2.102402   1.000000
    115         -2.059116   1.000000
    116         -2.015426   1.000000
    117         -1.999995   1.000000
    118         -1.990505   1.000000
    119         -1.980162   1.000000
    120         -1.946584   1.000000
    121         -1.942492   1.000000
    122         -1.885209   1.000000
    123         -1.807281   1.000000
    124         -1.788557   1.000000
    125         -1.727688   1.000000
    126         -1.666860   1.000000
    127         -1.648605   1.000000
    128         -1.613303   1.000000
    129         -1.586765   1.000000
    130         -1.577982   1.000000
    131         -1.541874   1.000000
    132         -1.530690   1.000000
    133         -1.523045   1.000000
    134         -1.443476   1.000000
    135         -1.418032   1.000000
    136         -1.393020   1.000000
    137         -1.379835   1.000000
    138         -1.374393   1.000000
    139         -1.312997   1.000000
    140         -1.194520   1.000000
    141         -1.178730   1.000000
    142         -1.169462   1.000000
    143         -1.150707   1.000000
    144         -1.136931   1.000000
    145         -1.113160   1.000000
    146         -1.072272   1.000000
    147         -1.030651   1.000000
    148         -1.006362   1.000000
    149         -0.987044   1.000000
    150         -0.977691   1.000000
    151         -0.931684   1.000000
    152         -0.908407   1.000000
    153         -0.904901   1.000000
    154         -0.899085   1.000000
    155         -0.828994   1.000000
    156         -0.788967   1.000000
    157         -0.771819   1.000000
    158         -0.752799   1.000000
    159         -0.713342   1.000000
    160         -0.668414   1.000000
    161         -0.636639   1.000000
    162         -0.621268   1.000000
    163         -0.610210   1.000000
    164         -0.593568   1.000000
    165         -0.568995   1.000000
    166         -0.541374   1.000000
    167         -0.481390   1.000000
    168         -0.467942   1.000000
    169         -0.427817   1.000003
    170         -0.401160   1.000016
    171         -0.387732   1.000037
    172         -0.379660   1.000059
    173         -0.351154   1.000281
    174         -0.347429   1.000339
    175         -0.343809   1.000407
    176         -0.337204   1.000563
    177         -0.326139   1.000946
    178         -0.273705   1.007482
    179         -0.268489   1.008848
    180         -0.136622   0.941002
    181         -0.118624   0.852915
    182         -0.095414   0.694795
    183         -0.079868   0.569121
    184         -0.063138   0.428089
    185         -0.058667   0.390984
    186         -0.026693   0.158724
    187         -0.013045   0.086251
    188          0.007085   0.013208
    189          0.012986  -0.001019
    190          0.080495  -0.026676
    191          0.110957  -0.013442
    192          0.133283  -0.006790
    193          0.177700  -0.001191
    194          0.297503  -0.000001
    195          0.303171  -0.000001
    196          0.311618  -0.000000
    197          0.354440  -0.000000
    198          0.691291  -0.000000
    199          0.758157  -0.000000
    200          1.216872  -0.000000
    201          1.464819  -0.000000
    202          1.485183  -0.000000
    203          1.607784  -0.000000
    204          2.334176  -0.000000
    205          2.787819   0.000000
    206          2.916728   0.000000
    207          3.491377   0.000000
    208          3.652803   0.000000
    209          3.665247   0.000000
    210          3.748573   0.000000
    211          3.955491   0.000000
    212          4.372888   0.000000
    213          4.609858   0.000000
    214          4.707565   0.000000
    215          4.965891   0.000000
    216          4.994430   0.000000
    217          5.004079   0.000000
    218          5.192814   0.000000
    219          5.240674   0.000000
    220          5.470199   0.000000
    221          5.632442   0.000000
    222          5.714008   0.000000
    223          5.843575   0.000000
    224          5.909490   0.000000
    225          6.074794   0.000000
    226          6.201150   0.000000
    227          6.258571   0.000000
    228          6.333012   0.000000
    229          6.355389   0.000000
    230          6.570099   0.000000
    231          6.706664   0.000000
    232          6.736624   0.000000
    233          6.786531   0.000000
    234          6.861115   0.000000
    235          6.927975   0.000000
    236          7.059297   0.000000
    237          7.226221   0.000000
    238          7.481224   0.000000
    239          7.542722   0.000000
    240          7.599222   0.000000
 
  0.1276756E-14  0.2000000E+00  0.1276756E-14  0.8000000E-01
      1         -8.744553   1.000000
      2         -7.539240   1.000000
      3         -6.980237   1.000000
      4         -6.691817   1.000000
      5         -6.563177   1.000000
      6         -6.544521   1.000000
      7         -6.355257   1.000000
      8         -6.266010   1.000000
      9         -6.227908   1.000000
     10         -6.216377   1.000000
     11         -6.126313   1.000000
     12         -6.004648   1.000000
     13         -5.916913   1.000000
     14         -5.849597   1.000000
     15         -5.833994   1.000000
     16         -5.824647   1.000000
     17         -5.730793   1.000000
     18         -5.535265   1.000000
     19         -5.418822   1.000000
     20         -5.414159   1.000000
     21         -5.403486   1.000000
     22         -5.370066   1.000000
     23         -5.330117   1.000000
     24         -5.301732   1.000000
     25         -5.271924   1.000000
     26         -5.243361   1.000000
     27         -5.224260   1.000000
     28         -5.213242   1.000000
     29         -5.150552   1.000000
     30         -5.119411   1.000000
     31         -5.106484   1.000000
     32         -5.030443   1.000000
     33         -5.015017   1.000000
     34         -5.008320   1.000000
     35         -5.003159   1.000000
     36         -4.860945   1.000000
     37         -4.806112   1.000000
     38         -4.786084   1.000000
     39         -4.769694   1.000000
     40         -4.759387   1.000000
     41         -4.670728   1.000000
     42         -4.500257   1.000000
     43         -4.490988   1.000000
     44         -4.458700   1.000000
     45         -4.416123   1.000000
     46         -4.399050   1.000000
     47         -4.387740   1.000000
     48         -4.324302   1.000000
     49         -4.210899   1.000000
     50         -4.179715   1.000000
     51         -4.129229   1.000000
     52         -4.111857   1.000000
     53         -4.082401   1.000000
     54         -4.052334   1.000000
     55         -4.039191   1.000000
     56         -3.834611   1.000000
     57         -3.736125   1.000000
     58         -3.735281   1.000000
     59         -3.678156   1.000000
     60         -3.655437   1.000000
     61         -3.622517   1.000000
     62         -3.587426   1.000000
     63         -3.564373   1.000000
     64         -3.542203   1.000000
     65         -3.527351   1.000000
     66         -3.522882   1.000000
     67         -3.491539   1.000000
     68         -3.447030   1.000000
     69         -3.405092   1.000000
     70         -3.381599   1.000000
     71         -3.361956   1.000000
     72         -3.350554   1.000000
     73         -3.268401   1.000000
     74         -3.263424   1.000000
     75         -3.239119   1.000000
     76         -3.184589   1.000000
     77         -3.175999   1.000000
     78         -3.156656   1.000000