 vasp.6.4.2 20Jul23 (build Mar 01 2024 16:46:03) complex                        
  
 executed on             LinuxIFC date 2025.01.13  15:00:03
 running   48 mpi-ranks, on    1 nodes
 distrk:  each k-point on   48 cores,    1 groups
 distr:  one band on NCORE=   1 cores,   48 groups


--------------------------------------------------------------------------------------------------------


 INCAR:
   ENCUT = 680.290000
   SIGMA = 0.100000
   ZAB_VDW = -1.886700
   EDIFF = 1.00e-05
   ALGO = Fast
   GGA = BF
   IBRION = -1
   ISMEAR = 1
   ISPIN = 1
   ISYM = 0
   LUSE_VDW = .TRUE.
   LREAL = Auto

 POTCAR:    PAW_PBE Pt 04Feb2005                  
 POTCAR:    PAW_PBE H 15Jun2001                   
 -----------------------------------------------------------------------------
|                                                                             |
|           W    W    AA    RRRRR   N    N  II  N    N   GGGG   !!!           |
|           W    W   A  A   R    R  NN   N  II  NN   N  G    G  !!!           |
|           W    W  A    A  R    R  N N  N  II  N N  N  G       !!!           |
|           W WW W  AAAAAA  RRRRR   N  N N  II  N  N N  G  GGG   !            |
|           WW  WW  A    A  R   R   N   NN  II  N   NN  G    G                |
|           W    W  A    A  R    R  N    N  II  N    N   GGGG   !!!           |
|                                                                             |
|     For optimal performance we recommend to set                             |
|       NCORE = 2 up to number-of-cores-per-socket                            |
|     NCORE specifies how many cores store one orbital (NPAR=cpu/NCORE).      |
|     This setting can greatly improve the performance of VASP for DFT.       |
|     The default, NCORE=1 might be grossly inefficient on modern             |
|     multi-core architectures or massively parallel machines. Do your        |
|     own testing! More info at https://www.vasp.at/wiki/index.php/NCORE      |
|     Unfortunately you need to use the default for GW and RPA                |
|     calculations (for HF NCORE is supported but not extensively tested      |
|     yet).                                                                   |
|                                                                             |
 -----------------------------------------------------------------------------

 -----------------------------------------------------------------------------
|                                                                             |
|               ----> ADVICE to this user running VASP <----                  |
|                                                                             |
|     You have switched on vdW-DFT.                                           |
|     This routine was written and supplied by Jiri Klimes. We recommend      |
|     that you carefully read and cite the following publications:            |
|       J. Klimes, D.R. Bowler, A. Michelides                                 |
|          J. Phys.: Cond Matt. 22 022201 (2010)                              |
|       J. Klimes, D.R. Bowler, A. Michelides                                 |
|          Phys. Rev. B. 83, 195131 (2011)                                    |
|     and references therein.                                                 |
|                                                                             |
 -----------------------------------------------------------------------------

 POTCAR:    PAW_PBE Pt 04Feb2005                  
   SHA256 =  3ed90460adef76debcff1cfb73ee1349b515b1a3db03439735b44de3a8db7dc8 Pt/POTCAR             
   COPYR  = (c) Copyright 04Feb2005 Georg Kresse                                                    
   COPYR  = This file is part of the software VASP. Any use, copying, and all other rights are regul
   COPYR  = If you do not have a valid VASP license, you may not use, copy or distribute this file. 
   VRHFIN =Pt: s1d9                                                                                 
   LEXCH  = PE                                                                                      
   EATOM  =   729.1176 eV,   53.5886 Ry                                                             
                                                                                                    
   TITEL  = PAW_PBE Pt 04Feb2005                                                                    
   LULTRA =        F    use ultrasoft PP ?                                                          
   IUNSCR =        1    unscreen: 0-lin 1-nonlin 2-no                                               
   RPACOR =    2.330    partial core radius                                                         
   POMASS =  195.080; ZVAL   =   10.000    mass and valenz                                          
   RCORE  =    2.600    outmost cutoff radius                                                       
   RWIGS  =    2.750; RWIGS  =    1.455    wigner-seitz radius (au A)                               
   ENMAX  =  230.283; ENMIN  =  172.712 eV                                                          
   ICORE  =        3    local potential                                                             
   LCOR   =        T    correct aug charges                                                         
   LPAW   =        T    paw PP                                                                      
   EAUG   =  358.966                                                                                
   DEXC   =    0.000                                                                                
   RMAX   =    2.658    core radius for proj-oper                                                   
   RAUG   =    1.300    factor for augmentation sphere                                              
   RDEP   =    2.761    radius for radial grids                                                     
   RDEPT  =    2.203    core radius for aug-charge                                                  
                                                                                                    
   Atomic configuration                                                                             
   16 entries                                                                                       
     n  l   j            E        occ.                                                              
     1  0  0.50    -78401.1885   2.0000                                                             
     2  0  0.50    -13770.7750   2.0000                                                             
     2  1  1.50    -11931.0468   6.0000                                                             
     3  0  0.50     -3234.7234   2.0000                                                             
     3  1  1.50     -2699.2216   6.0000                                                             
     3  2  2.50     -2119.5714  10.0000                                                             
     4  0  0.50      -695.1528   2.0000                                                             
     4  1  1.50      -519.6034   6.0000                                                             
     4  2  2.50      -306.6786  10.0000                                                             
     4  3  3.50       -70.1041  14.0000                                                             
     5  0  0.50      -101.7747   2.0000                                                             
     5  1  1.50       -55.9873   6.0000                                                             
     5  2  2.50        -6.1423   9.0000                                                             
     6  0  0.50        -5.6573   1.0000                                                             
     6  1  1.50        -6.8029   0.0000                                                             
     5  3  2.50        -1.3606   0.0000                                                             
   Description                                                                                      
     l       E           TYP  RCUT    TYP  RCUT                                                     
     2     -6.1423404     23  2.500                                                                 
     2     -7.5029230     23  2.500                                                                 
     0     -5.6573207     23  2.500                                                                 
     0      0.7416693     23  2.500                                                                 
     1     -2.7211652     23  2.600                                                                 
     1     20.4087390     23  2.600                                                                 
     3     -1.3605826     23  2.500                                                                 
  local pseudopotential read in
  partial core-charges read in
  partial kinetic energy density read in
  atomic valenz-charges read in
  non local Contribution for L=           2  read in
    real space projection operators read in
  non local Contribution for L=           2  read in
    real space projection operators read in
  non local Contribution for L=           0  read in
    real space projection operators read in
  non local Contribution for L=           0  read in
    real space projection operators read in
  non local Contribution for L=           1  read in
    real space projection operators read in
  non local Contribution for L=           1  read in
    real space projection operators read in
    PAW grid and wavefunctions read in
 
   number of l-projection  operators is LMAX  =           6
   number of lm-projection operators is LMMAX =          18
 
 POTCAR:    PAW_PBE H 15Jun2001                   
   SHA256 =  030f79b5d3ab3cf0e668861823c8fb652ff669f3e15e46930bd03bfd63a607b6 H/POTCAR              
   COPYR  = (c) Copyright 15Jun2001 Georg Kresse                                                    
   COPYR  = This file is part of the software VASP. Any use, copying, and all other rights are regul
   COPYR  = If you do not have a valid VASP license, you may not use, copy or distribute this file. 
   VRHFIN =H: ultrasoft test                                                                        
   LEXCH  = PE                                                                                      
   EATOM  =    12.4884 eV,    0.9179 Ry                                                             
                                                                                                    
   TITEL  = PAW_PBE H 15Jun2001                                                                     
   LULTRA =        F    use ultrasoft PP ?                                                          
   IUNSCR =        0    unscreen: 0-lin 1-nonlin 2-no                                               
   RPACOR =    0.000    partial core radius                                                         
   POMASS =    1.000; ZVAL   =    1.000    mass and valenz                                          
   RCORE  =    1.100    outmost cutoff radius                                                       
   RWIGS  =    0.700; RWIGS  =    0.370    wigner-seitz radius (au A)                               
   ENMAX  =  250.000; ENMIN  =  200.000 eV                                                          
   RCLOC  =    0.701    cutoff for local pot                                                        
   LCOR   =        T    correct aug charges                                                         
   LPAW   =        T    paw PP                                                                      
   EAUG   =  400.000                                                                                
   RMAX   =    1.123    core radius for proj-oper                                                   
   RAUG   =    1.200    factor for augmentation sphere                                              
   RDEP   =    1.112    radius for radial grids                                                     
   RDEPT  =    0.926    core radius for aug-charge                                                  
                                                                                                    
   Atomic configuration                                                                             
    2 entries                                                                                       
     n  l   j            E        occ.                                                              
     1  0  0.50        -6.4927   1.0000                                                             
     2  1  0.50        -3.4015   0.0000                                                             
   Description                                                                                      
     l       E           TYP  RCUT    TYP  RCUT                                                     
     0     -6.4927494     23  1.100                                                                 
     0      6.8029130     23  1.100                                                                 
     1     -4.0817478     23  1.100                                                                 
  local pseudopotential read in
  atomic valenz-charges read in
  non local Contribution for L=           0  read in
    real space projection operators read in
  non local Contribution for L=           0  read in
    real space projection operators read in
  non local Contribution for L=           1  read in
    real space projection operators read in
    PAW grid and wavefunctions read in
 
   number of l-projection  operators is LMAX  =           3
   number of lm-projection operators is LMMAX =           5
 
 Optimization of the real space projectors (new method)

 maximal supplied QI-value         = 14.36
 optimisation between [QCUT,QGAM] = [ 13.36, 26.71] = [ 49.96,199.83] Ry 
 Optimized for a Real-space Cutoff    1.42 Angstroem

   l    n(q)    QCUT    max X(q) W(low)/X(q) W(high)/X(q)  e(spline) 
   2     11    13.357    66.195    0.16E-03    0.81E-04    0.36E-06
   2     11    13.357    64.643    0.16E-03    0.82E-04    0.36E-06
   0     11    13.357    95.520    0.60E-04    0.72E-05    0.55E-06
   0     11    13.357    63.403    0.58E-04    0.70E-05    0.53E-06
   1     11    13.357    19.961    0.21E-03    0.56E-03    0.21E-05
   1     11    13.357    13.289    0.17E-03    0.46E-03    0.17E-05
 Optimization of the real space projectors (new method)

 maximal supplied QI-value         = 34.20
 optimisation between [QCUT,QGAM] = [ 13.34, 26.68] = [ 49.83,199.32] Ry 
 Optimized for a Real-space Cutoff    0.91 Angstroem

   l    n(q)    QCUT    max X(q) W(low)/X(q) W(high)/X(q)  e(spline) 
   0      7    13.340    19.460    0.48E-03    0.16E-03    0.16E-06
   0      7    13.340    12.209    0.46E-03    0.14E-03    0.15E-06
   1      7    13.340     4.655    0.46E-03    0.87E-03    0.11E-06
 -----------------------------------------------------------------------------
|                                                                             |
|               ----> ADVICE to this user running VASP <----                  |
|                                                                             |
|     You enforced a specific xc type in the INCAR file but a different       |
|     type was found in the POTCAR file.                                      |
|     I HOPE YOU KNOW WHAT YOU ARE DOING!                                     |
|                                                                             |
 -----------------------------------------------------------------------------

  PAW_PBE Pt 04Feb2005                  :
 energy of atom  1       EATOM= -729.1176
 kinetic energy error for atom=    0.0010 (will be added to EATOM!!)
  PAW_PBE H 15Jun2001                   :
 energy of atom  2       EATOM=  -12.4884
 kinetic energy error for atom=    0.0002 (will be added to EATOM!!)
 
 
 POSCAR: Pt H
  positions in cartesian coordinates
  No initial velocities read in
 exchange correlation table for  LEXCH =       17
   RHO(1)=    0.500       N(1)  =     2000
   RHO(2)=  100.500       N(2)  =     4000
 


--------------------------------------------------------------------------------------------------------


 ion  position               nearest neighbor table
   1  0.000  0.000  0.340-   3 2.81   7 2.81   6 2.82   8 2.82  12 2.82  16 2.82   2 2.83   4 2.83
                            10 2.83
   2  0.334  0.000  0.340-   8 2.81   9 2.82  17 2.82   1 2.83   3 2.83   4 2.83   5 2.83  10 2.83
                            11 2.83
   3  0.668  0.000  0.340-   7 2.81   1 2.81   9 2.81  18 2.82   5 2.83   2 2.83   6 2.83  11 2.83
                            12 2.83
   4  0.000  0.334  0.340-   6 2.81   9 2.82  15 2.82   5 2.83   2 2.83   1 2.83   7 2.83  10 2.83
                            13 2.83
   5  0.334  0.334  0.340-   3 2.83   4 2.83   6 2.83   7 2.83   2 2.83   8 2.83  11 2.83  13 2.83
                            14 2.83
   6  0.668  0.334  0.340-   4 2.81   1 2.82   5 2.83   8 2.83   3 2.83   9 2.83  12 2.83  14 2.83
                            15 2.83
   7  0.000  0.668  0.340-   3 2.81   1 2.81   9 2.81  18 2.82   5 2.83   8 2.83   4 2.83  13 2.83
                            16 2.83
   8  0.334  0.668  0.340-   2 2.81   1 2.82   6 2.83   7 2.83   9 2.83   5 2.83  14 2.83  16 2.83
                            17 2.83
   9  0.668  0.668  0.340-   3 2.81   7 2.81   4 2.82   2 2.82   8 2.83   6 2.83  15 2.83  17 2.83
                            18 2.83
  10  0.111  0.111  0.433-  26 2.80  16 2.81  12 2.81  19 2.81  15 2.82  17 2.82  11 2.83  13 2.83
                             2 2.83   4 2.83   1 2.83  20 2.83
  11  0.445  0.111  0.433-  27 2.80  17 2.81  21 2.81  20 2.82  18 2.82  13 2.83  10 2.83  12 2.83
                            14 2.83   5 2.83   3 2.83   2 2.83
  12  0.779  0.111  0.433-  25 2.79  21 2.81  16 2.81  10 2.81  18 2.81   1 2.82  11 2.83  14 2.83
                            15 2.83   6 2.83   3 2.83  19 2.84
  13  0.111  0.445  0.433-  15 2.81  23 2.81  22 2.81  20 2.82  18 2.82  14 2.83  11 2.83  10 2.83
                            16 2.83   7 2.83   5 2.83   4 2.83
  14  0.445  0.445  0.433-  23 2.80  21 2.80  24 2.81  16 2.83  12 2.83  13 2.83  15 2.83  17 2.83
                            11 2.83   8 2.83   6 2.83   5 2.83
  15  0.779  0.445  0.433-  24 2.80  13 2.81  19 2.81  22 2.82  10 2.82   4 2.82  17 2.83  14 2.83
                            18 2.83  12 2.83   9 2.83   6 2.83
  16  0.111  0.779  0.433-  25 2.79  23 2.81  12 2.81  10 2.81  18 2.81  26 2.82   1 2.82  14 2.83
                            17 2.83  13 2.83   8 2.83   7 2.83
  17  0.445  0.779  0.433-  24 2.80  26 2.80  27 2.81  11 2.81  10 2.82   2 2.82  15 2.83  16 2.83
                            18 2.83  14 2.83   9 2.83   8 2.83
  18  0.779  0.779  0.433-  25 2.80  27 2.81  12 2.81  16 2.81  13 2.82  11 2.82   3 2.82   7 2.82
                            17 2.83  15 2.83   9 2.83  22 2.83
  19  0.891  0.225  0.525-  22 2.80  20 2.81  15 2.81  10 2.81  24 2.82  33 2.82  26 2.83  28 2.83
                            21 2.83  25 2.84  12 2.84  31 2.90
  20  0.224  0.223  0.525-  19 2.81  22 2.81  11 2.82  26 2.82  13 2.82  23 2.82  27 2.82  21 2.82
                            10 2.83  29 2.86  32 2.86  31 2.89
  21  0.557  0.224  0.524-  14 2.80  12 2.81  11 2.81  23 2.82  24 2.82  20 2.82  25 2.82  27 2.82
                            19 2.83  32 2.84  30 2.84  33 2.85
  22  0.891  0.555  0.525-  19 2.80  13 2.81  20 2.81  15 2.82  24 2.82  23 2.82  36 2.82  18 2.83
                            34 2.83  27 2.83  25 2.84  31 2.90
  23  0.224  0.557  0.524-  14 2.80  16 2.81  13 2.81  21 2.82  20 2.82  24 2.82  22 2.82  25 2.82
                            26 2.83  34 2.83  35 2.84  32 2.86
  24  0.557  0.557  0.524-  17 2.80  15 2.80  14 2.81  19 2.82  26 2.82  27 2.82  21 2.82  22 2.82
                            23 2.82  35 2.84  33 2.85  36 2.85
  25  0.891  0.890  0.524-  16 2.79  12 2.79  18 2.80  21 2.82  26 2.82  23 2.82  27 2.82  34 2.84
                            22 2.84  19 2.84  28 2.84  30 2.84
  26  0.224  0.890  0.525-  10 2.80  17 2.80  16 2.82  27 2.82  20 2.82  24 2.82  25 2.82  19 2.83
                            23 2.83  28 2.83  35 2.84  29 2.86
  27  0.557  0.890  0.525-  11 2.80  18 2.81  17 2.81  26 2.82  24 2.82  20 2.82  25 2.82  21 2.82
                            22 2.83  36 2.84  29 2.84  30 2.85
  28  0.002  0.001  0.617-  34 2.80  30 2.81  35 2.82  33 2.82  19 2.83  26 2.83  31 2.83  25 2.84
                            29 2.85
  29  0.339  0.998  0.619-  36 2.80  35 2.81  30 2.81  27 2.84  31 2.84  28 2.85  32 2.85  20 2.86
                            26 2.86
  30  0.670  0.001  0.618-  28 2.81  34 2.81  29 2.81  32 2.81  36 2.82  33 2.82  25 2.84  21 2.84
                            27 2.85
  31  0.004  0.334  0.621-  37 1.61  33 2.83  36 2.83  28 2.83  34 2.84  29 2.84  32 2.85  20 2.89
                            22 2.90  19 2.90
  32  0.339  0.335  0.619-  33 2.79  35 2.81  30 2.81  21 2.84  34 2.84  31 2.85  29 2.85  23 2.86
                            20 2.86
  33  0.669  0.335  0.618-  32 2.79  30 2.82  28 2.82  19 2.82  35 2.82  36 2.82  31 2.83  24 2.85
                            21 2.85
  34  0.002  0.670  0.617-  28 2.80  30 2.81  36 2.82  35 2.82  22 2.83  23 2.83  25 2.84  31 2.84
                            32 2.84
  35  0.336  0.668  0.618-  32 2.81  29 2.81  34 2.82  28 2.82  33 2.82  36 2.82  26 2.84  24 2.84
                            23 2.84
  36  0.669  0.668  0.618-  29 2.80  30 2.82  34 2.82  35 2.82  22 2.82  33 2.82  31 2.83  27 2.84
                            24 2.85
  37  0.153  0.260  0.669-  31 1.61
 

IMPORTANT INFORMATION: All symmetrisations will be switched off!
NOSYMM: (Re-)initialisation of all symmetry stuff for point group C_1.


----------------------------------------------------------------------------------------

                                     Primitive cell                                     

  volume of cell :    1550.4837

  direct lattice vectors                    reciprocal lattice vectors
     8.468310000  0.000000000  0.000000000     0.118087316 -0.068177744  0.000000000
     4.234155000  7.333771587  0.000000000     0.000000000  0.136355488  0.000000000
     0.000000000  0.000000000 24.965661990     0.000000000  0.000000000  0.040055016

  length of vectors
     8.468310000  8.468310000 24.965661990     0.136355488  0.136355488  0.040055016

  position of ions in fractional coordinates (direct lattice)
     0.000000000  0.000000000  0.340467639
     0.334001368  0.000000000  0.340467639
     0.668002736  0.000000000  0.340467639
     1.000000000  0.334001368  0.340467639
     0.334001368  0.334001368  0.340467639
     0.668002736  0.334001368  0.340467639
     1.000000000  0.668002736  0.340467639
     0.334001368  0.668002736  0.340467639
     0.668002736  0.668002736  0.340467639
     0.111333789  0.111333789  0.432970737
     0.445335157  0.111333789  0.432970737
     0.779336525  0.111333789  0.432970737
     0.111333789  0.445335157  0.432970737
     0.445335157  0.445335157  0.432970737
     0.779336525  0.445335157  0.432970737
     0.111333789  0.779336525  0.432970737
     0.445335157  0.779336525  0.432970737
     0.779336525  0.779336525  0.432970737
     0.891018379  0.225025927  0.525282561
     0.224008411  0.223494042  0.525225477
     0.557169151  0.223780833  0.524450867
     0.891139439  0.555295520  0.525239408
     0.223935097  0.556568723  0.524460889
     0.557036297  0.557066938  0.524311972
     0.890686617  0.890352521  0.524131583
     0.224123283  0.890484832  0.524587666
     0.557230205  0.890176755  0.524574174
     0.001769311  0.000559693  0.617361557
     0.339161420  0.998133457  0.618609057
     0.670011137  0.001152943  0.617670171
     0.003894803  0.333993063  0.621302682
     0.339217476  0.335080944  0.618526402
     0.669326066  0.334747973  0.617709651
     0.001972168  0.669583047  0.617362920
     0.335976119  0.668164876  0.617524287
     0.669380384  0.668239760  0.617717530
     0.152888659  0.259656462  0.668639834

  ion indices of the primitive-cell ions
   primitive index   ion index
                 1           1
                 2           2
                 3           3
                 4           4
                 5           5
                 6           6
                 7           7
                 8           8
                 9           9
                10          10
                11          11
                12          12
                13          13
                14          14
                15          15
                16          16
                17          17
                18          18
                19          19
                20          20
                21          21
                22          22
                23          23
                24          24
                25          25
                26          26
                27          27
                28          28
                29          29
                30          30
                31          31
                32          32
                33          33
                34          34
                35          35
                36          36
                37          37

----------------------------------------------------------------------------------------

 
 
 KPOINTS: KPOINTS created by Atomic Simulation Env

Automatic generation of k-mesh.
 Grid dimensions read from file:
 generate k-points for:    5    5    1

 Generating k-lattice:

  Cartesian coordinates                     Fractional coordinates (reciprocal lattice)
     0.023617463 -0.013635549  0.000000000     0.200000000 -0.000000000  0.000000000
     0.000000000  0.027271098  0.000000000     0.000000000  0.200000000  0.000000000
     0.000000000  0.000000000  0.040055016     0.000000000  0.000000000  1.000000000

  Length of vectors
     0.027271098  0.027271098  0.040055016

  Shift w.r.t. Gamma in fractional coordinates (k-lattice)
     0.000000000  0.000000000  0.000000000

 
 Subroutine IBZKPT returns following result:
 ===========================================
 
 Found     13 irreducible k-points:
 
 Following reciprocal coordinates:
            Coordinates               Weight
  0.000000  0.000000  0.000000      1.000000
  0.200000  0.000000  0.000000      2.000000
  0.200000  0.200000  0.000000      2.000000
  0.000000  0.200000  0.000000      2.000000
  0.400000  0.000000  0.000000      2.000000
  0.400000  0.400000  0.000000      2.000000
  0.000000  0.400000  0.000000      2.000000
  0.400000  0.200000  0.000000      2.000000
  0.200000  0.400000  0.000000      2.000000
 -0.200000  0.200000  0.000000      2.000000
 -0.400000  0.200000  0.000000      2.000000
  0.400000 -0.400000  0.000000      2.000000
 -0.200000  0.400000  0.000000      2.000000
 
 Following cartesian coordinates:
            Coordinates               Weight
  0.000000  0.000000  0.000000      1.000000
  0.023617 -0.013636  0.000000      2.000000
  0.023617  0.013636  0.000000      2.000000
  0.000000  0.027271  0.000000      2.000000
  0.047235 -0.027271  0.000000      2.000000
  0.047235  0.027271  0.000000      2.000000
  0.000000  0.054542  0.000000      2.000000
  0.047235  0.000000  0.000000      2.000000
  0.023617  0.040907  0.000000      2.000000
 -0.023617  0.040907  0.000000      2.000000
 -0.047235  0.054542  0.000000      2.000000
  0.047235 -0.081813  0.000000      2.000000
 -0.023617  0.068178  0.000000      2.000000
 


--------------------------------------------------------------------------------------------------------




 Dimension of arrays:
   k-points           NKPTS =     13   k-points in BZ     NKDIM =     13   number of bands    NBANDS=    240
   number of dos      NEDOS =    301   number of ions     NIONS =     37
   non local maximal  LDIM  =      6   non local SUM 2l+1 LMDIM =     18
   total plane-waves  NPLWV = 466560
   max r-space proj   IRMAX =   3679   max aug-charges    IRDMAX=  18423
   dimension x,y,z NGX =    54 NGY =   54 NGZ =  160
   dimension x,y,z NGXF=   108 NGYF=  108 NGZF=  320
   support grid    NGXF=   108 NGYF=  108 NGZF=  320
   ions per type =              36   1
   NGX,Y,Z   is equivalent  to a cutoff of  10.60, 10.60, 10.65 a.u.
   NGXF,Y,Z  is equivalent  to a cutoff of  21.20, 21.20, 21.31 a.u.

 SYSTEM =  unknown system                          
 POSCAR =  Pt H                                    

 Startparameter for this run:
   NWRITE =      2    write-flag & timer
   PREC   = normal    normal or accurate (medium, high low for compatibility)
   ISTART =      1    job   : 0-new  1-cont  2-samecut
   ICHARG =      0    charge: 1-file 2-atom 10-const
   ISPIN  =      1    spin polarized calculation?
   LNONCOLLINEAR =      F non collinear calculations
   LSORBIT =      F    spin-orbit coupling
   INIWAV =      1    electr: 0-lowe 1-rand  2-diag
   LASPH  =      F    aspherical Exc in radial PAW
 Electronic Relaxation 1
   ENCUT  =  680.3 eV  50.00 Ry    7.07 a.u.  18.01 18.01 53.09*2*pi/ulx,y,z
   ENINI  =  680.3     initial cutoff
   ENAUG  =  400.0 eV  augmentation charge cutoff
   NELM   =     60;   NELMIN=  2; NELMDL=  0     # of ELM steps 
   EDIFF  = 0.1E-04   stopping-criterion for ELM
   LREAL  =      T    real-space projection
   NLSPLINE    = F    spline interpolate recip. space projectors
   LCOMPAT=      F    compatible to vasp.4.4
   GGA_COMPAT  = T    GGA compatible to vasp.4.4-vasp.4.6
   LMAXPAW     = -100 max onsite density
   LMAXMIX     =    2 max onsite mixed and CHGCAR
   VOSKOWN=      0    Vosko Wilk Nusair interpolation
   ROPT   =   -0.00050  -0.00050
 Ionic relaxation
   EDIFFG = 0.1E-03   stopping-criterion for IOM
   NSW    =      0    number of steps for IOM
   NBLOCK =      1;   KBLOCK =      1    inner block; outer block 
   IBRION =     -1    ionic relax: 0-MD 1-quasi-New 2-CG
   NFREE  =      0    steps in history (QN), initial steepest desc. (CG)
   ISIF   =      2    stress and relaxation
   IWAVPR =     10    prediction:  0-non 1-charg 2-wave 3-comb
   ISYM   =      0    0-nonsym 1-usesym 2-fastsym
   LCORR  =      T    Harris-Foulkes like correction to forces

   POTIM  = 0.5000    time-step for ionic-motion
   TEIN   =    0.0    initial temperature
   TEBEG  =    0.0;   TEEND  =   0.0 temperature during run
   SMASS  =  -3.00    Nose mass-parameter (am)
   estimated Nose-frequenzy (Omega)   =  0.10E-29 period in steps = 0.13E+47 mass=  -0.164E-26a.u.
   SCALEE = 1.0000    scale energy and forces
   NPACO  =    256;   APACO  = 10.0  distance and # of slots for P.C.
   PSTRESS=    0.0 pullay stress

  Mass of Ions in am
   POMASS = 195.08  1.00
  Ionic Valenz
   ZVAL   =  10.00  1.00
  Atomic Wigner-Seitz radii
   RWIGS  =  -1.00 -1.00
  virtual crystal weights 
   VCA    =   1.00  1.00
   NELECT =     361.0000    total number of electrons
   NUPDOWN=      -1.0000    fix difference up-down

 DOS related values:
   EMIN   =  10.00;   EMAX   =-10.00  energy-range for DOS
   EFERMI =   0.00;   METHOD = LEGACY      
   ISMEAR =     1;   SIGMA  =   0.10  broadening in eV -4-tet -1-fermi 0-gaus

 Electronic relaxation 2 (details)
   IALGO  =     68    algorithm
   LDIAG  =      T    sub-space diagonalisation (order eigenvalues)
   LSUBROT=      F    optimize rotation matrix (better conditioning)
   TURBO    =      0    0=normal 1=particle mesh
   IRESTART =      0    0=no restart 2=restart with 2 vectors
   NREBOOT  =      0    no. of reboots
   NMIN     =      0    reboot dimension
   EREF     =   0.00    reference energy to select bands
   IMIX   =      4    mixing-type and parameters
     AMIX     =   0.40;   BMIX     =  1.00
     AMIX_MAG =   1.60;   BMIX_MAG =  1.00
     AMIN     =   0.10
     WC   =   100.;   INIMIX=   1;  MIXPRE=   1;  MAXMIX= -45

 Intra band minimization:
   WEIMIN = 0.0000     energy-eigenvalue tresh-hold
   EBREAK =  0.10E-07  absolut break condition
   DEPER  =   0.30     relativ break condition  

   TIME   =   0.40     timestep for ELM

  volume/ion in A,a.u.               =      41.90       282.79
  Fermi-wavevector in a.u.,A,eV,Ry     =   1.007136  1.903211 13.800704  1.014323
  Thomas-Fermi vector in A             =   2.139922
 
 Write flags
   LWAVE        =      T    write WAVECAR
   LDOWNSAMPLE  =      F    k-point downsampling of WAVECAR
   LCHARG       =      T    write CHGCAR
   LVTOT        =      F    write LOCPOT, total local potential
   LVHAR        =      F    write LOCPOT, Hartree potential only
   LELF         =      F    write electronic localiz. function (ELF)
   LORBIT       =      0    0 simple, 1 ext, 2 COOP (PROOUT), +10 PAW based schemes


 Dipole corrections
   LMONO  =      F    monopole corrections only (constant potential shift)
   LDIPOL =      F    correct potential (dipole corrections)
   IDIPOL =      0    1-x, 2-y, 3-z, 4-all directions 
   EPSILON=  1.0000000 bulk dielectric constant

 Exchange correlation treatment:
   GGA     =    BF    GGA type
   LEXCH   =    17    internal setting for exchange type
   LIBXC   =     F    Libxc                    
   VOSKOWN =     0    Vosko Wilk Nusair interpolation
   LHFCALC =     F    Hartree Fock is set to
   LHFONE  =     F    Hartree Fock one center treatment
   AEXX    =    0.0000 exact exchange contribution

 vdW DFT:
   LUSE_VDW   =     T    switch on vdW DFT
   IVDW_NL    =     1    kernel type
   LSPIN_VDW  =     F    use spin-polarized vdW DFT
   Zab_VDW    =******    correlation parameter
   PARAM1     =0.1234
   PARAM2     =1.0000
   PARAM3     =0.0000
   -- rVV10 --
   BPARAM     = 6.3000
   CPARAM     = 0.0093

 Linear response parameters
   LEPSILON=     F    determine dielectric tensor
   LRPA    =     F    only Hartree local field effects (RPA)
   LNABLA  =     F    use nabla operator in PAW spheres
   LVEL    =     F    velocity operator in full k-point grid
   CSHIFT  =0.1000    complex shift for real part using Kramers Kronig
   OMEGAMAX=  -1.0    maximum frequency
   DEG_THRESHOLD= 0.2000000E-02 threshold for treating states as degnerate
   RTIME   =   -0.100 relaxation time in fs
  (WPLASMAI=    0.000 imaginary part of plasma frequency in eV, 0.658/RTIME)
   DFIELD  = 0.0000000 0.0000000 0.0000000 field for delta impulse in time
 
  Optional k-point grid parameters
   LKPOINTS_OPT  =     F    use optional k-point grid
   KPOINTS_OPT_MODE=     1    mode for optional k-point grid
 
 Orbital magnetization related:
   ORBITALMAG=     F  switch on orbital magnetization
   LCHIMAG   =     F  perturbation theory with respect to B field
   DQ        =  0.001000  dq finite difference perturbation B field
   LLRAUG    =     F  two centre corrections for induced B field
   LBONE     =     F  B-component reconstruction in AE one-centre
   LVGVCALC  =     T  calculate vGv susceptibility
   LVGVAPPL  =     F  apply vGv susceptibility instead of pGv for G=0

 Random number generation:
   RANDOM_GENERATOR = DEFAULT
   PCG_SEED         = not used


--------------------------------------------------------------------------------------------------------


 Static calculation
 charge density and potential will be updated during run
 non-spin polarized calculation
 RMM-DIIS sequential band-by-band and
  variant of blocked Davidson during initial phase
 perform sub-space diagonalisation
    before iterative eigenvector-optimisation
 modified Broyden-mixing scheme, WC =      100.0
 initial mixing is a Kerker type mixing with AMIX =  0.4000 and BMIX =      1.0000
 Hartree-type preconditioning will be used
 using additional bands           59
 real space projection scheme for non local part
 use partial core corrections
 calculate Harris-corrections to forces 
   (improved forces if not selfconsistent)
 use gradient corrections 
 use of overlap-Matrix (Vanderbilt PP)
 Methfessel and Paxton  Order N= 1 SIGMA  =   0.10


--------------------------------------------------------------------------------------------------------


  energy-cutoff  :      680.29
  volume of cell :     1550.48
      direct lattice vectors                 reciprocal lattice vectors
     8.468310000  0.000000000  0.000000000     0.118087316 -0.068177744  0.000000000
     4.234155000  7.333771587  0.000000000     0.000000000  0.136355488  0.000000000
     0.000000000  0.000000000 24.965661990     0.000000000  0.000000000  0.040055016

  length of vectors
     8.468310000  8.468310000 24.965661990     0.136355488  0.136355488  0.040055016


 
 old parameters found on file WAVECAR:
  energy-cutoff  :      680.29
  volume of cell :     1550.48
      direct lattice vectors                 reciprocal lattice vectors
     8.468310000  0.000000000  0.000000000     0.118087316 -0.068177744  0.000000000
     4.234155000  7.333771587  0.000000000     0.000000000  0.136355488  0.000000000
     0.000000000  0.000000000 24.965661990     0.000000000  0.000000000  0.040055016

  length of vectors

 
 k-points in units of 2pi/SCALE and weight: KPOINTS created by Atomic Simulation Env
   0.00000000  0.00000000  0.00000000       0.040
   0.02361746 -0.01363555  0.00000000       0.080
   0.02361746  0.01363555  0.00000000       0.080
   0.00000000  0.02727110  0.00000000       0.080
   0.04723493 -0.02727110  0.00000000       0.080
   0.04723493  0.02727110  0.00000000       0.080
   0.00000000  0.05454220  0.00000000       0.080
   0.04723493  0.00000000  0.00000000       0.080
   0.02361746  0.04090665  0.00000000       0.080
  -0.02361746  0.04090665  0.00000000       0.080
  -0.04723493  0.05454220  0.00000000       0.080
   0.04723493 -0.08181329  0.00000000       0.080
  -0.02361746  0.06817774  0.00000000       0.080
 
 k-points in reciprocal lattice and weights: KPOINTS created by Atomic Simulation Env
   0.00000000  0.00000000  0.00000000       0.040
   0.20000000  0.00000000  0.00000000       0.080
   0.20000000  0.20000000  0.00000000       0.080
   0.00000000  0.20000000  0.00000000       0.080
   0.40000000  0.00000000  0.00000000       0.080
   0.40000000  0.40000000  0.00000000       0.080
   0.00000000  0.40000000  0.00000000       0.080
   0.40000000  0.20000000  0.00000000       0.080
   0.20000000  0.40000000  0.00000000       0.080
  -0.20000000  0.20000000  0.00000000       0.080
  -0.40000000  0.20000000  0.00000000       0.080
   0.40000000 -0.40000000  0.00000000       0.080
  -0.20000000  0.40000000  0.00000000       0.080
 
 position of ions in fractional coordinates (direct lattice) 
   0.00000000  0.00000000  0.34046764
   0.33400137  0.00000000  0.34046764
   0.66800274  0.00000000  0.34046764
   0.00000000  0.33400137  0.34046764
   0.33400137  0.33400137  0.34046764
   0.66800274  0.33400137  0.34046764
   0.00000000  0.66800274  0.34046764
   0.33400137  0.66800274  0.34046764
   0.66800274  0.66800274  0.34046764
   0.11133379  0.11133379  0.43297074
   0.44533516  0.11133379  0.43297074
   0.77933653  0.11133379  0.43297074
   0.11133379  0.44533516  0.43297074
   0.44533516  0.44533516  0.43297074
   0.77933653  0.44533516  0.43297074
   0.11133379  0.77933653  0.43297074
   0.44533516  0.77933653  0.43297074
   0.77933653  0.77933653  0.43297074
   0.89101838  0.22502593  0.52528256
   0.22400841  0.22349404  0.52522548
   0.55716915  0.22378083  0.52445087
   0.89113944  0.55529552  0.52523941
   0.22393510  0.55656872  0.52446089
   0.55703630  0.55706694  0.52431197
   0.89068662  0.89035252  0.52413158
   0.22412328  0.89048483  0.52458767
   0.55723020  0.89017676  0.52457417
   0.00176931  0.00055969  0.61736156
   0.33916142  0.99813346  0.61860906
   0.67001114  0.00115294  0.61767017
   0.00389480  0.33399306  0.62130268
   0.33921748  0.33508094  0.61852640
   0.66932607  0.33474797  0.61770965
   0.00197217  0.66958305  0.61736292
   0.33597612  0.66816488  0.61752429
   0.66938038  0.66823976  0.61771753
   0.15288866  0.25965646  0.66863983
 
 position of ions in cartesian coordinates  (Angst):
   0.00000000  0.00000000  8.50000000
   2.82842712  0.00000000  8.50000000
   5.65685425  0.00000000  8.50000000
   1.41421356  2.44948974  8.50000000
   4.24264069  2.44948974  8.50000000
   7.07106781  2.44948974  8.50000000
   2.82842712  4.89897949  8.50000000
   5.65685425  4.89897949  8.50000000
   8.48528137  4.89897949  8.50000000
   1.41421356  0.81649658 10.80940108
   4.24264069  0.81649658 10.80940108
   7.07106781  0.81649658 10.80940108
   2.82842712  3.26598632 10.80940108
   5.65685425  3.26598632 10.80940108
   8.48528137  3.26598632 10.80940108
   4.24264069  5.71547607 10.80940108
   7.07106781  5.71547607 10.80940108
   9.89949494  5.71547607 10.80940108
   8.49821450  1.65028875 13.11402686
   2.84328108  1.63905425 13.11260173
   5.66580383  1.64115751 13.09326309
   9.89765233  4.07241051 13.11294952
   4.25295006  4.08174789 13.09351329
   7.07586381  4.08540168 13.08979546
  11.31250097  6.52964202 13.08529195
   5.66839624  6.53061236 13.09667834
   8.48794447  6.52835299 13.09634152
   0.01735290  0.00410466 15.41283995
   7.09837581  7.32008279 15.44398461
   5.67874375  0.00845542 15.42054470
   1.44716079  2.44942883 15.51123275
   4.29138340  2.45740711 15.44192107
   7.08543542  2.45496517 15.42153034
   2.85181934  4.91056913 15.41287399
   5.67426358  4.90016859 15.41690262
   8.49795132  4.90071777 15.42172705
   2.39413427  1.90426119 16.69303609
 


--------------------------------------------------------------------------------------------------------


 k-point   1 :   0.0000 0.0000 0.0000  plane waves:   62399
 k-point   2 :   0.2000 0.0000 0.0000  plane waves:   62407
 k-point   3 :   0.2000 0.2000 0.0000  plane waves:   62407
 k-point   4 :   0.0000 0.2000 0.0000  plane waves:   62407
 k-point   5 :   0.4000 0.0000 0.0000  plane waves:   62451
 k-point   6 :   0.4000 0.4000 0.0000  plane waves:   62451
 k-point   7 :   0.0000 0.4000 0.0000  plane waves:   62451
 k-point   8 :   0.4000 0.2000 0.0000  plane waves:   62510
 k-point   9 :   0.2000 0.4000 0.0000  plane waves:   62510
 k-point  10 :  -0.2000 0.2000 0.0000  plane waves:   62510
 k-point  11 :  -0.4000 0.2000 0.0000  plane waves:   62498
 k-point  12 :   0.4000-0.4000 0.0000  plane waves:   62498
 k-point  13 :  -0.2000 0.4000 0.0000  plane waves:   62498

 maximum and minimum number of plane-waves per node :     62510    62399

 maximum number of plane-waves:     62510
 maximum index in each direction: 
   IXMAX=   18   IYMAX=   18   IZMAX=   53
   IXMIN=  -18   IYMIN=  -18   IZMIN=  -53


 serial   3D FFT for wavefunctions
 parallel 3D FFT for charge:
    minimum data exchange during FFTs selected (reduces bandwidth)


 total amount of memory used by VASP MPI-rank0   148540. kBytes
=======================================================================

   base      :      30000. kBytes
   nonlr-proj:      22467. kBytes
   fftplans  :       5213. kBytes
   grid      :      24541. kBytes
   one-center:        575. kBytes
   wavefun   :      65744. kBytes
 
     INWAV:  cpu time      7.3277: real time     10.7946
 Broyden mixing: mesh for mixing (old mesh)
   NGX = 37   NGY = 37   NGZ =107
  (NGX  =108   NGY  =108   NGZ  =320)
  gives a total of 146483 points

 charge density for first step will be calculated from the start-wavefunctions


--------------------------------------------------------------------------------------------------------


 Maximum index for non-local projection operator         3550
 Maximum index for augmentation-charges         1171 (set IRDMAX)


--------------------------------------------------------------------------------------------------------


 initial charge from wavefunction
 First call to EWALD:  gamma=   0.153
 Maximum number of real-space cells 4x 4x 2
 Maximum number of reciprocal cells 2x 2x 5

    FEWALD:  cpu time      0.0030: real time      0.0030


--------------------------------------- Ionic step        1  -------------------------------------------




--------------------------------------- Iteration      1(   1)  ---------------------------------------


vdW kernel read from vdw_kernel.bindat
  0.0000  0.2424  0.5071  0.7962  1.1119  1.4567  1.8333  2.2446  2.6937  3.1842
  3.7199  4.3049  4.9438  5.6415  6.4036  7.2358  8.1446  9.1372 10.2212 11.4050
 12.6979 14.1099 15.6519 17.3360 19.1751 21.1837 23.3773 25.7729 28.3892 31.2465
 34.3669 37.7748 41.4965 45.5611 50.0000
 
    POTLOK:  cpu time      2.7362: real time      2.7624
    SETDIJ:  cpu time      0.0053: real time      0.0054
     EDDAV:  cpu time     15.6324: real time     15.7657
       DOS:  cpu time      0.0012: real time      0.0013
    CHARGE:  cpu time      0.7603: real time      0.7674
    MIXING:  cpu time      0.0032: real time      0.0033
    --------------------------------------------
      LOOP:  cpu time     19.1388: real time     19.3054

 eigenvalue-minimisations  :  6960
 total energy-change (2. order) :-0.1044633E+03  (-0.8118786E-02)
 number of electron     360.9999957 magnetization 
 augmentation part      114.1547765 magnetization 

 Broyden mixing:
  rms(total) = 0.77771E-01    rms(broyden)= 0.77771E-01
  rms(prec ) = 0.11126E+00
  weight for this iteration     100.00

 Free energy of the ion-electron system (eV)
  ---------------------------------------------------
  alpha Z        PSCENC =       797.33612757
  Ewald energy   TEWEN  =    132238.93609566
  -Hartree energ DENC   =   -159638.47233530
  -exchange      EXHF   =         0.00000000
  -V(xc)+E(xc)   XCENC  =        89.55947859
  PAW double counting   =     32169.50199306   -31171.84970321
  entropy T*S    EENTRO =        -0.09125687
  eigenvalues    EBANDS =     -1086.18681418
  atomic energy  EATOM  =     26496.80315902
  Solvation  Ediel_sol  =         0.00000000
  ---------------------------------------------------
  free energy    TOTEN  =      -104.46325567 eV

  energy without entropy =     -104.37199880  energy(sigma->0) =     -104.43283671


--------------------------------------------------------------------------------------------------------




--------------------------------------- Iteration      1(   2)  ---------------------------------------


    POTLOK:  cpu time      2.2421: real time      2.2794
    SETDIJ:  cpu time      0.0056: real time      0.0056
    EDDIAG:  cpu time      2.8505: real time      2.8894
  RMM-DIIS:  cpu time     10.7609: real time     10.8665
    ORTHCH:  cpu time      0.4706: real time      0.4759
       DOS:  cpu time      0.0016: real time      0.0016
    CHARGE:  cpu time      0.7569: real time      0.7628
    MIXING:  cpu time      0.0026: real time      0.0026
    --------------------------------------------
      LOOP:  cpu time     17.0908: real time     17.2838

 eigenvalue-minimisations  :  6719
 total energy-change (2. order) :-0.4926245E+00  (-0.8489369E-02)
 number of electron     360.9999959 magnetization 
 augmentation part      114.1618825 magnetization 

 Broyden mixing:
  rms(total) = 0.79849E+00    rms(broyden)= 0.79849E+00
  rms(prec ) = 0.11511E+01
  weight for this iteration     100.00

 eigenvalues of (default mixing * dielectric matrix)
  average eigenvalue GAMMA=   0.0846
  0.0846

 Free energy of the ion-electron system (eV)
  ---------------------------------------------------
  alpha Z        PSCENC =       797.33612757
  Ewald energy   TEWEN  =    132238.93609566
  -Hartree energ DENC   =   -159637.28729871
  -exchange      EXHF   =         0.00000000
  -V(xc)+E(xc)   XCENC  =        89.56070564
  PAW double counting   =     32167.90496607   -31170.25265749
  entropy T*S    EENTRO =        -0.07448719
  eigenvalues    EBANDS =     -1087.88249073
  atomic energy  EATOM  =     26496.80315902
  Solvation  Ediel_sol  =         0.00000000
  ---------------------------------------------------
  free energy    TOTEN  =      -104.95588016 eV

  energy without entropy =     -104.88139298  energy(sigma->0) =     -104.93105110


--------------------------------------------------------------------------------------------------------




--------------------------------------- Iteration      1(   3)  ---------------------------------------


    POTLOK:  cpu time      2.2653: real time      2.2795
    SETDIJ:  cpu time      0.0043: real time      0.0043
    EDDIAG:  cpu time      2.9168: real time      2.9462
  RMM-DIIS:  cpu time      8.4443: real time      8.5170
    ORTHCH:  cpu time      0.5332: real time      0.5378
       DOS:  cpu time      0.0012: real time      0.0012
    CHARGE:  cpu time      0.7655: real time      0.7714
    MIXING:  cpu time      0.0020: real time      0.0020
    --------------------------------------------
      LOOP:  cpu time     14.9326: real time     15.0594

 eigenvalue-minimisations  :  6663
 total energy-change (2. order) : 0.4905187E+00  (-0.5116928E-02)
 number of electron     360.9999957 magnetization 
 augmentation part      114.1570640 magnetization 

 Broyden mixing:
  rms(total) = 0.70968E-01    rms(broyden)= 0.70967E-01
  rms(prec ) = 0.77745E-01
  weight for this iteration     100.00

 eigenvalues of (default mixing * dielectric matrix)
  average eigenvalue GAMMA=   0.1577
  0.2296  0.0857

 Free energy of the ion-electron system (eV)
  ---------------------------------------------------
  alpha Z        PSCENC =       797.33612757
  Ewald energy   TEWEN  =    132238.93609566
  -Hartree energ DENC   =   -159637.79883567
  -exchange      EXHF   =         0.00000000
  -V(xc)+E(xc)   XCENC  =        89.55747311
  PAW double counting   =     32168.68282581   -31171.03042893
  entropy T*S    EENTRO =        -0.09149874
  eigenvalues    EBANDS =     -1086.86027925
  atomic energy  EATOM  =     26496.80315902
  Solvation  Ediel_sol  =         0.00000000
  ---------------------------------------------------
  free energy    TOTEN  =      -104.46536143 eV

  energy without entropy =     -104.37386269  energy(sigma->0) =     -104.43486185


--------------------------------------------------------------------------------------------------------




--------------------------------------- Iteration      1(   4)  ---------------------------------------


    POTLOK:  cpu time      2.4062: real time      2.4694
    SETDIJ:  cpu time      0.0044: real time      0.0044
    EDDIAG:  cpu time      2.8151: real time      2.8428
  RMM-DIIS:  cpu time      8.4326: real time      8.5043
    ORTHCH:  cpu time      0.6031: real time      0.6083
       DOS:  cpu time      0.0010: real time      0.0010
    CHARGE:  cpu time      0.7536: real time      0.7603
    MIXING:  cpu time      0.0021: real time      0.0021
    --------------------------------------------
      LOOP:  cpu time     15.0182: real time     15.1926

 eigenvalue-minimisations  :  6811
 total energy-change (2. order) : 0.7807998E-02  (-0.6243123E-03)
 number of electron     360.9999957 magnetization 
 augmentation part      114.1572946 magnetization 

 Broyden mixing:
  rms(total) = 0.19452E-01    rms(broyden)= 0.19452E-01
  rms(prec ) = 0.21820E-01
  weight for this iteration     100.00

 eigenvalues of (default mixing * dielectric matrix)
  average eigenvalue GAMMA=   0.2537
  0.4522  0.0844  0.2244

 Free energy of the ion-electron system (eV)
  ---------------------------------------------------
  alpha Z        PSCENC =       797.33612757
  Ewald energy   TEWEN  =    132238.93609566
  -Hartree energ DENC   =   -159637.74065975
  -exchange      EXHF   =         0.00000000
  -V(xc)+E(xc)   XCENC  =        89.55771305
  PAW double counting   =     32168.72263091   -31171.07522896
  entropy T*S    EENTRO =        -0.09166006
  eigenvalues    EBANDS =     -1086.90573087
  atomic energy  EATOM  =     26496.80315902
  Solvation  Ediel_sol  =         0.00000000
  ---------------------------------------------------
  free energy    TOTEN  =      -104.45755343 eV

  energy without entropy =     -104.36589337  energy(sigma->0) =     -104.42700008


--------------------------------------------------------------------------------------------------------




--------------------------------------- Iteration      1(   5)  ---------------------------------------


    POTLOK:  cpu time      2.4643: real time      2.4814
    SETDIJ:  cpu time      0.0061: real time      0.0061
    EDDIAG:  cpu time      2.9365: real time      2.9669
  RMM-DIIS:  cpu time     10.2145: real time     10.2915
    ORTHCH:  cpu time      0.5520: real time      0.5607
       DOS:  cpu time      0.0010: real time      0.0010
    CHARGE:  cpu time      0.7566: real time      0.7623
    MIXING:  cpu time      0.0023: real time      0.0023
    --------------------------------------------
      LOOP:  cpu time     16.9333: real time     17.0723

 eigenvalue-minimisations  :  6982
 total energy-change (2. order) : 0.8789337E-04  (-0.1082824E-03)
 number of electron     360.9999957 magnetization 
 augmentation part      114.1578691 magnetization 

 Broyden mixing:
  rms(total) = 0.15951E-01    rms(broyden)= 0.15951E-01
  rms(prec ) = 0.17933E-01
  weight for this iteration     100.00

 eigenvalues of (default mixing * dielectric matrix)
  average eigenvalue GAMMA=   0.3427
  0.7355  0.0846  0.3506  0.2000

 Free energy of the ion-electron system (eV)
  ---------------------------------------------------
  alpha Z        PSCENC =       797.33612757
  Ewald energy   TEWEN  =    132238.93609566
  -Hartree energ DENC   =   -159637.66460459
  -exchange      EXHF   =         0.00000000
  -V(xc)+E(xc)   XCENC  =        89.55801462
  PAW double counting   =     32168.66825575   -31171.01782705
  entropy T*S    EENTRO =        -0.09164467
  eigenvalues    EBANDS =     -1086.98504183
  atomic energy  EATOM  =     26496.80315902
  Solvation  Ediel_sol  =         0.00000000
  ---------------------------------------------------
  free energy    TOTEN  =      -104.45746554 eV

  energy without entropy =     -104.36582086  energy(sigma->0) =     -104.42691731


--------------------------------------------------------------------------------------------------------




--------------------------------------- Iteration      1(   6)  ---------------------------------------


    POTLOK:  cpu time      2.3743: real time      2.4419
    SETDIJ:  cpu time      0.0050: real time      0.0051
    EDDIAG:  cpu time      2.8574: real time      2.8842
  RMM-DIIS:  cpu time      8.9139: real time      8.9817
    ORTHCH:  cpu time      0.5317: real time      0.5367
       DOS:  cpu time      0.0010: real time      0.0010
    CHARGE:  cpu time      0.7517: real time      0.7585
    MIXING:  cpu time      0.0045: real time      0.0045
    --------------------------------------------
      LOOP:  cpu time     15.4396: real time     15.6137

 eigenvalue-minimisations  :  6993
 total energy-change (2. order) : 0.1502117E-03  (-0.2855225E-04)
 number of electron     360.9999957 magnetization 
 augmentation part      114.1581866 magnetization 

 Broyden mixing:
  rms(total) = 0.66275E-02    rms(broyden)= 0.66275E-02
  rms(prec ) = 0.80369E-02
  weight for this iteration     100.00

 eigenvalues of (default mixing * dielectric matrix)
  average eigenvalue GAMMA=   0.4618
  0.8695  0.8695  0.0846  0.2829  0.2026

 Free energy of the ion-electron system (eV)
  ---------------------------------------------------
  alpha Z        PSCENC =       797.33612757
  Ewald energy   TEWEN  =    132238.93609566
  -Hartree energ DENC   =   -159637.58864191
  -exchange      EXHF   =         0.00000000
  -V(xc)+E(xc)   XCENC  =        89.55843277
  PAW double counting   =     32168.68652255   -31171.03420723
  entropy T*S    EENTRO =        -0.09177667
  eigenvalues    EBANDS =     -1087.06302707
  atomic energy  EATOM  =     26496.80315902
  Solvation  Ediel_sol  =         0.00000000
  ---------------------------------------------------
  free energy    TOTEN  =      -104.45731532 eV

  energy without entropy =     -104.36553865  energy(sigma->0) =     -104.42672310


--------------------------------------------------------------------------------------------------------




--------------------------------------- Iteration      1(   7)  ---------------------------------------


    POTLOK:  cpu time      2.3547: real time      2.3689
    SETDIJ:  cpu time      0.0044: real time      0.0044
    EDDIAG:  cpu time      2.8534: real time      2.8831
  RMM-DIIS:  cpu time      8.9125: real time      8.9792
    ORTHCH:  cpu time      0.5570: real time      0.5615
       DOS:  cpu time      0.0011: real time      0.0011
    CHARGE:  cpu time      0.7494: real time      0.7556
    MIXING:  cpu time      0.0050: real time      0.0050
    --------------------------------------------
      LOOP:  cpu time     15.4373: real time     15.5588

 eigenvalue-minimisations  :  6944
 total energy-change (2. order) : 0.3244128E-05  (-0.1032659E-04)
 number of electron     360.9999957 magnetization 
 augmentation part      114.1580198 magnetization 

 Broyden mixing:
  rms(total) = 0.60113E-02    rms(broyden)= 0.60113E-02
  rms(prec ) = 0.64381E-02
  weight for this iteration     100.00

 eigenvalues of (default mixing * dielectric matrix)
  average eigenvalue GAMMA=   0.5821
  1.6207  0.9967  0.0846  0.3298  0.1992  0.2615

 Free energy of the ion-electron system (eV)
  ---------------------------------------------------
  alpha Z        PSCENC =       797.33612757
  Ewald energy   TEWEN  =    132238.93609566
  -Hartree energ DENC   =   -159637.60710264
  -exchange      EXHF   =         0.00000000
  -V(xc)+E(xc)   XCENC  =        89.55870241
  PAW double counting   =     32168.82726126   -31171.17246931
  entropy T*S    EENTRO =        -0.09173390
  eigenvalues    EBANDS =     -1087.04735216
  atomic energy  EATOM  =     26496.80315902
  Solvation  Ediel_sol  =         0.00000000
  ---------------------------------------------------
  free energy    TOTEN  =      -104.45731208 eV

  energy without entropy =     -104.36557818  energy(sigma->0) =     -104.42673411


--------------------------------------------------------------------------------------------------------




--------------------------------------- Iteration      1(   8)  ---------------------------------------


    POTLOK:  cpu time      2.3688: real time      2.4325
    SETDIJ:  cpu time      0.0044: real time      0.0044
    EDDIAG:  cpu time      2.7236: real time      2.7472
  RMM-DIIS:  cpu time      7.8867: real time      7.9443
    ORTHCH:  cpu time      0.4528: real time      0.4567
       DOS:  cpu time      0.0011: real time      0.0011
    --------------------------------------------
      LOOP:  cpu time     13.4373: real time     13.5863

 eigenvalue-minimisations  :  5815
 total energy-change (2. order) : 0.8113806E-05  (-0.4468477E-05)
 number of electron     360.9999957 magnetization 
 augmentation part      114.1580198 magnetization 

 Free energy of the ion-electron system (eV)
  ---------------------------------------------------
  alpha Z        PSCENC =       797.33612757
  Ewald energy   TEWEN  =    132238.93609566
  -Hartree energ DENC   =   -159637.59716408
  -exchange      EXHF   =         0.00000000
  -V(xc)+E(xc)   XCENC  =        89.55908672
  PAW double counting   =     32169.02833260   -31171.37072301
  entropy T*S    EENTRO =        -0.09178869
  eigenvalues    EBANDS =     -1087.06042976
  atomic energy  EATOM  =     26496.80315902
  Solvation  Ediel_sol  =         0.00000000
  ---------------------------------------------------
  free energy    TOTEN  =      -104.45730397 eV

  energy without entropy =     -104.36551528  energy(sigma->0) =     -104.42670774


--------------------------------------------------------------------------------------------------------




 average (electrostatic) potential at core
  the test charge radii are     1.2059  0.5201
  (the norm of the test charge is              1.0000)
       1 -73.5418       2 -73.5335       3 -73.5241       4 -73.5308       5 -73.5217
       6 -73.5286       7 -73.5382       8 -73.5293       9 -73.5369      10 -73.9753
      11 -73.9643      12 -73.9540      13 -73.9714      14 -73.9854      15 -73.9934
      16 -73.9894      17 -73.9934      18 -73.9559      19 -73.9355      20 -73.9200
      21 -73.9661      22 -73.9360      23 -73.9584      24 -73.9703      25 -73.9925
      26 -73.9593      27 -73.9695      28 -73.5328      29 -73.5199      30 -73.5367
      31 -73.8507      32 -73.5208      33 -73.5453      34 -73.5307      35 -73.5443
      36 -73.5442      37 -38.2953
 
 
 
 E-fermi :  -0.0717     XC(G=0):  -5.8793     alpha+bet : -5.8354

 Fermi energy:        -0.0716698187

 k-point     1 :       0.0000    0.0000    0.0000
  band No.  band energies     occupation 
      1      -8.8927      2.00000
      2      -7.6781      2.00000
      3      -6.7899      2.00000
      4      -6.4962      2.00000
      5      -6.4736      2.00000
      6      -6.4587      2.00000
      7      -6.4540      2.00000
      8      -6.4507      2.00000
      9      -6.4398      2.00000
     10      -6.4319      2.00000
     11      -6.1074      2.00000
     12      -5.9200      2.00000
     13      -5.9153      2.00000
     14      -5.9065      2.00000
     15      -5.8991      2.00000
     16      -5.8956      2.00000
     17      -5.7917      2.00000
     18      -5.4599      2.00000
     19      -5.4578      2.00000
     20      -5.4515      2.00000
     21      -5.4492      2.00000
     22      -5.4479      2.00000
     23      -5.3477      2.00000
     24      -5.2273      2.00000
     25      -5.2258      2.00000
     26      -5.2233      2.00000
     27      -5.2198      2.00000
     28      -5.2147      2.00000
     29      -5.1118      2.00000
     30      -5.0303      2.00000
     31      -5.0218      2.00000
     32      -5.0169      2.00000
     33      -5.0136      2.00000
     34      -5.0129      2.00000
     35      -4.9715      2.00000
     36      -4.9666      2.00000
     37      -4.9580      2.00000
     38      -4.9540      2.00000
     39      -4.9271      2.00000
     40      -4.9148      2.00000
     41      -4.6895      2.00000
     42      -4.3798      2.00000
     43      -4.3792      2.00000
     44      -4.3435      2.00000
     45      -4.3417      2.00000
     46      -4.3221      2.00000
     47      -4.3203      2.00000
     48      -4.3056      2.00000
     49      -4.2907      2.00000
     50      -4.2889      2.00000
     51      -4.2062      2.00000
     52      -4.1372      2.00000
     53      -4.1295      2.00000
     54      -4.0443      2.00000
     55      -4.0242      2.00000
     56      -3.5901      2.00000
     57      -3.5695      2.00000
     58      -3.5648      2.00000
     59      -3.5575      2.00000
     60      -3.5560      2.00000
     61      -3.4966      2.00000
     62      -3.4849      2.00000
     63      -3.3831      2.00000
     64      -3.3752      2.00000
     65      -3.3733      2.00000
     66      -3.3730      2.00000
     67      -3.3642      2.00000
     68      -3.3619      2.00000
     69      -3.3487      2.00000
     70      -3.3207      2.00000
     71      -3.3083      2.00000
     72      -3.3050      2.00000
     73      -3.2993      2.00000
     74      -3.2931      2.00000
     75      -3.2672      2.00000
     76      -3.2619      2.00000
     77      -3.2583      2.00000
     78      -3.1572      2.00000
     79      -3.1461      2.00000
     80      -3.1417      2.00000
     81      -3.1351      2.00000
     82      -3.1327      2.00000
     83      -3.0847      2.00000
     84      -2.9438      2.00000
     85      -2.9369      2.00000
     86      -2.9291      2.00000
     87      -2.9231      2.00000
     88      -2.9135      2.00000
     89      -2.9006      2.00000
     90      -2.8997      2.00000
     91      -2.8913      2.00000
     92      -2.8415      2.00000
     93      -2.8168      2.00000
     94      -2.7813      2.00000
     95      -2.7754      2.00000
     96      -2.7379      2.00000
     97      -2.7362      2.00000
     98      -2.6901      2.00000
     99      -2.6865      2.00000
    100      -2.6841      2.00000
    101      -2.6175      2.00000
    102      -2.5352      2.00000
    103      -2.5200      2.00000
    104      -2.5166      2.00000
    105      -2.5071      2.00000
    106      -2.5017      2.00000
    107      -2.4926      2.00000
    108      -2.2456      2.00000
    109      -2.0259      2.00000
    110      -2.0083      2.00000
    111      -1.9979      2.00000
    112      -1.9930      2.00000
    113      -1.9852      2.00000
    114      -1.9827      2.00000
    115      -1.9792      2.00000
    116      -1.9624      2.00000
    117      -1.9526      2.00000
    118      -1.9504      2.00000
    119      -1.9447      2.00000
    120      -1.8742      2.00000
    121      -1.8579      2.00000
    122      -1.8227      2.00000
    123      -1.7298      2.00000
    124      -1.7171      2.00000
    125      -1.7133      2.00000
    126      -1.7091      2.00000
    127      -1.7052      2.00000
    128      -1.6203      2.00000
    129      -1.5816      2.00000
    130      -1.5343      2.00000
    131      -1.5330      2.00000
    132      -1.5210      2.00000
    133      -1.4923      2.00000
    134      -1.3346      2.00000
    135      -1.2786      2.00000
    136      -1.2680      2.00000
    137      -1.2616      2.00000
    138      -1.2531      2.00000
    139      -1.2451      2.00000
    140      -1.1999      2.00000
    141      -1.1759      2.00000
    142      -1.1524      2.00000
    143      -1.0312      2.00000
    144      -1.0289      2.00000
    145      -1.0241      2.00000
    146      -1.0176      2.00000
    147      -1.0131      2.00000
    148      -0.9265      2.00000
    149      -0.8626      2.00000
    150      -0.8576      2.00000
    151      -0.8422      2.00000
    152      -0.8308      2.00000
    153      -0.8289      2.00000
    154      -0.8148      2.00000
    155      -0.8100      2.00000
    156      -0.8037      2.00000
    157      -0.8024      2.00000
    158      -0.7969      2.00000
    159      -0.7953      2.00000
    160      -0.7277      2.00000
    161      -0.7044      2.00000
    162      -0.6904      2.00000
    163      -0.6725      2.00000
    164      -0.6620      2.00000
    165      -0.6523      2.00000
    166      -0.6479      2.00000
    167      -0.6360      2.00000
    168      -0.5980      2.00000
    169      -0.5926      2.00000
    170      -0.5640      2.00000
    171      -0.5583      2.00000
    172      -0.5520      2.00000
    173      -0.5436      2.00000
    174      -0.5416      2.00000
    175      -0.5396      2.00000
    176      -0.4589      2.00000
    177      -0.4454      2.00000
    178      -0.4400      2.00000
    179      -0.4380      2.00000
    180      -0.4297      2.00001
    181      -0.4224      2.00001
    182      -0.4191      2.00001
    183      -0.3517      2.00055
    184      -0.3297      2.00161
    185      -0.3187      2.00264
    186      -0.3175      2.00278
    187      -0.3072      2.00431
    188      -0.3027      2.00517
    189      -0.1132      1.64022
    190      -0.1003      1.46299
    191      -0.0157      0.19816
    192      -0.0125      0.16705
    193       0.0045      0.04086
    194       0.0094      0.01430
    195       0.0129     -0.00186
    196       0.0160     -0.01421
    197       0.4453     -0.00000
    198       0.8170     -0.00000
    199       0.8647     -0.00000
    200       0.8732     -0.00000
    201       0.9007     -0.00000
    202       0.9062     -0.00000
    203       0.9094     -0.00000
    204       2.6598      0.00000
    205       3.1471      0.00000
    206       3.1761      0.00000
    207       3.2036      0.00000
    208       3.2194      0.00000
    209       3.2304      0.00000
    210       4.4743      0.00000
    211       4.7514      0.00000
    212       4.7668      0.00000
    213       4.8167      0.00000
    214       4.8232      0.00000
    215       4.8288      0.00000
    216       4.8925      0.00000
    217       5.0332      0.00000
    218       5.1166      0.00000
    219       5.4785      0.00000
    220       5.5087      0.00000
    221       5.7978      0.00000
    222       5.8075      0.00000
    223       5.8486      0.00000
    224       5.8588      0.00000
    225       5.8712      0.00000
    226       6.1449      0.00000
    227       6.3894      0.00000
    228       6.6225      0.00000
    229       6.6257      0.00000
    230       6.6286      0.00000
    231       6.8041      0.00000
    232       6.9307      0.00000
    233       7.1244      0.00000
    234       7.1423      0.00000
    235       7.1609      0.00000
    236       7.1662      0.00000
    237       7.1720      0.00000
    238       7.1918      0.00000
    239       7.2941      0.00000
    240       7.7197      0.00000

 k-point     2 :       0.2000    0.0000    0.0000
  band No.  band energies     occupation 
      1      -8.7442      2.00000
      2      -7.5361      2.00000
      3      -6.9707      2.00000
      4      -6.7063      2.00000
      5      -6.5598      2.00000
      6      -6.5375      2.00000
      7      -6.3549      2.00000
      8      -6.2665      2.00000
      9      -6.2257      2.00000
     10      -6.2169      2.00000
     11      -6.0985      2.00000
     12      -6.0135      2.00000
     13      -5.9734      2.00000
     14      -5.8445      2.00000
     15      -5.8343      2.00000
     16      -5.8245      2.00000
     17      -5.6963      2.00000
     18      -5.5393      2.00000
     19      -5.4210      2.00000
     20      -5.4153      2.00000
     21      -5.4068      2.00000
     22      -5.3897      2.00000
     23      -5.3325      2.00000
     24      -5.3051      2.00000
     25      -5.2734      2.00000
     26      -5.2296      2.00000
     27      -5.2169      2.00000
     28      -5.2119      2.00000
     29      -5.1487      2.00000
     30      -5.1201      2.00000
     31      -5.1135      2.00000
     32      -5.0314      2.00000
     33      -5.0178      2.00000
     34      -5.0095      2.00000
     35      -5.0081      2.00000
     36      -4.8642      2.00000
     37      -4.8088      2.00000
     38      -4.7836      2.00000
     39      -4.7709      2.00000
     40      -4.7546      2.00000
     41      -4.6650      2.00000
     42      -4.4985      2.00000
     43      -4.4961      2.00000
     44      -4.4574      2.00000
     45      -4.4144      2.00000
     46      -4.3964      2.00000
     47      -4.3903      2.00000
     48      -4.3258      2.00000
     49      -4.2128      2.00000
     50      -4.2051      2.00000
     51      -4.1208      2.00000
     52      -4.1108      2.00000
     53      -4.0744      2.00000
     54      -4.0534      2.00000
     55      -4.0336      2.00000
     56      -3.8354      2.00000
     57      -3.7439      2.00000
     58      -3.7343      2.00000
     59      -3.6798      2.00000
     60      -3.6635      2.00000
     61      -3.6062      2.00000
     62      -3.5865      2.00000
     63      -3.5589      2.00000
     64      -3.5508      2.00000
     65      -3.5327      2.00000
     66      -3.5224      2.00000
     67      -3.4930      2.00000
     68      -3.4479      2.00000
     69      -3.4020      2.00000
     70      -3.3697      2.00000
     71      -3.3620      2.00000
     72      -3.3287      2.00000
     73      -3.2679      2.00000
     74      -3.2550      2.00000
     75      -3.2534      2.00000
     76      -3.1828      2.00000
     77      -3.1746      2.00000
     78      -3.1539      2.00000
     79      -3.1333      2.00000
     80      -3.0977      2.00000
     81      -3.0854      2.00000
     82      -3.0730      2.00000
     83      -3.0309      2.00000
     84      -2.9857      2.00000
     85      -2.9660      2.00000
     86      -2.9588      2.00000
     87      -2.9411      2.00000
     88      -2.9368      2.00000
     89      -2.9165      2.00000
     90      -2.8942      2.00000
     91      -2.8597      2.00000
     92      -2.8240      2.00000
     93      -2.8071      2.00000
     94      -2.7888      2.00000
     95      -2.7714      2.00000
     96      -2.7557      2.00000
     97      -2.7259      2.00000
     98      -2.7246      2.00000
     99      -2.6961      2.00000
    100      -2.6912      2.00000
    101      -2.6049      2.00000
    102      -2.5452      2.00000
    103      -2.5435      2.00000
    104      -2.5166      2.00000
    105      -2.5037      2.00000
    106      -2.4967      2.00000
    107      -2.4934      2.00000
    108      -2.4907      2.00000
    109      -2.4414      2.00000
    110      -2.4295      2.00000
    111      -2.4191      2.00000
    112      -2.4127      2.00000
    113      -2.2389      2.00000
    114      -2.0794      2.00000
    115      -2.0546      2.00000
    116      -2.0261      2.00000
    117      -1.9913      2.00000
    118      -1.9882      2.00000
    119      -1.9754      2.00000
    120      -1.9616      2.00000
    121      -1.9367      2.00000
    122      -1.8592      2.00000
    123      -1.7907      2.00000
    124      -1.7803      2.00000
    125      -1.7374      2.00000
    126      -1.6652      2.00000
    127      -1.6444      2.00000
    128      -1.6165      2.00000
    129      -1.5828      2.00000
    130      -1.5703      2.00000
    131      -1.5391      2.00000
    132      -1.5337      2.00000
    133      -1.5125      2.00000
    134      -1.4361      2.00000
    135      -1.4336      2.00000
    136      -1.3901      2.00000
    137      -1.3857      2.00000
    138      -1.3718      2.00000
    139      -1.3159      2.00000
    140      -1.1903      2.00000
    141      -1.1698      2.00000
    142      -1.1595      2.00000
    143      -1.1430      2.00000
    144      -1.1364      2.00000
    145      -1.1223      2.00000
    146      -1.0686      2.00000
    147      -1.0298      2.00000
    148      -1.0020      2.00000
    149      -0.9973      2.00000
    150      -0.9812      2.00000
    151      -0.9585      2.00000
    152      -0.9128      2.00000
    153      -0.9047      2.00000
    154      -0.8885      2.00000
    155      -0.8451      2.00000
    156      -0.7835      2.00000
    157      -0.7737      2.00000
    158      -0.7547      2.00000
    159      -0.7257      2.00000
    160      -0.6545      2.00000
    161      -0.6319      2.00000
    162      -0.6313      2.00000
    163      -0.5964      2.00000
    164      -0.5846      2.00000
    165      -0.5612      2.00000
    166      -0.5419      2.00000
    167      -0.4851      2.00000
    168      -0.4645      2.00000
    169      -0.4144      2.00001
    170      -0.3970      2.00004
    171      -0.3900      2.00006
    172      -0.3839      2.00009
    173      -0.3542      2.00048
    174      -0.3489      2.00063
    175      -0.3423      2.00088
    176      -0.3375      2.00111
    177      -0.3287      2.00168
    178      -0.2696      2.01710
    179      -0.2611      2.02218
    180      -0.1186      1.70563
    181      -0.1163      1.67798
    182      -0.0954      1.38867
    183      -0.0829      1.18809
    184      -0.0780      1.10614
    185      -0.0657      0.89905
    186      -0.0322      0.38618
    187      -0.0192      0.23377
    188      -0.0115      0.15882
    189       0.0095      0.01394
    190       0.0632     -0.06691
    191       0.1104     -0.02732
    192       0.1379     -0.01159
    193       0.1805     -0.00210
    194       0.2951     -0.00000
    195       0.2996     -0.00000
    196       0.3147     -0.00000
    197       0.3573     -0.00000
    198       0.6600     -0.00000
    199       0.7585     -0.00000
    200       1.2166     -0.00000
    201       1.4769     -0.00000
    202       1.4875     -0.00000
    203       1.6062     -0.00000
    204       2.3584     -0.00000
    205       2.7493      0.00000
    206       2.9177      0.00000
    207       3.4859      0.00000
    208       3.6579      0.00000
    209       3.6593      0.00000
    210       3.7545      0.00000
    211       3.9913      0.00000
    212       4.3685      0.00000
    213       4.6184      0.00000
    214       4.7166      0.00000
    215       4.9579      0.00000
    216       4.9978      0.00000
    217       4.9984      0.00000
    218       5.1529      0.00000
    219       5.2395      0.00000
    220       5.4699      0.00000
    221       5.6402      0.00000
    222       5.7281      0.00000
    223       5.7770      0.00000
    224       5.9108      0.00000
    225       6.1066      0.00000
    226       6.2201      0.00000
    227       6.2621      0.00000
    228       6.3273      0.00000
    229       6.3453      0.00000
    230       6.6654      0.00000
    231       6.6913      0.00000
    232       6.7238      0.00000
    233       6.7932      0.00000
    234       6.8602      0.00000
    235       6.9233      0.00000
    236       7.0603      0.00000
    237       7.2234      0.00000
    238       7.4947      0.00000
    239       7.5092      0.00000
    240       7.6284      0.00000

 k-point     3 :       0.2000    0.2000    0.0000
  band No.  band energies     occupation 
      1      -8.7446      2.00000
      2      -7.5392      2.00000
      3      -6.9836      2.00000
      4      -6.6910      2.00000
      5      -6.5612      2.00000
      6      -6.5428      2.00000
      7      -6.3556      2.00000
      8      -6.2714      2.00000
      9      -6.2244      2.00000
     10      -6.2143      2.00000
     11      -6.1254      2.00000
     12      -6.0047      2.00000
     13      -5.9195      2.00000
     14      -5.8500      2.00000
     15      -5.8329      2.00000
     16      -5.8264      2.00000
     17      -5.7319      2.00000
     18      -5.5330      2.00000
     19      -5.4199      2.00000
     20      -5.4140      2.00000
     21      -5.4069      2.00000
     22      -5.3687      2.00000
     23      -5.3297      2.00000
     24      -5.2986      2.00000
     25      -5.2719      2.00000
     26      -5.2441      2.00000
     27      -5.2234      2.00000
     28      -5.2157      2.00000
     29      -5.1511      2.00000
     30      -5.1162      2.00000
     31      -5.1071      2.00000
     32      -5.0343      2.00000
     33      -5.0166      2.00000
     34      -5.0080      2.00000
     35      -5.0024      2.00000
     36      -4.8608      2.00000
     37      -4.8065      2.00000
     38      -4.7847      2.00000
     39      -4.7711      2.00000
     40      -4.7549      2.00000
     41      -4.6697      2.00000
     42      -4.4972      2.00000
     43      -4.4876      2.00000
     44      -4.4609      2.00000
     45      -4.4172      2.00000
     46      -4.4022      2.00000
     47      -4.3877      2.00000
     48      -4.3240      2.00000
     49      -4.2090      2.00000
     50      -4.1774      2.00000
     51      -4.1277      2.00000
     52      -4.1119      2.00000
     53      -4.0842      2.00000
     54      -4.0528      2.00000
     55      -4.0406      2.00000
     56      -3.8290      2.00000
     57      -3.7384      2.00000
     58      -3.7341      2.00000
     59      -3.6728      2.00000
     60      -3.6511      2.00000
     61      -3.6185      2.00000
     62      -3.5832      2.00000
     63      -3.5705      2.00000
     64      -3.5435      2.00000
     65      -3.5280      2.00000
     66      -3.5250      2.00000
     67      -3.4945      2.00000
     68      -3.4473      2.00000
     69      -3.4023      2.00000
     70      -3.3745      2.00000
     71      -3.3591      2.00000
     72      -3.3505      2.00000
     73      -3.2807      2.00000
     74      -3.2678      2.00000
[...]
    148      -1.1155      2.00000
    149      -1.0985      2.00000
    150      -1.0715      2.00000
    151      -1.0595      2.00000
    152      -1.0357      2.00000
    153      -1.0267      2.00000
    154      -0.8999      2.00000
    155      -0.8601      2.00000
    156      -0.7981      2.00000
    157      -0.7568      2.00000
    158      -0.7033      2.00000
    159      -0.6278      2.00000
    160      -0.6132      2.00000
    161      -0.5681      2.00000
    162      -0.5394      2.00000
    163      -0.4970      2.00000
    164      -0.4892      2.00000
    165      -0.4347      2.00000
    166      -0.3814      2.00011
    167      -0.3194      2.00256
    168      -0.2960      2.00676
    169      -0.2813      2.01156
    170      -0.2689      2.01746
    171      -0.2591      2.02347
    172      -0.2388      2.03960
    173      -0.2075      2.06636
    174      -0.1744      2.05555
    175      -0.1180      1.69869
    176      -0.1039      1.51529
    177      -0.0882      1.27548
    178      -0.0681      0.93935
    179      -0.0471      0.59745
    180      -0.0447      0.56103
    181      -0.0405      0.50043
    182       0.0260     -0.04513
    183       0.1261     -0.01716
    184       0.1568     -0.00573
    185       0.1673     -0.00373
    186       0.1716     -0.00311
    187       0.1802     -0.00213
    188       0.2288     -0.00018
    189       0.2740     -0.00001
    190       0.3593     -0.00000
    191       0.4526     -0.00000
    192       1.1238     -0.00000
    193       1.3366     -0.00000
    194       1.3451     -0.00000
    195       1.5218     -0.00000
    196       1.5752     -0.00000
    197       1.6820     -0.00000
    198       1.7133     -0.00000
    199       1.7153     -0.00000
    200       2.0373     -0.00000
    201       2.3067     -0.00000
    202       2.3483     -0.00000
    203       2.5615     -0.00000
    204       2.7821      0.00000
    205       2.8126      0.00000
    206       2.8900      0.00000
    207       2.9431      0.00000
    208       3.0990      0.00000
    209       3.1457      0.00000
    210       3.2428      0.00000
    211       3.3040      0.00000
    212       3.5630      0.00000
    213       3.7088      0.00000
    214       3.7693      0.00000
    215       4.1427      0.00000
    216       4.3943      0.00000
    217       4.4301      0.00000
    218       4.6235      0.00000
    219       4.7511      0.00000
    220       5.2814      0.00000
    221       5.5100      0.00000
    222       5.5663      0.00000
    223       5.6819      0.00000
    224       5.7382      0.00000
    225       5.7891      0.00000
    226       5.9300      0.00000
    227       5.9517      0.00000
    228       5.9993      0.00000
    229       6.0050      0.00000
    230       6.0571      0.00000
    231       6.2340      0.00000
    232       6.4029      0.00000
    233       6.6010      0.00000
    234       6.6785      0.00000
    235       6.8092      0.00000
    236       6.9400      0.00000
    237       6.9529      0.00000
    238       7.0468      0.00000
    239       7.2293      0.00000
    240       7.3146      0.00000


--------------------------------------------------------------------------------------------------------


 soft charge-density along one line, spin component           1
         0         1         2         3         4         5         6         7         8         9
 total charge-density along one line
 
 pseudopotential strength for first ion, spin component:           1
 -6.578   0.001  -0.000  -0.010  -0.001  -6.673   0.001  -0.000
  0.001  -6.465   0.000   0.000  -0.010   0.001  -6.562   0.000
 -0.000   0.000  -6.454   0.001   0.000  -0.000   0.000  -6.552
 -0.010   0.000   0.001  -6.464   0.001  -0.010   0.000   0.001
 -0.001  -0.010   0.000   0.001  -6.578  -0.001  -0.010   0.000
 -6.673   0.001  -0.000  -0.010  -0.001  -6.752   0.001  -0.000
  0.001  -6.562   0.000   0.000  -0.010   0.001  -6.644   0.000
 -0.000   0.000  -6.552   0.001   0.000  -0.000   0.000  -6.634
 -0.010   0.000   0.001  -6.562   0.001  -0.009   0.000   0.001
 -0.001  -0.010   0.000   0.001  -6.673  -0.001  -0.010   0.000
 -0.000  -0.000  -0.035  -0.001   0.000  -0.000  -0.000  -0.034
 -0.000  -0.000  -0.051  -0.001   0.000  -0.000  -0.000  -0.050
 -0.000  -0.005   0.000   0.000   0.001  -0.000  -0.004   0.000
  0.000  -0.000  -0.008  -0.000   0.000   0.000  -0.000  -0.008
  0.000   0.000   0.000  -0.005  -0.000   0.000   0.000   0.000
 -0.000  -0.004   0.000   0.000   0.001  -0.000  -0.003   0.000
  0.000  -0.000  -0.009  -0.000   0.000   0.000  -0.000  -0.008
  0.000   0.000   0.000  -0.004  -0.000   0.000   0.000   0.000
 total augmentation occupancy for first ion, spin component:           1
  3.244   0.009   0.003  -0.263  -0.024  -1.909  -0.006  -0.002   0.083   0.015   0.003  -0.000   0.007  -0.000  -0.040  -0.000
  0.009   4.228  -0.004   0.004  -0.262  -0.005  -2.176   0.004  -0.001   0.090   0.004  -0.001  -0.245   0.003   0.001   0.014
  0.003  -0.004   4.369   0.018   0.009  -0.002   0.004  -2.555  -0.010  -0.006   0.840  -0.183  -0.001  -0.279  -0.003   0.000
 -0.263   0.004   0.018   4.241   0.003   0.092  -0.001  -0.010  -2.181  -0.001   0.010  -0.004   0.001   0.001  -0.244  -0.000
 -0.024  -0.262   0.009   0.003   3.251   0.015   0.081  -0.005  -0.001  -1.913   0.001  -0.000  -0.048  -0.000   0.005   0.004
 -1.909  -0.005  -0.002   0.092   0.015   2.223   0.003   0.000   0.037  -0.010  -0.003   0.000  -0.007  -0.000   0.040   0.001
 -0.006  -2.176   0.004  -0.001   0.081   0.003   1.973  -0.004  -0.002   0.040  -0.003   0.001   0.236  -0.003  -0.001  -0.019
 -0.002   0.004  -2.555  -0.010  -0.005   0.000  -0.004   2.527   0.005   0.003  -0.707   0.126   0.002   0.336   0.004  -0.000
  0.083  -0.001  -0.010  -2.181  -0.001   0.037  -0.002   0.005   1.973   0.001  -0.006   0.002  -0.001  -0.003   0.235   0.000
  0.015   0.090  -0.006  -0.001  -1.913  -0.010   0.040   0.003   0.001   2.225  -0.002   0.000   0.049  -0.000  -0.006  -0.004
  0.003   0.004   0.840   0.010   0.001  -0.003  -0.003  -0.707  -0.006  -0.002   2.506  -0.575  -0.003   0.191  -0.005   0.000
 -0.000  -0.001  -0.183  -0.004  -0.000   0.000   0.001   0.126   0.002   0.000  -0.575   0.148   0.001  -0.068   0.001  -0.000
  0.007  -0.245  -0.001   0.001  -0.048  -0.007   0.236   0.002  -0.001   0.049  -0.003   0.001   0.254  -0.000  -0.000  -0.018
 -0.000   0.003  -0.279   0.001  -0.000  -0.000  -0.003   0.336  -0.003  -0.000   0.191  -0.068  -0.000   0.142  -0.000   0.000
 -0.040   0.001  -0.003  -0.244   0.005   0.040  -0.001   0.004   0.235  -0.006  -0.005   0.001  -0.000  -0.000   0.254   0.000
 -0.000   0.014   0.000  -0.000   0.004   0.001  -0.019  -0.000   0.000  -0.004   0.000  -0.000  -0.018   0.000   0.000   0.001
  0.000  -0.000   0.007  -0.000  -0.000   0.000   0.000  -0.023   0.000   0.000  -0.021   0.007   0.000  -0.011   0.000  -0.000
  0.003  -0.000   0.000   0.014  -0.000  -0.003   0.000  -0.000  -0.019   0.000   0.000  -0.000   0.000   0.000  -0.018  -0.000


------------------------ aborting loop because EDIFF is reached ----------------------------------------


    CHARGE:  cpu time      0.7516: real time      0.7574
    FORLOC:  cpu time      0.0188: real time      0.0188
    FORNL :  cpu time      2.6618: real time      2.6873
    STRESS:  cpu time      7.8369: real time      7.8964
    FORCOR:  cpu time      2.2654: real time      2.2787
    FORHAR:  cpu time      0.0156: real time      0.0157
    MIXING:  cpu time      0.0048: real time      0.0048
    OFIELD:  cpu time      0.0000: real time      0.0000

  FORCE on cell =-STRESS in cart. coord.  units (eV):
  Direction    XX          YY          ZZ          XY          YZ          ZX
  --------------------------------------------------------------------------------------
  Alpha Z   797.33613   797.33613   797.33613
  Ewald  151964.81726151953.85229************   -17.55297    -9.40924     8.44203
  Hartree157922.07780157919.02228************    -5.11495    -1.63679     1.02106
  E(xc)   -1657.68278 -1657.80576 -1666.55342    -0.19588    -0.09396     0.05367
  Local  ************************321347.25682    19.16597     8.68605    -7.90948
  n-local   109.52161   109.67607    88.69280    -0.35881    -0.95317     1.11627
  augment  1891.54144  1891.85523  1953.01557     1.02682     0.83248    -0.39302
  Kinetic  5210.26442  5212.11130  5366.10358     3.14158     2.37734    -1.96871
  Fock        0.00000     0.00000     0.00000     0.00000     0.00000     0.00000
  -------------------------------------------------------------------------------------
  Total     -33.20910   -33.15653     2.49757     0.11177    -0.19730     0.36182
  in kB     -34.31630   -34.26198     2.58084     0.11550    -0.20387     0.37388
  external pressure =      -22.00 kB  Pullay stress =        0.00 kB


 VOLUME and BASIS-vectors are now :
 -----------------------------------------------------------------------------
  energy-cutoff  :      680.29
  volume of cell :     1550.48
      direct lattice vectors                 reciprocal lattice vectors
     8.468310000  0.000000000  0.000000000     0.118087316 -0.068177744  0.000000000
     4.234155000  7.333771587  0.000000000     0.000000000  0.136355488  0.000000000
     0.000000000  0.000000000 24.965661990     0.000000000  0.000000000  0.040055016

  length of vectors
     8.468310000  8.468310000 24.965661990     0.136355488  0.136355488  0.040055016


 FORCES acting on ions
    electron-ion (+dipol)            ewald-force                    non-local-force                 convergence-correction
 -----------------------------------------------------------------------------------------------
   -.363E+01 -.232E+01 0.248E+04   0.364E+01 0.229E+01 -.248E+04   0.980E-01 0.490E-01 -.130E+01   -.600E-01 0.238E-01 0.158E-01
   -.409E+00 -.399E+01 0.248E+04   0.386E+00 0.391E+01 -.247E+04   0.264E-01 0.110E+00 -.129E+01   0.117E-01 0.219E-01 -.745E-02
   0.339E+01 -.571E+01 0.248E+04   -.350E+01 0.571E+01 -.248E+04   0.826E-03 0.925E-01 -.127E+01   0.482E-01 -.799E-02 0.206E-01
   -.346E+01 0.148E+01 0.248E+04   0.343E+01 -.147E+01 -.247E+04   0.106E+00 -.326E-01 -.127E+01   -.262E-01 0.353E-02 -.572E-02
   -.671E-01 -.863E-01 0.247E+04   0.677E-01 0.108E+00 -.247E+04   -.597E-02 -.657E-02 -.130E+01   0.440E-02 -.225E-01 0.318E-02
   0.332E+01 -.209E+01 0.247E+04   -.332E+01 0.214E+01 -.247E+04   -.764E-01 0.236E-01 -.132E+01   0.218E-01 -.628E-01 -.185E-01
   -.306E+01 0.602E+01 0.248E+04   0.304E+01 -.605E+01 -.247E+04   0.860E-01 -.764E-01 -.130E+01   -.333E-01 0.419E-01 0.112E-01
   -.124E+00 0.418E+01 0.247E+04   0.140E+00 -.416E+01 -.247E+04   -.138E-01 -.717E-01 -.131E+01   -.224E-01 0.430E-02 -.300E-01
   0.356E+01 0.232E+01 0.247E+04   -.357E+01 -.231E+01 -.247E+04   -.102E+00 -.498E-01 -.130E+01   0.558E-01 -.139E-02 -.332E-01
   -.393E+01 -.415E+01 0.834E+03   0.390E+01 0.412E+01 -.833E+03   0.120E+00 0.765E-01 -.284E+00   -.307E-01 0.226E-01 0.363E-01
   0.171E+01 -.503E+01 0.836E+03   -.171E+01 0.498E+01 -.835E+03   -.199E-01 0.109E+00 -.303E+00   0.434E-01 0.408E-02 0.517E-01
   0.110E+01 -.738E+01 0.834E+03   -.115E+01 0.734E+01 -.834E+03   -.201E-01 0.175E+00 -.324E+00   -.129E-01 -.596E-01 0.230E-01
   -.193E+01 0.332E+01 0.835E+03   0.190E+01 -.330E+01 -.834E+03   0.786E-01 -.423E-01 -.288E+00   -.934E-02 0.289E-02 0.474E-01
   0.555E+00 0.843E+00 0.838E+03   -.541E+00 -.788E+00 -.838E+03   0.157E-01 0.171E-01 -.377E+00   -.380E-01 -.735E-01 0.231E-01
   0.137E+01 -.305E+00 0.834E+03   -.138E+01 0.331E+00 -.834E+03   -.821E-01 0.342E-01 -.309E+00   0.479E-01 -.541E-01 -.776E-03
   -.374E+01 0.545E+01 0.836E+03   0.379E+01 -.547E+01 -.835E+03   0.105E+00 -.127E+00 -.345E+00   -.921E-01 0.509E-01 0.341E-01
   -.815E-01 0.272E+01 0.836E+03   0.610E-01 -.275E+01 -.836E+03   -.170E-01 -.944E-01 -.348E+00   0.221E-01 0.546E-01 0.142E-01
   0.399E+01 0.426E+01 0.833E+03   -.401E+01 -.421E+01 -.832E+03   -.132E+00 -.123E+00 -.293E+00   0.699E-01 0.535E-01 0.237E-01
   -.151E+01 -.142E+00 -.831E+03   0.176E+01 0.461E+00 0.831E+03   -.248E+00 -.266E+00 0.143E+00   0.532E-02 -.547E-01 0.157E-01
   0.160E+01 -.156E+01 -.832E+03   -.165E+01 0.158E+01 0.831E+03   0.361E-01 -.299E-01 0.639E+00   0.134E-01 0.115E-01 0.357E-01
   0.308E+00 0.632E-02 -.816E+03   -.319E+00 0.961E-01 0.816E+03   0.282E-01 -.305E-01 0.456E+00   -.177E-01 -.731E-01 0.224E-01
   -.954E+00 0.150E+01 -.831E+03   0.796E+00 -.184E+01 0.831E+03   0.960E-01 0.335E+00 0.158E+00   0.674E-01 0.507E-02 0.293E-01
   0.138E+01 0.192E+01 -.817E+03   -.133E+01 -.197E+01 0.817E+03   0.314E-01 0.513E-01 0.439E+00   -.732E-01 -.123E-01 0.346E-01
   -.819E+00 0.965E+00 -.815E+03   0.827E+00 -.942E+00 0.814E+03   -.107E-01 0.736E-02 0.528E+00   0.656E-02 -.306E-01 0.513E-01
   0.811E+00 -.156E+00 -.814E+03   -.786E+00 0.139E+00 0.813E+03   -.252E-03 -.259E-02 0.553E+00   -.208E-01 0.204E-01 -.213E-02
   -.404E+00 -.170E+01 -.820E+03   0.490E+00 0.169E+01 0.820E+03   -.340E-01 -.531E-01 0.420E+00   -.486E-01 0.637E-01 0.371E-01
   -.602E+00 -.110E+00 -.819E+03   0.494E+00 0.600E-01 0.819E+03   0.413E-01 -.197E-01 0.446E+00   0.701E-01 0.695E-01 0.337E-01
   0.435E+00 0.234E+01 -.245E+04   -.666E+00 -.246E+01 0.245E+04   0.245E+00 0.121E+00 0.132E+01   -.782E-02 0.497E-02 -.191E-01
   -.593E-02 0.947E+01 -.245E+04   0.317E+00 -.104E+02 0.245E+04   -.323E+00 0.913E+00 0.132E+01   0.137E-01 0.539E-01 0.903E-02
   -.193E+01 0.109E+01 -.246E+04   0.197E+01 -.110E+01 0.245E+04   -.249E-01 0.808E-03 0.117E+01   -.684E-02 0.126E-01 -.257E-01
   0.291E+02 -.172E+02 -.245E+04   -.273E+02 0.162E+02 0.245E+04   -.184E+01 0.106E+01 -.303E+01   0.507E-01 -.227E-01 -.109E-01
   -.804E+01 -.466E+01 -.245E+04   0.905E+01 0.490E+01 0.245E+04   -.979E+00 -.206E+00 0.131E+01   -.321E-01 -.320E-01 -.569E-02
   -.102E+01 -.162E+01 -.245E+04   0.100E+01 0.164E+01 0.245E+04   0.365E-01 0.190E-01 0.120E+01   -.180E-01 -.477E-01 0.217E-02
   -.160E+01 -.138E+01 -.245E+04   0.160E+01 0.165E+01 0.245E+04   0.447E-02 -.279E+00 0.132E+01   -.406E-02 -.499E-02 -.222E-01
   0.408E+00 0.110E+00 -.245E+04   -.366E+00 -.107E+00 0.245E+04   -.437E-02 -.139E-01 0.117E+01   -.343E-01 0.806E-02 0.255E-01
   0.724E+00 0.221E+01 -.245E+04   -.743E+00 -.217E+01 0.245E+04   -.146E-01 -.675E-01 0.121E+01   0.383E-01 0.274E-01 0.133E-01
   -.124E+02 0.709E+01 -.318E+03   0.137E+02 -.784E+01 0.320E+03   -.131E+01 0.754E+00 -.206E+01   0.112E-02 -.201E-04 -.310E-02
 -----------------------------------------------------------------------------------------------
   0.407E+01 -.235E+01 0.539E+01   0.139E-12 0.444E-13 0.574E-11   -.411E+01 0.236E+01 -.582E+01   0.333E-02 0.111E-02 0.430E+00
 
 
 POSITION                                       TOTAL-FORCE (eV/Angst)
 -----------------------------------------------------------------------------------
      0.00000      0.00000      8.50000         0.051877      0.039036     -0.124432
      2.82843      0.00000      8.50000         0.016110      0.054468     -0.093562
      5.65685      0.00000      8.50000        -0.064486      0.085610     -0.176360
      1.41421      2.44949      8.50000         0.051386     -0.018552     -0.081220
      4.24264      2.44949      8.50000        -0.000087     -0.007789     -0.067595
      7.07107      2.44949      8.50000        -0.048583      0.002930     -0.077814
      2.82843      4.89898      8.50000         0.033886     -0.063055     -0.115491
      5.65685      4.89898      8.50000        -0.019259     -0.045610     -0.087515
      8.48528      4.89898      8.50000        -0.060265     -0.035352     -0.091828
      1.41421      0.81650     10.80940         0.060666      0.066690      0.170189
      4.24264      0.81650     10.80940         0.023010      0.062606      0.061575
      7.07107      0.81650     10.80940        -0.081793      0.084673      0.025922
      2.82843      3.26599     10.80940         0.039500     -0.022626      0.159755
      5.65685      3.26599     10.80940        -0.006870     -0.001539      0.057959
      8.48528      3.26599     10.80940        -0.036873      0.006168      0.191378
      4.24264      5.71548     10.80940         0.063420     -0.100875      0.057551
      7.07107      5.71548     10.80940        -0.014467     -0.064198      0.093628
      9.89949      5.71548     10.80940        -0.080461     -0.014052      0.051737
      8.49821      1.65029     13.11403         0.003343     -0.001262      0.004313
      2.84328      1.63905     13.11260        -0.000499     -0.000159     -0.000987
      5.66580      1.64116     13.09326         0.000032     -0.001289      0.003397
      9.89765      4.07241     13.11295         0.005990     -0.003267      0.004699
      4.25295      4.08175     13.09351         0.005127     -0.001757      0.001009
      7.07586      4.08540     13.08980         0.005281     -0.000414      0.003538
     11.31250      6.52964     13.08529         0.004882      0.000613      0.001199
      5.66840      6.53061     13.09668         0.004571     -0.000206      0.003279
      8.48794      6.52835     13.09634         0.004254     -0.000312      0.003858
      0.01735      0.00410     15.41284         0.006661     -0.000808      0.000507
      7.09838      7.32008     15.44398         0.002822      0.000074      0.006412
      5.67874      0.00846     15.42054         0.007001     -0.001865      0.003147
      1.44716      2.44943     15.51123         0.000180      0.000304      0.002894
      4.29138      2.45741     15.44192         0.002838     -0.002186      0.004415
      7.08544      2.45497     15.42153         0.005742     -0.004526     -0.000533
      2.85182      4.91057     15.41287         0.005229     -0.005331     -0.000950
      5.67426      4.90017     15.41690         0.004749     -0.003605      0.004266
      8.49795      4.90072     15.42173         0.005737     -0.002694      0.001255
      2.39413      1.90426     16.69304        -0.000652      0.000157      0.000404
 -----------------------------------------------------------------------------------
    total drift:                               -0.032506      0.005643      0.004614


--------------------------------------------------------------------------------------------------------



  FREE ENERGIE OF THE ION-ELECTRON SYSTEM (eV)
  ---------------------------------------------------
  free  energy   TOTEN  =      -104.45730397 eV

  energy  without entropy=     -104.36551528  energy(sigma->0) =     -104.42670774
 


--------------------------------------------------------------------------------------------------------


    POTLOK:  cpu time      2.2797: real time      2.3072


--------------------------------------------------------------------------------------------------------


 writing wavefunctions
     LOOP+:  cpu time    154.1871: real time    156.1256
    4ORBIT:  cpu time      0.0000: real time      0.0000

 total amount of memory used by VASP MPI-rank0   148540. kBytes
=======================================================================

   base      :      30000. kBytes
   nonlr-proj:      22467. kBytes
   fftplans  :       5213. kBytes
   grid      :      24541. kBytes
   one-center:        575. kBytes
   wavefun   :      65744. kBytes
 
  
  
 General timing and accounting informations for this job:
 ========================================================
  
                  Total CPU time used (sec):      166.771
                            User time (sec):      163.668
                          System time (sec):        3.102
                         Elapsed time (sec):      172.939
  
                   Maximum memory used (kb):      632128.
                   Average memory used (kb):          N/A
  
                          Minor page faults:       182131
                          Major page faults:          675
                 Voluntary context switches:         5837
