unknown system                          
           1
     8.468310    0.000000    0.000000
     4.234155    7.333772    0.000000
     0.000000    0.000000   24.965662
   Pt   H 
    36     1
Direct configuration=     1
   0.00000000  0.00000000  0.34046764
   0.33400137  0.00000000  0.34046764
   0.66800274  0.00000000  0.34046764
   0.00000000  0.33400137  0.34046764
   0.33400137  0.33400137  0.34046764
   0.66800274  0.33400137  0.34046764
   0.00000000  0.66800274  0.34046764
   0.33400137  0.66800274  0.34046764
   0.66800274  0.66800274  0.34046764
   0.11133379  0.11133379  0.43297074
   0.44533516  0.11133379  0.43297074
   0.77933653  0.11133379  0.43297074
   0.11133379  0.44533516  0.43297074
   0.44533516  0.44533516  0.43297074
   0.77933653  0.44533516  0.43297074
   0.11133379  0.77933653  0.43297074
   0.44533516  0.77933653  0.43297074
   0.77933653  0.77933653  0.43297074
   0.89101838  0.22502593  0.52528256
   0.22400841  0.22349404  0.52522548
   0.55716915  0.22378083  0.52445087
   0.89113944  0.55529552  0.52523941
   0.22393510  0.55656872  0.52446089
   0.55703630  0.55706694  0.52431197
   0.89068662  0.89035252  0.52413158
   0.22412328  0.89048483  0.52458767
   0.55723020  0.89017676  0.52457417
   0.00176931  0.00055969  0.61736156
   0.33916142  0.99813346  0.61860906
   0.67001114  0.00115294  0.61767017
   0.00389480  0.33399306  0.62130268
   0.33921748  0.33508094  0.61852640
   0.66932607  0.33474797  0.61770965
   0.00197217  0.66958305  0.61736292
   0.33597612  0.66816488  0.61752429
   0.66938038  0.66823976  0.61771753
   0.15288866  0.25965646  0.66863983
