
     Program PWSCF v.7.1 starts on  2Dec2025 at 15:14:50 
        Git branch: heads/qe-7.1
        Last git commit: 48ba0178f8fede6d020eb786884699a9f063f55d-dirty
        Last git commit date: Fri Jan 27 14:22:33 2023 +0000
        Last git commit subject: Merge branch 'fix_hubbard' into 'develop'

     This program is part of the open-source Quantum ESPRESSO suite
     for quantum simulation of materials; please cite
         "P. Giannozzi et al., J. Phys.:Condens. Matter 21 395502 (2009);
         "P. Giannozzi et al., J. Phys.:Condens. Matter 29 465901 (2017);
         "P. Giannozzi et al., J. Chem. Phys. 152 154105 (2020);
          URL http://www.quantum-espresso.org", 
     in publications or presentations arising from this work. More details at
     http://www.quantum-espresso.org/quote

     Parallel version (MPI), running on    96 processors

     MPI processes distributed on     2 nodes
     281073 MiB available memory on the printing compute node when the environment starts

     Reading input from espresso.pwi
Warning: card &CELL ignored
Warning: card / ignored
Warning: card &FCP ignored
Warning: card / ignored
Warning: card &RISM ignored
Warning: card / ignored

     Current dimensions of program PWSCF are:
     Max number of different atomic species (ntypx) = 10
     Max number of k-points (npk) =  40000
     Max angular momentum in pseudopotentials (lmaxx) =  4
     file Co.pbe-n-kjpaw_psl.1.0.0.UPF: wavefunction(s)  4S 3D renormalized
     file C.pbe-n-kjpaw_psl.1.0.0.UPF: wavefunction(s)  2S 2P renormalized
     file O.pbe-nl-kjpaw_psl.1.0.0.UPF: wavefunction(s)  2S 2P renormalized
     file H.pbe-kjpaw_psl.1.0.0.UPF: wavefunction(s)  1S renormalized

     **************************************************************************
     Initializing libbeef V0.1.2 with the BEEF-vdW functional.
     Citation: Wellendorff et al., PRB 85, 235149 (2012).
     **************************************************************************


     IMPORTANT: XC functional enforced from input :
     Exchange-correlation= BEEF-VDW
                           (   1   4  43  14   2   0   0)
     Any further DFT definition will be discarded
     Please, verify this is what you really want


     R & G space division:  proc/nbgrp/npool/nimage =      96
     Subspace diagonalization in iterative solution of the eigenvalue problem:
     one sub-group per band group will be used
     custom distributed-memory algorithm (size of sub-group:  2*  2 procs)


     Parallelization info
     --------------------
     sticks:   dense  smooth     PW     G-vecs:    dense   smooth      PW
     Min          43      23      6                 7829     3049     440
     Max          44      24      7                 7845     3068     465
     Sum        4153    2221    613               752179   293251   42993

     Using Slab Decomposition



     bravais-lattice index     =            0
     lattice parameter (alat)  =      14.1729  a.u.
     unit-cell volume          =    8574.3059 (a.u.)^3
     number of atoms/cell      =           39
     number of atomic types    =            4
     number of electrons       =       335.00
     number of Kohn-Sham states=          202
     kinetic-energy cutoff     =      40.0000  Ry
     charge density cutoff     =     300.0000  Ry
     scf convergence threshold =      1.0E-06
     mixing beta               =       0.7000
     number of iterations used =            8  local-TF  mixing
     Exchange-correlation= BEEF-VDW
                           (   1   4  43  14   2   0   0)

     celldm(1)=  14.172946  celldm(2)=   0.000000  celldm(3)=   0.000000
     celldm(4)=   0.000000  celldm(5)=   0.000000  celldm(6)=   0.000000

     crystal axes: (cart. coord. in units of alat)
               a(1) = (   1.000000   0.000000   0.000000 )  
               a(2) = (   0.500000   0.866025   0.000000 )  
               a(3) = (   0.000000   0.000000   3.477667 )  

     reciprocal axes: (cart. coord. in units 2 pi/alat)
               b(1) = (  1.000000 -0.577350  0.000000 )  
               b(2) = (  0.000000  1.154701  0.000000 )  
               b(3) = (  0.000000  0.000000  0.287549 )  


     PseudoPot. # 1 for Co read from file:
     /users/kbadger1/espresso/pseudo/pslibrary.1.0.0/pbe/PSEUDOPOTENTIALS/Co.pbe-n-kjpaw_psl.1.0.0.UPF
     MD5 check sum: 88af6ec42553d4236c267fdfcb472151
     Pseudo is Projector augmented-wave + core cor, Zval =  9.0
     Generated using 'atomic' code by A. Dal Corso  v.7.0
     Shape of augmentation charge: PSQ
     Using radial grid of 1193 points,  6 beta functions with: 
                l(1) =   0
                l(2) =   0
                l(3) =   1
                l(4) =   1
                l(5) =   2
                l(6) =   2
     Q(r) pseudized with 0 coefficients 


     PseudoPot. # 2 for C  read from file:
     /users/kbadger1/espresso/pseudo/pslibrary.1.0.0/pbe/PSEUDOPOTENTIALS/C.pbe-n-kjpaw_psl.1.0.0.UPF
     MD5 check sum: 6408e75cdba28732cea38a4db8498ce4
     Pseudo is Projector augmented-wave + core cor, Zval =  4.0
     Generated using 'atomic' code by A. Dal Corso  v.7.0
     Shape of augmentation charge: PSQ
     Using radial grid of 1073 points,  4 beta functions with: 
                l(1) =   0
                l(2) =   0
                l(3) =   1
                l(4) =   1
     Q(r) pseudized with 0 coefficients 


     PseudoPot. # 3 for O  read from file:
     /users/kbadger1/espresso/pseudo/pslibrary.1.0.0/pbe/PSEUDOPOTENTIALS/O.pbe-nl-kjpaw_psl.1.0.0.UPF
     MD5 check sum: f0439fab3598ca4e468f064226030408
     Pseudo is Projector augmented-wave + core cor, Zval =  6.0
     Generated using 'atomic' code by A. Dal Corso  v.7.0
     Shape of augmentation charge: PSQ
     Using radial grid of 1095 points,  4 beta functions with: 
                l(1) =   0
                l(2) =   0
                l(3) =   1
                l(4) =   1
     Q(r) pseudized with 0 coefficients 


     PseudoPot. # 4 for H  read from file:
     /users/kbadger1/espresso/pseudo/pslibrary.1.0.0/pbe/PSEUDOPOTENTIALS/H.pbe-kjpaw_psl.1.0.0.UPF
     MD5 check sum: fe4c6fa958fa6d3815bf5d2419cbf1df
     Pseudo is Projector augmented-wave, Zval =  1.0
     Generated using 'atomic' code by A. Dal Corso  v.7.0
     Shape of augmentation charge: PSQ
     Using radial grid of  929 points,  2 beta functions with: 
                l(1) =   0
                l(2) =   0
     Q(r) pseudized with 0 coefficients 


     atomic species   valence    mass     pseudopotential
        Co             9.00    58.93319     Co( 1.00)
        C              4.00    12.00000     C ( 1.00)
        O              6.00    15.99491     O ( 1.00)
        H              1.00     1.00783     H ( 1.00)

     Starting magnetic structure 
     atomic species   magnetization
        Co           1.000
        C            1.000
        O            0.000
        H            0.000

     No symmetry found



   Cartesian axes

     site n.     atom                  positions (alat units)
         1           Co  tau(   1) = (   0.0000000   0.1924501   1.3333333  )
         2           Co  tau(   2) = (   0.3333333   0.1924501   1.3333333  )
         3           Co  tau(   3) = (   0.6666667   0.1924501   1.3333333  )
         4           Co  tau(   4) = (   0.1666667   0.4811252   1.3333333  )
         5           Co  tau(   5) = (   0.5000000   0.4811252   1.3333333  )
         6           Co  tau(   6) = (   0.8333333   0.4811252   1.3333333  )
         7           Co  tau(   7) = (   0.3333333   0.7698004   1.3333333  )
         8           Co  tau(   8) = (   0.6666667   0.7698004   1.3333333  )
         9           Co  tau(   9) = (   1.0000000   0.7698004   1.3333333  )
        10           Co  tau(  10) = (   0.0000000   0.0000000   1.6036667  )
        11           Co  tau(  11) = (   0.3333333   0.0000000   1.6036667  )
        12           Co  tau(  12) = (   0.6666667   0.0000000   1.6036667  )
        13           Co  tau(  13) = (   0.1666667   0.2886751   1.6036667  )
        14           Co  tau(  14) = (   0.5000000   0.2886751   1.6036667  )
        15           Co  tau(  15) = (   0.8333333   0.2886751   1.6036667  )
        16           Co  tau(  16) = (   0.3333333   0.5773503   1.6036667  )
        17           Co  tau(  17) = (   0.6666667   0.5773503   1.6036667  )
        18           Co  tau(  18) = (   1.0000000   0.5773503   1.6036667  )
        19           Co  tau(  19) = (   0.0000000   0.1924501   1.8740000  )
        20           Co  tau(  20) = (   0.3333333   0.1924501   1.8740000  )
        21           Co  tau(  21) = (   0.6666667   0.1924501   1.8740000  )
        22           Co  tau(  22) = (   0.1666667   0.4811252   1.8740000  )
        23           Co  tau(  23) = (   0.5000000   0.4811252   1.8740000  )
        24           Co  tau(  24) = (   0.8333333   0.4811252   1.8740000  )
        25           Co  tau(  25) = (   0.3333333   0.7698004   1.8740000  )
        26           Co  tau(  26) = (   0.6666667   0.7698004   1.8740000  )
        27           Co  tau(  27) = (   1.0000000   0.7698004   1.8740000  )
        28           Co  tau(  28) = (   0.0000000   0.0000000   2.1443333  )
        29           Co  tau(  29) = (   0.3333333   0.0000000   2.1443333  )
        30           Co  tau(  30) = (   0.6666667   0.0000000   2.1443333  )
        31           Co  tau(  31) = (   0.1666667   0.2886751   2.1443333  )
        32           Co  tau(  32) = (   0.5000000   0.2886751   2.1443333  )
        33           Co  tau(  33) = (   0.8333333   0.2886751   2.1443333  )
        34           Co  tau(  34) = (   0.3333333   0.5773503   2.1443333  )
        35           Co  tau(  35) = (   0.6666667   0.5773503   2.1443333  )
        36           Co  tau(  36) = (   1.0000000   0.5773503   2.1443333  )
        37           C   tau(  37) = (   0.4297879   0.2074459   2.3687902  )
        38           O   tau(  38) = (   0.3327494   0.0776961   2.4149942  )
        39           H   tau(  39) = (   0.4897468   0.2883060   2.4758820  )

     number of k points=    13  Marzari-Vanderbilt smearing, width (Ry)=  0.0010
                       cart. coord. in units 2pi/alat
        k(    1) = (   0.0000000   0.0000000   0.0000000), wk =   0.0400000
        k(    2) = (   0.0000000   0.2309401   0.0000000), wk =   0.0800000
        k(    3) = (   0.0000000   0.4618802   0.0000000), wk =   0.0800000
        k(    4) = (   0.2000000  -0.1154701   0.0000000), wk =   0.0800000
        k(    5) = (   0.2000000   0.1154701   0.0000000), wk =   0.0800000
        k(    6) = (   0.2000000   0.3464102   0.0000000), wk =   0.0800000
        k(    7) = (   0.2000000  -0.5773503   0.0000000), wk =   0.0800000
        k(    8) = (   0.2000000  -0.3464102   0.0000000), wk =   0.0800000
        k(    9) = (   0.4000000  -0.2309401   0.0000000), wk =   0.0800000
        k(   10) = (   0.4000000   0.0000000   0.0000000), wk =   0.0800000
        k(   11) = (   0.4000000   0.2309401   0.0000000), wk =   0.0800000
        k(   12) = (   0.4000000  -0.6928203   0.0000000), wk =   0.0800000
        k(   13) = (   0.4000000  -0.4618802   0.0000000), wk =   0.0800000

     Dense  grid:   752179 G-vectors     FFT dimensions: (  80,  80, 288)

     Smooth grid:   293251 G-vectors     FFT dimensions: (  60,  60, 200)

     Estimated max dynamical RAM per process >      84.82 MB

     Estimated total dynamical RAM >       7.95 GB
     Generating pointlists ...
     new r_m :   0.1026 (alat units)  1.4547 (a.u.) for type    1
     new r_m :   0.0606 (alat units)  0.8593 (a.u.) for type    2
     new r_m :   0.0695 (alat units)  0.9850 (a.u.) for type    3
     new r_m :   0.0606 (alat units)  0.8593 (a.u.) for type    4

     Initial potential from superposition of free atoms

     starting charge     334.9897, renormalised to     335.0000

     negative rho (up, down):  2.997E-03 4.701E-04


     %%%%%%%%%%%%%%%%%%%%%%%%%%%%%%%%%%%%%%%%%%%%%%%%%%%%%%%%%%%%%%%%%%%%%%%%
     %                                                                      %
     % You are using vdW-DF, which was implemented by the Thonhauser group. %
     % Please cite the following two papers that made this development      %
     % possible and the two reviews that describe the various versions:     %
     %                                                                      %
     %   T. Thonhauser et al., PRL 115, 136402 (2015).                      %
     %   T. Thonhauser et al., PRB 76, 125112 (2007).                       %
     %   K. Berland et al., Rep. Prog. Phys. 78, 066501 (2015).             %
     %   D.C. Langreth et al., J. Phys.: Condens. Matter 21, 084203 (2009). %
     %                                                                      %
     % If you are calculating stress with vdW-DF, please also cite:         %
     %                                                                      %
     %   R. Sabatini et al., J. Phys.: Condens. Matter 24, 424209 (2012).   %
     %   C.M. Frostenson et al., Electr. Struct. 4, 014001 (2022).          %
     %                                                                      %
     %%%%%%%%%%%%%%%%%%%%%%%%%%%%%%%%%%%%%%%%%%%%%%%%%%%%%%%%%%%%%%%%%%%%%%%%

     %%%%%%%%%%%%%%%%%%%%%%%%%%%%%%%%%%%%%%%%%%%%%%%%%%%%%%%%%%%%%%%%%%%%%%%%
     %                                                                      %
     %  vdW-DF NEWS:                                                        %
     %                                                                      %
     %  * vdW-DF3 is now available. DOI: 10.1021/acs.jctc.0c00471           %
     %    use with input_dft = 'vdW-DF3-opt1' or 'vdW-DF3-opt2'             %
     %                                                                      %
     %  * Unscreened and range-separated hybrid vdW-DF-cx functionals       %
     %    DOI: 10.1063/1.4986522 and 10.1088/1361-648X/ac2ad2               %
     %    use with input_dft = 'vdW-DF-cx0'    and 'vdW-DF-ahcx'            %
     %  * Unscreened and range-separated hybrid vdW-DF2-b86r functionals    %
     %    DOI: 10.1063/1.4986522 and DOI: 10.1103/PhysRevX.12.041003        %
     %    use with input_dft = 'vdW-DF2-br0' and 'vdW-DF2-ahbr'             %
     %                                                                      %
     %%%%%%%%%%%%%%%%%%%%%%%%%%%%%%%%%%%%%%%%%%%%%%%%%%%%%%%%%%%%%%%%%%%%%%%%


     Starting wfcs are  333 randomized atomic wfcs
     Checking if some PAW data can be deallocated... 

     total cpu time spent up to now is       14.5 secs

     per-process dynamical memory:   212.4 Mb

     Self-consistent Calculation

     iteration #  1     ecut=    40.00 Ry     beta= 0.70
     Davidson diagonalization with overlap
     ethr =  1.00E-02,  avg # of iterations =  2.0

     negative rho (up, down):  4.835E-05 9.852E-07

     total cpu time spent up to now is       30.7 secs

     total energy              =   -6052.95400733 Ry
     estimated scf accuracy    <      39.85185583 Ry

     total magnetization       =    69.00 Bohr mag/cell
     absolute magnetization    =    81.22 Bohr mag/cell

     iteration #  2     ecut=    40.00 Ry     beta= 0.70
     Davidson diagonalization with overlap
     ethr =  1.00E-02,  avg # of iterations =  1.0

     negative rho (up, down):  2.025E-05 5.942E-07

     total cpu time spent up to now is       46.4 secs

     total energy              =   -6052.34319351 Ry
     estimated scf accuracy    <      25.57401711 Ry

     total magnetization       =    68.84 Bohr mag/cell
     absolute magnetization    =    76.75 Bohr mag/cell

     iteration #  3     ecut=    40.00 Ry     beta= 0.70
     Davidson diagonalization with overlap
     ethr =  7.63E-03,  avg # of iterations =  1.0

     negative rho (up, down):  1.085E-06 1.774E-06

     total cpu time spent up to now is       59.7 secs

     total energy              =   -6055.03951975 Ry
     estimated scf accuracy    <      84.66498703 Ry

     total magnetization       =    66.12 Bohr mag/cell
     absolute magnetization    =    73.28 Bohr mag/cell

     iteration #  4     ecut=    40.00 Ry     beta= 0.70
     Davidson diagonalization with overlap
     ethr =  7.63E-03,  avg # of iterations =  1.0

     negative rho (up, down):  1.096E-06 5.518E-07

     total cpu time spent up to now is       74.9 secs

     total energy              =   -6056.24523086 Ry
     estimated scf accuracy    <       5.67211522 Ry

     total magnetization       =    60.73 Bohr mag/cell
     absolute magnetization    =    70.53 Bohr mag/cell

     iteration #  5     ecut=    40.00 Ry     beta= 0.70
     Davidson diagonalization with overlap
     ethr =  1.69E-03,  avg # of iterations =  1.3

     negative rho (up, down):  1.049E-06 4.801E-07

     total cpu time spent up to now is       88.0 secs

     total energy              =   -6056.26741405 Ry
     estimated scf accuracy    <       3.32913179 Ry

     total magnetization       =    60.45 Bohr mag/cell
     absolute magnetization    =    69.84 Bohr mag/cell

     iteration #  6     ecut=    40.00 Ry     beta= 0.70
     Davidson diagonalization with overlap
     ethr =  9.94E-04,  avg # of iterations =  1.4

     negative rho (up, down):  8.672E-07 4.610E-07

     total cpu time spent up to now is      104.5 secs

     total energy              =   -6056.37166454 Ry
     estimated scf accuracy    <       0.53641427 Ry

     total magnetization       =    60.45 Bohr mag/cell
     absolute magnetization    =    69.61 Bohr mag/cell

     iteration #  7     ecut=    40.00 Ry     beta= 0.70
     Davidson diagonalization with overlap
     ethr =  1.60E-04,  avg # of iterations =  6.0

     negative rho (up, down):  8.486E-07 4.978E-07

     total cpu time spent up to now is      122.2 secs

     total energy              =   -6056.40361753 Ry
     estimated scf accuracy    <       0.78526233 Ry

     total magnetization       =    60.64 Bohr mag/cell
     absolute magnetization    =    69.39 Bohr mag/cell

     iteration #  8     ecut=    40.00 Ry     beta= 0.70
     Davidson diagonalization with overlap
     ethr =  1.60E-04,  avg # of iterations =  2.2

     negative rho (up, down):  4.000E-07 2.335E-07

     total cpu time spent up to now is      139.2 secs

     total energy              =   -6056.41671211 Ry
     estimated scf accuracy    <       0.18312614 Ry

     total magnetization       =    60.78 Bohr mag/cell
     absolute magnetization    =    69.32 Bohr mag/cell

     iteration #  9     ecut=    40.00 Ry     beta= 0.70
     Davidson diagonalization with overlap
     c_bands:  3 eigenvalues not converged
     ethr =  5.47E-05,  avg # of iterations =  8.6

     negative rho (up, down):  2.350E-07 1.229E-07

     total cpu time spent up to now is      161.9 secs

     total energy              =   -6056.42393042 Ry
     estimated scf accuracy    <       0.16009370 Ry

     total magnetization       =    61.19 Bohr mag/cell
     absolute magnetization    =    69.36 Bohr mag/cell

     iteration # 10     ecut=    40.00 Ry     beta= 0.70
     Davidson diagonalization with overlap
     ethr =  4.78E-05,  avg # of iterations =  2.6

     negative rho (up, down):  1.901E-07 1.429E-07

     total cpu time spent up to now is      176.5 secs

     total energy              =   -6056.42563123 Ry
     estimated scf accuracy    <       0.18785595 Ry

     total magnetization       =    61.32 Bohr mag/cell
     absolute magnetization    =    69.26 Bohr mag/cell

     iteration # 11     ecut=    40.00 Ry     beta= 0.70
     Davidson diagonalization with overlap
     ethr =  4.78E-05,  avg # of iterations =  1.4

     negative rho (up, down):  9.495E-08 5.967E-08

     total cpu time spent up to now is      192.5 secs

     total energy              =   -6056.42466020 Ry
     estimated scf accuracy    <       0.10430962 Ry

     total magnetization       =    61.34 Bohr mag/cell
     absolute magnetization    =    69.15 Bohr mag/cell

     iteration # 12     ecut=    40.00 Ry     beta= 0.70
     Davidson diagonalization with overlap
     ethr =  3.11E-05,  avg # of iterations =  2.0

     negative rho (up, down):  3.916E-06 7.865E-08

     total cpu time spent up to now is      206.2 secs

     total energy              =   -6056.42668258 Ry
     estimated scf accuracy    <       0.08426055 Ry

     total magnetization       =    61.33 Bohr mag/cell
     absolute magnetization    =    68.99 Bohr mag/cell

     iteration # 13     ecut=    40.00 Ry     beta= 0.70
     Davidson diagonalization with overlap
     ethr =  2.52E-05,  avg # of iterations =  2.3

     negative rho (up, down):  6.119E-08 2.621E-09

     total cpu time spent up to now is      223.1 secs

     total energy              =   -6056.42525627 Ry
     estimated scf accuracy    <       0.09146687 Ry

     total magnetization       =    61.34 Bohr mag/cell
     absolute magnetization    =    68.93 Bohr mag/cell

     iteration # 14     ecut=    40.00 Ry     beta= 0.70
     Davidson diagonalization with overlap
     ethr =  2.52E-05,  avg # of iterations =  1.8

     negative rho (up, down):  6.713E-03 4.993E-03

     total cpu time spent up to now is      236.9 secs

     total energy              =   -6056.42020901 Ry
     estimated scf accuracy    <       0.06423468 Ry

     total magnetization       =    61.33 Bohr mag/cell
     absolute magnetization    =    68.95 Bohr mag/cell

     iteration # 15     ecut=    40.00 Ry     beta= 0.70
     Davidson diagonalization with overlap
     c_bands:  1 eigenvalues not converged
     c_bands:  3 eigenvalues not converged
     ethr =  1.92E-05,  avg # of iterations =  3.8

     negative rho (up, down):  1.103E-02 9.078E-03

     total cpu time spent up to now is      255.3 secs

     total energy              =   -6056.41938794 Ry
     estimated scf accuracy    <       0.06200170 Ry

     total magnetization       =    61.33 Bohr mag/cell
     absolute magnetization    =    68.89 Bohr mag/cell

     iteration # 16     ecut=    40.00 Ry     beta= 0.70
     Davidson diagonalization with overlap
     ethr =  1.85E-05,  avg # of iterations =  1.5

     negative rho (up, down):  2.081E-02 1.881E-02

     total cpu time spent up to now is      268.5 secs

     total energy              =   -6056.41906048 Ry
     estimated scf accuracy    <       0.02771106 Ry

     total magnetization       =    61.33 Bohr mag/cell
     absolute magnetization    =    68.87 Bohr mag/cell

     iteration # 17     ecut=    40.00 Ry     beta= 0.70
     Davidson diagonalization with overlap
     c_bands:  3 eigenvalues not converged
     c_bands:  3 eigenvalues not converged
     c_bands:  1 eigenvalues not converged
     c_bands:  4 eigenvalues not converged
     ethr =  8.27E-06,  avg # of iterations =  8.0

     negative rho (up, down):  1.694E-02 1.528E-02

     total cpu time spent up to now is      290.2 secs

     total energy              =   -6056.41900535 Ry
     estimated scf accuracy    <       0.01570547 Ry

     total magnetization       =    61.33 Bohr mag/cell
     absolute magnetization    =    68.86 Bohr mag/cell

     iteration # 18     ecut=    40.00 Ry     beta= 0.70
     Davidson diagonalization with overlap
     c_bands:  1 eigenvalues not converged
     c_bands:  2 eigenvalues not converged
     ethr =  4.69E-06,  avg # of iterations =  7.2

     negative rho (up, down):  1.095E-02 9.552E-03

     total cpu time spent up to now is      311.4 secs

     total energy              =   -6056.41922796 Ry
     estimated scf accuracy    <       0.01795305 Ry

     total magnetization       =    61.32 Bohr mag/cell
     absolute magnetization    =    68.84 Bohr mag/cell

     iteration # 19     ecut=    40.00 Ry     beta= 0.70
     Davidson diagonalization with overlap
     ethr =  4.69E-06,  avg # of iterations =  1.9

     negative rho (up, down):  1.303E-02 1.178E-02

     total cpu time spent up to now is      324.9 secs

     total energy              =   -6056.41816308 Ry
     estimated scf accuracy    <       0.00791165 Ry

     total magnetization       =    61.33 Bohr mag/cell
     absolute magnetization    =    68.84 Bohr mag/cell

     iteration # 20     ecut=    40.00 Ry     beta= 0.70
     Davidson diagonalization with overlap
     ethr =  2.36E-06,  avg # of iterations =  2.8

     negative rho (up, down):  9.097E-03 8.376E-03

     total cpu time spent up to now is      342.1 secs

     total energy              =   -6056.41750923 Ry
     estimated scf accuracy    <       0.01863017 Ry

     total magnetization       =    61.33 Bohr mag/cell
     absolute magnetization    =    68.82 Bohr mag/cell

     iteration # 21     ecut=    40.00 Ry     beta= 0.70
     Davidson diagonalization with overlap
     ethr =  2.36E-06,  avg # of iterations =  2.0

     negative rho (up, down):  1.224E-02 1.140E-02

     total cpu time spent up to now is      356.5 secs

     total energy              =   -6056.41735198 Ry
     estimated scf accuracy    <       0.02606970 Ry

     total magnetization       =    61.33 Bohr mag/cell
     absolute magnetization    =    68.82 Bohr mag/cell

     iteration # 22     ecut=    40.00 Ry     beta= 0.70
     Davidson diagonalization with overlap
     ethr =  2.36E-06,  avg # of iterations =  1.2

     negative rho (up, down):  1.504E-02 1.431E-02

     total cpu time spent up to now is      371.7 secs

     total energy              =   -6056.41833633 Ry
     estimated scf accuracy    <       0.00726055 Ry

     total magnetization       =    61.33 Bohr mag/cell
     absolute magnetization    =    68.82 Bohr mag/cell

     iteration # 23     ecut=    40.00 Ry     beta= 0.70
     Davidson diagonalization with overlap
     ethr =  2.17E-06,  avg # of iterations =  1.3

     negative rho (up, down):  8.998E-03 8.287E-03

     total cpu time spent up to now is      384.4 secs

     total energy              =   -6056.41844627 Ry
     estimated scf accuracy    <       0.00126257 Ry

     total magnetization       =    61.33 Bohr mag/cell
     absolute magnetization    =    68.82 Bohr mag/cell

     iteration # 24     ecut=    40.00 Ry     beta= 0.70
     Davidson diagonalization with overlap
     ethr =  3.77E-07,  avg # of iterations =  4.1

     negative rho (up, down):  6.175E-03 5.394E-03

     total cpu time spent up to now is      403.1 secs

     total energy              =   -6056.41848567 Ry
     estimated scf accuracy    <       0.00201217 Ry

     total magnetization       =    61.33 Bohr mag/cell
     absolute magnetization    =    68.82 Bohr mag/cell

     iteration # 25     ecut=    40.00 Ry     beta= 0.70
     Davidson diagonalization with overlap
     ethr =  3.77E-07,  avg # of iterations =  1.8

     negative rho (up, down):  5.641E-03 4.847E-03

     total cpu time spent up to now is      416.8 secs

     total energy              =   -6056.41873862 Ry
     estimated scf accuracy    <       0.00112797 Ry

     total magnetization       =    61.32 Bohr mag/cell
     absolute magnetization    =    68.83 Bohr mag/cell

     iteration # 26     ecut=    40.00 Ry     beta= 0.70
     Davidson diagonalization with overlap
     ethr =  3.37E-07,  avg # of iterations =  1.9

     negative rho (up, down):  5.163E-03 4.327E-03

     total cpu time spent up to now is      433.6 secs

     total energy              =   -6056.41881236 Ry
     estimated scf accuracy    <       0.00080596 Ry

     total magnetization       =    61.32 Bohr mag/cell
     absolute magnetization    =    68.82 Bohr mag/cell

     iteration # 27     ecut=    40.00 Ry     beta= 0.70
     Davidson diagonalization with overlap
     ethr =  2.41E-07,  avg # of iterations =  1.5

     negative rho (up, down):  4.266E-03 3.402E-03

     total cpu time spent up to now is      446.7 secs

     total energy              =   -6056.41881272 Ry
     estimated scf accuracy    <       0.00016752 Ry

     total magnetization       =    61.33 Bohr mag/cell
     absolute magnetization    =    68.82 Bohr mag/cell

     iteration # 28     ecut=    40.00 Ry     beta= 0.70
     Davidson diagonalization with overlap
     ethr =  5.00E-08,  avg # of iterations =  6.2

     negative rho (up, down):  4.055E-03 3.181E-03

     total cpu time spent up to now is      467.5 secs

     total energy              =   -6056.41881429 Ry
     estimated scf accuracy    <       0.00032329 Ry

     total magnetization       =    61.33 Bohr mag/cell
     absolute magnetization    =    68.82 Bohr mag/cell

     iteration # 29     ecut=    40.00 Ry     beta= 0.70
     Davidson diagonalization with overlap
     ethr =  5.00E-08,  avg # of iterations =  1.3

     negative rho (up, down):  3.143E-03 2.184E-03

     total cpu time spent up to now is      480.7 secs

     total energy              =   -6056.41882865 Ry
     estimated scf accuracy    <       0.00004696 Ry

     total magnetization       =    61.33 Bohr mag/cell
     absolute magnetization    =    68.82 Bohr mag/cell

     iteration # 30     ecut=    40.00 Ry     beta= 0.70
     Davidson diagonalization with overlap
     ethr =  1.40E-08,  avg # of iterations =  3.4

     negative rho (up, down):  2.621E-03 1.560E-03

     total cpu time spent up to now is      499.0 secs

     total energy              =   -6056.41884775 Ry
     estimated scf accuracy    <       0.00009017 Ry

     total magnetization       =    61.33 Bohr mag/cell
     absolute magnetization    =    68.82 Bohr mag/cell

     iteration # 31     ecut=    40.00 Ry     beta= 0.70
     Davidson diagonalization with overlap
     ethr =  1.40E-08,  avg # of iterations =  1.9

     negative rho (up, down):  2.390E-03 1.294E-03

     total cpu time spent up to now is      512.7 secs

     total energy              =   -6056.41886072 Ry
     estimated scf accuracy    <       0.00005526 Ry

     total magnetization       =    61.33 Bohr mag/cell
     absolute magnetization    =    68.82 Bohr mag/cell

     iteration # 32     ecut=    40.00 Ry     beta= 0.70
     Davidson diagonalization with overlap
     ethr =  1.40E-08,  avg # of iterations =  2.0

     negative rho (up, down):  2.523E-03 1.458E-03

     total cpu time spent up to now is      529.1 secs

     total energy              =   -6056.41886423 Ry
     estimated scf accuracy    <       0.00003475 Ry

     total magnetization       =    61.33 Bohr mag/cell
     absolute magnetization    =    68.82 Bohr mag/cell

     iteration # 33     ecut=    40.00 Ry     beta= 0.70
     Davidson diagonalization with overlap
     ethr =  1.04E-08,  avg # of iterations =  1.5

     negative rho (up, down):  2.572E-03 1.460E-03

     total cpu time spent up to now is      542.4 secs

     total energy              =   -6056.41886248 Ry
     estimated scf accuracy    <       0.00001468 Ry

     total magnetization       =    61.33 Bohr mag/cell
     absolute magnetization    =    68.82 Bohr mag/cell

     iteration # 34     ecut=    40.00 Ry     beta= 0.70
     Davidson diagonalization with overlap
     ethr =  4.38E-09,  avg # of iterations =  3.1

     negative rho (up, down):  2.596E-03 1.484E-03

     total cpu time spent up to now is      560.0 secs

     total energy              =   -6056.41886380 Ry
     estimated scf accuracy    <       0.00000887 Ry

     total magnetization       =    61.33 Bohr mag/cell
     absolute magnetization    =    68.82 Bohr mag/cell

     iteration # 35     ecut=    40.00 Ry     beta= 0.70
     Davidson diagonalization with overlap
     ethr =  2.65E-09,  avg # of iterations =  2.5

     negative rho (up, down):  2.576E-03 1.472E-03

     total cpu time spent up to now is      574.1 secs

     total energy              =   -6056.41886499 Ry
     estimated scf accuracy    <       0.00001463 Ry

     total magnetization       =    61.33 Bohr mag/cell
     absolute magnetization    =    68.82 Bohr mag/cell

     iteration # 36     ecut=    40.00 Ry     beta= 0.70
     Davidson diagonalization with overlap
     ethr =  2.65E-09,  avg # of iterations =  1.8

     negative rho (up, down):  2.574E-03 1.488E-03

     total cpu time spent up to now is      590.5 secs

     total energy              =   -6056.41886564 Ry
     estimated scf accuracy    <       0.00000730 Ry

     total magnetization       =    61.33 Bohr mag/cell
     absolute magnetization    =    68.82 Bohr mag/cell

     iteration # 37     ecut=    40.00 Ry     beta= 0.70
     Davidson diagonalization with overlap
     ethr =  2.18E-09,  avg # of iterations =  2.0

     negative rho (up, down):  2.532E-03 1.446E-03

     total cpu time spent up to now is      604.5 secs

     total energy              =   -6056.41886569 Ry
     estimated scf accuracy    <       0.00000297 Ry

     total magnetization       =    61.33 Bohr mag/cell
     absolute magnetization    =    68.82 Bohr mag/cell

     iteration # 38     ecut=    40.00 Ry     beta= 0.70
     Davidson diagonalization with overlap
     ethr =  8.88E-10,  avg # of iterations =  4.3

     negative rho (up, down):  2.528E-03 1.438E-03

     total cpu time spent up to now is      623.7 secs

     total energy              =   -6056.41886567 Ry
     estimated scf accuracy    <       0.00000781 Ry

     total magnetization       =    61.33 Bohr mag/cell
     absolute magnetization    =    68.82 Bohr mag/cell

     iteration # 39     ecut=    40.00 Ry     beta= 0.70
     Davidson diagonalization with overlap
     ethr =  8.88E-10,  avg # of iterations =  1.3

     negative rho (up, down):  2.459E-03 1.383E-03

     total cpu time spent up to now is      639.4 secs

     total energy              =   -6056.41886578 Ry
     estimated scf accuracy    <       0.00000277 Ry

     total magnetization       =    61.33 Bohr mag/cell
     absolute magnetization    =    68.82 Bohr mag/cell

     iteration # 40     ecut=    40.00 Ry     beta= 0.70
     Davidson diagonalization with overlap
     ethr =  8.27E-10,  avg # of iterations =  2.0

     negative rho (up, down):  2.421E-03 1.348E-03

     total cpu time spent up to now is      653.6 secs

     total energy              =   -6056.41886557 Ry
     estimated scf accuracy    <       0.00000284 Ry

     total magnetization       =    61.33 Bohr mag/cell
     absolute magnetization    =    68.82 Bohr mag/cell

     iteration # 41     ecut=    40.00 Ry     beta= 0.70
     Davidson diagonalization with overlap
     ethr =  8.27E-10,  avg # of iterations =  1.3

     negative rho (up, down):  2.216E-03 1.115E-03

     Magnetic moment per site  (integrated on atomic sphere of radius R)
     atom   1 (R=0.103)  charge=  6.2267  magn=  1.7707
     atom   2 (R=0.103)  charge=  6.2263  magn=  1.7634
     atom   3 (R=0.103)  charge=  6.2264  magn=  1.7676
     atom   4 (R=0.103)  charge=  6.2264  magn=  1.7705
     atom   5 (R=0.103)  charge=  6.2267  magn=  1.7660
     atom   6 (R=0.103)  charge=  6.2261  magn=  1.7695
     atom   7 (R=0.103)  charge=  6.2269  magn=  1.7718
     atom   8 (R=0.103)  charge=  6.2263  magn=  1.7709
     atom   9 (R=0.103)  charge=  6.2260  magn=  1.7650
     atom  10 (R=0.103)  charge=  6.2322  magn=  1.6911
     atom  11 (R=0.103)  charge=  6.2328  magn=  1.7058
     atom  12 (R=0.103)  charge=  6.2323  magn=  1.7008
     atom  13 (R=0.103)  charge=  6.2329  magn=  1.7016
     atom  14 (R=0.103)  charge=  6.2331  magn=  1.6860
     atom  15 (R=0.103)  charge=  6.2329  magn=  1.6941
     atom  16 (R=0.103)  charge=  6.2325  magn=  1.6959
     atom  17 (R=0.103)  charge=  6.2332  magn=  1.7018
     atom  18 (R=0.103)  charge=  6.2333  magn=  1.6923
     atom  19 (R=0.103)  charge=  6.2323  magn=  1.6866
     atom  20 (R=0.103)  charge=  6.2290  magn=  1.7223
     atom  21 (R=0.103)  charge=  6.2334  magn=  1.6709
     atom  22 (R=0.103)  charge=  6.2330  magn=  1.7011
     atom  23 (R=0.103)  charge=  6.2347  magn=  1.6607
     atom  24 (R=0.103)  charge=  6.2318  magn=  1.7057
     atom  25 (R=0.103)  charge=  6.2326  magn=  1.6938
     atom  26 (R=0.103)  charge=  6.2315  magn=  1.6847
     atom  27 (R=0.103)  charge=  6.2322  magn=  1.6847
     atom  28 (R=0.103)  charge=  6.2297  magn=  1.7906
     atom  29 (R=0.103)  charge=  6.2329  magn=  1.6675
     atom  30 (R=0.103)  charge=  6.2302  magn=  1.7661
     atom  31 (R=0.103)  charge=  6.2350  magn=  1.7518
     atom  32 (R=0.103)  charge=  6.2561  magn=  1.1219
     atom  33 (R=0.103)  charge=  6.2261  magn=  1.7736
     atom  34 (R=0.103)  charge=  6.2270  magn=  1.7643
     atom  35 (R=0.103)  charge=  6.2278  magn=  1.7734
     atom  36 (R=0.103)  charge=  6.2264  magn=  1.7894
     atom  37 (R=0.061)  charge=  0.8401  magn= -0.0199
     atom  38 (R=0.069)  charge=  3.2096  magn= -0.0096
     atom  39 (R=0.061)  charge=  0.5060  magn= -0.0030

     total cpu time spent up to now is      669.2 secs

     End of self-consistent calculation

 ------ SPIN UP ------------


          k = 0.0000 0.0000 0.0000 ( 36693 PWs)   bands (ev):

   -21.3768  -9.9801  -7.4959  -6.6494  -6.1488  -5.5785  -5.0847  -4.6175
    -4.5874  -4.5848  -4.5826  -4.5809  -4.5674  -4.5275  -4.2248  -4.0567
    -4.0508  -4.0494  -4.0444  -4.0239  -3.9858  -3.5383  -3.5339  -3.5297
    -3.5234  -3.5094  -3.4815  -3.4005  -3.3967  -3.3887  -3.3866  -3.3843
    -3.3596  -3.3240  -3.3192  -3.0125  -3.0068  -3.0055  -3.0041  -2.9610
    -2.9456  -2.9411  -2.9399  -2.9339  -2.9313  -2.9297  -2.9215  -2.7806
    -2.7764  -2.7307  -2.7165  -2.7077  -2.6992  -2.6933  -2.6882  -2.6729
    -2.6701  -2.6646  -2.6567  -2.5717  -2.5692  -2.5663  -2.5575  -2.5448
    -2.5020  -2.1077  -2.0449  -2.0281  -2.0276  -2.0249  -2.0184  -1.9186
    -1.8983  -1.8973  -1.8776  -1.8663  -1.8497  -1.8452  -1.8411  -1.8312
    -1.8150  -1.7931  -1.7876  -1.7480  -1.7443  -1.7321  -1.7226  -1.7156
    -1.7138  -1.7033  -1.6999  -1.6869  -1.6750  -1.6718  -1.6668  -1.6620
    -1.6606  -1.6564  -1.6534  -1.6507  -1.6486  -1.6461  -1.6416  -1.6402
    -1.6352  -1.5880  -1.5762  -1.5656  -1.5566  -1.4889  -1.4841  -1.4259
    -1.2952  -1.2102  -1.2042  -1.1988  -1.1973  -1.1941  -1.1748  -1.1576
    -1.1560  -1.1488  -1.1212  -1.1086  -1.1056  -1.0416  -0.9904  -0.9782
    -0.9695  -0.9539  -0.8642  -0.8001  -0.7882  -0.7781  -0.7701  -0.7444
    -0.7334  -0.7132  -0.7081  -0.7061  -0.7034  -0.6835  -0.6218  -0.5869
    -0.5276  -0.4663  -0.4628  -0.4593  -0.4363  -0.4129  -0.3999  -0.3970
    -0.3920  -0.3897  -0.3866  -0.3793  -0.3762  -0.3730  -0.3718  -0.3629
    -0.3534  -0.3520  -0.3284  -0.3211  -0.3162  -0.3140  -0.3115  -0.3074
    -0.2882  -0.2876  -0.2668  -0.2624  -0.2598  -0.2482  -0.2397  -0.2360
    -0.2341  -0.2297  -0.2057  -0.1855  -0.1743  -0.1596  -0.1572  -0.1548
    -0.1504  -0.1448  -0.1369  -0.1253  -0.1181  -0.1092  -0.0661  -0.0657
    -0.0627  -0.0580  -0.0001   0.0047   0.0083   0.0120   0.0302   0.0593
     0.4075   0.9551

          k = 0.0000 0.2309 0.0000 ( 36641 PWs)   bands (ev):

   -21.3768  -9.9806  -7.3490  -6.6193  -6.0670  -5.5704  -5.3226  -5.0791
    -4.8329  -4.8178  -4.4724  -4.3432  -4.2440  -4.2391  -4.1754  -4.1279
    -4.0917  -4.0499  -3.9765  -3.9245  -3.9038  -3.6547  -3.5450  -3.5327
    -3.4585  -3.4383  -3.4133  -3.4036  -3.4015  -3.3949  -3.3783  -3.3594
    -3.3276  -3.2814  -3.2790  -3.2546  -3.2517  -3.0618  -3.0298  -3.0208
    -2.9750  -2.9707  -2.9626  -2.9520  -2.8879  -2.8458  -2.8332  -2.8069
    -2.7987  -2.7934  -2.7615  -2.7524  -2.6764  -2.6600  -2.6371  -2.5980
    -2.5901  -2.5637  -2.5553  -2.5385  -2.5211  -2.5071  -2.4886  -2.4819
    -2.4272  -2.1829  -2.1494  -2.1327  -2.1173  -2.0931  -2.0500  -1.9981
    -1.9942  -1.9846  -1.9784  -1.9596  -1.9504  -1.9257  -1.9042  -1.8697
    -1.8497  -1.8363  -1.8286  -1.7949  -1.7860  -1.7780  -1.7743  -1.7611
    -1.7501  -1.7436  -1.7390  -1.7357  -1.7323  -1.6976  -1.6659  -1.6431
    -1.6320  -1.6078  -1.5714  -1.5567  -1.5541  -1.5459  -1.5392  -1.5286
    -1.5195  -1.5097  -1.4990  -1.4976  -1.4839  -1.4706  -1.4552  -1.4421
    -1.4237  -1.4145  -1.3945  -1.3613  -1.3170  -1.2856  -1.2359  -1.2221
    -1.2181  -1.2106  -1.1953  -1.1904  -1.1809  -1.1667  -1.0710  -1.0315
    -1.0151  -1.0016  -0.9631  -0.9354  -0.9160  -0.8786  -0.8567  -0.8289
    -0.8018  -0.7676  -0.7407  -0.7254  -0.7024  -0.6878  -0.6619  -0.6512
    -0.6474  -0.6263  -0.6060  -0.5740  -0.5624  -0.5527  -0.5382  -0.5356
    -0.5159  -0.4775  -0.4601  -0.4588  -0.4408  -0.4193  -0.3953  -0.3868
    -0.3826  -0.3726  -0.3704  -0.3677  -0.3484  -0.3344  -0.3317  -0.3030
    -0.2653  -0.2504  -0.2468  -0.2171  -0.2048  -0.1839  -0.1645  -0.1418
    -0.1326  -0.1273  -0.1201  -0.1063  -0.0992  -0.0845  -0.0762  -0.0521
    -0.0365  -0.0006   0.0145   0.0194   0.0387   0.0434   0.0857   0.0935
     0.1114   0.1509   0.3839   0.3896   0.4559   0.5575   0.6396   0.6717
     0.6912   0.8383

          k = 0.0000 0.4619 0.0000 ( 36606 PWs)   bands (ev):

   -21.3767  -9.9815  -6.9401  -6.5758  -6.1675  -5.8633  -5.4157  -5.1114
    -4.9788  -4.9375  -4.8389  -4.1481  -4.0909  -4.0706  -4.0320  -3.9970
    -3.8826  -3.8805  -3.8429  -3.7502  -3.7440  -3.7377  -3.6590  -3.5648
    -3.5594  -3.5541  -3.5512  -3.5008  -3.4545  -3.4461  -3.4360  -3.2818
    -3.2782  -3.2703  -3.2493  -3.2330  -3.2271  -3.1289  -3.1250  -3.1116
    -3.1026  -3.0952  -2.9921  -2.8983  -2.8887  -2.8063  -2.7954  -2.7674
    -2.7533  -2.7211  -2.7149  -2.7087  -2.6873  -2.6778  -2.6191  -2.6097
    -2.5844  -2.5505  -2.5422  -2.4189  -2.4053  -2.3934  -2.3703  -2.3385
    -2.2911  -2.2817  -2.2645  -2.2455  -2.1981  -2.1552  -2.1190  -2.1141
    -2.1119  -2.0989  -2.0839  -2.0759  -2.0692  -2.0494  -2.0183  -1.9984
    -1.9808  -1.9549  -1.9392  -1.9102  -1.8993  -1.8707  -1.8086  -1.7931
    -1.7891  -1.7788  -1.7576  -1.7485  -1.7105  -1.6827  -1.6811  -1.6709
    -1.6592  -1.6371  -1.6337  -1.6058  -1.6012  -1.5899  -1.5811  -1.5571
    -1.5473  -1.5396  -1.4847  -1.4399  -1.4232  -1.4040  -1.3795  -1.3707
    -1.3526  -1.3405  -1.3007  -1.2752  -1.2597  -1.2495  -1.2445  -1.2396
    -1.2299  -1.2252  -1.2164  -1.2072  -1.1995  -1.1902  -1.1729  -1.1599
    -1.1441  -1.1147  -1.0738  -1.0400  -1.0020  -0.9989  -0.9787  -0.9656
    -0.9379  -0.9023  -0.8904  -0.8727  -0.8520  -0.8290  -0.8098  -0.7584
    -0.7316  -0.7037  -0.6837  -0.6682  -0.6522  -0.6333  -0.6219  -0.5768
    -0.5361  -0.4827  -0.4707  -0.4631  -0.4542  -0.4508  -0.4369  -0.4332
    -0.4178  -0.4088  -0.3315  -0.3196  -0.3045  -0.2830  -0.2815  -0.2697
    -0.2639  -0.2502  -0.2415  -0.2333  -0.2111  -0.1954  -0.1274  -0.1098
    -0.1025  -0.0894  -0.0685  -0.0546  -0.0110   0.0093   0.0252   0.0578
     0.0713   0.1135   0.1167   0.1345   0.1390   0.1442   0.1614   0.1786
     0.2422   0.2757   0.3539   0.9674   1.1421   1.3144   1.3769   1.3938
     1.6142   1.7721

          k = 0.2000-0.1155 0.0000 ( 36641 PWs)   bands (ev):

   -21.3768  -9.9797  -7.3502  -6.6197  -6.0732  -5.5871  -5.2987  -5.0753
    -4.8388  -4.8280  -4.4671  -4.3161  -4.2455  -4.2408  -4.1711  -4.1215
    -4.1004  -4.0711  -3.9641  -3.9288  -3.9101  -3.6530  -3.5464  -3.5313
    -3.4556  -3.4295  -3.4201  -3.4050  -3.4017  -3.3892  -3.3821  -3.3627
    -3.3276  -3.2826  -3.2792  -3.2575  -3.2518  -3.0563  -3.0267  -3.0220
    -2.9777  -2.9711  -2.9622  -2.9543  -2.8770  -2.8433  -2.8334  -2.8065
    -2.7974  -2.7940  -2.7696  -2.7494  -2.6732  -2.6614  -2.6326  -2.6018
    -2.5842  -2.5688  -2.5570  -2.5465  -2.5246  -2.5115  -2.4877  -2.4836
    -2.4186  -2.1830  -2.1488  -2.1344  -2.1147  -2.0916  -2.0490  -1.9970
    -1.9927  -1.9875  -1.9687  -1.9674  -1.9505  -1.9259  -1.8968  -1.8714
    -1.8536  -1.8432  -1.8309  -1.7957  -1.7838  -1.7792  -1.7767  -1.7628
    -1.7479  -1.7446  -1.7393  -1.7356  -1.7212  -1.6848  -1.6639  -1.6558
    -1.6367  -1.6003  -1.5716  -1.5616  -1.5495  -1.5426  -1.5359  -1.5299
    -1.5113  -1.5053  -1.5016  -1.4956  -1.4863  -1.4658  -1.4567  -1.4468
    -1.4266  -1.4181  -1.3834  -1.3400  -1.3269  -1.3060  -1.2461  -1.2247
    -1.2155  -1.2017  -1.1974  -1.1893  -1.1881  -1.1749  -1.0942  -1.0414
    -1.0302  -1.0081  -0.9570  -0.9360  -0.9194  -0.8659  -0.8533  -0.8350
    -0.8124  -0.7413  -0.7310  -0.7121  -0.6919  -0.6851  -0.6698  -0.6576
    -0.6502  -0.6298  -0.6197  -0.5724  -0.5605  -0.5533  -0.5389  -0.5314
    -0.5008  -0.4854  -0.4633  -0.4562  -0.4330  -0.4168  -0.3982  -0.3904
    -0.3834  -0.3745  -0.3675  -0.3623  -0.3483  -0.3319  -0.3289  -0.3160
    -0.2697  -0.2514  -0.2478  -0.2141  -0.1978  -0.1924  -0.1676  -0.1427
    -0.1373  -0.1246  -0.1182  -0.1075  -0.0944  -0.0850  -0.0779  -0.0455
    -0.0400   0.0003   0.0098   0.0174   0.0390   0.0433   0.0818   0.0922
     0.1026   0.1479   0.3790   0.3898   0.4930   0.5896   0.6374   0.6600
     0.7454   0.8069

          k = 0.2000 0.1155 0.0000 ( 36641 PWs)   bands (ev):

   -21.3768  -9.9807  -7.3487  -6.6194  -6.0651  -5.5687  -5.3188  -5.0936
    -4.8261  -4.8157  -4.4745  -4.3506  -4.2447  -4.2380  -4.1754  -4.1280
    -4.0837  -4.0513  -3.9787  -3.9215  -3.9046  -3.6562  -3.5418  -3.5362
    -3.4573  -3.4414  -3.4105  -3.4067  -3.4000  -3.3937  -3.3766  -3.3586
    -3.3274  -3.2836  -3.2777  -3.2540  -3.2519  -3.0551  -3.0258  -3.0204
    -2.9734  -2.9685  -2.9618  -2.9589  -2.8783  -2.8468  -2.8351  -2.8124
    -2.7988  -2.7944  -2.7682  -2.7568  -2.6740  -2.6609  -2.6411  -2.5975
    -2.5923  -2.5622  -2.5559  -2.5320  -2.5236  -2.5085  -2.4910  -2.4834
    -2.4275  -2.1749  -2.1521  -2.1364  -2.1132  -2.0920  -2.0496  -1.9963
    -1.9901  -1.9854  -1.9740  -1.9630  -1.9551  -1.9319  -1.8874  -1.8691
    -1.8561  -1.8450  -1.8215  -1.7955  -1.7850  -1.7809  -1.7766  -1.7581
    -1.7488  -1.7466  -1.7397  -1.7342  -1.7261  -1.7008  -1.6673  -1.6474
    -1.6293  -1.5995  -1.5789  -1.5620  -1.5490  -1.5462  -1.5346  -1.5294
    -1.5154  -1.5110  -1.5032  -1.4983  -1.4883  -1.4653  -1.4476  -1.4399
    -1.4262  -1.4212  -1.4036  -1.3613  -1.3210  -1.2795  -1.2389  -1.2221
    -1.2114  -1.2072  -1.2006  -1.1899  -1.1875  -1.1759  -1.0803  -1.0447
    -1.0108  -0.9916  -0.9618  -0.9364  -0.9093  -0.8814  -0.8575  -0.8380
    -0.7873  -0.7595  -0.7396  -0.7149  -0.7007  -0.6898  -0.6704  -0.6576
    -0.6452  -0.6278  -0.6058  -0.5615  -0.5550  -0.5505  -0.5384  -0.5327
    -0.5194  -0.4853  -0.4627  -0.4560  -0.4373  -0.4147  -0.3999  -0.3891
    -0.3842  -0.3763  -0.3706  -0.3602  -0.3437  -0.3375  -0.3250  -0.3057
    -0.2697  -0.2519  -0.2449  -0.2232  -0.1974  -0.1913  -0.1614  -0.1417
    -0.1318  -0.1298  -0.1161  -0.1067  -0.0936  -0.0829  -0.0779  -0.0486
    -0.0345   0.0022   0.0141   0.0172   0.0416   0.0436   0.0815   0.0880
     0.1164   0.1407   0.3735   0.3888   0.4709   0.5506   0.6399   0.6528
     0.7011   0.8509

          k = 0.2000 0.3464 0.0000 ( 36608 PWs)   bands (ev):

   -21.3767  -9.9817  -7.0663  -6.5838  -5.9331  -5.6806  -5.6737  -5.4020
    -5.0844  -4.5405  -4.5095  -4.2566  -4.2491  -4.2036  -4.0301  -4.0230
    -3.9322  -3.9274  -3.9214  -3.7952  -3.7741  -3.6546  -3.6439  -3.5777
    -3.5355  -3.4439  -3.4405  -3.4241  -3.4034  -3.3936  -3.3799  -3.3582
    -3.3412  -3.3169  -3.3069  -3.2698  -3.2321  -3.1859  -3.1800  -3.0645
    -3.0491  -2.9682  -2.9545  -2.9290  -2.9151  -2.9035  -2.8192  -2.7685
    -2.7628  -2.7283  -2.7242  -2.7101  -2.6697  -2.6558  -2.6482  -2.6357
    -2.6165  -2.5136  -2.5017  -2.4454  -2.4370  -2.4311  -2.3855  -2.3808
    -2.3689  -2.2608  -2.2016  -2.1771  -2.1614  -2.1346  -2.1105  -2.0957
    -2.0771  -2.0707  -2.0622  -2.0472  -2.0311  -2.0147  -2.0119  -1.9917
    -1.9703  -1.9427  -1.8982  -1.8785  -1.8211  -1.8093  -1.7973  -1.7794
    -1.7587  -1.7467  -1.7242  -1.7122  -1.6859  -1.6682  -1.6584  -1.6535
    -1.6454  -1.6396  -1.6267  -1.6099  -1.6038  -1.5986  -1.5788  -1.5604
    -1.5508  -1.5233  -1.5007  -1.4823  -1.4659  -1.4565  -1.4420  -1.4170
    -1.4052  -1.3848  -1.3747  -1.3502  -1.3397  -1.3062  -1.2936  -1.2569
    -1.2496  -1.2390  -1.2347  -1.2157  -1.2020  -1.1879  -1.1732  -1.1386
    -1.0910  -1.0741  -1.0603  -1.0204  -0.9825  -0.9484  -0.9287  -0.8813
    -0.8277  -0.8117  -0.8078  -0.7843  -0.7769  -0.7636  -0.7573  -0.7483
    -0.7203  -0.7102  -0.6773  -0.6589  -0.6513  -0.6311  -0.6124  -0.6062
    -0.5912  -0.5739  -0.5427  -0.5251  -0.5123  -0.4992  -0.4286  -0.3952
    -0.3587  -0.3367  -0.3250  -0.3134  -0.3075  -0.2811  -0.2744  -0.2666
    -0.2496  -0.2400  -0.1854  -0.1666  -0.1553  -0.1527  -0.1126  -0.1076
    -0.0837  -0.0797  -0.0748  -0.0652  -0.0458  -0.0397  -0.0330  -0.0143
    -0.0048   0.0546   0.0774   0.0893   0.0975   0.1368   0.1403   0.1649
     0.4683   0.4803   0.5414   0.5757   0.8137   0.8266   1.1401   1.3458
     1.3696   1.5774

          k = 0.2000-0.5774 0.0000 ( 36660 PWs)   bands (ev):

   -21.3767  -9.9814  -6.7301  -6.4431  -6.3501  -5.8744  -5.7012  -5.2622
    -5.0714  -4.9435  -4.5585  -4.2351  -3.9911  -3.9440  -3.8543  -3.8120
    -3.8083  -3.7925  -3.7804  -3.7625  -3.7087  -3.6997  -3.6982  -3.6906
    -3.6127  -3.5909  -3.5498  -3.5456  -3.5159  -3.5105  -3.4068  -3.3790
    -3.3626  -3.3607  -3.3315  -3.2906  -3.2069  -3.1911  -3.0909  -3.0663
    -3.0611  -2.9834  -2.9771  -2.9641  -2.9320  -2.8513  -2.8460  -2.8403
    -2.7786  -2.7678  -2.6902  -2.6601  -2.6350  -2.6209  -2.5723  -2.5646
    -2.4931  -2.4789  -2.4712  -2.4602  -2.4519  -2.4237  -2.4062  -2.3425
    -2.2840  -2.2621  -2.2550  -2.2452  -2.2096  -2.1895  -2.1481  -2.1257
    -2.1048  -2.0830  -2.0743  -2.0635  -2.0481  -2.0234  -2.0070  -1.9912
    -1.9817  -1.9693  -1.9516  -1.9330  -1.9295  -1.8859  -1.8614  -1.8452
    -1.8325  -1.7904  -1.7656  -1.7493  -1.7102  -1.6945  -1.6794  -1.6729
    -1.6535  -1.6451  -1.6363  -1.6281  -1.6154  -1.6019  -1.5773  -1.5597
    -1.5211  -1.4965  -1.4884  -1.4814  -1.4770  -1.4613  -1.4542  -1.4484
    -1.4391  -1.4305  -1.4111  -1.3867  -1.3756  -1.3390  -1.3264  -1.3064
    -1.2635  -1.2381  -1.2057  -1.1837  -1.1730  -1.1610  -1.1513  -1.1011
    -1.0815  -1.0696  -1.0626  -1.0135  -0.9947  -0.9447  -0.9227  -0.9141
    -0.9007  -0.8925  -0.8822  -0.8586  -0.8424  -0.8216  -0.7906  -0.7617
    -0.7532  -0.7257  -0.7188  -0.7078  -0.6784  -0.6575  -0.6395  -0.6189
    -0.6003  -0.5853  -0.5773  -0.5678  -0.5302  -0.5176  -0.4830  -0.4131
    -0.3532  -0.3166  -0.3078  -0.2977  -0.2956  -0.2848  -0.2744  -0.2657
    -0.2327  -0.2243  -0.2126  -0.2071  -0.1590  -0.1468  -0.0893  -0.0782
    -0.0719  -0.0512  -0.0386  -0.0299   0.0096   0.0190   0.0241   0.0309
     0.0460   0.0850   0.1161   0.1244   0.1373   0.1473   0.1712   0.2067
     0.2862   0.5170   0.6291   0.8619   1.3235   1.4244   1.4697   1.7981
     1.8996   1.9475

          k = 0.2000-0.3464 0.0000 ( 36608 PWs)   bands (ev):

   -21.3767  -9.9801  -7.0708  -6.5834  -5.9488  -5.6990  -5.6664  -5.3911
    -5.0647  -4.5774  -4.4700  -4.2530  -4.2483  -4.2026  -4.0271  -4.0234
    -3.9320  -3.9249  -3.9068  -3.7999  -3.7895  -3.6501  -3.6462  -3.5816
    -3.5370  -3.4521  -3.4403  -3.4175  -3.4041  -3.3890  -3.3835  -3.3571
    -3.3462  -3.3209  -3.3033  -3.2706  -3.2359  -3.1916  -3.1746  -3.0630
    -3.0538  -2.9656  -2.9585  -2.9309  -2.9185  -2.8921  -2.8070  -2.7687
    -2.7493  -2.7344  -2.7254  -2.7053  -2.6752  -2.6649  -2.6427  -2.6283
    -2.6200  -2.5089  -2.4950  -2.4470  -2.4390  -2.4162  -2.3933  -2.3778
    -2.3646  -2.2750  -2.2067  -2.1824  -2.1673  -2.1324  -2.1182  -2.0983
    -2.0881  -2.0670  -2.0509  -2.0401  -2.0277  -2.0201  -2.0070  -1.9928
    -1.9809  -1.9595  -1.8933  -1.8464  -1.8184  -1.8095  -1.7886  -1.7756
    -1.7632  -1.7374  -1.7353  -1.7050  -1.6892  -1.6716  -1.6626  -1.6546
    -1.6517  -1.6366  -1.6252  -1.6133  -1.6000  -1.5931  -1.5741  -1.5642
    -1.5418  -1.5374  -1.5186  -1.4880  -1.4699  -1.4534  -1.4225  -1.4175
    -1.4077  -1.3944  -1.3831  -1.3357  -1.3200  -1.3056  -1.2892  -1.2679
    -1.2525  -1.2436  -1.2335  -1.2188  -1.2066  -1.1958  -1.1708  -1.1342
    -1.1087  -1.0747  -1.0656  -1.0275  -0.9821  -0.9469  -0.9280  -0.8751
    -0.8291  -0.8137  -0.8065  -0.7920  -0.7836  -0.7729  -0.7509  -0.7377
    -0.7252  -0.7026  -0.6803  -0.6691  -0.6449  -0.6281  -0.6180  -0.6005
    -0.5952  -0.5740  -0.5353  -0.5240  -0.5163  -0.4962  -0.4346  -0.3733
    -0.3640  -0.3434  -0.3230  -0.3150  -0.3098  -0.2835  -0.2771  -0.2679
    -0.2506  -0.2375  -0.1790  -0.1711  -0.1625  -0.1522  -0.1152  -0.1046
    -0.0878  -0.0798  -0.0758  -0.0617  -0.0490  -0.0399  -0.0334  -0.0215
    -0.0023   0.0589   0.0819   0.0921   0.0985   0.1351   0.1441   0.1744
     0.4631   0.4790   0.4956   0.6761   0.7750   0.8312   1.1387   1.3500
     1.3711   1.5880

          k = 0.4000-0.2309 0.0000 ( 36606 PWs)   bands (ev):

   -21.3767  -9.9792  -6.9461  -6.5773  -6.1759  -5.8737  -5.4300  -5.0724
    -4.9771  -4.9696  -4.7998  -4.1280  -4.1025  -4.0727  -4.0557  -3.9849
    -3.8859  -3.8813  -3.8392  -3.7533  -3.7447  -3.7360  -3.6476  -3.5665
    -3.5596  -3.5567  -3.5516  -3.4989  -3.4518  -3.4392  -3.4351  -3.2919
    -3.2763  -3.2731  -3.2601  -3.2354  -3.2270  -3.1280  -3.1203  -3.1087
    -3.1015  -3.0954  -2.9777  -2.9040  -2.8865  -2.8073  -2.7909  -2.7700
    -2.7530  -2.7207  -2.7139  -2.7067  -2.6944  -2.6751  -2.6210  -2.6090
    -2.5775  -2.5539  -2.5392  -2.4149  -2.4038  -2.3973  -2.3676  -2.3373
    -2.2869  -2.2756  -2.2583  -2.2464  -2.2020  -2.1631  -2.1316  -2.1127
    -2.1109  -2.1007  -2.0982  -2.0798  -2.0709  -2.0486  -2.0112  -1.9937
    -1.9760  -1.9608  -1.9399  -1.9259  -1.8977  -1.8710  -1.8118  -1.7995
    -1.7906  -1.7638  -1.7513  -1.7372  -1.7007  -1.6833  -1.6783  -1.6697
    -1.6543  -1.6378  -1.6277  -1.6089  -1.5900  -1.5877  -1.5798  -1.5628
    -1.5502  -1.5266  -1.4957  -1.4803  -1.4180  -1.4006  -1.3888  -1.3692
    -1.3545  -1.3336  -1.3143  -1.2832  -1.2612  -1.2473  -1.2420  -1.2396
    -1.2331  -1.2291  -1.2127  -1.2054  -1.1947  -1.1925  -1.1792  -1.1692
    -1.1452  -1.1186  -1.0544  -1.0488  -1.0071  -1.0017  -0.9801  -0.9630
    -0.9310  -0.9237  -0.8810  -0.8737  -0.8573  -0.8176  -0.7979  -0.7567
    -0.7377  -0.7178  -0.6838  -0.6682  -0.6489  -0.6411  -0.6223  -0.5620
    -0.5154  -0.4897  -0.4756  -0.4596  -0.4576  -0.4501  -0.4418  -0.4315
    -0.4157  -0.4098  -0.3389  -0.3190  -0.2983  -0.2942  -0.2828  -0.2813
    -0.2682  -0.2512  -0.2389  -0.2224  -0.2085  -0.1909  -0.1330  -0.1095
    -0.1061  -0.0898  -0.0770  -0.0343  -0.0108   0.0143   0.0253   0.0625
     0.0707   0.1107   0.1159   0.1360   0.1378   0.1441   0.1647   0.1720
     0.2422   0.2737   0.4020   0.8987   1.1683   1.3547   1.3774   1.4050
     1.6550   1.7468

          k = 0.4000 0.0000 0.0000 ( 36608 PWs)   bands (ev):

   -21.3767  -9.9804  -7.0702  -6.5835  -5.9457  -5.6979  -5.6652  -5.3925
    -5.0719  -4.5727  -4.4747  -4.2514  -4.2484  -4.2052  -4.0276  -4.0227
    -3.9333  -3.9247  -3.9092  -3.7966  -3.7885  -3.6553  -3.6428  -3.5804
    -3.5372  -3.4495  -3.4414  -3.4195  -3.4017  -3.3920  -3.3805  -3.3577
    -3.3443  -3.3174  -3.3101  -3.2675  -3.2338  -3.1859  -3.1783  -3.0586
    -3.0496  -2.9662  -2.9564  -2.9335  -2.9029  -2.9010  -2.8122  -2.7641
    -2.7581  -2.7358  -2.7238  -2.7113  -2.6736  -2.6651  -2.6472  -2.6359
    -2.6161  -2.5140  -2.5007  -2.4449  -2.4417  -2.4225  -2.3867  -2.3807
    -2.3671  -2.2763  -2.1907  -2.1774  -2.1577  -2.1292  -2.1185  -2.0915
    -2.0868  -2.0689  -2.0586  -2.0427  -2.0313  -2.0164  -2.0038  -1.9912
    -1.9772  -1.9482  -1.9018  -1.8628  -1.8213  -1.8125  -1.7944  -1.7757
    -1.7681  -1.7488  -1.7128  -1.7081  -1.6885  -1.6672  -1.6634  -1.6537
    -1.6476  -1.6332  -1.6300  -1.6151  -1.6066  -1.5997  -1.5734  -1.5587
    -1.5504  -1.5368  -1.5050  -1.4834  -1.4683  -1.4439  -1.4321  -1.4156
    -1.4088  -1.3995  -1.3794  -1.3533  -1.3259  -1.3111  -1.2915  -1.2676
    -1.2485  -1.2439  -1.2345  -1.2164  -1.2052  -1.1874  -1.1793  -1.1370
    -1.0927  -1.0812  -1.0593  -1.0481  -0.9785  -0.9393  -0.9263  -0.8777
    -0.8217  -0.8134  -0.8068  -0.7917  -0.7833  -0.7659  -0.7570  -0.7255
    -0.7223  -0.7094  -0.6792  -0.6589  -0.6409  -0.6346  -0.6108  -0.6025
    -0.5823  -0.5635  -0.5431  -0.5276  -0.5177  -0.5030  -0.4506  -0.3786
    -0.3584  -0.3390  -0.3257  -0.3136  -0.3080  -0.2836  -0.2737  -0.2677
    -0.2590  -0.2366  -0.1844  -0.1658  -0.1558  -0.1504  -0.1190  -0.0952
    -0.0878  -0.0804  -0.0743  -0.0543  -0.0494  -0.0388  -0.0330  -0.0252
    -0.0036   0.0576   0.0781   0.0892   0.1044   0.1377   0.1449   0.1585
     0.4529   0.4815   0.5043   0.6652   0.7892   0.8335   1.1312   1.3455
     1.3824   1.5647

          k = 0.4000 0.2309 0.0000 ( 36606 PWs)   bands (ev):

   -21.3767  -9.9818  -6.9394  -6.5759  -6.1637  -5.8600  -5.4110  -5.1276
    -4.9779  -4.9270  -4.8545  -4.1501  -4.0804  -4.0692  -4.0332  -3.9996
    -3.8838  -3.8792  -3.8418  -3.7488  -3.7435  -3.7383  -3.6654  -3.5636
    -3.5604  -3.5525  -3.5512  -3.5015  -3.4592  -3.4442  -3.4344  -3.2800
    -3.2772  -3.2666  -3.2480  -3.2319  -3.2242  -3.1251  -3.1167  -3.1074
    -3.1016  -3.0976  -2.9815  -2.8994  -2.8930  -2.8150  -2.7975  -2.7738
    -2.7598  -2.7266  -2.7163  -2.7070  -2.6863  -2.6824  -2.6138  -2.6101
    -2.5857  -2.5547  -2.5447  -2.4236  -2.4027  -2.3918  -2.3797  -2.3394
    -2.2936  -2.2766  -2.2680  -2.2481  -2.1910  -2.1494  -2.1294  -2.1151
    -2.1136  -2.1011  -2.0857  -2.0774  -2.0661  -2.0471  -2.0406  -1.9935
    -1.9651  -1.9519  -1.9371  -1.9074  -1.8829  -1.8666  -1.8217  -1.7951
    -1.7858  -1.7775  -1.7543  -1.7449  -1.7023  -1.6817  -1.6733  -1.6658
    -1.6508  -1.6453  -1.6298  -1.6062  -1.5999  -1.5886  -1.5749  -1.5603
    -1.5466  -1.5305  -1.4900  -1.4727  -1.4204  -1.4014  -1.3805  -1.3708
    -1.3482  -1.3330  -1.3151  -1.2859  -1.2590  -1.2517  -1.2446  -1.2403
    -1.2331  -1.2296  -1.2164  -1.2084  -1.2030  -1.1906  -1.1700  -1.1616
    -1.1527  -1.1100  -1.0745  -1.0355  -1.0038  -0.9984  -0.9871  -0.9653
    -0.9462  -0.9024  -0.8818  -0.8747  -0.8548  -0.8135  -0.7981  -0.7632
    -0.7376  -0.6954  -0.6735  -0.6591  -0.6504  -0.6329  -0.6007  -0.5948
    -0.5393  -0.4814  -0.4735  -0.4610  -0.4551  -0.4492  -0.4386  -0.4343
    -0.4226  -0.4072  -0.3363  -0.3119  -0.2997  -0.2912  -0.2845  -0.2792
    -0.2629  -0.2420  -0.2355  -0.2256  -0.2115  -0.2015  -0.1262  -0.1105
    -0.1022  -0.0962  -0.0682  -0.0465  -0.0114   0.0088   0.0271   0.0588
     0.0714   0.1128   0.1152   0.1362   0.1390   0.1424   0.1573   0.1865
     0.2421   0.2676   0.3618   0.9503   1.1470   1.3117   1.3708   1.3900
     1.6768   1.7255

          k = 0.4000-0.6928 0.0000 ( 36660 PWs)   bands (ev):

   -21.3767  -9.9816  -6.7301  -6.4418  -6.3476  -5.8808  -5.6954  -5.2381
    -5.0972  -4.9578  -4.5460  -4.2346  -3.9910  -3.9460  -3.8555  -3.8156
    -3.8061  -3.7919  -3.7785  -3.7644  -3.7076  -3.7005  -3.6980  -3.6911
    -3.6117  -3.5944  -3.5484  -3.5443  -3.5143  -3.5120  -3.4034  -3.3804
    -3.3633  -3.3585  -3.3298  -3.2910  -3.2058  -3.1886  -3.0837  -3.0628
    -3.0610  -2.9865  -2.9794  -2.9565  -2.9284  -2.8647  -2.8513  -2.8341
    -2.7860  -2.7713  -2.6857  -2.6649  -2.6318  -2.6207  -2.5717  -2.5661
    -2.4967  -2.4787  -2.4683  -2.4635  -2.4516  -2.4320  -2.4107  -2.3422
    -2.2834  -2.2622  -2.2573  -2.2470  -2.2036  -2.1854  -2.1382  -2.1311
    -2.1035  -2.0809  -2.0743  -2.0603  -2.0571  -2.0324  -2.0074  -1.9858
    -1.9790  -1.9760  -1.9538  -1.9331  -1.9247  -1.8908  -1.8602  -1.8411
    -1.8246  -1.7916  -1.7588  -1.7479  -1.7239  -1.6901  -1.6792  -1.6703
    -1.6506  -1.6464  -1.6387  -1.6258  -1.6177  -1.5868  -1.5785  -1.5519
    -1.5228  -1.4975  -1.4846  -1.4817  -1.4686  -1.4602  -1.4572  -1.4467
    -1.4355  -1.4249  -1.4097  -1.3956  -1.3734  -1.3581  -1.3249  -1.3158
    -1.2764  -1.2401  -1.2021  -1.1821  -1.1754  -1.1690  -1.1556  -1.0939
    -1.0831  -1.0778  -1.0606  -1.0308  -0.9669  -0.9461  -0.9274  -0.9156
    -0.9053  -0.8943  -0.8734  -0.8656  -0.8333  -0.8120  -0.7846  -0.7745
    -0.7533  -0.7267  -0.7135  -0.7075  -0.6799  -0.6443  -0.6341  -0.6118
    -0.5983  -0.5891  -0.5728  -0.5660  -0.5277  -0.5159  -0.4976  -0.4224
    -0.3522  -0.3166  -0.3071  -0.3031  -0.2955  -0.2862  -0.2767  -0.2566
    -0.2388  -0.2262  -0.2127  -0.2021  -0.1600  -0.1444  -0.0891  -0.0777
    -0.0615  -0.0504  -0.0446  -0.0233   0.0048   0.0198   0.0269   0.0307
     0.0426   0.0832   0.1187   0.1205   0.1378   0.1500   0.1688   0.2005
     0.2940   0.5175   0.6217   0.8725   1.3017   1.4235   1.4754   1.8076
     1.8976   1.9456

          k = 0.4000-0.4619 0.0000 ( 36660 PWs)   bands (ev):

   -21.3767  -9.9800  -6.7360  -6.4496  -6.3487  -5.8543  -5.7220  -5.3235
    -4.9766  -4.9347  -4.5952  -4.2397  -3.9880  -3.9392  -3.8342  -3.8133
    -3.8109  -3.7836  -3.7773  -3.7632  -3.7211  -3.7008  -3.6990  -3.6927
    -3.6089  -3.5916  -3.5482  -3.5466  -3.5161  -3.5090  -3.4199  -3.3759
    -3.3628  -3.3553  -3.3365  -3.2912  -3.2152  -3.1918  -3.0777  -3.0644
    -3.0600  -2.9926  -2.9759  -2.9562  -2.9334  -2.8547  -2.8470  -2.8407
    -2.7776  -2.7674  -2.6914  -2.6596  -2.6295  -2.6228  -2.5718  -2.5643
    -2.4871  -2.4772  -2.4727  -2.4603  -2.4478  -2.4235  -2.4051  -2.3425
    -2.2772  -2.2680  -2.2511  -2.2442  -2.1991  -2.1897  -2.1614  -2.1273
    -2.1175  -2.0816  -2.0752  -2.0669  -2.0438  -2.0167  -2.0027  -1.9946
    -1.9867  -1.9775  -1.9505  -1.9337  -1.9304  -1.9035  -1.8604  -1.8428
    -1.8245  -1.7826  -1.7649  -1.7376  -1.7156  -1.6887  -1.6855  -1.6661
    -1.6535  -1.6469  -1.6361  -1.6296  -1.6147  -1.6104  -1.5846  -1.5760
    -1.5279  -1.5002  -1.4869  -1.4823  -1.4659  -1.4582  -1.4559  -1.4456
    -1.4401  -1.4273  -1.4104  -1.3842  -1.3672  -1.3412  -1.3237  -1.3051
    -1.2457  -1.2409  -1.2237  -1.1865  -1.1718  -1.1628  -1.1506  -1.1025
    -1.0797  -1.0678  -1.0522  -1.0360  -0.9967  -0.9420  -0.9369  -0.9136
    -0.8997  -0.8940  -0.8803  -0.8637  -0.8346  -0.8209  -0.7941  -0.7650
    -0.7553  -0.7284  -0.7068  -0.7007  -0.6920  -0.6569  -0.6250  -0.6194
    -0.6044  -0.5864  -0.5749  -0.5639  -0.5315  -0.5020  -0.4891  -0.4268
    -0.3486  -0.3185  -0.3113  -0.3002  -0.2945  -0.2877  -0.2801  -0.2635
    -0.2373  -0.2221  -0.2126  -0.2052  -0.1535  -0.1498  -0.0884  -0.0837
    -0.0637  -0.0519  -0.0464  -0.0312   0.0128   0.0184   0.0253   0.0337
     0.0441   0.1071   0.1182   0.1267   0.1389   0.1468   0.1709   0.2059
     0.3091   0.5148   0.5864   0.8642   1.3800   1.4177   1.5036   1.7103
     1.8971   1.9652

 ------ SPIN DOWN ----------


          k = 0.0000 0.0000 0.0000 ( 36693 PWs)   bands (ev):

   -21.4053 -10.0680  -7.6186  -6.6784  -6.2027  -5.5759  -5.1035  -4.4114
    -4.3841  -4.3811  -4.3784  -4.3758  -4.3593  -4.2555  -3.5187  -3.5061
    -3.5049  -3.5030  -3.4779  -3.4654  -3.3532  -2.5679  -2.5585  -2.5537
    -2.5498  -2.5292  -2.4801  -2.0955  -2.0873  -2.0842  -2.0830  -2.0763
    -2.0727  -1.8976  -1.8833  -1.8164  -1.8039  -1.7998  -1.7914  -1.7199
    -1.6944  -1.6718  -1.6456  -1.6259  -1.5717  -1.5447  -1.5385  -1.5343
    -1.5192  -1.4887  -1.3083  -1.2798  -1.2692  -1.2662  -1.2623  -1.2548
    -1.2546  -1.2438  -1.2318  -1.1940  -1.1909  -1.1779  -1.1743  -1.1627
    -1.1272  -0.9753  -0.6369  -0.6072  -0.5909  -0.5883  -0.5704  -0.4459
    -0.3960  -0.2940  -0.2722  -0.2696  -0.2593  -0.2572  -0.2517  -0.2144
    -0.2018  -0.1935  -0.1781  -0.1773  -0.1762  -0.1644  -0.1274  -0.0872
    -0.0804  -0.0675  -0.0654  -0.0555  -0.0374  -0.0154  -0.0126  -0.0077
    -0.0075  -0.0015   0.0173   0.0196   0.0271   0.0306   0.0782   0.1131
     0.1610   0.1793   0.2052   0.2351   0.2387   0.2490   0.2517   0.2541
     0.2551   0.2560   0.2578   0.2749   0.3255   0.3266   0.3714   0.4068
     0.4173   0.4316   0.4450   0.4623   0.5887   0.6372   0.6423   0.6944
     0.7225   0.7263   0.7330   0.7369   0.7497   0.8991   1.0396   1.0596
     1.0822   1.0862   1.2272   1.2616   1.2813   1.2958   1.2970   1.3021
     1.3045   1.4500   1.4589   1.4648   1.4707   1.4781   1.4954   1.5014
     1.5065   1.5299   1.5492   1.5578   1.5752   1.6058   1.6129   1.6184
     1.6251   1.6274   1.6286   1.6484   1.6796   1.6990   1.7061   1.7204
     1.7326   1.7451   1.7475   1.7490   1.7525   1.7581   1.7612   1.7991
     1.8033   1.8268   1.8307   1.8359   1.8455   1.8506   1.8514   1.8823
     1.8873   1.8909   1.8983   1.9002   1.9036   1.9098   1.9127   1.9189
     1.9219   1.9699   1.9771   2.0016   2.1262   2.1288   2.1329   2.1356
     2.1383   2.1399

          k = 0.0000 0.2309 0.0000 ( 36641 PWs)   bands (ev):

   -21.4053 -10.0685  -7.4699  -6.6431  -6.1206  -5.5836  -5.3357  -5.0995
    -4.7625  -4.7445  -4.2475  -4.1353  -3.8366  -3.8283  -3.7429  -3.6853
    -3.5414  -3.2932  -3.1652  -3.1362  -3.0598  -2.7922  -2.5726  -2.5408
    -2.5013  -2.4558  -2.4279  -2.2130  -2.1307  -2.1201  -2.1168  -2.0838
    -2.0734  -2.0401  -2.0283  -1.9958  -1.9857  -1.8640  -1.8425  -1.7748
    -1.7604  -1.7363  -1.6487  -1.5886  -1.5746  -1.5614  -1.5165  -1.4515
    -1.4151  -1.3957  -1.3446  -1.3173  -1.3113  -1.2871  -1.2668  -1.2602
    -1.2507  -1.1994  -1.1693  -1.1521  -1.1231  -1.0893  -1.0730  -1.0510
    -0.9919  -0.9120  -0.7115  -0.6533  -0.6418  -0.6160  -0.5893  -0.5507
    -0.4883  -0.4761  -0.4220  -0.4061  -0.3081  -0.2880  -0.2796  -0.2592
    -0.2533  -0.2352  -0.2269  -0.2058  -0.1952  -0.1826  -0.1458  -0.0995
    -0.0799  -0.0663  -0.0606  -0.0344  -0.0194  -0.0025   0.0031   0.0219
     0.0238   0.0306   0.0374   0.0410   0.0443   0.0572   0.0811   0.0979
     0.1201   0.1357   0.1425   0.1513   0.1769   0.1977   0.2072   0.2222
     0.2541   0.2761   0.3181   0.3246   0.3428   0.3658   0.3688   0.3930
     0.4435   0.5311   0.5760   0.6050   0.6089   0.6490   0.6653   0.6887
     0.6905   0.7112   0.7140   0.7172   0.7910   0.9289   1.0192   1.0405
     1.0500   1.0648   1.0722   1.0876   1.1035   1.1475   1.2019   1.2379
     1.2500   1.2845   1.3272   1.3338   1.3582   1.3884   1.4083   1.4177
     1.4755   1.4976   1.5142   1.5312   1.5408   1.5532   1.5719   1.5809
     1.6107   1.6364   1.6621   1.6867   1.7071   1.7206   1.7284   1.7611
     1.7752   1.7873   1.7926   1.8018   1.8165   1.8435   1.8715   1.8801
     1.8866   1.8891   1.9239   1.9357   1.9451   1.9584   1.9696   1.9868
     1.9938   2.0307   2.0330   2.0381   2.0586   2.0632   2.0726   2.0904
     2.0985   2.1242   2.1308   2.1476   2.2157   2.2291   2.2394   2.2549
     2.3133   2.3253

          k = 0.0000 0.4619 0.0000 ( 36606 PWs)   bands (ev):

   -21.4053 -10.0694  -7.0458  -6.6105  -6.2545  -5.8967  -5.4532  -5.1372
    -4.9845  -4.9317  -4.8255  -3.9064  -3.8633  -3.7587  -3.2951  -3.2144
    -3.2058  -3.0907  -2.9542  -2.9000  -2.7714  -2.7557  -2.6116  -2.6069
    -2.5522  -2.5303  -2.4840  -2.4653  -2.3754  -2.3593  -2.3136  -2.2925
    -2.2778  -2.0810  -2.0698  -1.9970  -1.9867  -1.8852  -1.8698  -1.8634
    -1.8500  -1.8415  -1.6661  -1.5579  -1.5506  -1.5185  -1.5089  -1.4599
    -1.3471  -1.3344  -1.3156  -1.3037  -1.2881  -1.2768  -1.2658  -1.2527
    -1.2001  -1.1524  -1.1504  -1.1384  -1.1136  -1.0679  -0.9707  -0.9404
    -0.8247  -0.7964  -0.7276  -0.6812  -0.6609  -0.6296  -0.6079  -0.5903
    -0.5821  -0.5550  -0.5237  -0.4903  -0.4731  -0.4346  -0.4133  -0.3880
    -0.3640  -0.3286  -0.3145  -0.3045  -0.2948  -0.2326  -0.1966  -0.1581
    -0.1212  -0.1011  -0.0799  -0.0440  -0.0317  -0.0064   0.0138   0.0385
     0.0596   0.0759   0.0833   0.0937   0.1004   0.1142   0.1382   0.1518
     0.1613   0.1874   0.1966   0.2006   0.2110   0.2212   0.2324   0.2551
     0.2689   0.2842   0.3292   0.3714   0.4132   0.4180   0.4493   0.4665
     0.4685   0.4896   0.4988   0.5140   0.5737   0.5765   0.5812   0.6182
     0.6345   0.6527   0.6832   0.6858   0.7098   0.7221   0.8072   0.8695
     0.9070   0.9380   1.0001   1.0537   1.1068   1.1293   1.1443   1.1506
     1.1680   1.1810   1.2119   1.2457   1.2597   1.3003   1.3940   1.4317
     1.4422   1.4494   1.5012   1.5217   1.5478   1.5605   1.5827   1.6024
     1.6320   1.6458   1.6681   1.7197   1.7511   1.7700   1.7815   1.8032
     1.8069   1.8116   1.8286   1.8473   1.8750   1.8853   1.8948   1.9179
     1.9334   1.9744   2.0163   2.0274   2.0394   2.0673   2.0733   2.0839
     2.0921   2.0999   2.1272   2.1331   2.1428   2.1556   2.1632   2.1664
     2.1846   2.2126   2.3182   2.3759   2.3944   2.4804   2.5768   2.8270
     2.9101   2.9480

          k = 0.2000-0.1155 0.0000 ( 36641 PWs)   bands (ev):

   -21.4053 -10.0677  -7.4710  -6.6434  -6.1270  -5.6046  -5.3105  -5.0868
    -4.7709  -4.7582  -4.2410  -4.0966  -3.8365  -3.8297  -3.7541  -3.7159
    -3.5356  -3.2917  -3.1699  -3.1477  -3.0438  -2.7689  -2.5828  -2.5544
    -2.4881  -2.4614  -2.4341  -2.2105  -2.1285  -2.1268  -2.1135  -2.0800
    -2.0735  -2.0417  -2.0279  -1.9938  -1.9892  -1.8739  -1.8416  -1.7664
    -1.7598  -1.7194  -1.6369  -1.5995  -1.5708  -1.5611  -1.5072  -1.4424
    -1.4222  -1.3962  -1.3522  -1.3327  -1.3099  -1.2847  -1.2696  -1.2609
    -1.2480  -1.2148  -1.1687  -1.1504  -1.1221  -1.0883  -1.0757  -1.0513
    -0.9772  -0.9205  -0.7143  -0.6540  -0.6392  -0.6196  -0.5842  -0.5437
    -0.4965  -0.4726  -0.4298  -0.4124  -0.3125  -0.2896  -0.2782  -0.2623
    -0.2509  -0.2367  -0.2269  -0.2065  -0.1997  -0.1778  -0.1487  -0.0979
    -0.0702  -0.0672  -0.0536  -0.0341  -0.0302  -0.0085   0.0032   0.0181
     0.0271   0.0327   0.0392   0.0420   0.0444   0.0487   0.0858   0.0967
     0.1225   0.1381   0.1472   0.1491   0.1814   0.1950   0.2096   0.2167
     0.2465   0.2650   0.2901   0.3187   0.3528   0.3629   0.3683   0.3927
     0.4633   0.5474   0.5952   0.6052   0.6162   0.6481   0.6646   0.6871
     0.7018   0.7122   0.7130   0.7172   0.7672   0.9224   1.0238   1.0453
     1.0521   1.0610   1.0768   1.0870   1.1104   1.1558   1.2065   1.2382
     1.2587   1.2750   1.3269   1.3358   1.3640   1.3872   1.4133   1.4339
     1.4733   1.4797   1.5168   1.5307   1.5409   1.5543   1.5736   1.5815
     1.6074   1.6259   1.6745   1.6823   1.7072   1.7177   1.7281   1.7360
     1.7830   1.7849   1.7942   1.7966   1.8174   1.8519   1.8723   1.8805
     1.8841   1.8914   1.9210   1.9350   1.9439   1.9562   1.9740   1.9833
     1.9951   2.0306   2.0342   2.0387   2.0596   2.0657   2.0710   2.0963
     2.1119   2.1221   2.1273   2.1498   2.2033   2.2300   2.2369   2.2703
     2.3043   2.3229

          k = 0.2000 0.1155 0.0000 ( 36641 PWs)   bands (ev):

   -21.4053 -10.0687  -7.4697  -6.6432  -6.1188  -5.5803  -5.3343  -5.1135
    -4.7525  -4.7446  -4.2499  -4.1453  -3.8349  -3.8293  -3.7316  -3.6842
    -3.5438  -3.2929  -3.1616  -3.1386  -3.0622  -2.7956  -2.5665  -2.5412
    -2.4998  -2.4551  -2.4311  -2.2134  -2.1286  -2.1180  -2.1140  -2.0789
    -2.0744  -2.0413  -2.0284  -1.9930  -1.9888  -1.8679  -1.8407  -1.7731
    -1.7597  -1.7252  -1.6749  -1.6026  -1.5805  -1.5617  -1.4799  -1.4438
    -1.4231  -1.4002  -1.3470  -1.3313  -1.3045  -1.2852  -1.2675  -1.2634
    -1.2510  -1.1987  -1.1786  -1.1531  -1.1247  -1.0861  -1.0739  -1.0507
    -0.9682  -0.9136  -0.7234  -0.6538  -0.6409  -0.6166  -0.5855  -0.5525
    -0.4999  -0.4751  -0.4199  -0.4033  -0.3172  -0.2845  -0.2762  -0.2715
    -0.2370  -0.2275  -0.2238  -0.2109  -0.2039  -0.1755  -0.1561  -0.1000
    -0.0792  -0.0669  -0.0560  -0.0429  -0.0345   0.0025   0.0051   0.0162
     0.0273   0.0284   0.0375   0.0421   0.0470   0.0597   0.0867   0.0984
     0.1219   0.1362   0.1491   0.1507   0.1632   0.1989   0.2139   0.2228
     0.2533   0.2690   0.3151   0.3220   0.3513   0.3614   0.3673   0.3923
     0.4688   0.5416   0.5755   0.6051   0.6129   0.6572   0.6630   0.6895
     0.7018   0.7065   0.7134   0.7157   0.7618   0.9261   1.0238   1.0321
     1.0510   1.0711   1.0814   1.0876   1.1083   1.1671   1.2076   1.2335
     1.2496   1.2700   1.3293   1.3346   1.3603   1.3845   1.3989   1.4168
     1.4794   1.4932   1.5204   1.5346   1.5417   1.5541   1.5702   1.5828
     1.6051   1.6358   1.6696   1.6793   1.6992   1.7208   1.7307   1.7561
     1.7783   1.7883   1.7921   1.8017   1.8133   1.8483   1.8724   1.8806
     1.8851   1.8908   1.9186   1.9362   1.9461   1.9586   1.9692   1.9865
     1.9921   2.0308   2.0329   2.0408   2.0596   2.0635   2.0709   2.0921
     2.0997   2.1255   2.1285   2.1478   2.2144   2.2288   2.2404   2.2531
     2.3134   2.3277

          k = 0.2000 0.3464 0.0000 ( 36608 PWs)   bands (ev):

   -21.4053 -10.0697  -7.1801  -6.6074  -5.9688  -5.7515  -5.7455  -5.4194
    -5.1062  -4.4845  -4.4268  -4.0322  -4.0193  -3.9192  -3.1917  -3.1848
    -3.1769  -3.1696  -3.0688  -2.9737  -2.8901  -2.8834  -2.8699  -2.5106
    -2.4342  -2.4228  -2.4173  -2.3384  -2.3290  -2.3062  -2.2262  -2.2137
    -2.2080  -2.2007  -2.1898  -2.0652  -2.0057  -1.8548  -1.8301  -1.8232
    -1.7671  -1.7520  -1.7011  -1.6841  -1.6168  -1.5132  -1.4828  -1.4315
    -1.3658  -1.3462  -1.3071  -1.3025  -1.3006  -1.2775  -1.2549  -1.2413
    -1.2293  -1.1923  -1.1541  -1.1195  -1.0913  -0.9902  -0.9546  -0.9243
    -0.8579  -0.8271  -0.7206  -0.7094  -0.6303  -0.6050  -0.5759  -0.5512
    -0.5415  -0.5143  -0.5016  -0.4973  -0.4436  -0.4188  -0.3893  -0.3763
    -0.3629  -0.3485  -0.3308  -0.3178  -0.2761  -0.2135  -0.1677  -0.1588
    -0.1344  -0.1178  -0.0766  -0.0590  -0.0371  -0.0305  -0.0171  -0.0077
     0.0135   0.0310   0.0424   0.0568   0.0689   0.0779   0.1149   0.1284
     0.1413   0.1510   0.1708   0.1796   0.1940   0.1985   0.2204   0.2247
     0.2649   0.3052   0.3215   0.3441   0.3857   0.4543   0.4683   0.4758
     0.5059   0.5139   0.5495   0.6023   0.6212   0.6299   0.6359   0.6441
     0.6597   0.6708   0.6998   0.7330   0.7882   0.8024   0.9164   0.9529
     0.9938   1.0509   1.0615   1.0826   1.1117   1.1263   1.1399   1.1545
     1.1696   1.1858   1.1939   1.2117   1.2353   1.2728   1.3289   1.3659
     1.3914   1.4064   1.4280   1.4455   1.4710   1.4835   1.5240   1.5400
     1.5924   1.6415   1.7094   1.7567   1.7596   1.7768   1.7980   1.8175
     1.8287   1.8361   1.8547   1.8661   1.8741   1.9121   1.9323   1.9355
     1.9461   1.9852   1.9921   1.9983   2.0134   2.0356   2.0387   2.0669
     2.0733   2.0791   2.0853   2.1154   2.1178   2.1355   2.1573   2.1861
     2.2141   2.2185   2.3258   2.3430   2.4329   2.4623   2.4950   2.6678
     2.7122   2.8050

          k = 0.2000-0.5774 0.0000 ( 36660 PWs)   bands (ev):

   -21.4053 -10.0693  -6.7798  -6.5564  -6.4180  -5.9246  -5.7497  -5.3084
    -5.0966  -4.9558  -4.5163  -4.0789  -3.5595  -3.4437  -3.2179  -3.2130
    -3.1820  -2.9884  -2.9544  -2.8142  -2.7932  -2.7871  -2.6682  -2.6564
    -2.6506  -2.6350  -2.6160  -2.5962  -2.4047  -2.2826  -2.2501  -2.2394
    -2.2315  -2.2145  -2.1853  -2.1737  -2.0697  -2.0500  -1.8393  -1.7420
    -1.7169  -1.7098  -1.7007  -1.6356  -1.5960  -1.5012  -1.4673  -1.4442
    -1.4198  -1.4089  -1.3739  -1.2860  -1.2470  -1.2354  -1.2275  -1.2004
    -1.1734  -1.1102  -1.0813  -1.0524  -1.0210  -1.0013  -0.9707  -0.8838
    -0.8652  -0.7896  -0.7044  -0.6930  -0.6717  -0.6271  -0.6082  -0.6014
    -0.5606  -0.5299  -0.5057  -0.4825  -0.4602  -0.4308  -0.3993  -0.3893
    -0.3647  -0.3506  -0.3358  -0.3221  -0.3194  -0.3076  -0.2738  -0.2636
    -0.2489  -0.2335  -0.1927  -0.1644  -0.1408  -0.0962  -0.0658  -0.0431
    -0.0024   0.0324   0.0508   0.0737   0.0928   0.1065   0.1117   0.1360
     0.1570   0.1811   0.2143   0.2354   0.2470   0.2512   0.2917   0.3395
     0.3620   0.3804   0.3885   0.3964   0.4140   0.4584   0.4684   0.5002
     0.5127   0.5441   0.5681   0.5906   0.6026   0.6214   0.6379   0.6622
     0.6850   0.6892   0.6969   0.7184   0.7553   0.7652   0.7722   0.8076
     0.8350   0.9313   0.9753   1.0361   1.0586   1.0710   1.0908   1.1102
     1.1215   1.1333   1.1513   1.1814   1.2435   1.2996   1.3159   1.3328
     1.3456   1.3781   1.4162   1.4338   1.4584   1.4720   1.5019   1.5522
     1.6023   1.6558   1.7112   1.7220   1.7573   1.8237   1.8279   1.8425
     1.8591   1.8655   1.8814   1.8933   1.9129   1.9395   1.9435   1.9546
     1.9972   2.0090   2.0300   2.0370   2.0451   2.0485   2.0561   2.0620
     2.0804   2.1028   2.1181   2.1443   2.1507   2.1736   2.1769   2.2080
     2.2644   2.2881   2.3660   2.5170   2.6389   2.7862   2.9733   3.0405
     3.0678   3.0771

          k = 0.2000-0.3464 0.0000 ( 36608 PWs)   bands (ev):

   -21.4053 -10.0681  -7.1842  -6.6070  -5.9867  -5.7710  -5.7366  -5.4076
    -5.0827  -4.5206  -4.3852  -4.0258  -4.0234  -3.9153  -3.2026  -3.1879
    -3.1776  -3.1732  -3.0655  -2.9893  -2.9060  -2.8748  -2.8419  -2.5120
    -2.4375  -2.4217  -2.4137  -2.3517  -2.3307  -2.3127  -2.2292  -2.2128
    -2.2087  -2.1968  -2.1890  -2.0680  -2.0042  -1.8409  -1.8321  -1.8191
    -1.7604  -1.7415  -1.6977  -1.6855  -1.5842  -1.5226  -1.4810  -1.4412
    -1.3653  -1.3462  -1.3091  -1.3037  -1.2933  -1.2748  -1.2635  -1.2499
    -1.2329  -1.1998  -1.1387  -1.1191  -1.0692  -1.0383  -0.9597  -0.9357
    -0.8551  -0.8227  -0.7245  -0.7124  -0.6224  -0.5980  -0.5897  -0.5506
    -0.5386  -0.5216  -0.5065  -0.4753  -0.4393  -0.4105  -0.3945  -0.3800
    -0.3687  -0.3409  -0.3250  -0.3128  -0.2595  -0.2373  -0.1669  -0.1604
    -0.1423  -0.1301  -0.0801  -0.0578  -0.0371  -0.0285  -0.0172  -0.0074
     0.0085   0.0328   0.0463   0.0632   0.0664   0.0767   0.1090   0.1348
     0.1406   0.1474   0.1678   0.1867   0.1923   0.2012   0.2145   0.2207
     0.2477   0.2985   0.3280   0.3315   0.4046   0.4547   0.4633   0.4851
     0.5064   0.5079   0.5499   0.5920   0.6216   0.6269   0.6381   0.6467
     0.6627   0.6692   0.6970   0.7593   0.7860   0.8206   0.9044   0.9584
     0.9896   1.0403   1.0619   1.0943   1.1167   1.1241   1.1369   1.1523
     1.1638   1.1905   1.1954   1.2041   1.2453   1.2835   1.3450   1.3609
     1.3792   1.4072   1.4195   1.4484   1.4676   1.4955   1.5295   1.5580
     1.5835   1.6318   1.6987   1.7478   1.7626   1.7768   1.7924   1.8112
     1.8268   1.8354   1.8615   1.8665   1.8728   1.9194   1.9304   1.9360
     1.9540   1.9784   1.9892   1.9998   2.0149   2.0349   2.0369   2.0663
     2.0766   2.0802   2.0850   2.1133   2.1216   2.1254   2.1632   2.1994
     2.2152   2.2358   2.3290   2.3414   2.4153   2.4658   2.4998   2.6308
     2.7338   2.8121

          k = 0.4000-0.2309 0.0000 ( 36606 PWs)   bands (ev):

   -21.4053 -10.0672  -7.0507  -6.6127  -6.2617  -5.9119  -5.4672  -5.0886
    -4.9787  -4.9682  -4.7866  -3.8908  -3.8812  -3.7790  -3.2717  -3.2150
    -3.2097  -3.0884  -2.9522  -2.8857  -2.7782  -2.7578  -2.6150  -2.6065
    -2.5658  -2.5437  -2.4879  -2.4556  -2.3799  -2.3613  -2.3063  -2.2936
    -2.2759  -2.0920  -2.0673  -1.9914  -1.9868  -1.8756  -1.8687  -1.8587
    -1.8535  -1.8273  -1.5942  -1.5691  -1.5593  -1.5234  -1.5093  -1.4855
    -1.3428  -1.3373  -1.3157  -1.3079  -1.2928  -1.2760  -1.2707  -1.2485
    -1.2106  -1.1541  -1.1483  -1.1385  -1.1099  -1.0881  -0.9726  -0.9234
    -0.8310  -0.7980  -0.7405  -0.6846  -0.6617  -0.6384  -0.6071  -0.5947
    -0.5776  -0.5643  -0.5286  -0.5003  -0.4633  -0.4358  -0.4133  -0.3885
    -0.3550  -0.3371  -0.3102  -0.3084  -0.2874  -0.2411  -0.1858  -0.1720
    -0.1187  -0.1049  -0.0877  -0.0402  -0.0156  -0.0071   0.0086   0.0431
     0.0629   0.0735   0.0874   0.0963   0.1044   0.1089   0.1232   0.1511
     0.1605   0.1838   0.1981   0.2018   0.2084   0.2129   0.2329   0.2422
     0.2694   0.2819   0.3197   0.3755   0.4126   0.4254   0.4472   0.4670
     0.4691   0.4836   0.4981   0.5315   0.5664   0.5801   0.5873   0.6237
     0.6498   0.6560   0.6808   0.6876   0.7124   0.7241   0.8328   0.8694
     0.9119   0.9455   1.0089   1.0391   1.1060   1.1237   1.1367   1.1567
     1.1658   1.1750   1.2142   1.2510   1.2640   1.3155   1.3990   1.4306
     1.4393   1.4482   1.5044   1.5209   1.5433   1.5514   1.5850   1.5899
     1.6258   1.6428   1.6727   1.7251   1.7521   1.7641   1.7760   1.7960
     1.8065   1.8100   1.8299   1.8639   1.8801   1.8851   1.9014   1.9203
     1.9342   1.9675   2.0229   2.0322   2.0453   2.0617   2.0696   2.0837
     2.0912   2.1228   2.1288   2.1334   2.1444   2.1570   2.1634   2.1678
     2.1917   2.2136   2.3205   2.3500   2.3759   2.4840   2.6425   2.8137
     2.8879   2.9230

[...]
     atom    8 type  1   force =    -0.00072822   -0.00419500   -0.09833302
     atom    9 type  1   force =     0.00178611    0.00242457   -0.10140875
     atom   10 type  1   force =    -0.00002140    0.00115686   -0.01728026
     atom   11 type  1   force =     0.00097680    0.00097365   -0.00869878
     atom   12 type  1   force =    -0.00007128    0.00123394   -0.01140938
     atom   13 type  1   force =    -0.00037484   -0.00021455   -0.01047951
     atom   14 type  1   force =     0.00060956    0.00088328   -0.01263440
     atom   15 type  1   force =    -0.00076630    0.00076660   -0.01013170
     atom   16 type  1   force =     0.00133286   -0.00116856   -0.01176337
     atom   17 type  1   force =    -0.00055908   -0.00279126   -0.00974303
     atom   18 type  1   force =    -0.00037933   -0.00067275   -0.01332000
     atom   19 type  1   force =    -0.00027873    0.00188560    0.01355815
     atom   20 type  1   force =    -0.00695554    0.00376423   -0.00078367
     atom   21 type  1   force =     0.00518291   -0.00682844    0.01122380
     atom   22 type  1   force =    -0.00029016   -0.00033902    0.01810499
     atom   23 type  1   force =    -0.00013917    0.00789032    0.01028329
     atom   24 type  1   force =     0.00031735    0.00172039    0.01772361
     atom   25 type  1   force =    -0.00056524    0.00061811    0.01858951
     atom   26 type  1   force =    -0.00755335   -0.00708422    0.00477769
     atom   27 type  1   force =     0.00943871   -0.00402475    0.00222521
     atom   28 type  1   force =     0.02092210    0.00200754    0.12806615
     atom   29 type  1   force =     0.02088234    0.05695805    0.11040972
     atom   30 type  1   force =    -0.02929422    0.00701427    0.13636978
     atom   31 type  1   force =     0.04096278   -0.04812275    0.17093996
     atom   32 type  1   force =    -0.00148764    0.00004498    0.02423650
     atom   33 type  1   force =     0.00026197    0.00096549    0.10463284
     atom   34 type  1   force =    -0.00117380   -0.00252207    0.10704111
     atom   35 type  1   force =     0.00128540    0.00490936    0.11729372
     atom   36 type  1   force =    -0.00445718    0.00460347    0.10739771
     atom   37 type  2   force =    -0.24713132   -0.31283547    0.20574957
     atom   38 type  3   force =     1.32898593    1.71251803   -1.17964032
     atom   39 type  4   force =    -0.03260825   -0.04366319   -0.05543297
     The ionic contribution  to forces
     atom    1 type  1   force =    -0.00630959    0.00137142 -111.17865642
     atom    2 type  1   force =    -0.00324476    0.00279482 -111.19780892
     atom    3 type  1   force =     0.00955429    0.00104618 -111.18510183
     atom    4 type  1   force =    -0.00354614    0.00479493 -111.17783123
     atom    5 type  1   force =     0.00167393    0.00743384 -111.18160419
     atom    6 type  1   force =     0.00187225   -0.00151991 -111.17454977
     atom    7 type  1   force =     0.00131750   -0.00123680 -111.17394373
     atom    8 type  1   force =    -0.00598277   -0.00586761 -111.18319961
     atom    9 type  1   force =     0.00466530   -0.00881688 -111.18586081
     atom   10 type  1   force =    -0.04178677   -0.01575195  -40.11904362
     atom   11 type  1   force =    -0.01629208   -0.05311010  -40.23606399
     atom   12 type  1   force =     0.05807084   -0.03254905  -40.15012037
     atom   13 type  1   force =    -0.06057443    0.04009996  -40.17952377
     atom   14 type  1   force =     0.03858194    0.04633137  -40.22547554
     atom   15 type  1   force =     0.02200540    0.01243983  -40.10478865
     atom   16 type  1   force =    -0.00630889    0.03839121  -40.11028921
     atom   17 type  1   force =     0.00175156   -0.00709588  -40.11803365
     atom   18 type  1   force =     0.00455539   -0.02875481  -40.10644985
     atom   19 type  1   force =    -0.30288902    0.06627193   31.49935701
     atom   20 type  1   force =    -0.18749622    0.15661794   30.47660208
     atom   21 type  1   force =     0.48756348    0.04660432   31.18393808
     atom   22 type  1   force =    -0.16828449    0.22763371   31.53852236
     atom   23 type  1   force =     0.08679414    0.36981960   31.35656462
     atom   24 type  1   force =     0.08218815   -0.06844422   31.67012661
     atom   25 type  1   force =     0.05555842   -0.05394317   31.69746355
     atom   26 type  1   force =    -0.29713583   -0.29768322   31.27327908
     atom   27 type  1   force =     0.24206906   -0.44631721   31.14974537
     atom   28 type  1   force =    -1.61611815   -0.52624044  103.81802745
     atom   29 type  1   force =    -0.94293189   -3.71604449   97.48896245
     atom   30 type  1   force =     2.43592031   -1.36721949  103.05099964
     atom   31 type  1   force =    -3.00049506    2.02469398  101.87505657
     atom   32 type  1   force =     2.73388452    3.25485683   98.04905935
     atom   33 type  1   force =     0.77655974    0.35029494  104.26227097
     atom   34 type  1   force =    -0.26515773    1.32446351  104.12390396
     atom   35 type  1   force =     0.01433110   -0.28518635  103.97643086
     atom   36 type  1   force =     0.24161933   -0.98795351  104.20649207
     atom   37 type  2   force =     3.60910533    4.90018228   55.96722696
     atom   38 type  3   force =    -5.14614460   -6.53765915   88.22740396
     atom   39 type  4   force =     1.16105647    1.56525161   15.09691216
     The local contribution  to forces
     atom    1 type  1   force =     0.00766317   -0.00418794  111.28468346
     atom    2 type  1   force =     0.00361758   -0.00417715  111.30105120
     atom    3 type  1   force =    -0.01119500    0.00103254  111.29097649
     atom    4 type  1   force =     0.00126307   -0.00328779  111.28373120
     atom    5 type  1   force =    -0.00141983   -0.01137858  111.28873526
     atom    6 type  1   force =    -0.00008970    0.00263837  111.27951560
     atom    7 type  1   force =    -0.00070131    0.00197875  111.28072228
     atom    8 type  1   force =     0.00708910    0.01005423  111.28431084
     atom    9 type  1   force =    -0.00693962    0.00666234  111.28914856
     atom   10 type  1   force =     0.04241659    0.01459949   40.11348431
     atom   11 type  1   force =     0.01446730    0.05145803   40.22355825
     atom   12 type  1   force =    -0.05729574    0.03135964   40.14100843
     atom   13 type  1   force =     0.06033311   -0.04099153   40.16897908
     atom   14 type  1   force =    -0.03892664   -0.04624536   40.21590033
     atom   15 type  1   force =    -0.02071199   -0.01386963   40.09391322
     atom   16 type  1   force =     0.00537791   -0.03692322   40.10047014
     atom   17 type  1   force =    -0.00104351    0.01022573   40.10645076
     atom   18 type  1   force =    -0.00383350    0.02972554   40.09772931
     atom   19 type  1   force =     0.30287000   -0.06779511  -31.48996956
     atom   20 type  1   force =     0.19554199   -0.16148834  -30.45513183
     atom   21 type  1   force =    -0.49239940   -0.03982041  -31.17635977
     atom   22 type  1   force =     0.16873759   -0.22642447  -31.53262594
     atom   23 type  1   force =    -0.08609547   -0.37632941  -31.35061714
     atom   24 type  1   force =    -0.08281092    0.06719391  -31.66511852
     atom   25 type  1   force =    -0.05535095    0.05329117  -31.69003515
     atom   26 type  1   force =     0.30801735    0.30560237  -31.25501252
     atom   27 type  1   force =    -0.25318364    0.45113508  -31.13104717
     atom   28 type  1   force =     1.58743419    0.52175501 -103.95605400
     atom   29 type  1   force =     0.91198558    3.63704373  -97.60726531
     atom   30 type  1   force =    -2.39630357    1.35761883 -103.19718637
     atom   31 type  1   force =     2.95004590   -1.96698625 -102.05737583
     atom   32 type  1   force =    -2.73017548   -3.25436725  -98.06089259
     atom   33 type  1   force =    -0.77365450   -0.34976942 -104.37412323
     atom   34 type  1   force =     0.26476270   -1.31578691 -104.23805486
     atom   35 type  1   force =    -0.01597174    0.27783676 -104.10500511
     atom   36 type  1   force =    -0.23624415    0.97886604 -104.32319936
     atom   37 type  2   force =    -3.36056143   -4.58613496  -56.16723123
     atom   38 type  3   force =     3.83097264    4.84063818  -87.06275962
     atom   39 type  4   force =    -1.12940255   -1.52022680  -15.03182814
     The core correction contribution to forces
     atom    1 type  1   force =     0.00020979   -0.00014591    0.01050938
     atom    2 type  1   force =     0.00000170   -0.00011851    0.01040717
     atom    3 type  1   force =    -0.00019526    0.00008147    0.01066745
     atom    4 type  1   force =    -0.00015918   -0.00001822    0.01028858
     atom    5 type  1   force =     0.00010420   -0.00022147    0.01061118
     atom    6 type  1   force =    -0.00000834   -0.00010504    0.01019010
     atom    7 type  1   force =    -0.00005445   -0.00006962    0.01019181
     atom    8 type  1   force =     0.00016249    0.00037321    0.01071107
     atom    9 type  1   force =    -0.00032179   -0.00001847    0.01038912
     atom   10 type  1   force =     0.00007912    0.00012354   -0.00188641
     atom   11 type  1   force =    -0.00018008    0.00004322   -0.00146685
     atom   12 type  1   force =     0.00018157    0.00005307   -0.00186262
     atom   13 type  1   force =     0.00005025   -0.00005972   -0.00175017
     atom   14 type  1   force =     0.00004211    0.00003136   -0.00186322
     atom   15 type  1   force =    -0.00007369   -0.00007113   -0.00162464
     atom   16 type  1   force =    -0.00004232   -0.00003289   -0.00175747
     atom   17 type  1   force =     0.00011560    0.00000931   -0.00162226
     atom   18 type  1   force =    -0.00004033   -0.00009683   -0.00189855
     atom   19 type  1   force =    -0.00019824   -0.00028712    0.00151892
     atom   20 type  1   force =    -0.00016643   -0.00021177    0.00104696
     atom   21 type  1   force =     0.00074452   -0.00091013    0.00040248
     atom   22 type  1   force =    -0.00029244   -0.00000843    0.00198881
     atom   23 type  1   force =    -0.00013334    0.00150054    0.00018727
     atom   24 type  1   force =     0.00002840    0.00017268    0.00172100
     atom   25 type  1   force =     0.00012805    0.00024707    0.00216232
     atom   26 type  1   force =    -0.00010323    0.00002622    0.00143813
     atom   27 type  1   force =     0.00018949   -0.00018109    0.00063925
     atom   28 type  1   force =     0.00056939    0.00028767   -0.00939426
     atom   29 type  1   force =     0.00292229    0.01006623    0.00467419
     atom   30 type  1   force =    -0.00258269    0.00384455   -0.00779002
     atom   31 type  1   force =     0.00635765   -0.00155173   -0.00551785
     atom   32 type  1   force =    -0.00288156   -0.00292021   -0.00521635
     atom   33 type  1   force =    -0.00261240   -0.00066596   -0.00978585
     atom   34 type  1   force =     0.00076888   -0.00320941   -0.00922744
     atom   35 type  1   force =    -0.00037517   -0.00080240   -0.00979259
     atom   36 type  1   force =    -0.00006738    0.00002561   -0.01068595
     atom   37 type  2   force =     0.00277825    0.00394682   -0.00265976
     atom   38 type  3   force =    -0.01082108   -0.01386369    0.01057873
     atom   39 type  4   force =     0.00000000    0.00000000    0.00000000
     The Hubbard contrib.    to forces
     atom    1 type  1   force =     0.00000000    0.00000000    0.00000000
     atom    2 type  1   force =     0.00000000    0.00000000    0.00000000
     atom    3 type  1   force =     0.00000000    0.00000000    0.00000000
     atom    4 type  1   force =     0.00000000    0.00000000    0.00000000
     atom    5 type  1   force =     0.00000000    0.00000000    0.00000000
     atom    6 type  1   force =     0.00000000    0.00000000    0.00000000
     atom    7 type  1   force =     0.00000000    0.00000000    0.00000000
     atom    8 type  1   force =     0.00000000    0.00000000    0.00000000
     atom    9 type  1   force =     0.00000000    0.00000000    0.00000000
     atom   10 type  1   force =     0.00000000    0.00000000    0.00000000
     atom   11 type  1   force =     0.00000000    0.00000000    0.00000000
     atom   12 type  1   force =     0.00000000    0.00000000    0.00000000
     atom   13 type  1   force =     0.00000000    0.00000000    0.00000000
     atom   14 type  1   force =     0.00000000    0.00000000    0.00000000
     atom   15 type  1   force =     0.00000000    0.00000000    0.00000000
     atom   16 type  1   force =     0.00000000    0.00000000    0.00000000
     atom   17 type  1   force =     0.00000000    0.00000000    0.00000000
     atom   18 type  1   force =     0.00000000    0.00000000    0.00000000
     atom   19 type  1   force =     0.00000000    0.00000000    0.00000000
     atom   20 type  1   force =     0.00000000    0.00000000    0.00000000
     atom   21 type  1   force =     0.00000000    0.00000000    0.00000000
     atom   22 type  1   force =     0.00000000    0.00000000    0.00000000
     atom   23 type  1   force =     0.00000000    0.00000000    0.00000000
     atom   24 type  1   force =     0.00000000    0.00000000    0.00000000
     atom   25 type  1   force =     0.00000000    0.00000000    0.00000000
     atom   26 type  1   force =     0.00000000    0.00000000    0.00000000
     atom   27 type  1   force =     0.00000000    0.00000000    0.00000000
     atom   28 type  1   force =     0.00000000    0.00000000    0.00000000
     atom   29 type  1   force =     0.00000000    0.00000000    0.00000000
     atom   30 type  1   force =     0.00000000    0.00000000    0.00000000
     atom   31 type  1   force =     0.00000000    0.00000000    0.00000000
     atom   32 type  1   force =     0.00000000    0.00000000    0.00000000
     atom   33 type  1   force =     0.00000000    0.00000000    0.00000000
     atom   34 type  1   force =     0.00000000    0.00000000    0.00000000
     atom   35 type  1   force =     0.00000000    0.00000000    0.00000000
     atom   36 type  1   force =     0.00000000    0.00000000    0.00000000
     atom   37 type  2   force =     0.00000000    0.00000000    0.00000000
     atom   38 type  3   force =     0.00000000    0.00000000    0.00000000
     atom   39 type  4   force =     0.00000000    0.00000000    0.00000000
     The SCF correction term to forces
     atom    1 type  1   force =    -0.00000000    0.00000000    0.00000000
     atom    2 type  1   force =     0.00000000    0.00000000    0.00000000
     atom    3 type  1   force =    -0.00000000   -0.00000000    0.00000000
     atom    4 type  1   force =     0.00000000    0.00000000    0.00000000
     atom    5 type  1   force =    -0.00000000   -0.00000000    0.00000000
     atom    6 type  1   force =     0.00000000    0.00000000    0.00000000
     atom    7 type  1   force =    -0.00000000   -0.00000000    0.00000000
     atom    8 type  1   force =     0.00000000   -0.00000000   -0.00000000
     atom    9 type  1   force =     0.00000000   -0.00000000    0.00000000
     atom   10 type  1   force =    -0.00000000   -0.00000000    0.00000000
     atom   11 type  1   force =     0.00000000   -0.00000000    0.00000000
     atom   12 type  1   force =    -0.00000000   -0.00000000    0.00000000
     atom   13 type  1   force =     0.00000000    0.00000000    0.00000000
     atom   14 type  1   force =     0.00000000    0.00000000    0.00000000
     atom   15 type  1   force =    -0.00000000    0.00000000    0.00000000
     atom   16 type  1   force =    -0.00000000   -0.00000000    0.00000000
     atom   17 type  1   force =    -0.00000000   -0.00000000    0.00000000
     atom   18 type  1   force =     0.00000000    0.00000000    0.00000000
     atom   19 type  1   force =    -0.00000000    0.00000000   -0.00000000
     atom   20 type  1   force =     0.00000000   -0.00000000   -0.00000000
     atom   21 type  1   force =    -0.00000000    0.00000000   -0.00000000
     atom   22 type  1   force =    -0.00000000    0.00000000   -0.00000000
     atom   23 type  1   force =     0.00000000   -0.00000000   -0.00000000
     atom   24 type  1   force =     0.00000000    0.00000000   -0.00000000
     atom   25 type  1   force =    -0.00000000   -0.00000000   -0.00000000
     atom   26 type  1   force =     0.00000000   -0.00000000   -0.00000000
     atom   27 type  1   force =    -0.00000000   -0.00000000   -0.00000000
     atom   28 type  1   force =     0.00000000    0.00000000    0.00000000
     atom   29 type  1   force =    -0.00000000   -0.00000000   -0.00000000
     atom   30 type  1   force =    -0.00000000   -0.00000000    0.00000000
     atom   31 type  1   force =    -0.00000000    0.00000000    0.00000000
     atom   32 type  1   force =    -0.00000000    0.00000000    0.00000000
     atom   33 type  1   force =     0.00000000    0.00000000    0.00000000
     atom   34 type  1   force =    -0.00000000   -0.00000000    0.00000000
     atom   35 type  1   force =     0.00000000    0.00000000    0.00000000
     atom   36 type  1   force =    -0.00000000   -0.00000000    0.00000000
     atom   37 type  2   force =    -0.00007327    0.00000891    0.00002571
     atom   38 type  3   force =    -0.00000332    0.00010100   -0.00003842
     atom   39 type  4   force =    -0.00001379   -0.00000800   -0.00002774

     Total force =     0.013415     Total SCF correction =     0.000137

     Writing all to output data dir ./pwscf.save/

     init_run     :     13.74s CPU     14.18s WALL (       1 calls)
     electrons    :    643.92s CPU    654.90s WALL (       1 calls)
     forces       :      3.27s CPU      3.32s WALL (       1 calls)

     Called by init_run:
     wfcinit      :     10.48s CPU     10.79s WALL (       1 calls)
     potinit      :      2.17s CPU      2.25s WALL (       1 calls)
     hinit0       :      0.84s CPU      0.85s WALL (       1 calls)

     Called by electrons:
     c_bands      :    548.12s CPU    557.46s WALL (      41 calls)
     sum_band     :     66.89s CPU     67.92s WALL (      41 calls)
     v_of_rho     :      7.19s CPU      7.33s WALL (      42 calls)
     newd         :      3.05s CPU      3.10s WALL (      42 calls)
     PAW_pot      :     10.97s CPU     11.09s WALL (      42 calls)
     mix_rho      :      9.14s CPU      9.31s WALL (      41 calls)
     vdW_kernel   :      1.09s CPU      1.10s WALL (       1 calls)

     Called by c_bands:
     init_us_2    :      5.23s CPU      5.34s WALL (    2184 calls)
     init_us_2:cp :      5.21s CPU      5.33s WALL (    2184 calls)
     cegterg      :    532.52s CPU    541.38s WALL (    1066 calls)

     Called by *egterg:
     cdiaghg      :    165.09s CPU    166.33s WALL (    3874 calls)
     h_psi        :    244.67s CPU    250.13s WALL (    3900 calls)
     s_psi        :     23.03s CPU     23.77s WALL (    3900 calls)
     g_psi        :      0.46s CPU      0.47s WALL (    2808 calls)

     Called by h_psi:
     h_psi:calbec :     37.44s CPU     38.55s WALL (    3900 calls)
     vloc_psi     :    181.94s CPU    185.59s WALL (    3900 calls)
     add_vuspsi   :     24.15s CPU     24.84s WALL (    3900 calls)

     General routines
     calbec       :     53.79s CPU     55.11s WALL (    5070 calls)
     fft          :      6.52s CPU      6.63s WALL (    3815 calls)
     ffts         :      5.94s CPU      6.05s WALL (   14774 calls)
     fftw         :    208.71s CPU    212.76s WALL ( 1109626 calls)
     interpolate  :      0.48s CPU      0.49s WALL (      84 calls)

     Parallel routines

     PWSCF        :  11m 6.49s CPU  11m22.12s WALL


   This run was terminated on:  15:26:12   2Dec2025            

=------------------------------------------------------------------------------=
   JOB DONE.
=------------------------------------------------------------------------------=
