
     Program PWSCF v.7.1 starts on  9Nov2025 at 23:59:44 
        Git branch: heads/qe-7.1
        Last git commit: 48ba0178f8fede6d020eb786884699a9f063f55d-dirty
        Last git commit date: Fri Jan 27 14:22:33 2023 +0000
        Last git commit subject: Merge branch 'fix_hubbard' into 'develop'

     This program is part of the open-source Quantum ESPRESSO suite
     for quantum simulation of materials; please cite
         "P. Giannozzi et al., J. Phys.:Condens. Matter 21 395502 (2009);
         "P. Giannozzi et al., J. Phys.:Condens. Matter 29 465901 (2017);
         "P. Giannozzi et al., J. Chem. Phys. 152 154105 (2020);
          URL http://www.quantum-espresso.org", 
     in publications or presentations arising from this work. More details at
     http://www.quantum-espresso.org/quote

     Parallel version (MPI), running on    48 processors

     MPI processes distributed on     1 nodes
     58573 MiB available memory on the printing compute node when the environment starts

     Reading input from espresso.pwi
Warning: card &CELL ignored
Warning: card / ignored
Warning: card &FCP ignored
Warning: card / ignored
Warning: card &RISM ignored
Warning: card / ignored

     Current dimensions of program PWSCF are:
     Max number of different atomic species (ntypx) = 10
     Max number of k-points (npk) =  40000
     Max angular momentum in pseudopotentials (lmaxx) =  4
     file Pt.pbe-n-kjpaw_psl.1.0.0.UPF: wavefunction(s)  6S 5D renormalized
     file O.pbe-nl-kjpaw_psl.1.0.0.UPF: wavefunction(s)  2S 2P renormalized
     file H.pbe-kjpaw_psl.1.0.0.UPF: wavefunction(s)  1S renormalized

     **************************************************************************
     Initializing libbeef V0.1.2 with the BEEF-vdW functional.
     Citation: Wellendorff et al., PRB 85, 235149 (2012).
     **************************************************************************


     IMPORTANT: XC functional enforced from input :
     Exchange-correlation= BEEF-VDW
                           (   1   4  43  14   2   0   0)
     Any further DFT definition will be discarded
     Please, verify this is what you really want


     R & G space division:  proc/nbgrp/npool/nimage =      48
     Subspace diagonalization in iterative solution of the eigenvalue problem:
     one sub-group per band group will be used
     custom distributed-memory algorithm (size of sub-group:  2*  2 procs)


     Parallelization info
     --------------------
     sticks:   dense  smooth     PW     G-vecs:    dense   smooth      PW
     Min         151      59     16                29407     7165    1028
     Max         152      60     17                29420     7176    1042
     Sum        7267    2839    769              1411785   344073   49691

     Using Slab Decomposition



     bravais-lattice index     =            0
     lattice parameter (alat)  =      16.0349  a.u.
     unit-cell volume          =   10068.6169 (a.u.)^3
     number of atoms/cell      =           39
     number of atomic types    =            3
     number of electrons       =       368.00
     number of Kohn-Sham states=          221
     kinetic-energy cutoff     =      40.0000  Ry
     charge density cutoff     =     410.0000  Ry
     scf convergence threshold =      1.0E-08
     mixing beta               =       0.7000
     number of iterations used =            8  local-TF  mixing
     Exchange-correlation= BEEF-VDW
                           (   1   4  43  14   2   0   0)

     celldm(1)=  16.034858  celldm(2)=   0.000000  celldm(3)=   0.000000
     celldm(4)=   0.000000  celldm(5)=   0.000000  celldm(6)=   0.000000

     crystal axes: (cart. coord. in units of alat)
               a(1) = (   1.000000   0.000000   0.000000 )  
               a(2) = (   0.500000   0.866025   0.000000 )  
               a(3) = (   0.000000   0.000000   2.819966 )  

     reciprocal axes: (cart. coord. in units 2 pi/alat)
               b(1) = (  1.000000 -0.577350  0.000000 )  
               b(2) = (  0.000000  1.154701  0.000000 )  
               b(3) = (  0.000000  0.000000  0.354614 )  


     PseudoPot. # 1 for Pt read from file:
     /users/kbadger1/espresso/pseudo/pslibrary.1.0.0/pbe/PSEUDOPOTENTIALS/Pt.pbe-n-kjpaw_psl.1.0.0.UPF
     MD5 check sum: 2e24a0b5bf98a4ed1a57fa81bca8c143
     Pseudo is Projector augmented-wave + core cor, Zval = 10.0
     Generated using 'atomic' code by A. Dal Corso  v.7.0
     Shape of augmentation charge: PSQ
     Using radial grid of 1277 points,  6 beta functions with: 
                l(1) =   0
                l(2) =   0
                l(3) =   1
                l(4) =   1
                l(5) =   2
                l(6) =   2
     Q(r) pseudized with 0 coefficients 


     PseudoPot. # 2 for O  read from file:
     /users/kbadger1/espresso/pseudo/pslibrary.1.0.0/pbe/PSEUDOPOTENTIALS/O.pbe-nl-kjpaw_psl.1.0.0.UPF
     MD5 check sum: f0439fab3598ca4e468f064226030408
     Pseudo is Projector augmented-wave + core cor, Zval =  6.0
     Generated using 'atomic' code by A. Dal Corso  v.7.0
     Shape of augmentation charge: PSQ
     Using radial grid of 1095 points,  4 beta functions with: 
                l(1) =   0
                l(2) =   0
                l(3) =   1
                l(4) =   1
     Q(r) pseudized with 0 coefficients 


     PseudoPot. # 3 for H  read from file:
     /users/kbadger1/espresso/pseudo/pslibrary.1.0.0/pbe/PSEUDOPOTENTIALS/H.pbe-kjpaw_psl.1.0.0.UPF
     MD5 check sum: fe4c6fa958fa6d3815bf5d2419cbf1df
     Pseudo is Projector augmented-wave, Zval =  1.0
     Generated using 'atomic' code by A. Dal Corso  v.7.0
     Shape of augmentation charge: PSQ
     Using radial grid of  929 points,  2 beta functions with: 
                l(1) =   0
                l(2) =   0
     Q(r) pseudized with 0 coefficients 


     atomic species   valence    mass     pseudopotential
        Pt            10.00   195.08400     Pt( 1.00)
        O              6.00    15.99900     O ( 1.00)
        H              1.00     1.00800     H ( 1.00)

     No symmetry found



   Cartesian axes

     site n.     atom                  positions (alat units)
         1           Pt  tau(   1) = (   0.0000000   0.0000000   1.0017346  )
         2           Pt  tau(   2) = (   0.3333333   0.0000000   1.0017346  )
         3           Pt  tau(   3) = (   0.6666667   0.0000000   1.0017346  )
         4           Pt  tau(   4) = (   0.1666667   0.2886751   1.0017346  )
         5           Pt  tau(   5) = (   0.5000000   0.2886751   1.0017346  )
         6           Pt  tau(   6) = (   0.8333333   0.2886751   1.0017346  )
         7           Pt  tau(   7) = (   0.3333333   0.5773503   1.0017346  )
         8           Pt  tau(   8) = (   0.6666667   0.5773503   1.0017346  )
         9           Pt  tau(   9) = (   1.0000000   0.5773503   1.0017346  )
        10           Pt  tau(  10) = (   0.1666667   0.0962250   1.2739001  )
        11           Pt  tau(  11) = (   0.5000000   0.0962250   1.2739001  )
        12           Pt  tau(  12) = (   0.8333333   0.0962250   1.2739001  )
        13           Pt  tau(  13) = (   0.3333333   0.3849002   1.2739001  )
        14           Pt  tau(  14) = (   0.6666667   0.3849002   1.2739001  )
        15           Pt  tau(  15) = (   1.0000000   0.3849002   1.2739001  )
        16           Pt  tau(  16) = (   0.5000000   0.6735753   1.2739001  )
        17           Pt  tau(  17) = (   0.8333333   0.6735753   1.2739001  )
        18           Pt  tau(  18) = (   1.1666667   0.6735753   1.2739001  )
        19           Pt  tau(  19) = (  -0.0075448   0.1985277   1.5424400  )
        20           Pt  tau(  20) = (   0.3258924   0.2003473   1.5467902  )
        21           Pt  tau(  21) = (   0.6585238   0.1986785   1.5462764  )
        22           Pt  tau(  22) = (   0.1581694   0.4885029   1.5450386  )
        23           Pt  tau(  23) = (   0.4901950   0.4840906   1.5517967  )
        24           Pt  tau(  24) = (   0.8252661   0.4885234   1.5433760  )
        25           Pt  tau(  25) = (   0.3241518   0.7765832   1.5459362  )
        26           Pt  tau(  26) = (   0.6572004   0.7754718   1.5417547  )
        27           Pt  tau(  27) = (   0.9927033   0.7775826   1.5456053  )
        28           Pt  tau(  28) = (  -0.0169836   0.0144363   1.8194936  )
        29           Pt  tau(  29) = (   0.3136901   0.0111685   1.8147608  )
        30           Pt  tau(  30) = (   0.6506317   0.0137275   1.8310128  )
        31           Pt  tau(  31) = (   0.1480973   0.3034168   1.8182283  )
        32           Pt  tau(  32) = (   0.4831475   0.3080787   1.8313249  )
        33           Pt  tau(  33) = (   0.8197546   0.3039431   1.8158316  )
        34           Pt  tau(  34) = (   0.3150136   0.5950748   1.8226237  )
        35           Pt  tau(  35) = (   0.6509800   0.5936189   1.8195566  )
        36           Pt  tau(  36) = (   0.9833348   0.5919775   1.8204838  )
        37           O   tau(  37) = (   0.5003946   0.2459226   2.0698066  )
        38           H   tau(  38) = (   0.5836098   0.3118248   2.1133729  )
        39           H   tau(  39) = (   0.5960324   0.0911945   1.9973573  )

     number of k points=    13  Marzari-Vanderbilt smearing, width (Ry)=  0.0010
                       cart. coord. in units 2pi/alat
        k(    1) = (   0.0000000   0.0000000   0.0000000), wk =   0.0800000
        k(    2) = (   0.0000000   0.2309401   0.0000000), wk =   0.1600000
        k(    3) = (   0.0000000   0.4618802   0.0000000), wk =   0.1600000
        k(    4) = (   0.2000000  -0.1154701   0.0000000), wk =   0.1600000
        k(    5) = (   0.2000000   0.1154701   0.0000000), wk =   0.1600000
        k(    6) = (   0.2000000   0.3464102   0.0000000), wk =   0.1600000
        k(    7) = (   0.2000000  -0.5773503   0.0000000), wk =   0.1600000
        k(    8) = (   0.2000000  -0.3464102   0.0000000), wk =   0.1600000
        k(    9) = (   0.4000000  -0.2309401   0.0000000), wk =   0.1600000
        k(   10) = (   0.4000000  -0.0000000   0.0000000), wk =   0.1600000
        k(   11) = (   0.4000000   0.2309401   0.0000000), wk =   0.1600000
        k(   12) = (   0.4000000  -0.6928203   0.0000000), wk =   0.1600000
        k(   13) = (   0.4000000  -0.4618802   0.0000000), wk =   0.1600000

     Dense  grid:  1411785 G-vectors     FFT dimensions: ( 108, 108, 300)

     Smooth grid:   344073 G-vectors     FFT dimensions: (  72,  72, 192)

     Estimated max dynamical RAM per process >     207.10 MB

     Estimated total dynamical RAM >       9.71 GB

     Initial potential from superposition of free atoms

     starting charge     367.9939, renormalised to     368.0000

     negative rho (up, down):  3.117E-03 0.000E+00


     %%%%%%%%%%%%%%%%%%%%%%%%%%%%%%%%%%%%%%%%%%%%%%%%%%%%%%%%%%%%%%%%%%%%%%%%
     %                                                                      %
     % You are using vdW-DF, which was implemented by the Thonhauser group. %
     % Please cite the following two papers that made this development      %
     % possible and the two reviews that describe the various versions:     %
     %                                                                      %
     %   T. Thonhauser et al., PRL 115, 136402 (2015).                      %
     %   T. Thonhauser et al., PRB 76, 125112 (2007).                       %
     %   K. Berland et al., Rep. Prog. Phys. 78, 066501 (2015).             %
     %   D.C. Langreth et al., J. Phys.: Condens. Matter 21, 084203 (2009). %
     %                                                                      %
     % If you are calculating stress with vdW-DF, please also cite:         %
     %                                                                      %
     %   R. Sabatini et al., J. Phys.: Condens. Matter 24, 424209 (2012).   %
     %                                                                      %
     %%%%%%%%%%%%%%%%%%%%%%%%%%%%%%%%%%%%%%%%%%%%%%%%%%%%%%%%%%%%%%%%%%%%%%%%

     %%%%%%%%%%%%%%%%%%%%%%%%%%%%%%%%%%%%%%%%%%%%%%%%%%%%%%%%%%%%%%%%%%%%%%%%
     %                                                                      %
     %  vdW-DF NEWS:                                                        %
     %                                                                      %
     %  * vdW-DF3 is now available. DOI: 10.1021/acs.jctc.0c00471           %
     %    use with input_dft = 'vdW-DF3-opt1' or 'vdW-DF3-opt2'             %
     %                                                                      %
     %  * Unscreened and range-separated hybrid vdW-DF-cx functionals       %
     %    DOI: 10.1063/1.4986522 and 10.1088/1361-648X/ac2ad2               %
     %    use with input_dft = 'vdW-DF-cx0'    and 'vdW-DF-ahcx'            %
     %  * Unscreened and range-separated hybrid vdW-DF2-b86r functionals    %
     %    DOI: 10.1063/1.4986522 and DOI: 10.1103/PhysRevX.12.041003        %
     %    use with input_dft = 'vdW-DF2-br0' and 'vdW-DF2-ahbr'             %
     %                                                                      %
     %%%%%%%%%%%%%%%%%%%%%%%%%%%%%%%%%%%%%%%%%%%%%%%%%%%%%%%%%%%%%%%%%%%%%%%%


     Starting wfcs are  330 randomized atomic wfcs
     Checking if some PAW data can be deallocated... 

     total cpu time spent up to now is       17.3 secs

     per-process dynamical memory:   212.0 Mb

     Self-consistent Calculation

     iteration #  1     ecut=    40.00 Ry     beta= 0.70
     Davidson diagonalization with overlap
     ethr =  1.00E-02,  avg # of iterations =  2.0

     Threshold (ethr) on eigenvalues was too large:
     Diagonalizing with lowered threshold

     Davidson diagonalization with overlap
     ethr =  6.26E-04,  avg # of iterations =  2.7

     negative rho (up, down):  1.033E-02 0.000E+00

     total cpu time spent up to now is       53.6 secs

     total energy              =  -27798.80429139 Ry
     estimated scf accuracy    <       2.46754408 Ry

     iteration #  2     ecut=    40.00 Ry     beta= 0.70
     Davidson diagonalization with overlap
     ethr =  6.71E-04,  avg # of iterations =  2.8

     negative rho (up, down):  8.440E-03 0.000E+00

     total cpu time spent up to now is       74.6 secs

     total energy              =  -27799.01564778 Ry
     estimated scf accuracy    <       0.76788890 Ry

     iteration #  3     ecut=    40.00 Ry     beta= 0.70
     Davidson diagonalization with overlap
     ethr =  2.09E-04,  avg # of iterations =  2.0

     negative rho (up, down):  5.496E-03 0.000E+00

     total cpu time spent up to now is       88.1 secs

     total energy              =  -27799.08334506 Ry
     estimated scf accuracy    <       0.23797635 Ry

     iteration #  4     ecut=    40.00 Ry     beta= 0.70
     Davidson diagonalization with overlap
     ethr =  6.47E-05,  avg # of iterations = 12.3

     negative rho (up, down):  2.809E-03 0.000E+00

     total cpu time spent up to now is      131.2 secs

     total energy              =  -27799.13060508 Ry
     estimated scf accuracy    <       0.07694879 Ry

     iteration #  5     ecut=    40.00 Ry     beta= 0.70
     Davidson diagonalization with overlap
     ethr =  2.09E-05,  avg # of iterations =  4.9

     negative rho (up, down):  1.842E-03 0.000E+00

     total cpu time spent up to now is      149.1 secs

     total energy              =  -27799.14074553 Ry
     estimated scf accuracy    <       0.02120895 Ry

     iteration #  6     ecut=    40.00 Ry     beta= 0.70
     Davidson diagonalization with overlap
     c_bands:  1 eigenvalues not converged
     c_bands:  1 eigenvalues not converged
     c_bands:  1 eigenvalues not converged
     ethr =  5.76E-06,  avg # of iterations = 12.8

     negative rho (up, down):  1.143E-03 0.000E+00

     total cpu time spent up to now is      192.1 secs

     total energy              =  -27799.14386751 Ry
     estimated scf accuracy    <       0.00871434 Ry

     iteration #  7     ecut=    40.00 Ry     beta= 0.70
     Davidson diagonalization with overlap
     c_bands:  1 eigenvalues not converged
     ethr =  2.37E-06,  avg # of iterations =  7.7

     negative rho (up, down):  7.708E-04 0.000E+00

     total cpu time spent up to now is      210.0 secs

     total energy              =  -27799.14440130 Ry
     estimated scf accuracy    <       0.00193463 Ry

     iteration #  8     ecut=    40.00 Ry     beta= 0.70
     Davidson diagonalization with overlap
     c_bands:  1 eigenvalues not converged
     c_bands:  1 eigenvalues not converged
     ethr =  5.26E-07,  avg # of iterations =  8.2

     negative rho (up, down):  7.344E-04 0.000E+00

     total cpu time spent up to now is      243.1 secs

     total energy              =  -27799.14493452 Ry
     estimated scf accuracy    <       0.00071189 Ry

     iteration #  9     ecut=    40.00 Ry     beta= 0.70
     Davidson diagonalization with overlap
     ethr =  1.93E-07,  avg # of iterations =  2.6

     negative rho (up, down):  7.467E-04 0.000E+00

     total cpu time spent up to now is      264.7 secs

     total energy              =  -27799.14501064 Ry
     estimated scf accuracy    <       0.00018036 Ry

     iteration # 10     ecut=    40.00 Ry     beta= 0.70
     Davidson diagonalization with overlap
     c_bands:  1 eigenvalues not converged
     ethr =  4.90E-08,  avg # of iterations =  5.6

     negative rho (up, down):  8.037E-04 0.000E+00

     total cpu time spent up to now is      295.5 secs

     total energy              =  -27799.14507963 Ry
     estimated scf accuracy    <       0.00012966 Ry

     iteration # 11     ecut=    40.00 Ry     beta= 0.70
     Davidson diagonalization with overlap
     ethr =  3.52E-08,  avg # of iterations =  1.6

     negative rho (up, down):  9.059E-04 0.000E+00

     total cpu time spent up to now is      316.4 secs

     total energy              =  -27799.14509564 Ry
     estimated scf accuracy    <       0.00007010 Ry

     iteration # 12     ecut=    40.00 Ry     beta= 0.70
     Davidson diagonalization with overlap
     ethr =  1.90E-08,  avg # of iterations =  1.2

     negative rho (up, down):  1.025E-03 0.000E+00

     total cpu time spent up to now is      328.9 secs

     total energy              =  -27799.14510403 Ry
     estimated scf accuracy    <       0.00005628 Ry

     iteration # 13     ecut=    40.00 Ry     beta= 0.70
     Davidson diagonalization with overlap
     ethr =  1.53E-08,  avg # of iterations =  1.2

     negative rho (up, down):  1.361E-03 0.000E+00

     total cpu time spent up to now is      349.7 secs

     total energy              =  -27799.14511452 Ry
     estimated scf accuracy    <       0.00002877 Ry

     iteration # 14     ecut=    40.00 Ry     beta= 0.70
     Davidson diagonalization with overlap
     c_bands:  1 eigenvalues not converged
     ethr =  7.82E-09,  avg # of iterations =  2.8

     negative rho (up, down):  1.738E-03 0.000E+00

     total cpu time spent up to now is      370.4 secs

     total energy              =  -27799.14511742 Ry
     estimated scf accuracy    <       0.00001674 Ry

     iteration # 15     ecut=    40.00 Ry     beta= 0.70
     Davidson diagonalization with overlap
     ethr =  4.55E-09,  avg # of iterations =  1.2

     negative rho (up, down):  2.016E-03 0.000E+00

     total cpu time spent up to now is      382.3 secs

     total energy              =  -27799.14511775 Ry
     estimated scf accuracy    <       0.00001156 Ry

     iteration # 16     ecut=    40.00 Ry     beta= 0.70
     Davidson diagonalization with overlap
     ethr =  3.14E-09,  avg # of iterations =  1.3

     negative rho (up, down):  2.619E-03 0.000E+00

     total cpu time spent up to now is      402.5 secs

     total energy              =  -27799.14511405 Ry
     estimated scf accuracy    <       0.00001014 Ry

     iteration # 17     ecut=    40.00 Ry     beta= 0.70
     Davidson diagonalization with overlap
     ethr =  2.76E-09,  avg # of iterations =  1.0

     negative rho (up, down):  2.719E-03 0.000E+00

     total cpu time spent up to now is      416.1 secs

     total energy              =  -27799.14511409 Ry
     estimated scf accuracy    <       0.00000355 Ry

     iteration # 18     ecut=    40.00 Ry     beta= 0.70
     Davidson diagonalization with overlap
     ethr =  9.65E-10,  avg # of iterations =  1.7

     negative rho (up, down):  2.800E-03 0.000E+00

     total cpu time spent up to now is      436.4 secs

     total energy              =  -27799.14511392 Ry
     estimated scf accuracy    <       0.00000112 Ry

     iteration # 19     ecut=    40.00 Ry     beta= 0.70
     Davidson diagonalization with overlap
     ethr =  3.04E-10,  avg # of iterations =  3.9

     negative rho (up, down):  2.932E-03 0.000E+00

     total cpu time spent up to now is      452.3 secs

     total energy              =  -27799.14511331 Ry
     estimated scf accuracy    <       0.00000056 Ry

     iteration # 20     ecut=    40.00 Ry     beta= 0.70
     Davidson diagonalization with overlap
     ethr =  1.51E-10,  avg # of iterations =  2.3

     negative rho (up, down):  3.011E-03 0.000E+00

     total cpu time spent up to now is      474.4 secs

     total energy              =  -27799.14511297 Ry
     estimated scf accuracy    <       0.00000063 Ry

     iteration # 21     ecut=    40.00 Ry     beta= 0.70
     Davidson diagonalization with overlap
     ethr =  1.51E-10,  avg # of iterations =  1.5

     negative rho (up, down):  3.013E-03 0.000E+00

     total cpu time spent up to now is      495.0 secs

     total energy              =  -27799.14511300 Ry
     estimated scf accuracy    <       0.00000003 Ry

     iteration # 22     ecut=    40.00 Ry     beta= 0.70
     Davidson diagonalization with overlap
     ethr =  9.02E-12,  avg # of iterations =  5.5

     negative rho (up, down):  3.025E-03 0.000E+00

     total cpu time spent up to now is      531.9 secs

     total energy              =  -27799.14511296 Ry
     estimated scf accuracy    <       0.00000001 Ry

     iteration # 23     ecut=    40.00 Ry     beta= 0.70
     Davidson diagonalization with overlap
     ethr =  2.99E-12,  avg # of iterations =  2.2

     negative rho (up, down):  3.025E-03 0.000E+00

     total cpu time spent up to now is      553.4 secs

     End of self-consistent calculation

          k = 0.0000 0.0000 0.0000 ( 42913 PWs)   bands (ev):

   -16.6726  -6.1861  -4.9953  -4.3701  -3.8476  -3.8032  -3.7876  -3.7769
    -3.7473  -3.7432  -3.7205  -3.6776  -3.3257  -3.2263  -3.2240  -3.2169
    -3.2056  -3.1876  -2.9744  -2.7666  -2.7607  -2.7560  -2.7401  -2.7390
    -2.6577  -2.5537  -2.5339  -2.5251  -2.5204  -2.5031  -2.4232  -2.3404
    -2.3379  -2.3278  -2.3212  -2.3108  -2.2962  -2.2690  -2.2596  -2.2537
    -2.2263  -2.1734  -2.1084  -1.7875  -1.7001  -1.6926  -1.6807  -1.6565
    -1.6425  -1.6253  -1.6094  -1.5942  -1.5505  -1.4698  -1.4356  -1.4276
    -1.3587  -1.1591  -0.9609  -0.9466  -0.9092  -0.8954  -0.8839  -0.8500
    -0.8475  -0.7317  -0.7252  -0.6952  -0.6917  -0.6700  -0.6621  -0.6545
    -0.6408  -0.6246  -0.6120  -0.5988  -0.5864  -0.5637  -0.5564  -0.5448
    -0.5253  -0.5190  -0.5057  -0.4799  -0.4098  -0.2999  -0.2909  -0.2766
    -0.2378  -0.2306  -0.1840  -0.1611  -0.1583  -0.1495  -0.1478  -0.1378
    -0.1262  -0.1070  -0.0504  -0.0496  -0.0238  -0.0056  -0.0010   0.0462
     0.0855   0.1212   0.1466   0.1727   0.2139   0.2519   0.4168   0.5714
     0.6262   0.6372   0.6437   0.6629   0.6672   0.6868   0.6992   0.7176
     0.7274   0.7710   0.7829   0.7957   0.8363   0.9199   0.9342   0.9386
     0.9708   1.0207   1.0301   1.0492   1.0768   1.1335   1.1477   1.2069
     1.2568   1.3024   1.3831   1.3992   1.4075   1.4190   1.4286   1.4520
     1.4815   1.5844   1.6113   1.6274   1.6658   1.6682   1.6904   1.7224
     1.7732   1.7920   1.8186   1.8267   1.8430   1.8527   1.8561   1.8598
     1.8785   1.8820   1.9230   1.9310   1.9463   1.9768   1.9893   1.9951
     2.0126   2.0232   2.0608   2.0635   2.0785   2.0975   2.1001   2.1067
     2.1332   2.1337   2.1459   2.1907   2.2080   2.2129   2.2263   2.2317
     2.2384   2.2694   2.2938   2.3341   2.3408   2.3671   2.3773   2.4663
     2.5576   2.6110   2.6133   2.6359   2.6431   2.6646   2.6690   2.7564
     3.2021   3.4856   3.5132   3.5419   3.5668   3.6034   4.1213   5.3286
     5.7837   5.8315   5.8612   5.8907   6.2372   7.1602   7.3969   7.4217
     7.4618   7.4788   7.5236   7.5571   7.6266

          k = 0.0000 0.2309 0.0000 ( 42996 PWs)   bands (ev):

   -16.6726  -6.0391  -4.8660  -4.3613  -4.2481  -3.9012  -3.8466  -3.6953
    -3.6407  -3.5606  -3.5435  -3.4896  -3.3805  -3.3065  -3.2110  -3.1486
    -3.1374  -3.1170  -2.9319  -2.8322  -2.7344  -2.7132  -2.6954  -2.6790
    -2.6405  -2.6116  -2.5819  -2.5434  -2.5232  -2.4935  -2.4560  -2.4241
    -2.3964  -2.3334  -2.3274  -2.3191  -2.3048  -2.2128  -2.1254  -2.0967
    -2.0842  -2.0620  -2.0254  -1.8680  -1.8095  -1.7977  -1.7583  -1.7235
    -1.6985  -1.6553  -1.5737  -1.5214  -1.4873  -1.4451  -1.4029  -1.3894
    -1.3574  -1.2503  -1.1274  -1.0639  -1.0536  -1.0390  -0.9910  -0.9734
    -0.9305  -0.8678  -0.8509  -0.8371  -0.8172  -0.7840  -0.7660  -0.7514
    -0.7248  -0.7088  -0.6497  -0.5895  -0.5842  -0.5329  -0.5202  -0.4950
    -0.4824  -0.4771  -0.4377  -0.4276  -0.3741  -0.3162  -0.2931  -0.2843
    -0.2646  -0.2544  -0.2256  -0.2129  -0.2044  -0.1826  -0.1720  -0.1351
    -0.1024  -0.0654  -0.0549  -0.0452  -0.0309  -0.0120   0.0120   0.0755
     0.0978   0.1350   0.1538   0.1687   0.1784   0.2078   0.2233   0.2378
     0.2560   0.2693   0.2980   0.4385   0.5233   0.5668   0.6048   0.6454
     0.6730   0.6842   0.7193   0.7274   0.7634   0.8685   0.8837   0.9123
     0.9731   0.9985   1.0083   1.0557   1.1112   1.1361   1.1542   1.1652
     1.2076   1.2356   1.2537   1.2673   1.2849   1.3110   1.3814   1.4702
     1.4816   1.5081   1.5251   1.5441   1.5776   1.6295   1.6434   1.6626
     1.6731   1.6870   1.7229   1.7510   1.7645   1.7898   1.8174   1.8931
     1.9026   1.9529   1.9855   2.0079   2.0342   2.0595   2.0633   2.0746
     2.1060   2.1559   2.1873   2.1916   2.2388   2.2551   2.2679   2.2862
     2.3058   2.3077   2.3206   2.3329   2.3833   2.4010   2.4678   2.5126
     2.5443   2.5524   2.5625   2.5790   2.5870   2.5912   2.6422   2.6438
     2.6721   2.7639   2.7771   2.7902   2.9081   2.9335   2.9500   2.9768
     3.2005   3.3146   3.5311   4.0142   4.1669   4.1979   4.4190   5.1292
     5.3942   5.6563   6.1696   6.3018   6.3217   6.4675   6.7203   7.1257
     7.2719   7.3677   7.5480   7.6399   7.6773

          k = 0.0000 0.4619 0.0000 ( 43046 PWs)   bands (ev):

   -16.6726  -5.6160  -4.9812  -4.5704  -4.2365  -3.9215  -3.8912  -3.7819
    -3.5281  -3.3861  -3.3348  -3.2647  -3.2056  -3.1659  -3.1263  -3.0057
    -2.9728  -2.9634  -2.9390  -2.8807  -2.8195  -2.7931  -2.7829  -2.7479
    -2.7270  -2.6918  -2.6564  -2.6239  -2.6143  -2.5421  -2.3815  -2.3654
    -2.3446  -2.3382  -2.3323  -2.2629  -2.1242  -2.1168  -2.0935  -2.0790
    -2.0657  -2.0081  -1.8881  -1.8278  -1.7973  -1.7724  -1.7552  -1.7252
    -1.6754  -1.6662  -1.6265  -1.5981  -1.5767  -1.5274  -1.4437  -1.4149
    -1.4043  -1.3845  -1.3223  -1.2630  -1.2467  -1.2235  -1.1730  -1.0900
    -1.0382  -1.0176  -0.9674  -0.9482  -0.9248  -0.8949  -0.8684  -0.8077
    -0.7561  -0.7148  -0.6736  -0.6580  -0.6239  -0.6095  -0.5900  -0.5631
    -0.5498  -0.5337  -0.5209  -0.4955  -0.4779  -0.4632  -0.4343  -0.4115
    -0.3981  -0.3482  -0.3271  -0.3168  -0.2988  -0.2791  -0.2561  -0.2449
    -0.1845  -0.1201  -0.1025  -0.0731  -0.0369  -0.0209   0.0090   0.0357
     0.0759   0.1113   0.1345   0.1754   0.2093   0.2393   0.2446   0.2923
     0.3623   0.3926   0.4213   0.4846   0.5353   0.5542   0.5786   0.5932
     0.6050   0.6247   0.6396   0.6716   0.6910   0.7146   0.7400   0.7622
     0.7919   0.8045   0.8361   0.8559   0.9437   0.9785   0.9908   1.0192
     1.0391   1.1234   1.1781   1.2086   1.2620   1.2814   1.3498   1.3889
     1.4298   1.4622   1.4956   1.5079   1.5293   1.5506   1.5806   1.6056
     1.6157   1.6557   1.6953   1.7085   1.7871   1.8026   1.8163   1.8268
     1.8440   1.9195   2.0119   2.0309   2.0468   2.0815   2.1048   2.1168
     2.1886   2.2041   2.2192   2.2687   2.3159   2.3309   2.3622   2.3848
     2.4254   2.4295   2.4683   2.5135   2.5230   2.5440   2.5575   2.5680
     2.5927   2.5969   2.7308   2.7615   2.7795   2.7892   2.8349   2.9536
     2.9918   3.0297   3.2777   3.4495   3.5714   3.7897   3.8678   3.8729
     4.2276   4.2499   4.4335   4.5540   4.9425   5.0790   5.0899   5.1192
     5.3051   5.3659   5.4011   5.5887   5.7185   5.7814   6.2602   6.3715
     6.7620   6.9511   7.1695   7.4417   7.6267

          k = 0.2000-0.1155 0.0000 ( 42996 PWs)   bands (ev):

   -16.6726  -6.0400  -4.8659  -4.3738  -4.2640  -3.8623  -3.8459  -3.7023
    -3.6462  -3.5940  -3.5130  -3.4834  -3.3752  -3.3002  -3.2083  -3.1555
    -3.1509  -3.1358  -2.9524  -2.7947  -2.7370  -2.7127  -2.7041  -2.6710
    -2.6245  -2.6002  -2.5929  -2.5408  -2.5255  -2.5130  -2.4909  -2.4085
    -2.3883  -2.3691  -2.3374  -2.3107  -2.3025  -2.2240  -2.1146  -2.0926
    -2.0760  -2.0496  -2.0083  -1.8296  -1.8051  -1.7832  -1.7458  -1.7308
    -1.6938  -1.6784  -1.5661  -1.5033  -1.4785  -1.4467  -1.4188  -1.3895
    -1.3703  -1.2303  -1.1056  -1.0551  -1.0341  -0.9812  -0.9619  -0.9449
    -0.9281  -0.9149  -0.8846  -0.8468  -0.8128  -0.7984  -0.7528  -0.7271
    -0.7054  -0.7018  -0.6660  -0.6461  -0.6117  -0.5835  -0.4957  -0.4848
    -0.4648  -0.4315  -0.4252  -0.4152  -0.3955  -0.3361  -0.3149  -0.2936
    -0.2495  -0.2430  -0.2148  -0.2093  -0.1970  -0.1783  -0.1614  -0.1427
    -0.1067  -0.0895  -0.0774  -0.0591  -0.0379  -0.0235   0.0059   0.0647
     0.1060   0.1248   0.1368   0.1573   0.1723   0.1971   0.2282   0.2451
     0.2602   0.2712   0.3306   0.4483   0.5350   0.5971   0.6084   0.6235
     0.6505   0.6723   0.7014   0.7175   0.7806   0.8567   0.8743   0.9004
     0.9486   0.9837   0.9935   1.0299   1.0787   1.1246   1.1446   1.1669
     1.1770   1.2173   1.2376   1.2688   1.2967   1.3171   1.3778   1.4495
     1.4782   1.5075   1.5261   1.5547   1.5903   1.6093   1.6462   1.6678
     1.6830   1.7181   1.7382   1.7613   1.7722   1.7939   1.8547   1.8918
     1.9130   1.9630   1.9822   2.0109   2.0189   2.0400   2.0528   2.0704
     2.0897   2.1568   2.1767   2.2026   2.2116   2.2509   2.2643   2.2917
     2.3107   2.3155   2.3295   2.3475   2.3644   2.3786   2.4515   2.4702
     2.5029   2.5652   2.5835   2.6110   2.6287   2.6364   2.6472   2.6901
     2.7029   2.7624   2.7738   2.7883   2.8793   2.9483   2.9600   3.0032
     3.1684   3.3911   3.6031   3.9837   4.1239   4.2027   4.3959   5.0998
     5.4023   5.6923   6.1923   6.2986   6.3209   6.4983   6.6740   7.1224
     7.2498   7.3162   7.5468   7.6614   7.6803

          k = 0.2000 0.1155 0.0000 ( 42996 PWs)   bands (ev):

   -16.6726  -6.0395  -4.8699  -4.3935  -4.1986  -3.9067  -3.8561  -3.6975
    -3.6421  -3.5600  -3.5307  -3.5016  -3.3606  -3.3050  -3.2364  -3.1556
    -3.1415  -3.1180  -2.9342  -2.8319  -2.7227  -2.7152  -2.6926  -2.6626
    -2.6361  -2.6102  -2.5805  -2.5537  -2.5405  -2.4837  -2.4534  -2.4221
    -2.3925  -2.3396  -2.3318  -2.3131  -2.2999  -2.2125  -2.1277  -2.1019
    -2.0828  -2.0524  -2.0282  -1.8796  -1.8186  -1.7945  -1.7518  -1.7180
    -1.6957  -1.6555  -1.5560  -1.5121  -1.4881  -1.4576  -1.4007  -1.3828
    -1.3568  -1.2484  -1.1358  -1.0606  -1.0420  -1.0259  -0.9904  -0.9588
    -0.9299  -0.8700  -0.8596  -0.8453  -0.8228  -0.8017  -0.7668  -0.7592
    -0.7422  -0.7092  -0.6374  -0.5912  -0.5835  -0.5617  -0.5048  -0.4918
    -0.4743  -0.4623  -0.4257  -0.4096  -0.3316  -0.3208  -0.3081  -0.2833
    -0.2707  -0.2544  -0.2436  -0.2223  -0.2013  -0.1869  -0.1658  -0.1349
    -0.1126  -0.0896  -0.0554  -0.0412  -0.0376  -0.0104   0.0237   0.0592
     0.0985   0.1236   0.1482   0.1732   0.1792   0.1974   0.2267   0.2413
     0.2496   0.2641   0.3187   0.4231   0.5346   0.5820   0.6063   0.6493
     0.6785   0.7085   0.7168   0.7343   0.7413   0.8407   0.8551   0.9239
     0.9680   0.9992   1.0255   1.0684   1.1011   1.1384   1.1436   1.1614
     1.2236   1.2335   1.2552   1.2647   1.2925   1.3132   1.3575   1.4387
     1.4745   1.5020   1.5216   1.5558   1.5666   1.6055   1.6589   1.6679
     1.6780   1.6984   1.7381   1.7467   1.7780   1.7907   1.8306   1.8843
     1.9016   1.9429   1.9650   1.9985   2.0274   2.0541   2.0613   2.0851
     2.1202   2.1646   2.1877   2.1922   2.2317   2.2569   2.2659   2.2742
     2.3040   2.3146   2.3260   2.3286   2.3773   2.4035   2.4802   2.5191
     2.5333   2.5449   2.5677   2.5742   2.5906   2.6121   2.6287   2.6531
     2.6836   2.7578   2.7771   2.7896   2.9342   2.9452   2.9717   3.0033
     3.0766   3.3566   3.6254   3.9474   4.1480   4.2503   4.4270   4.9915
     5.4710   5.7330   6.1520   6.2966   6.3193   6.4787   6.6866   7.0906
     7.2676   7.3375   7.5118   7.6582   7.6886

          k = 0.2000 0.3464 0.0000 ( 43046 PWs)   bands (ev):

   -16.6726  -5.7536  -4.6858  -4.5208  -4.5090  -4.2312  -3.5456  -3.4621
    -3.4322  -3.4209  -3.4085  -3.3850  -3.3814  -3.3453  -3.2613  -3.2524
    -3.0235  -2.8695  -2.8583  -2.8331  -2.8072  -2.7676  -2.7144  -2.6512
    -2.6348  -2.6286  -2.6100  -2.5736  -2.5264  -2.4851  -2.4803  -2.4702
    -2.4234  -2.3776  -2.3537  -2.3307  -2.2980  -2.1960  -2.1343  -1.9821
    -1.9544  -1.9079  -1.8725  -1.8562  -1.8357  -1.8220  -1.8014  -1.7503
    -1.7334  -1.6143  -1.5991  -1.5556  -1.5105  -1.4466  -1.4394  -1.4055
    -1.3925  -1.3499  -1.3107  -1.2073  -1.1708  -1.1434  -1.1064  -1.0835
    -1.0700  -1.0203  -0.9764  -0.9313  -0.9231  -0.9138  -0.7938  -0.7812
    -0.7640  -0.7267  -0.7164  -0.6953  -0.6601  -0.6324  -0.5796  -0.5516
    -0.5162  -0.4895  -0.4796  -0.4611  -0.4416  -0.3919  -0.3500  -0.3313
    -0.3238  -0.3021  -0.2787  -0.2615  -0.2281  -0.1875  -0.1787  -0.1619
    -0.1151  -0.0993  -0.0790  -0.0644  -0.0549  -0.0292  -0.0058   0.0084
     0.0138   0.0256   0.0634   0.0865   0.0944   0.1383   0.1628   0.2145
     0.2456   0.3216   0.3474   0.3874   0.4220   0.5187   0.5366   0.5644
     0.6537   0.6691   0.6949   0.7110   0.7229   0.7527   0.7825   0.8060
     0.8278   0.8412   0.8669   0.9402   1.0145   1.0785   1.0931   1.1054
     1.1200   1.1539   1.2245   1.2350   1.2970   1.3173   1.3443   1.3798
     1.3964   1.4252   1.4844   1.5018   1.5529   1.5609   1.5957   1.6191
     1.6334   1.6403   1.6557   1.6688   1.6740   1.6871   1.7580   1.7945
     1.8875   1.9371   1.9915   2.0320   2.0880   2.1421   2.1948   2.2109
     2.2254   2.2850   2.2999   2.3373   2.3532   2.3722   2.3907   2.4071
     2.4112   2.4321   2.4448   2.4691   2.4872   2.5473   2.5834   2.6048
     2.6125   2.6265   2.6813   2.7226   2.7533   2.7995   2.8239   2.8802
     2.9411   2.9520   3.0638   3.0977   3.1884   3.5447   3.6360   3.6794
     4.0629   4.1253   4.1458   4.2853   4.6228   4.8722   5.0101   5.0917
     5.1219   5.2363   5.7607   6.0995   6.2850   6.3722   6.5343   6.6583
     7.0030   7.0745   7.0956   7.1326   7.2250

          k = 0.2000-0.5774 0.0000 ( 43014 PWs)   bands (ev):

   -16.6726  -5.2340  -5.2047  -4.6509  -4.4387  -4.0230  -3.9028  -3.4963
    -3.4285  -3.3052  -3.2740  -3.1961  -3.1583  -3.1075  -3.0402  -3.0159
    -2.9596  -2.9341  -2.9179  -2.8987  -2.8800  -2.8625  -2.8105  -2.7240
    -2.7111  -2.6997  -2.6656  -2.6386  -2.5807  -2.5342  -2.4726  -2.4238
    -2.3668  -2.3404  -2.3067  -2.2933  -2.2525  -2.2223  -2.1837  -2.0967
    -2.0719  -1.9202  -1.8780  -1.8691  -1.7931  -1.7422  -1.7200  -1.6637
    -1.6161  -1.5548  -1.5135  -1.4956  -1.4870  -1.4600  -1.4455  -1.3972
    -1.3553  -1.3044  -1.2910  -1.2755  -1.2676  -1.2526  -1.2145  -1.1702
    -1.1578  -1.0991  -1.0760  -1.0135  -0.9890  -0.9338  -0.8959  -0.8747
    -0.7984  -0.7763  -0.7637  -0.7411  -0.6990  -0.6863  -0.6778  -0.6445
    -0.6262  -0.5833  -0.5760  -0.5483  -0.5123  -0.4393  -0.4037  -0.3855
    -0.3604  -0.3254  -0.2734  -0.2470  -0.2216  -0.1999  -0.1754  -0.1464
    -0.1349  -0.1158  -0.1048  -0.0812  -0.0706  -0.0428  -0.0206   0.0062
     0.0211   0.0307   0.0511   0.0586   0.0825   0.0875   0.1232   0.1640
     0.2060   0.3549   0.3883   0.4118   0.4340   0.4771   0.5282   0.5470
     0.5649   0.5986   0.6081   0.6461   0.6721   0.7129   0.7364   0.7783
     0.8164   0.8419   0.8720   0.9092   0.9382   0.9952   1.0263   1.1093
     1.1501   1.1706   1.1984   1.2188   1.2633   1.2960   1.3227   1.3311
     1.3670   1.3864   1.4064   1.4332   1.4637   1.5207   1.5341   1.5676
     1.5868   1.6058   1.6415   1.6588   1.6836   1.7493   1.8213   1.8946
     1.9243   1.9879   2.0021   2.0286   2.0982   2.1286   2.1664   2.1990
     2.2491   2.3067   2.3321   2.3518   2.3795   2.3837   2.4016   2.4318
     2.4526   2.5036   2.5245   2.5503   2.5749   2.5946   2.6074   2.6208
     2.6721   2.7533   2.7636   2.7756   2.8074   2.8407   2.8650   2.8904
     3.0018   3.1293   3.2001   3.9041   3.9735   3.9849   4.2069   4.3147
     4.3427   4.3763   4.4725   4.7461   4.9736   5.0009   5.2950   5.4418
     5.5476   5.5629   5.5938   5.6543   5.7964   5.8841   6.0170   6.2419
     6.3996   6.4793   6.8019   7.0490   7.1337

          k = 0.2000-0.3464 0.0000 ( 43046 PWs)   bands (ev):

   -16.6726  -5.7548  -4.6668  -4.5349  -4.5135  -4.2500  -3.5470  -3.4645
    -3.4573  -3.4237  -3.4011  -3.3895  -3.3601  -3.3129  -3.2607  -3.2495
    -3.0186  -2.8838  -2.8721  -2.8473  -2.8015  -2.7763  -2.7245  -2.6585
    -2.6461  -2.6209  -2.5966  -2.5732  -2.4928  -2.4800  -2.4707  -2.4564
    -2.4224  -2.3846  -2.3698  -2.3361  -2.3046  -2.2451  -2.1965  -1.9890
    -1.9057  -1.8898  -1.8680  -1.8418  -1.8274  -1.8022  -1.7746  -1.7541
    -1.6665  -1.6496  -1.6017  -1.5635  -1.4785  -1.4598  -1.4358  -1.4096
    -1.3651  -1.3449  -1.3057  -1.2497  -1.1452  -1.1275  -1.0975  -1.0354
    -1.0151  -0.9801  -0.9724  -0.9400  -0.9218  -0.9036  -0.8569  -0.7649
    -0.7572  -0.7405  -0.6920  -0.6828  -0.6694  -0.6457  -0.6033  -0.5415
    -0.5325  -0.4770  -0.4612  -0.4443  -0.4203  -0.4100  -0.3735  -0.3569
    -0.3449  -0.3289  -0.3155  -0.2796  -0.2374  -0.1939  -0.1743  -0.1592
    -0.1368  -0.1046  -0.0886  -0.0837  -0.0440  -0.0297  -0.0098   0.0009
     0.0200   0.0500   0.0669   0.0716   0.1118   0.1643   0.1720   0.2219
     0.2348   0.2894   0.3253   0.3609   0.4213   0.4861   0.5363   0.5642
     0.6345   0.6456   0.6885   0.7086   0.7386   0.7600   0.7827   0.7978
     0.8137   0.8435   0.8886   0.9047   0.9999   1.0559   1.0786   1.1014
     1.1416   1.1501   1.1802   1.2279   1.2543   1.2952   1.3350   1.3826
     1.4158   1.4400   1.4871   1.5391   1.5479   1.5740   1.6014   1.6271
     1.6433   1.6534   1.6654   1.6821   1.7020   1.7203   1.7656   1.8301
     1.8915   1.9370   1.9856   2.0112   2.0617   2.1550   2.1965   2.2091
     2.2379   2.2743   2.3205   2.3302   2.3457   2.3609   2.3792   2.3967
     2.4011   2.4206   2.4278   2.4793   2.4989   2.5320   2.5437   2.5968
     2.6147   2.6376   2.6644   2.7340   2.8155   2.8442   2.8876   2.9200
     2.9374   2.9517   3.0477   3.0855   3.1188   3.5764   3.6166   3.6908
     4.0749   4.1382   4.1964   4.2246   4.6463   4.8589   4.9801   5.0991
     5.1423   5.3011   5.7506   6.0659   6.2898   6.3132   6.5255   6.8174
     6.9733   7.0391   7.1013   7.1220   7.2683

          k = 0.4000-0.2309 0.0000 ( 43046 PWs)   bands (ev):

   -16.6726  -5.6204  -4.9946  -4.5658  -4.2375  -3.8996  -3.8870  -3.7928
    -3.5704  -3.3952  -3.3440  -3.2717  -3.2009  -3.1503  -3.1089  -3.0352
    -2.9834  -2.9735  -2.9567  -2.9007  -2.8203  -2.7788  -2.7640  -2.7495
    -2.7374  -2.7276  -2.6471  -2.6201  -2.5904  -2.5622  -2.3856  -2.3459
    -2.3304  -2.3235  -2.3008  -2.2677  -2.1234  -2.0940  -2.0855  -2.0649
    -2.0567  -2.0048  -1.8602  -1.8117  -1.7793  -1.7576  -1.7423  -1.7048
    -1.6962  -1.6487  -1.6143  -1.6008  -1.5784  -1.5510  -1.4544  -1.3791
    -1.3704  -1.3593  -1.2928  -1.2285  -1.1880  -1.1556  -1.1304  -1.1071
    -1.0342  -1.0081  -0.9904  -0.9666  -0.9348  -0.8911  -0.8570  -0.8136
    -0.8032  -0.7696  -0.7498  -0.6988  -0.6359  -0.6097  -0.5706  -0.5600
    -0.5423  -0.5262  -0.4806  -0.4707  -0.4645  -0.4535  -0.4430  -0.4302
    -0.4037  -0.3774  -0.3339  -0.2964  -0.2761  -0.2694  -0.2438  -0.2225
    -0.1602  -0.1447  -0.1238  -0.1141  -0.0845  -0.0389  -0.0245  -0.0084
     0.0237   0.0496   0.1274   0.1958   0.2069   0.2308   0.2513   0.2797
     0.3403   0.4005   0.4253   0.4893   0.5196   0.5387   0.5604   0.5759
     0.6241   0.6549   0.6820   0.6941   0.7013   0.7167   0.7364   0.7544
     0.7653   0.7919   0.8088   0.8538   0.9164   0.9375   0.9636   0.9971
     1.0326   1.0737   1.1418   1.1822   1.2385   1.2917   1.3428   1.4217
     1.4363   1.4479   1.4699   1.4881   1.5550   1.5669   1.5925   1.6195
     1.6570   1.6665   1.6964   1.7445   1.7893   1.8092   1.8242   1.8308
     1.8672   1.9042   1.9840   2.0291   2.0494   2.0801   2.0921   2.0953
     2.1509   2.2008   2.2172   2.2412   2.2966   2.3163   2.3429   2.3614
     2.3756   2.4210   2.4775   2.5316   2.5483   2.5642   2.5727   2.6024
     2.6357   2.6415   2.7371   2.7699   2.8267   2.8516   2.8574   2.9480
     3.0010   3.0270   3.3612   3.4673   3.5387   3.7707   3.8678   3.8770
     4.2119   4.2469   4.4082   4.6362   4.9474   5.0858   5.0988   5.1810
     5.2423   5.3480   5.4438   5.6215   5.7228   5.7657   6.2323   6.4671
     6.7245   6.9099   7.1729   7.4427   7.6945

          k = 0.4000-0.0000 0.0000 ( 43046 PWs)   bands (ev):

   -16.6726  -5.7563  -4.6848  -4.5354  -4.5083  -4.2325  -3.5517  -3.4664
    -3.4626  -3.4274  -3.3909  -3.3782  -3.3500  -3.3352  -3.2680  -3.2458
    -3.0324  -2.8961  -2.8766  -2.8482  -2.8050  -2.7881  -2.7231  -2.6591
    -2.6383  -2.6218  -2.5861  -2.5484  -2.4946  -2.4780  -2.4572  -2.4492
    -2.4200  -2.3904  -2.3605  -2.3370  -2.2985  -2.2426  -2.1997  -1.9870
    -1.9318  -1.8854  -1.8780  -1.8401  -1.8280  -1.7942  -1.7677  -1.7382
    -1.6792  -1.6073  -1.5852  -1.5745  -1.4906  -1.4568  -1.4430  -1.4077
    -1.3770  -1.3493  -1.2977  -1.2468  -1.1426  -1.1185  -1.0944  -1.0259
    -1.0166  -0.9738  -0.9557  -0.9442  -0.9336  -0.9027  -0.8676  -0.7789
    -0.7590  -0.7343  -0.7094  -0.7012  -0.6661  -0.6337  -0.6001  -0.5404
    -0.4983  -0.4843  -0.4613  -0.4334  -0.4257  -0.4030  -0.3845  -0.3649
    -0.3421  -0.3330  -0.3064  -0.2869  -0.2641  -0.1937  -0.1773  -0.1593
    -0.1406  -0.1132  -0.0939  -0.0793  -0.0556  -0.0320  -0.0219   0.0009
     0.0223   0.0482   0.0591   0.0716   0.0863   0.1698   0.1841   0.2228
     0.2568   0.2861   0.3201   0.3503   0.4167   0.5212   0.5484   0.5798
     0.6141   0.6467   0.6651   0.7132   0.7344   0.7570   0.7701   0.8067
     0.8199   0.8477   0.8909   0.9225   0.9931   1.0417   1.0782   1.1109
     1.1357   1.1488   1.2032   1.2176   1.2585   1.3165   1.3268   1.3593
     1.4045   1.4227   1.4523   1.5377   1.5615   1.5782   1.6060   1.6353
     1.6467   1.6559   1.6654   1.6830   1.7011   1.7172   1.7405   1.8422
     1.8949   1.9194   1.9922   2.0103   2.0920   2.1380   2.1969   2.2083
     2.2302   2.2733   2.3174   2.3366   2.3447   2.3620   2.3798   2.3958
     2.4038   2.4182   2.4265   2.4687   2.4793   2.5362   2.5491   2.5989
     2.6141   2.6344   2.6694   2.6896   2.8355   2.8623   2.8991   2.9275
     2.9343   2.9523   3.0677   3.0808   3.1944   3.5326   3.6219   3.6339
     4.0903   4.1572   4.1988   4.3323   4.6062   4.8637   5.0097   5.0968
     5.1095   5.2307   5.7633   6.1139   6.2909   6.4106   6.5132   6.6907
     6.9787   7.0393   7.0806   7.1096   7.2477

          k = 0.4000 0.2309 0.0000 ( 43046 PWs)   bands (ev):

   -16.6726  -5.6184  -4.9935  -4.5728  -4.2096  -3.9332  -3.8969  -3.7657
    -3.5094  -3.4104  -3.3592  -3.2679  -3.2054  -3.1816  -3.1258  -3.0192
    -2.9838  -2.9610  -2.9377  -2.8869  -2.8196  -2.7906  -2.7865  -2.7507
    -2.7176  -2.7013  -2.6505  -2.6127  -2.5996  -2.4873  -2.3765  -2.3687
    -2.3397  -2.3370  -2.3160  -2.2741  -2.1318  -2.1078  -2.0974  -2.0716
    -2.0589  -2.0130  -1.9194  -1.8092  -1.7877  -1.7753  -1.7572  -1.7136
    -1.6797  -1.6604  -1.6243  -1.5984  -1.5585  -1.5421  -1.4419  -1.4171
    -1.3862  -1.3618  -1.3231  -1.2589  -1.2270  -1.2036  -1.1780  -1.0915
    -1.0357  -1.0124  -0.9708  -0.9549  -0.9282  -0.9036  -0.8818  -0.8089
    -0.7839  -0.7391  -0.7004  -0.6554  -0.6327  -0.6161  -0.5949  -0.5708
    -0.5562  -0.5340  -0.5114  -0.4858  -0.4756  -0.4616  -0.4575  -0.4167
    -0.3931  -0.3526  -0.3290  -0.3005  -0.2855  -0.2711  -0.2639  -0.2271
    -0.1843  -0.1251  -0.0917  -0.0738  -0.0514  -0.0127  -0.0017   0.0426
     0.0851   0.1057   0.1352   0.1799   0.2008   0.2374   0.2495   0.2666
     0.3833   0.4061   0.4257   0.4543   0.5242   0.5383   0.5883   0.5968
     0.6203   0.6438   0.6530   0.6732   0.7051   0.7221   0.7398   0.7673
     0.7821   0.8039   0.8237   0.8812   0.9179   0.9463   0.9739   1.0123
     1.0590   1.1382   1.1672   1.1872   1.2235   1.2752   1.3176   1.3819
     1.4413   1.4634   1.4889   1.5105   1.5181   1.5523   1.5912   1.6086
     1.6187   1.6447   1.6834   1.7395   1.7859   1.7990   1.8197   1.8351
     1.8475   1.8881   1.9686   2.0402   2.0569   2.0909   2.1162   2.1258
     2.1864   2.2010   2.2204   2.2618   2.3040   2.3247   2.3502   2.3908
     2.4086   2.4203   2.4794   2.5012   2.5375   2.5503   2.5620   2.5761
     2.6007   2.6036   2.7470   2.7662   2.7828   2.7987   2.8393   2.9638
     2.9979   3.0323   3.3160   3.4823   3.5473   3.8077   3.8696   3.8943
     4.2290   4.2666   4.3589   4.5749   4.9113   5.0783   5.0909   5.1309
     5.3071   5.3797   5.4255   5.6576   5.7144   5.7732   6.1901   6.3660
     6.7632   6.9550   7.1917   7.4589   7.6564

          k = 0.4000-0.6928 0.0000 ( 43014 PWs)   bands (ev):

   -16.6726  -5.2322  -5.2161  -4.6255  -4.4706  -4.0062  -3.8868  -3.5258
    -3.4080  -3.3187  -3.2788  -3.2140  -3.1576  -3.1089  -3.0467  -3.0239
    -2.9624  -2.9359  -2.9187  -2.8938  -2.8881  -2.8571  -2.8003  -2.7253
    -2.7193  -2.7007  -2.6630  -2.6292  -2.5719  -2.5013  -2.4677  -2.4060
    -2.3694  -2.3438  -2.3181  -2.2778  -2.2529  -2.2251  -2.1809  -2.1024
    -2.0725  -1.9356  -1.8872  -1.8632  -1.7579  -1.7372  -1.7140  -1.6799
    -1.6126  -1.5684  -1.5225  -1.5025  -1.4755  -1.4581  -1.4147  -1.3790
    -1.3477  -1.3128  -1.2915  -1.2729  -1.2662  -1.2352  -1.2107  -1.1906
    -1.1587  -1.0865  -1.0756  -1.0363  -1.0104  -0.9163  -0.8946  -0.8773
    -0.8117  -0.7745  -0.7564  -0.7454  -0.7325  -0.6984  -0.6786  -0.6474
    -0.6257  -0.5835  -0.5569  -0.5498  -0.5097  -0.4292  -0.4080  -0.3877
    -0.3613  -0.3367  -0.2874  -0.2535  -0.2314  -0.2091  -0.1662  -0.1466
    -0.1365  -0.1163  -0.1065  -0.0765  -0.0606  -0.0347  -0.0248   0.0177
     0.0212   0.0297   0.0475   0.0541   0.0669   0.0883   0.1278   0.1578
     0.2397   0.3094   0.3895   0.4233   0.4365   0.5132   0.5280   0.5591
     0.5846   0.6006   0.6130   0.6372   0.6882   0.7101   0.7540   0.7648
     0.7985   0.8367   0.8425   0.9141   0.9251   0.9703   1.0522   1.1006
     1.1281   1.1703   1.1986   1.2315   1.2653   1.2975   1.3103   1.3337
     1.3524   1.3730   1.4007   1.4236   1.4621   1.5166   1.5480   1.5676
     1.5759   1.5954   1.6329   1.6566   1.7134   1.7678   1.8086   1.8991
     1.9318   1.9588   2.0129   2.0478   2.1200   2.1442   2.1590   2.1807
     2.2409   2.2820   2.3239   2.3593   2.3690   2.3849   2.3964   2.4231
     2.4660   2.5087   2.5320   2.5503   2.5761   2.5906   2.6028   2.6159
     2.6730   2.7564   2.7687   2.7832   2.7969   2.8398   2.8764   2.8952
     3.0058   3.1052   3.2668   3.9477   3.9720   4.0087   4.1582   4.2830
     4.3469   4.3851   4.4104   4.8448   4.9696   5.0146   5.3048   5.4315
     5.4726   5.5508   5.6105   5.7336   5.7872   5.8917   5.9749   6.3107
     6.3766   6.4573   6.8471   7.0255   7.1037

          k = 0.4000-0.4619 0.0000 ( 43014 PWs)   bands (ev):

   -16.6726  -5.2372  -5.2147  -4.6397  -4.4346  -4.0320  -3.9075  -3.4927
    -3.4552  -3.3164  -3.2759  -3.1970  -3.1388  -3.0919  -3.0525  -3.0461
    -2.9752  -2.9430  -2.9232  -2.9014  -2.8619  -2.8481  -2.8002  -2.7323
    -2.7126  -2.6981  -2.6729  -2.6635  -2.5699  -2.5498  -2.4521  -2.3889
    -2.3562  -2.3470  -2.3115  -2.2949  -2.2475  -2.2186  -2.1600  -2.0678
    -2.0414  -1.9450  -1.8652  -1.8415  -1.7909  -1.7551  -1.7211  -1.6785
    -1.6243  -1.5733  -1.5359  -1.5222  -1.4728  -1.4097  -1.3918  -1.3616
    -1.3180  -1.2967  -1.2693  -1.2569  -1.2474  -1.2346  -1.1993  -1.1818
    -1.1653  -1.1443  -1.0532  -0.9895  -0.9681  -0.9396  -0.9105  -0.8502
    -0.8313  -0.8053  -0.7815  -0.7627  -0.7137  -0.7022  -0.6656  -0.6340
    -0.6243  -0.5983  -0.5804  -0.5368  -0.4764  -0.4509  -0.4147  -0.3829
    -0.3352  -0.3304  -0.3113  -0.2477  -0.2108  -0.1823  -0.1662  -0.1523
    -0.1497  -0.1408  -0.1346  -0.1138  -0.0954  -0.0831  -0.0571  -0.0270
     0.0225   0.0390   0.0536   0.0708   0.0988   0.1022   0.1268   0.1491
     0.2678   0.2890   0.3388   0.3908   0.4332   0.4638   0.5255   0.5333
     0.5745   0.6033   0.6273   0.6490   0.6861   0.7373   0.7461   0.7683
     0.7981   0.8265   0.8791   0.9125   0.9268   0.9598   1.0632   1.0907
     1.1013   1.1833   1.2136   1.2270   1.2470   1.2829   1.3312   1.3383
     1.3656   1.3790   1.4088   1.4367   1.4786   1.5116   1.5537   1.5671
     1.5836   1.5944   1.6210   1.6316   1.7068   1.7546   1.8396   1.8821
     1.9036   1.9772   2.0358   2.0484   2.0798   2.1445   2.1746   2.2165
     2.2294   2.2987   2.3126   2.3420   2.3476   2.3821   2.3959   2.4280
     2.4498   2.5208   2.5390   2.5445   2.5612   2.5811   2.6064   2.6205
     2.6631   2.7546   2.7644   2.8279   2.8493   2.8589   2.8853   2.9254
     3.0021   3.1140   3.2496   3.8886   3.9774   3.9815   4.2344   4.2921
     4.3319   4.3600   4.4382   4.7696   4.9916   5.0126   5.2899   5.4573
     5.5125   5.5673   5.5809   5.7297   5.8849   5.9925   6.0097   6.2173
     6.3824   6.4391   6.7955   7.0155   7.0362

     the Fermi energy is     2.5796 ev

!    total energy              =  -27799.14511296 Ry
     total all-electron energy =  -1326794.757420 Ry
     estimated scf accuracy    <          5.4E-09 Ry
     smearing contrib. (-TS)   =       0.00000820 Ry
     internal energy E=F+TS    =  -27799.14512116 Ry

     The total energy is F=E-TS. E is the sum of the following terms:
     one-electron contribution =  -20623.82115696 Ry
     hartree contribution      =   10623.89419514 Ry
     xc contribution           =    -899.10381452 Ry
     ewald contribution        =    8583.99238062 Ry
     one-center paw contrib.   =  -25484.10672544 Ry

     convergence has been achieved in  23 iterations

     negative rho (up, down):  3.025E-03 0.000E+00

     Forces acting on atoms (cartesian axes, Ry/au):

     atom    1 type  1   force =     0.00068992    0.00063592   -0.01072468
     atom    2 type  1   force =     0.00105321   -0.00163000   -0.00451070
     atom    3 type  1   force =     0.00279429   -0.00113571   -0.00508410
     atom    4 type  1   force =     0.00105038   -0.00149722   -0.00641027
     atom    5 type  1   force =     0.00198255   -0.00135110   -0.00533894
     atom    6 type  1   force =     0.00232717   -0.00165652   -0.00676902
     atom    7 type  1   force =     0.00242050   -0.00097084   -0.00410623
     atom    8 type  1   force =     0.00101135   -0.00217135   -0.00670577
     atom    9 type  1   force =     0.00167447   -0.00154540   -0.00584728
     atom   10 type  1   force =    -0.00110974    0.00142721    0.00105083
     atom   11 type  1   force =    -0.00225899    0.00321450    0.01094378
     atom   12 type  1   force =    -0.00219381   -0.00095612    0.00530712
     atom   13 type  1   force =     0.00143656    0.00166286    0.01283223
     atom   14 type  1   force =    -0.00562298    0.00298663    0.00727332
     atom   15 type  1   force =    -0.00113992    0.00212042    0.00369872
     atom   16 type  1   force =    -0.00084829   -0.00159325    0.00488651
     atom   17 type  1   force =    -0.00156725    0.00082291    0.00026920
     atom   18 type  1   force =    -0.00166896    0.00164267    0.00961041
     atom   19 type  1   force =     0.00004189    0.00005360   -0.00002481
     atom   20 type  1   force =    -0.00002743    0.00002307   -0.00004300
     atom   21 type  1   force =    -0.00002705   -0.00005444    0.00001174
     atom   22 type  1   force =    -0.00006541   -0.00002030   -0.00004578
     atom   23 type  1   force =     0.00000247   -0.00002023    0.00002717
     atom   24 type  1   force =     0.00000276    0.00000350    0.00004788
     atom   25 type  1   force =     0.00005751   -0.00000782   -0.00008785
     atom   26 type  1   force =    -0.00002862    0.00002746   -0.00003515
     atom   27 type  1   force =    -0.00002607   -0.00009036    0.00000914
     atom   28 type  1   force =    -0.00002149   -0.00001076    0.00002089
     atom   29 type  1   force =     0.00002552    0.00005908   -0.00002452
     atom   30 type  1   force =    -0.00002102    0.00004336   -0.00000776
     atom   31 type  1   force =     0.00002498   -0.00004338   -0.00008141
     atom   32 type  1   force =    -0.00003536   -0.00007965   -0.00007420
     atom   33 type  1   force =     0.00000640   -0.00002694    0.00002332
     atom   34 type  1   force =    -0.00003118    0.00014922    0.00002993
     atom   35 type  1   force =     0.00001202   -0.00002196   -0.00004334
     atom   36 type  1   force =     0.00003931    0.00003972   -0.00002742
     atom   37 type  2   force =    -0.00006037    0.00005063   -0.00002866
     atom   38 type  3   force =    -0.00000894   -0.00007543   -0.00003653
     atom   39 type  3   force =     0.00010960   -0.00000398    0.00001522
     The non-local contrib.  to forces
     atom    1 type  1   force =     0.00079557   -0.00224377   -0.01700906
     atom    2 type  1   force =    -0.00028317   -0.00038963   -0.01904957
     atom    3 type  1   force =    -0.00085781    0.00027960   -0.01751137
     atom    4 type  1   force =    -0.00009166    0.00079350   -0.01985494
     atom    5 type  1   force =    -0.00001715   -0.00014351   -0.01838269
     atom    6 type  1   force =    -0.00042337    0.00121095   -0.02005832
     atom    7 type  1   force =    -0.00059686    0.00018362   -0.01939310
     atom    8 type  1   force =    -0.00084685    0.00224867   -0.02172359
     atom    9 type  1   force =    -0.00009531   -0.00003362   -0.02162300
     atom   10 type  1   force =    -0.00057686    0.00378085   -0.00183655
     atom   11 type  1   force =    -0.00312898    0.00280811    0.00136806
     atom   12 type  1   force =    -0.00406843    0.00273732   -0.00050184
     atom   13 type  1   force =    -0.00276296    0.00153994    0.00299264
     atom   14 type  1   force =    -0.00364833   -0.00005218    0.00308679
     atom   15 type  1   force =    -0.00217189    0.00233068   -0.00099985
     atom   16 type  1   force =    -0.00453639    0.00074608    0.00083279
     atom   17 type  1   force =     0.00044969    0.00349652   -0.00124051
     atom   18 type  1   force =    -0.00368951    0.00206186    0.00023634
     atom   19 type  1   force =     0.00094046    0.00283914    0.00685839
     atom   20 type  1   force =    -0.00993078   -0.00648730   -0.00339068
     atom   21 type  1   force =     0.00438001   -0.00020489    0.00679290
     atom   22 type  1   force =    -0.00287280   -0.00076071    0.00404900
     atom   23 type  1   force =     0.00268331    0.01979765   -0.01453440
     atom   24 type  1   force =     0.00206162    0.00046712    0.00456836
     atom   25 type  1   force =     0.00756894   -0.00391109    0.00330370
     atom   26 type  1   force =     0.00267915    0.00146630    0.01125105
     atom   27 type  1   force =    -0.00640072   -0.00407733    0.00327044
     atom   28 type  1   force =     0.00283633   -0.00216383    0.01673036
     atom   29 type  1   force =     0.02248968    0.01779793    0.03432193
     atom   30 type  1   force =    -0.00058809    0.00723186   -0.08135049
     atom   31 type  1   force =     0.01659463   -0.00352062    0.02457113
     atom   32 type  1   force =     0.01010213   -0.02726966   -0.03814008
     atom   33 type  1   force =    -0.01804269   -0.00814818    0.02593609
     atom   34 type  1   force =     0.00831824   -0.01349825    0.01909678
     atom   35 type  1   force =    -0.00233551   -0.01077231    0.01734061
     atom   36 type  1   force =     0.00290924   -0.00224648    0.01877266
     atom   37 type  2   force =     1.63012577    1.27016622   -0.30305690
     atom   38 type  3   force =    -0.07973789   -0.06351633   -0.04446329
     atom   39 type  3   force =     0.00935735   -0.01201448   -0.02964487
     The ionic contribution  to forces
     atom    1 type  1   force =    -0.00818415   -0.01796988  -94.17737065
     atom    2 type  1   force =     0.00863775    0.00556176  -94.17202137
     atom    3 type  1   force =    -0.00088375   -0.00171485  -94.16078753
     atom    4 type  1   force =     0.01984687    0.01066463  -94.17323062
     atom    5 type  1   force =    -0.00199949    0.01517727  -94.13868152
     atom    6 type  1   force =    -0.01809140    0.00247059  -94.17717440
     atom    7 type  1   force =     0.01353169   -0.00707904  -94.13391766
     atom    8 type  1   force =    -0.02220415   -0.01191510  -94.15264050
     atom    9 type  1   force =     0.00834587    0.00552378  -94.17386101
     atom   10 type  1   force =     0.09018146    0.07172219  -33.15922348
     atom   11 type  1   force =    -0.03433764    0.08003215  -33.05680235
     atom   12 type  1   force =    -0.13256543   -0.03600952  -33.11563811
     atom   13 type  1   force =     0.11098152    0.12949313  -32.98290848
     atom   14 type  1   force =    -0.22284800    0.07876499  -32.97700595
     atom   15 type  1   force =     0.00679206    0.08421680  -33.17455732
     atom   16 type  1   force =    -0.15457307   -0.23426686  -32.91187940
     atom   17 type  1   force =     0.00640708    0.04527556  -33.14022242
     atom   18 type  1   force =     0.04465046    0.02379078  -33.06077056
     atom   19 type  1   force =     0.01678379   -0.05539177   28.05660120
     atom   20 type  1   force =    -0.06457837   -0.09773874   28.59299096
     atom   21 type  1   force =     0.01756825   -0.13947071   28.55677600
     atom   22 type  1   force =    -0.00051519    0.11448505   28.50953574
     atom   23 type  1   force =     0.04862118    0.42364659   29.31366939
     atom   24 type  1   force =    -0.00839708    0.10166136   28.13316014
     atom   25 type  1   force =     0.05555673   -0.09955262   28.73414241
     atom   26 type  1   force =    -0.11467582   -0.10029673   27.85413864
     atom   27 type  1   force =     0.08373025   -0.08018783   28.61813994
     atom   28 type  1   force =     0.41262512   -0.06321527   90.26762810
     atom   29 type  1   force =    -1.07512274   -0.88546221   88.33190192
     atom   30 type  1   force =     1.33119038   -2.18692123   88.59898015
     atom   31 type  1   force =    -0.88556693    0.04895802   89.66911159
     atom   32 type  1   force =    -1.01990131    1.60709330   84.72847833
     atom   33 type  1   force =     1.56052301    0.38087337   88.50486670
     atom   34 type  1   force =    -0.34226298    0.45500845   90.26841180
     atom   35 type  1   force =     0.45563997    0.99087675   89.79644528
     atom   36 type  1   force =    -0.02385233   -0.40192968   90.43759101
     atom   37 type  2   force =    -3.03062393   -1.76345043   64.88097135
     atom   38 type  3   force =     2.60092418    2.12308571   11.64860605
     atom   39 type  3   force =     0.26864612   -0.61580972   11.53654662
     The local contribution  to forces
     atom    1 type  1   force =     0.00817667    0.02090348   94.16633525
     atom    2 type  1   force =    -0.00729311   -0.00683253   94.16939366
     atom    3 type  1   force =     0.00456688    0.00022707   94.15595710
     atom    4 type  1   force =    -0.01860200   -0.01297810   94.16963157
     atom    5 type  1   force =     0.00403172   -0.01647694   94.13455814
     atom    6 type  1   force =     0.02090721   -0.00536424   94.17338788
     atom    7 type  1   force =    -0.01038261    0.00588614   94.13214196
     atom    8 type  1   force =     0.02417218    0.00740033   94.15038560
     atom    9 type  1   force =    -0.00649507   -0.00707675   94.17262704
     atom   10 type  1   force =    -0.09053039   -0.07372187   33.16129945
     atom   11 type  1   force =     0.03500448   -0.07941196   33.06590854
     atom   12 type  1   force =     0.13412193    0.03233628   33.12071961
     atom   13 type  1   force =    -0.10667680   -0.12894543   32.99267266
     atom   14 type  1   force =     0.22033676   -0.07516428   32.98093628
     atom   15 type  1   force =    -0.00586030   -0.08412632   33.17829173
     atom   16 type  1   force =     0.15769428    0.23104611   32.91621379
     atom   17 type  1   force =    -0.00852102   -0.04772842   33.14081452
     atom   18 type  1   force =    -0.04273895   -0.02402693   33.06954107
     atom   19 type  1   force =    -0.01768692    0.05250555  -28.06159989
     atom   20 type  1   force =     0.07487760    0.10386612  -28.58798696
     atom   21 type  1   force =    -0.02238152    0.13948635  -28.56122163
     atom   22 type  1   force =     0.00349670   -0.11372016  -28.51224065
     atom   23 type  1   force =    -0.05072862   -0.44256978  -29.29854865
     atom   24 type  1   force =     0.00602186   -0.10202236  -28.13592369
     atom   25 type  1   force =    -0.06326573    0.10365724  -28.73575521
     atom   26 type  1   force =     0.11175223    0.09862539  -27.86383457
     atom   27 type  1   force =    -0.07706619    0.08428965  -28.61944446
     atom   28 type  1   force =    -0.41530866    0.06566949  -90.26854028
     atom   29 type  1   force =     1.05366532    0.86936629  -88.35006613
     atom   30 type  1   force =    -1.32749050    2.17494517  -88.51220100
     atom   31 type  1   force =     0.87017445   -0.04568321  -89.67730010
     atom   32 type  1   force =     1.00687043   -1.57815546  -84.68871422
     atom   33 type  1   force =    -1.54325312   -0.37300893  -88.51527773
     atom   34 type  1   force =     0.33393309   -0.44230988  -90.27132649
     atom   35 type  1   force =    -0.45323827   -0.98051172  -89.79780684
     atom   36 type  1   force =     0.02103107    0.40430208  -90.44047995
     atom   37 type  2   force =     1.41558829    0.50561047  -64.58196022
     atom   38 type  3   force =    -2.52119782   -2.05964674  -11.60418431
     atom   39 type  3   force =    -0.27789476    0.62782430  -11.50688921
     The core correction contribution to forces
     atom    1 type  1   force =    -0.00009247   -0.00002796    0.01731842
     atom    2 type  1   force =    -0.00002128    0.00003850    0.01715171
     atom    3 type  1   force =    -0.00002266    0.00007338    0.01723418
     atom    4 type  1   force =    -0.00012001    0.00002431    0.01705269
     atom    5 type  1   force =    -0.00004345    0.00009281    0.01715081
     atom    6 type  1   force =    -0.00003645    0.00002736    0.01707409
     atom    7 type  1   force =    -0.00014646    0.00002556    0.01705469
     atom    8 type  1   force =    -0.00009813    0.00009288    0.01726342
     atom    9 type  1   force =    -0.00007752    0.00001476    0.01700271
     atom   10 type  1   force =    -0.00021304   -0.00032439    0.00079008
     atom   11 type  1   force =     0.00018864   -0.00020056    0.00043053
     atom   12 type  1   force =     0.00036183    0.00000180    0.00070865
     atom   13 type  1   force =    -0.00014012   -0.00042575    0.00005396
     atom   14 type  1   force =     0.00055856   -0.00055447    0.00023876
     atom   15 type  1   force =     0.00011341   -0.00032487    0.00094350
     atom   16 type  1   force =     0.00056636    0.00089009   -0.00028785
     atom   17 type  1   force =     0.00008920   -0.00024130    0.00089032
     atom   18 type  1   force =     0.00011769   -0.00021932    0.00057456
     atom   19 type  1   force =     0.00001109    0.00010828   -0.00187044
     atom   20 type  1   force =    -0.00043808    0.00040535   -0.00163328
     atom   21 type  1   force =     0.00044274    0.00016456   -0.00229935
     atom   22 type  1   force =    -0.00017565   -0.00005638   -0.00137153
     atom   23 type  1   force =    -0.00057315   -0.00087462   -0.00052258
     atom   24 type  1   force =     0.00031987   -0.00012411   -0.00172674
     atom   25 type  1   force =     0.00024120   -0.00020558   -0.00174641
     atom   26 type  1   force =     0.00018714    0.00023370   -0.00155551
     atom   27 type  1   force =    -0.00030137   -0.00014013   -0.00192478
     atom   28 type  1   force =    -0.00017500   -0.00030429   -0.01582503
     atom   29 type  1   force =    -0.00101611   -0.00163261   -0.01618029
     atom   30 type  1   force =    -0.00312368    0.00480839   -0.00541128
     atom   31 type  1   force =    -0.00117388    0.00020273   -0.01648795
     atom   32 type  1   force =     0.00289987   -0.00173787   -0.00166690
     atom   33 type  1   force =     0.00077129    0.00025386   -0.01551929
     atom   34 type  1   force =     0.00000291    0.00093612   -0.01616643
     atom   35 type  1   force =    -0.00007254    0.00037293   -0.01604355
     atom   36 type  1   force =    -0.00005079   -0.00010403   -0.01592312
     atom   37 type  2   force =    -0.01513527   -0.01225945    0.00401636
     atom   38 type  3   force =     0.00000000    0.00000000    0.00000000
     atom   39 type  3   force =     0.00000000    0.00000000    0.00000000
     The Hubbard contrib.    to forces
     atom    1 type  1   force =     0.00000000    0.00000000    0.00000000
     atom    2 type  1   force =     0.00000000    0.00000000    0.00000000
     atom    3 type  1   force =     0.00000000    0.00000000    0.00000000
     atom    4 type  1   force =     0.00000000    0.00000000    0.00000000
     atom    5 type  1   force =     0.00000000    0.00000000    0.00000000
     atom    6 type  1   force =     0.00000000    0.00000000    0.00000000
     atom    7 type  1   force =     0.00000000    0.00000000    0.00000000
     atom    8 type  1   force =     0.00000000    0.00000000    0.00000000
     atom    9 type  1   force =     0.00000000    0.00000000    0.00000000
     atom   10 type  1   force =     0.00000000    0.00000000    0.00000000
     atom   11 type  1   force =     0.00000000    0.00000000    0.00000000
     atom   12 type  1   force =     0.00000000    0.00000000    0.00000000
     atom   13 type  1   force =     0.00000000    0.00000000    0.00000000
     atom   14 type  1   force =     0.00000000    0.00000000    0.00000000
     atom   15 type  1   force =     0.00000000    0.00000000    0.00000000
     atom   16 type  1   force =     0.00000000    0.00000000    0.00000000
     atom   17 type  1   force =     0.00000000    0.00000000    0.00000000
     atom   18 type  1   force =     0.00000000    0.00000000    0.00000000
     atom   19 type  1   force =     0.00000000    0.00000000    0.00000000
     atom   20 type  1   force =     0.00000000    0.00000000    0.00000000
     atom   21 type  1   force =     0.00000000    0.00000000    0.00000000
     atom   22 type  1   force =     0.00000000    0.00000000    0.00000000
     atom   23 type  1   force =     0.00000000    0.00000000    0.00000000
     atom   24 type  1   force =     0.00000000    0.00000000    0.00000000
     atom   25 type  1   force =     0.00000000    0.00000000    0.00000000
     atom   26 type  1   force =     0.00000000    0.00000000    0.00000000
     atom   27 type  1   force =     0.00000000    0.00000000    0.00000000
     atom   28 type  1   force =     0.00000000    0.00000000    0.00000000
     atom   29 type  1   force =     0.00000000    0.00000000    0.00000000
     atom   30 type  1   force =     0.00000000    0.00000000    0.00000000
     atom   31 type  1   force =     0.00000000    0.00000000    0.00000000
     atom   32 type  1   force =     0.00000000    0.00000000    0.00000000
     atom   33 type  1   force =     0.00000000    0.00000000    0.00000000
     atom   34 type  1   force =     0.00000000    0.00000000    0.00000000
     atom   35 type  1   force =     0.00000000    0.00000000    0.00000000
     atom   36 type  1   force =     0.00000000    0.00000000    0.00000000
     atom   37 type  2   force =     0.00000000    0.00000000    0.00000000
     atom   38 type  3   force =     0.00000000    0.00000000    0.00000000
     atom   39 type  3   force =     0.00000000    0.00000000    0.00000000
     The SCF correction term to forces
     atom    1 type  1   force =    -0.00000000   -0.00000000   -0.00000000
     atom    2 type  1   force =     0.00000000   -0.00000000    0.00000000
     atom    3 type  1   force =    -0.00000000   -0.00000000    0.00000000
     atom    4 type  1   force =     0.00000000   -0.00000000   -0.00000000
     atom    5 type  1   force =     0.00000000   -0.00000000    0.00000000
     atom    6 type  1   force =    -0.00000000   -0.00000000    0.00000000
     atom    7 type  1   force =     0.00000000    0.00000000    0.00000000
     atom    8 type  1   force =    -0.00000000    0.00000000    0.00000000
     atom    9 type  1   force =    -0.00000000    0.00000000    0.00000000
     atom   10 type  1   force =     0.00000000   -0.00000000    0.00000000
     atom   11 type  1   force =     0.00000000   -0.00000000    0.00000000
     atom   12 type  1   force =    -0.00000000   -0.00000000    0.00000000
     atom   13 type  1   force =     0.00000000    0.00000000    0.00000000
     atom   14 type  1   force =    -0.00000000   -0.00000000    0.00000000
     atom   15 type  1   force =    -0.00000000    0.00000000    0.00000000
     atom   16 type  1   force =     0.00000000   -0.00000000    0.00000000
     atom   17 type  1   force =     0.00000000    0.00000000    0.00000000
     atom   18 type  1   force =    -0.00000000    0.00000000    0.00000000
     atom   19 type  1   force =    -0.00000620   -0.00000790   -0.00001569
     atom   20 type  1   force =     0.00004252   -0.00002266   -0.00002467
     atom   21 type  1   force =    -0.00003620   -0.00003005   -0.00003781
     atom   22 type  1   force =     0.00000185    0.00003159   -0.00001996
     atom   23 type  1   force =     0.00000007   -0.00002037   -0.00003822
     atom   24 type  1   force =    -0.00000320    0.00002120   -0.00003183
     atom   25 type  1   force =    -0.00004331    0.00000392   -0.00003397
     atom   26 type  1   force =     0.00002900   -0.00000149   -0.00003639
     atom   27 type  1   force =     0.00001228    0.00002497   -0.00003362
     atom   28 type  1   force =     0.00000104    0.00000283    0.00002611
     atom   29 type  1   force =     0.00000968   -0.00001063   -0.00000359
     atom   30 type  1   force =    -0.00000881   -0.00002114   -0.00002676
     atom   31 type  1   force =    -0.00000297   -0.00000060    0.00002230
     atom   32 type  1   force =    -0.00000616   -0.00001026   -0.00003296
     atom   33 type  1   force =     0.00000823    0.00000264    0.00001592
     atom   34 type  1   force =    -0.00002211    0.00001248    0.00001264
     atom   35 type  1   force =     0.00001869    0.00001208    0.00001954
     atom   36 type  1   force =     0.00000244    0.00001753    0.00001036
     atom   37 type  2   force =    -0.00001492   -0.00001646   -0.00000088
     atom   38 type  3   force =     0.00000292    0.00000163    0.00000339
     atom   39 type  3   force =     0.00000120   -0.00000438    0.00000105

     Total force =     0.000366     Total SCF correction =     0.000160
     SCF correction compared to forces is large: reduce conv_thr to get better values

     Writing all to output data dir ./pwscf.save/

     init_run     :     16.54s CPU     16.99s WALL (       1 calls)
     electrons    :    514.70s CPU    536.38s WALL (       1 calls)
     forces       :      3.99s CPU      4.85s WALL (       1 calls)

     Called by init_run:
     wfcinit      :      5.85s CPU      6.09s WALL (       1 calls)
     potinit      :      9.03s CPU      9.18s WALL (       1 calls)
     hinit0       :      1.04s CPU      1.06s WALL (       1 calls)

     Called by electrons:
     c_bands      :    425.59s CPU    439.84s WALL (      24 calls)
     sum_band     :     53.79s CPU     56.17s WALL (      24 calls)
     v_of_rho     :     22.82s CPU     25.56s WALL (      24 calls)
     newd         :      4.22s CPU      5.20s WALL (      24 calls)
     PAW_pot      :      5.09s CPU      5.95s WALL (      24 calls)
     mix_rho      :     10.94s CPU     11.31s WALL (      24 calls)
     vdW_kernel   :      5.31s CPU      5.35s WALL (       1 calls)

     Called by c_bands:
     init_us_2    :      3.51s CPU      3.62s WALL (     650 calls)
     init_us_2:cp :      3.50s CPU      3.62s WALL (     650 calls)
     cegterg      :    415.69s CPU    429.40s WALL (     312 calls)

     Called by *egterg:
     cdiaghg      :     97.16s CPU    100.17s WALL (    1482 calls)
     h_psi        :    211.28s CPU    218.17s WALL (    1508 calls)
     s_psi        :     19.09s CPU     19.78s WALL (    1508 calls)
     g_psi        :      0.57s CPU      0.59s WALL (    1183 calls)

     Called by h_psi:
     h_psi:calbec :     28.69s CPU     30.07s WALL (    1508 calls)
     vloc_psi     :    161.68s CPU    166.66s WALL (    1508 calls)
     add_vuspsi   :     19.53s CPU     20.03s WALL (    1508 calls)

     General routines
     calbec       :     40.72s CPU     42.49s WALL (    1872 calls)
     fft          :     16.73s CPU     19.47s WALL (    1572 calls)
     ffts         :      5.55s CPU      5.63s WALL (    6362 calls)
     fftw         :    169.16s CPU    174.03s WALL (  398842 calls)
     interpolate  :      0.61s CPU      0.68s WALL (      24 calls)

     Parallel routines

     PWSCF        :   8m57.40s CPU   9m23.37s WALL


   This run was terminated on:   0: 9: 8  10Nov2025            

=------------------------------------------------------------------------------=
   JOB DONE.
=------------------------------------------------------------------------------=
