
     Program PWSCF v.7.1 starts on 20Nov2025 at 14:28:24 
        Git branch: heads/qe-7.1
        Last git commit: 48ba0178f8fede6d020eb786884699a9f063f55d-dirty
        Last git commit date: Fri Jan 27 14:22:33 2023 +0000
        Last git commit subject: Merge branch 'fix_hubbard' into 'develop'

     This program is part of the open-source Quantum ESPRESSO suite
     for quantum simulation of materials; please cite
         "P. Giannozzi et al., J. Phys.:Condens. Matter 21 395502 (2009);
         "P. Giannozzi et al., J. Phys.:Condens. Matter 29 465901 (2017);
         "P. Giannozzi et al., J. Chem. Phys. 152 154105 (2020);
          URL http://www.quantum-espresso.org", 
     in publications or presentations arising from this work. More details at
     http://www.quantum-espresso.org/quote

     Parallel version (MPI), running on    96 processors

     MPI processes distributed on     2 nodes
     51142 MiB available memory on the printing compute node when the environment starts

     Reading input from espresso.pwi
Warning: card &CELL ignored
Warning: card / ignored
Warning: card &FCP ignored
Warning: card / ignored
Warning: card &RISM ignored
Warning: card / ignored

     Current dimensions of program PWSCF are:
     Max number of different atomic species (ntypx) = 10
     Max number of k-points (npk) =  40000
     Max angular momentum in pseudopotentials (lmaxx) =  4
     file Co.pbe-n-kjpaw_psl.1.0.0.UPF: wavefunction(s)  4S 3D renormalized
     file C.pbe-n-kjpaw_psl.1.0.0.UPF: wavefunction(s)  2S 2P renormalized
     file O.pbe-nl-kjpaw_psl.1.0.0.UPF: wavefunction(s)  2S 2P renormalized
     file H.pbe-kjpaw_psl.1.0.0.UPF: wavefunction(s)  1S renormalized

     **************************************************************************
     Initializing libbeef V0.1.2 with the BEEF-vdW functional.
     Citation: Wellendorff et al., PRB 85, 235149 (2012).
     **************************************************************************


     IMPORTANT: XC functional enforced from input :
     Exchange-correlation= BEEF-VDW
                           (   1   4  43  14   2   0   0)
     Any further DFT definition will be discarded
     Please, verify this is what you really want


     R & G space division:  proc/nbgrp/npool/nimage =      96
     Subspace diagonalization in iterative solution of the eigenvalue problem:
     one sub-group per band group will be used
     custom distributed-memory algorithm (size of sub-group:  2*  2 procs)


     Parallelization info
     --------------------
     sticks:   dense  smooth     PW     G-vecs:    dense   smooth      PW
     Min          43      23      6                 7829     3049     440
     Max          44      24      7                 7845     3068     465
     Sum        4153    2221    613               752179   293251   42993

     Using Slab Decomposition



     bravais-lattice index     =            0
     lattice parameter (alat)  =      14.1729  a.u.
     unit-cell volume          =    8574.3059 (a.u.)^3
     number of atoms/cell      =           39
     number of atomic types    =            4
     number of electrons       =       335.00
     number of Kohn-Sham states=          202
     kinetic-energy cutoff     =      40.0000  Ry
     charge density cutoff     =     300.0000  Ry
     scf convergence threshold =      1.0E-06
     mixing beta               =       0.7000
     number of iterations used =            8  local-TF  mixing
     Exchange-correlation= BEEF-VDW
                           (   1   4  43  14   2   0   0)

     celldm(1)=  14.172946  celldm(2)=   0.000000  celldm(3)=   0.000000
     celldm(4)=   0.000000  celldm(5)=   0.000000  celldm(6)=   0.000000

     crystal axes: (cart. coord. in units of alat)
               a(1) = (   1.000000   0.000000   0.000000 )  
               a(2) = (   0.500000   0.866025   0.000000 )  
               a(3) = (   0.000000   0.000000   3.477667 )  

     reciprocal axes: (cart. coord. in units 2 pi/alat)
               b(1) = (  1.000000 -0.577350  0.000000 )  
               b(2) = (  0.000000  1.154701  0.000000 )  
               b(3) = (  0.000000  0.000000  0.287549 )  


     PseudoPot. # 1 for Co read from file:
     /users/kbadger1/espresso/pseudo/pslibrary.1.0.0/pbe/PSEUDOPOTENTIALS/Co.pbe-n-kjpaw_psl.1.0.0.UPF
     MD5 check sum: 88af6ec42553d4236c267fdfcb472151
     Pseudo is Projector augmented-wave + core cor, Zval =  9.0
     Generated using 'atomic' code by A. Dal Corso  v.7.0
     Shape of augmentation charge: PSQ
     Using radial grid of 1193 points,  6 beta functions with: 
                l(1) =   0
                l(2) =   0
                l(3) =   1
                l(4) =   1
                l(5) =   2
                l(6) =   2
     Q(r) pseudized with 0 coefficients 


     PseudoPot. # 2 for C  read from file:
     /users/kbadger1/espresso/pseudo/pslibrary.1.0.0/pbe/PSEUDOPOTENTIALS/C.pbe-n-kjpaw_psl.1.0.0.UPF
     MD5 check sum: 6408e75cdba28732cea38a4db8498ce4
     Pseudo is Projector augmented-wave + core cor, Zval =  4.0
     Generated using 'atomic' code by A. Dal Corso  v.7.0
     Shape of augmentation charge: PSQ
     Using radial grid of 1073 points,  4 beta functions with: 
                l(1) =   0
                l(2) =   0
                l(3) =   1
                l(4) =   1
     Q(r) pseudized with 0 coefficients 


     PseudoPot. # 3 for O  read from file:
     /users/kbadger1/espresso/pseudo/pslibrary.1.0.0/pbe/PSEUDOPOTENTIALS/O.pbe-nl-kjpaw_psl.1.0.0.UPF
     MD5 check sum: f0439fab3598ca4e468f064226030408
     Pseudo is Projector augmented-wave + core cor, Zval =  6.0
     Generated using 'atomic' code by A. Dal Corso  v.7.0
     Shape of augmentation charge: PSQ
     Using radial grid of 1095 points,  4 beta functions with: 
                l(1) =   0
                l(2) =   0
                l(3) =   1
                l(4) =   1
     Q(r) pseudized with 0 coefficients 


     PseudoPot. # 4 for H  read from file:
     /users/kbadger1/espresso/pseudo/pslibrary.1.0.0/pbe/PSEUDOPOTENTIALS/H.pbe-kjpaw_psl.1.0.0.UPF
     MD5 check sum: fe4c6fa958fa6d3815bf5d2419cbf1df
     Pseudo is Projector augmented-wave, Zval =  1.0
     Generated using 'atomic' code by A. Dal Corso  v.7.0
     Shape of augmentation charge: PSQ
     Using radial grid of  929 points,  2 beta functions with: 
                l(1) =   0
                l(2) =   0
     Q(r) pseudized with 0 coefficients 


     atomic species   valence    mass     pseudopotential
        Co             9.00    58.93319     Co( 1.00)
        C              4.00    12.00000     C ( 1.00)
        O              6.00    15.99491     O ( 1.00)
        H              1.00     1.00783     H ( 1.00)

     Starting magnetic structure 
     atomic species   magnetization
        Co           1.000
        C            1.000
        O            0.000
        H            0.000

     No symmetry found



   Cartesian axes

     site n.     atom                  positions (alat units)
         1           Co  tau(   1) = (   0.0000000   0.1924501   1.3333333  )
         2           Co  tau(   2) = (   0.3333333   0.1924501   1.3333333  )
         3           Co  tau(   3) = (   0.6666667   0.1924501   1.3333333  )
         4           Co  tau(   4) = (   0.1666667   0.4811252   1.3333333  )
         5           Co  tau(   5) = (   0.5000000   0.4811252   1.3333333  )
         6           Co  tau(   6) = (   0.8333333   0.4811252   1.3333333  )
         7           Co  tau(   7) = (   0.3333333   0.7698004   1.3333333  )
         8           Co  tau(   8) = (   0.6666667   0.7698004   1.3333333  )
         9           Co  tau(   9) = (   1.0000000   0.7698004   1.3333333  )
        10           Co  tau(  10) = (   0.0000000   0.0000000   1.6036667  )
        11           Co  tau(  11) = (   0.3333333   0.0000000   1.6036667  )
        12           Co  tau(  12) = (   0.6666667   0.0000000   1.6036667  )
        13           Co  tau(  13) = (   0.1666667   0.2886751   1.6036667  )
        14           Co  tau(  14) = (   0.5000000   0.2886751   1.6036667  )
        15           Co  tau(  15) = (   0.8333333   0.2886751   1.6036667  )
        16           Co  tau(  16) = (   0.3333333   0.5773503   1.6036667  )
        17           Co  tau(  17) = (   0.6666667   0.5773503   1.6036667  )
        18           Co  tau(  18) = (   1.0000000   0.5773503   1.6036667  )
        19           Co  tau(  19) = (   0.0000000   0.1924501   1.8740000  )
        20           Co  tau(  20) = (   0.3333333   0.1924501   1.8740000  )
        21           Co  tau(  21) = (   0.6666667   0.1924501   1.8740000  )
        22           Co  tau(  22) = (   0.1666667   0.4811252   1.8740000  )
        23           Co  tau(  23) = (   0.5000000   0.4811252   1.8740000  )
        24           Co  tau(  24) = (   0.8333333   0.4811252   1.8740000  )
        25           Co  tau(  25) = (   0.3333333   0.7698004   1.8740000  )
        26           Co  tau(  26) = (   0.6666667   0.7698004   1.8740000  )
        27           Co  tau(  27) = (   1.0000000   0.7698004   1.8740000  )
        28           Co  tau(  28) = (   0.0000000   0.0000000   2.1443333  )
        29           Co  tau(  29) = (   0.3333333   0.0000000   2.1443333  )
        30           Co  tau(  30) = (   0.6666667   0.0000000   2.1443333  )
        31           Co  tau(  31) = (   0.1666667   0.2886751   2.1443333  )
        32           Co  tau(  32) = (   0.5000000   0.2886751   2.1443333  )
        33           Co  tau(  33) = (   0.8333333   0.2886751   2.1443333  )
        34           Co  tau(  34) = (   0.3333333   0.5773503   2.1443333  )
        35           Co  tau(  35) = (   0.6666667   0.5773503   2.1443333  )
        36           Co  tau(  36) = (   1.0000000   0.5773503   2.1443333  )
        37           C   tau(  37) = (   0.3788612   0.1679108   2.3334430  )
        38           O   tau(  38) = (   0.3618885   0.1612053   2.4910045  )
        39           H   tau(  39) = (   0.6182683   0.3969524   2.2890241  )

     number of k points=    13  Marzari-Vanderbilt smearing, width (Ry)=  0.0010
                       cart. coord. in units 2pi/alat
        k(    1) = (   0.0000000   0.0000000   0.0000000), wk =   0.0400000
        k(    2) = (   0.0000000   0.2309401   0.0000000), wk =   0.0800000
        k(    3) = (   0.0000000   0.4618802   0.0000000), wk =   0.0800000
        k(    4) = (   0.2000000  -0.1154701   0.0000000), wk =   0.0800000
        k(    5) = (   0.2000000   0.1154701   0.0000000), wk =   0.0800000
        k(    6) = (   0.2000000   0.3464102   0.0000000), wk =   0.0800000
        k(    7) = (   0.2000000  -0.5773503   0.0000000), wk =   0.0800000
        k(    8) = (   0.2000000  -0.3464102   0.0000000), wk =   0.0800000
        k(    9) = (   0.4000000  -0.2309401   0.0000000), wk =   0.0800000
        k(   10) = (   0.4000000   0.0000000   0.0000000), wk =   0.0800000
        k(   11) = (   0.4000000   0.2309401   0.0000000), wk =   0.0800000
        k(   12) = (   0.4000000  -0.6928203   0.0000000), wk =   0.0800000
        k(   13) = (   0.4000000  -0.4618802   0.0000000), wk =   0.0800000

     Dense  grid:   752179 G-vectors     FFT dimensions: (  80,  80, 288)

     Smooth grid:   293251 G-vectors     FFT dimensions: (  60,  60, 200)

     Estimated max dynamical RAM per process >      84.82 MB

     Estimated total dynamical RAM >       7.95 GB
     Generating pointlists ...
     new r_m :   0.0891 (alat units)  1.2627 (a.u.) for type    1
     new r_m :   0.0654 (alat units)  0.9273 (a.u.) for type    2
     new r_m :   0.0654 (alat units)  0.9273 (a.u.) for type    3
     new r_m :   0.0891 (alat units)  1.2627 (a.u.) for type    4

     Initial potential from superposition of free atoms

     starting charge     334.9897, renormalised to     335.0000

     negative rho (up, down):  3.047E-03 4.518E-04


     %%%%%%%%%%%%%%%%%%%%%%%%%%%%%%%%%%%%%%%%%%%%%%%%%%%%%%%%%%%%%%%%%%%%%%%%
     %                                                                      %
     % You are using vdW-DF, which was implemented by the Thonhauser group. %
     % Please cite the following two papers that made this development      %
     % possible and the two reviews that describe the various versions:     %
     %                                                                      %
     %   T. Thonhauser et al., PRL 115, 136402 (2015).                      %
     %   T. Thonhauser et al., PRB 76, 125112 (2007).                       %
     %   K. Berland et al., Rep. Prog. Phys. 78, 066501 (2015).             %
     %   D.C. Langreth et al., J. Phys.: Condens. Matter 21, 084203 (2009). %
     %                                                                      %
     % If you are calculating stress with vdW-DF, please also cite:         %
     %                                                                      %
     %   R. Sabatini et al., J. Phys.: Condens. Matter 24, 424209 (2012).   %
     %   C.M. Frostenson et al., Electr. Struct. 4, 014001 (2022).          %
     %                                                                      %
     %%%%%%%%%%%%%%%%%%%%%%%%%%%%%%%%%%%%%%%%%%%%%%%%%%%%%%%%%%%%%%%%%%%%%%%%

     %%%%%%%%%%%%%%%%%%%%%%%%%%%%%%%%%%%%%%%%%%%%%%%%%%%%%%%%%%%%%%%%%%%%%%%%
     %                                                                      %
     %  vdW-DF NEWS:                                                        %
     %                                                                      %
     %  * vdW-DF3 is now available. DOI: 10.1021/acs.jctc.0c00471           %
     %    use with input_dft = 'vdW-DF3-opt1' or 'vdW-DF3-opt2'             %
     %                                                                      %
     %  * Unscreened and range-separated hybrid vdW-DF-cx functionals       %
     %    DOI: 10.1063/1.4986522 and 10.1088/1361-648X/ac2ad2               %
     %    use with input_dft = 'vdW-DF-cx0'    and 'vdW-DF-ahcx'            %
     %  * Unscreened and range-separated hybrid vdW-DF2-b86r functionals    %
     %    DOI: 10.1063/1.4986522 and DOI: 10.1103/PhysRevX.12.041003        %
     %    use with input_dft = 'vdW-DF2-br0' and 'vdW-DF2-ahbr'             %
     %                                                                      %
     %%%%%%%%%%%%%%%%%%%%%%%%%%%%%%%%%%%%%%%%%%%%%%%%%%%%%%%%%%%%%%%%%%%%%%%%


     Starting wfcs are  333 randomized atomic wfcs
     Checking if some PAW data can be deallocated... 

     total cpu time spent up to now is       11.8 secs

     per-process dynamical memory:   212.1 Mb

     Self-consistent Calculation

     iteration #  1     ecut=    40.00 Ry     beta= 0.70
     Davidson diagonalization with overlap
     ethr =  1.00E-02,  avg # of iterations =  2.0

     negative rho (up, down):  6.868E-05 1.564E-06

     total cpu time spent up to now is       30.5 secs

     total energy              =   -6053.00889534 Ry
     estimated scf accuracy    <      39.14578192 Ry

     total magnetization       =    69.00 Bohr mag/cell
     absolute magnetization    =    81.27 Bohr mag/cell

     iteration #  2     ecut=    40.00 Ry     beta= 0.70
     Davidson diagonalization with overlap
     ethr =  1.00E-02,  avg # of iterations =  1.0

     negative rho (up, down):  2.752E-05 9.309E-07

     total cpu time spent up to now is       47.5 secs

     total energy              =   -6052.51692931 Ry
     estimated scf accuracy    <      24.70224256 Ry

     total magnetization       =    69.00 Bohr mag/cell
     absolute magnetization    =    76.84 Bohr mag/cell

     iteration #  3     ecut=    40.00 Ry     beta= 0.70
     Davidson diagonalization with overlap
     ethr =  7.37E-03,  avg # of iterations =  1.2

     negative rho (up, down):  1.311E-06 3.055E-06

     total cpu time spent up to now is       60.0 secs

     total energy              =   -6055.08833693 Ry
     estimated scf accuracy    <      84.64208975 Ry

     total magnetization       =    66.12 Bohr mag/cell
     absolute magnetization    =    73.57 Bohr mag/cell

     iteration #  4     ecut=    40.00 Ry     beta= 0.70
     Davidson diagonalization with overlap
     ethr =  7.37E-03,  avg # of iterations =  1.0

     negative rho (up, down):  1.496E-06 8.398E-07

     total cpu time spent up to now is       76.5 secs

     total energy              =   -6056.34301478 Ry
     estimated scf accuracy    <       5.38176024 Ry

     total magnetization       =    60.46 Bohr mag/cell
     absolute magnetization    =    70.27 Bohr mag/cell

     iteration #  5     ecut=    40.00 Ry     beta= 0.70
     Davidson diagonalization with overlap
     ethr =  1.61E-03,  avg # of iterations =  1.2

     negative rho (up, down):  1.468E-06 6.299E-07

     total cpu time spent up to now is       88.9 secs

     total energy              =   -6056.34050779 Ry
     estimated scf accuracy    <       2.09405554 Ry

     total magnetization       =    60.46 Bohr mag/cell
     absolute magnetization    =    69.79 Bohr mag/cell

     iteration #  6     ecut=    40.00 Ry     beta= 0.70
     Davidson diagonalization with overlap
     ethr =  6.25E-04,  avg # of iterations =  1.7

     negative rho (up, down):  1.470E-06 7.034E-07

     total cpu time spent up to now is      102.2 secs

     total energy              =   -6056.44408766 Ry
     estimated scf accuracy    <       0.82050020 Ry

     total magnetization       =    59.88 Bohr mag/cell
     absolute magnetization    =    68.97 Bohr mag/cell

     iteration #  7     ecut=    40.00 Ry     beta= 0.70
     Davidson diagonalization with overlap
     ethr =  2.45E-04,  avg # of iterations =  4.3

     negative rho (up, down):  1.369E-06 7.733E-07

     total cpu time spent up to now is      120.7 secs

     total energy              =   -6056.46638775 Ry
     estimated scf accuracy    <       0.62684616 Ry

     total magnetization       =    59.96 Bohr mag/cell
     absolute magnetization    =    68.72 Bohr mag/cell

     iteration #  8     ecut=    40.00 Ry     beta= 0.70
     Davidson diagonalization with overlap
     ethr =  1.87E-04,  avg # of iterations =  1.9

     negative rho (up, down):  8.811E-07 4.920E-07

     total cpu time spent up to now is      138.3 secs

     total energy              =   -6056.49028331 Ry
     estimated scf accuracy    <       0.16747147 Ry

     total magnetization       =    59.99 Bohr mag/cell
     absolute magnetization    =    68.57 Bohr mag/cell

     iteration #  9     ecut=    40.00 Ry     beta= 0.70
     Davidson diagonalization with overlap
     c_bands:  2 eigenvalues not converged
     c_bands:  1 eigenvalues not converged
     ethr =  5.00E-05,  avg # of iterations =  9.3

     negative rho (up, down):  5.227E-07 3.027E-07

     total cpu time spent up to now is      158.5 secs

     total energy              =   -6056.49241894 Ry
     estimated scf accuracy    <       0.13359509 Ry

     total magnetization       =    60.28 Bohr mag/cell
     absolute magnetization    =    68.48 Bohr mag/cell

     iteration # 10     ecut=    40.00 Ry     beta= 0.70
     Davidson diagonalization with overlap
     ethr =  3.99E-05,  avg # of iterations =  2.7

     negative rho (up, down):  7.636E-07 4.507E-07

     total cpu time spent up to now is      177.0 secs

     total energy              =   -6056.50047513 Ry
     estimated scf accuracy    <       0.15342895 Ry

     total magnetization       =    60.62 Bohr mag/cell
     absolute magnetization    =    68.54 Bohr mag/cell

     iteration # 11     ecut=    40.00 Ry     beta= 0.70
     Davidson diagonalization with overlap
     ethr =  3.99E-05,  avg # of iterations =  1.3

     negative rho (up, down):  1.876E-07 1.032E-07

     total cpu time spent up to now is      189.4 secs

     total energy              =   -6056.49871783 Ry
     estimated scf accuracy    <       0.10312890 Ry

     total magnetization       =    60.57 Bohr mag/cell
     absolute magnetization    =    68.44 Bohr mag/cell

     iteration # 12     ecut=    40.00 Ry     beta= 0.70
     Davidson diagonalization with overlap
     ethr =  3.08E-05,  avg # of iterations =  1.9

     negative rho (up, down):  7.629E-07 2.114E-07

     total cpu time spent up to now is      207.0 secs

     total energy              =   -6056.49960439 Ry
     estimated scf accuracy    <       0.10280495 Ry

     total magnetization       =    60.42 Bohr mag/cell
     absolute magnetization    =    68.23 Bohr mag/cell

     iteration # 13     ecut=    40.00 Ry     beta= 0.70
     Davidson diagonalization with overlap
     ethr =  3.07E-05,  avg # of iterations =  1.2

     negative rho (up, down):  3.594E-07 1.865E-07

     total cpu time spent up to now is      218.3 secs

     total energy              =   -6056.50019123 Ry
     estimated scf accuracy    <       0.10253858 Ry

     total magnetization       =    60.56 Bohr mag/cell
     absolute magnetization    =    68.27 Bohr mag/cell

     iteration # 14     ecut=    40.00 Ry     beta= 0.70
     Davidson diagonalization with overlap
     ethr =  3.06E-05,  avg # of iterations =  1.2

     negative rho (up, down):  2.297E-03 1.099E-03

     total cpu time spent up to now is      235.6 secs

     total energy              =   -6056.49538930 Ry
     estimated scf accuracy    <       0.08043037 Ry

     total magnetization       =    60.53 Bohr mag/cell
     absolute magnetization    =    68.21 Bohr mag/cell

     iteration # 15     ecut=    40.00 Ry     beta= 0.70
     Davidson diagonalization with overlap
     ethr =  2.40E-05,  avg # of iterations =  1.3

     negative rho (up, down):  1.397E-02 1.194E-02

     total cpu time spent up to now is      247.3 secs

     total energy              =   -6056.49313897 Ry
     estimated scf accuracy    <       0.04356829 Ry

     total magnetization       =    60.54 Bohr mag/cell
     absolute magnetization    =    68.22 Bohr mag/cell

     iteration # 16     ecut=    40.00 Ry     beta= 0.70
     Davidson diagonalization with overlap
     c_bands:  1 eigenvalues not converged
     c_bands:  3 eigenvalues not converged
     ethr =  1.30E-05,  avg # of iterations =  4.4

     negative rho (up, down):  1.677E-02 1.479E-02

     total cpu time spent up to now is      267.3 secs

     total energy              =   -6056.49341047 Ry
     estimated scf accuracy    <       0.02353182 Ry

     total magnetization       =    60.46 Bohr mag/cell
     absolute magnetization    =    68.12 Bohr mag/cell

     iteration # 17     ecut=    40.00 Ry     beta= 0.70
     Davidson diagonalization with overlap
     c_bands:  1 eigenvalues not converged
     c_bands:  4 eigenvalues not converged
     c_bands:  2 eigenvalues not converged
     ethr =  7.02E-06,  avg # of iterations =  6.5

     negative rho (up, down):  1.586E-02 1.415E-02

     total cpu time spent up to now is      288.4 secs

     total energy              =   -6056.49422934 Ry
     estimated scf accuracy    <       0.01886945 Ry

     total magnetization       =    60.50 Bohr mag/cell
     absolute magnetization    =    68.10 Bohr mag/cell

     iteration # 18     ecut=    40.00 Ry     beta= 0.70
     Davidson diagonalization with overlap
     c_bands:  3 eigenvalues not converged
     ethr =  5.63E-06,  avg # of iterations =  3.3

     negative rho (up, down):  1.045E-02 9.005E-03

     total cpu time spent up to now is      303.2 secs

     total energy              =   -6056.49386572 Ry
     estimated scf accuracy    <       0.03037794 Ry

     total magnetization       =    60.50 Bohr mag/cell
     absolute magnetization    =    68.09 Bohr mag/cell

     iteration # 19     ecut=    40.00 Ry     beta= 0.70
     Davidson diagonalization with overlap
     ethr =  5.63E-06,  avg # of iterations =  1.5

     negative rho (up, down):  1.230E-02 1.089E-02

     total cpu time spent up to now is      320.0 secs

     total energy              =   -6056.49414545 Ry
     estimated scf accuracy    <       0.00981768 Ry

     total magnetization       =    60.55 Bohr mag/cell
     absolute magnetization    =    68.13 Bohr mag/cell

     iteration # 20     ecut=    40.00 Ry     beta= 0.70
     Davidson diagonalization with overlap
     c_bands:  2 eigenvalues not converged
     c_bands:  1 eigenvalues not converged
     c_bands:  1 eigenvalues not converged
     c_bands:  2 eigenvalues not converged
     ethr =  2.93E-06,  avg # of iterations =  5.6

     negative rho (up, down):  1.134E-02 1.058E-02

     total cpu time spent up to now is      335.6 secs

     total energy              =   -6056.49342162 Ry
     estimated scf accuracy    <       0.00981953 Ry

     total magnetization       =    60.53 Bohr mag/cell
     absolute magnetization    =    68.09 Bohr mag/cell

     iteration # 21     ecut=    40.00 Ry     beta= 0.70
     Davidson diagonalization with overlap
     c_bands:  1 eigenvalues not converged
     ethr =  2.93E-06,  avg # of iterations =  2.8

     negative rho (up, down):  1.258E-02 1.197E-02

     total cpu time spent up to now is      354.0 secs

     total energy              =   -6056.49367677 Ry
     estimated scf accuracy    <       0.01543113 Ry

     total magnetization       =    60.57 Bohr mag/cell
     absolute magnetization    =    68.10 Bohr mag/cell

     iteration # 22     ecut=    40.00 Ry     beta= 0.70
     Davidson diagonalization with overlap
     ethr =  2.93E-06,  avg # of iterations =  1.6

     negative rho (up, down):  1.405E-02 1.337E-02

     total cpu time spent up to now is      366.6 secs

     total energy              =   -6056.49430385 Ry
     estimated scf accuracy    <       0.00521732 Ry

     total magnetization       =    60.57 Bohr mag/cell
     absolute magnetization    =    68.10 Bohr mag/cell

     iteration # 23     ecut=    40.00 Ry     beta= 0.70
     Davidson diagonalization with overlap
     ethr =  1.56E-06,  avg # of iterations =  2.1

     negative rho (up, down):  1.137E-02 1.073E-02

     total cpu time spent up to now is      383.6 secs

     total energy              =   -6056.49435498 Ry
     estimated scf accuracy    <       0.00275893 Ry

     total magnetization       =    60.57 Bohr mag/cell
     absolute magnetization    =    68.10 Bohr mag/cell

     iteration # 24     ecut=    40.00 Ry     beta= 0.70
     Davidson diagonalization with overlap
     ethr =  8.24E-07,  avg # of iterations =  2.0

     negative rho (up, down):  5.292E-03 4.526E-03

     total cpu time spent up to now is      396.1 secs

     total energy              =   -6056.49377622 Ry
     estimated scf accuracy    <       0.00399508 Ry

     total magnetization       =    60.58 Bohr mag/cell
     absolute magnetization    =    68.10 Bohr mag/cell

     iteration # 25     ecut=    40.00 Ry     beta= 0.70
     Davidson diagonalization with overlap
     ethr =  8.24E-07,  avg # of iterations =  1.8

     negative rho (up, down):  5.852E-03 5.153E-03

     total cpu time spent up to now is      413.2 secs

     total energy              =   -6056.49426532 Ry
     estimated scf accuracy    <       0.00408577 Ry

     total magnetization       =    60.56 Bohr mag/cell
     absolute magnetization    =    68.10 Bohr mag/cell

     iteration # 26     ecut=    40.00 Ry     beta= 0.70
     Davidson diagonalization with overlap
     ethr =  8.24E-07,  avg # of iterations =  1.6

     negative rho (up, down):  4.849E-03 4.122E-03

     total cpu time spent up to now is      426.5 secs

     total energy              =   -6056.49451177 Ry
     estimated scf accuracy    <       0.00148935 Ry

     total magnetization       =    60.58 Bohr mag/cell
     absolute magnetization    =    68.11 Bohr mag/cell

     iteration # 27     ecut=    40.00 Ry     beta= 0.70
     Davidson diagonalization with overlap
     ethr =  4.45E-07,  avg # of iterations =  1.9

     negative rho (up, down):  3.953E-03 3.218E-03

     total cpu time spent up to now is      443.4 secs

     total energy              =   -6056.49436682 Ry
     estimated scf accuracy    <       0.00259399 Ry

     total magnetization       =    60.59 Bohr mag/cell
     absolute magnetization    =    68.11 Bohr mag/cell

     iteration # 28     ecut=    40.00 Ry     beta= 0.70
     Davidson diagonalization with overlap
     ethr =  4.45E-07,  avg # of iterations =  1.6

     negative rho (up, down):  3.225E-03 2.432E-03

     total cpu time spent up to now is      455.5 secs

     total energy              =   -6056.49449309 Ry
     estimated scf accuracy    <       0.00104916 Ry

     total magnetization       =    60.58 Bohr mag/cell
     absolute magnetization    =    68.11 Bohr mag/cell

     iteration # 29     ecut=    40.00 Ry     beta= 0.70
     Davidson diagonalization with overlap
     ethr =  3.13E-07,  avg # of iterations =  1.3

     negative rho (up, down):  2.848E-03 2.031E-03

     total cpu time spent up to now is      472.1 secs

     total energy              =   -6056.49452623 Ry
     estimated scf accuracy    <       0.00049544 Ry

     total magnetization       =    60.58 Bohr mag/cell
     absolute magnetization    =    68.11 Bohr mag/cell

     iteration # 30     ecut=    40.00 Ry     beta= 0.70
     Davidson diagonalization with overlap
     c_bands:  1 eigenvalues not converged
     ethr =  1.48E-07,  avg # of iterations =  3.8

     negative rho (up, down):  2.444E-03 1.511E-03

     total cpu time spent up to now is      487.0 secs

     total energy              =   -6056.49462729 Ry
     estimated scf accuracy    <       0.00015160 Ry

     total magnetization       =    60.58 Bohr mag/cell
     absolute magnetization    =    68.11 Bohr mag/cell

     iteration # 31     ecut=    40.00 Ry     beta= 0.70
     Davidson diagonalization with overlap
     ethr =  4.53E-08,  avg # of iterations =  4.3

     negative rho (up, down):  2.504E-03 1.495E-03

     total cpu time spent up to now is      506.6 secs

     total energy              =   -6056.49466668 Ry
     estimated scf accuracy    <       0.00022863 Ry

     total magnetization       =    60.58 Bohr mag/cell
     absolute magnetization    =    68.10 Bohr mag/cell

     iteration # 32     ecut=    40.00 Ry     beta= 0.70
     Davidson diagonalization with overlap
     ethr =  4.53E-08,  avg # of iterations =  1.5

     negative rho (up, down):  2.482E-03 1.451E-03

     total cpu time spent up to now is      518.7 secs

     total energy              =   -6056.49467921 Ry
     estimated scf accuracy    <       0.00007842 Ry

     total magnetization       =    60.58 Bohr mag/cell
     absolute magnetization    =    68.10 Bohr mag/cell

     iteration # 33     ecut=    40.00 Ry     beta= 0.70
     Davidson diagonalization with overlap
     ethr =  2.34E-08,  avg # of iterations =  1.7

     negative rho (up, down):  2.680E-03 1.557E-03

     total cpu time spent up to now is      535.6 secs

     total energy              =   -6056.49470812 Ry
     estimated scf accuracy    <       0.00005141 Ry

     total magnetization       =    60.58 Bohr mag/cell
     absolute magnetization    =    68.10 Bohr mag/cell

     iteration # 34     ecut=    40.00 Ry     beta= 0.70
     Davidson diagonalization with overlap
     ethr =  1.53E-08,  avg # of iterations =  2.8

     negative rho (up, down):  2.665E-03 1.537E-03

     total cpu time spent up to now is      549.9 secs

     total energy              =   -6056.49471082 Ry
     estimated scf accuracy    <       0.00005565 Ry

     total magnetization       =    60.58 Bohr mag/cell
     absolute magnetization    =    68.10 Bohr mag/cell

     iteration # 35     ecut=    40.00 Ry     beta= 0.70
     Davidson diagonalization with overlap
     ethr =  1.53E-08,  avg # of iterations =  1.5

     negative rho (up, down):  2.876E-03 1.789E-03

     total cpu time spent up to now is      567.1 secs

     total energy              =   -6056.49471338 Ry
     estimated scf accuracy    <       0.00007030 Ry

     total magnetization       =    60.58 Bohr mag/cell
     absolute magnetization    =    68.10 Bohr mag/cell

     iteration # 36     ecut=    40.00 Ry     beta= 0.70
     Davidson diagonalization with overlap
     ethr =  1.53E-08,  avg # of iterations =  1.7

     negative rho (up, down):  2.551E-03 1.424E-03

     total cpu time spent up to now is      579.2 secs

     total energy              =   -6056.49471101 Ry
     estimated scf accuracy    <       0.00008017 Ry

     total magnetization       =    60.58 Bohr mag/cell
     absolute magnetization    =    68.10 Bohr mag/cell

     iteration # 37     ecut=    40.00 Ry     beta= 0.70
     Davidson diagonalization with overlap
     ethr =  1.53E-08,  avg # of iterations =  1.0

     negative rho (up, down):  2.552E-03 1.432E-03

     total cpu time spent up to now is      595.5 secs

     total energy              =   -6056.49471592 Ry
     estimated scf accuracy    <       0.00001507 Ry

     total magnetization       =    60.58 Bohr mag/cell
     absolute magnetization    =    68.10 Bohr mag/cell

     iteration # 38     ecut=    40.00 Ry     beta= 0.70
     Davidson diagonalization with overlap
     ethr =  4.50E-09,  avg # of iterations =  2.4

     negative rho (up, down):  2.631E-03 1.551E-03

     total cpu time spent up to now is      609.8 secs

     total energy              =   -6056.49471705 Ry
     estimated scf accuracy    <       0.00001803 Ry

     total magnetization       =    60.58 Bohr mag/cell
     absolute magnetization    =    68.10 Bohr mag/cell

     iteration # 39     ecut=    40.00 Ry     beta= 0.70
     Davidson diagonalization with overlap
     ethr =  4.50E-09,  avg # of iterations =  2.3

     negative rho (up, down):  2.666E-03 1.565E-03

     total cpu time spent up to now is      627.7 secs

     total energy              =   -6056.49471674 Ry
     estimated scf accuracy    <       0.00001622 Ry

     total magnetization       =    60.58 Bohr mag/cell
     absolute magnetization    =    68.10 Bohr mag/cell

     iteration # 40     ecut=    40.00 Ry     beta= 0.70
     Davidson diagonalization with overlap
     ethr =  4.50E-09,  avg # of iterations =  1.2

     negative rho (up, down):  2.691E-03 1.606E-03

     total cpu time spent up to now is      639.1 secs

     total energy              =   -6056.49471756 Ry
     estimated scf accuracy    <       0.00000956 Ry

     total magnetization       =    60.58 Bohr mag/cell
     absolute magnetization    =    68.10 Bohr mag/cell

     iteration # 41     ecut=    40.00 Ry     beta= 0.70
     Davidson diagonalization with overlap
     ethr =  2.85E-09,  avg # of iterations =  1.5

     negative rho (up, down):  2.642E-03 1.549E-03

     total cpu time spent up to now is      655.9 secs

     total energy              =   -6056.49471747 Ry
     estimated scf accuracy    <       0.00000675 Ry

     total magnetization       =    60.58 Bohr mag/cell
     absolute magnetization    =    68.10 Bohr mag/cell

     iteration # 42     ecut=    40.00 Ry     beta= 0.70
     Davidson diagonalization with overlap
     ethr =  2.02E-09,  avg # of iterations =  1.6

     negative rho (up, down):  2.677E-03 1.605E-03

     total cpu time spent up to now is      669.2 secs

     total energy              =   -6056.49471771 Ry
     estimated scf accuracy    <       0.00000697 Ry

     total magnetization       =    60.58 Bohr mag/cell
     absolute magnetization    =    68.10 Bohr mag/cell

     iteration # 43     ecut=    40.00 Ry     beta= 0.70
     Davidson diagonalization with overlap
     ethr =  2.02E-09,  avg # of iterations =  1.5

     negative rho (up, down):  2.670E-03 1.596E-03

     total cpu time spent up to now is      686.4 secs

     total energy              =   -6056.49471771 Ry
     estimated scf accuracy    <       0.00000253 Ry

     total magnetization       =    60.58 Bohr mag/cell
     absolute magnetization    =    68.10 Bohr mag/cell

     iteration # 44     ecut=    40.00 Ry     beta= 0.70
     Davidson diagonalization with overlap
     ethr =  7.54E-10,  avg # of iterations =  4.1

     negative rho (up, down):  2.660E-03 1.584E-03

     total cpu time spent up to now is      701.0 secs

     total energy              =   -6056.49471764 Ry
     estimated scf accuracy    <       0.00000780 Ry

     total magnetization       =    60.58 Bohr mag/cell
     absolute magnetization    =    68.10 Bohr mag/cell

     iteration # 45     ecut=    40.00 Ry     beta= 0.70
     Davidson diagonalization with overlap
     ethr =  7.54E-10,  avg # of iterations =  1.4

     negative rho (up, down):  2.615E-03 1.536E-03

     total cpu time spent up to now is      717.7 secs

     total energy              =   -6056.49471778 Ry
     estimated scf accuracy    <       0.00000169 Ry

     total magnetization       =    60.58 Bohr mag/cell
     absolute magnetization    =    68.10 Bohr mag/cell

     iteration # 46     ecut=    40.00 Ry     beta= 0.70
     Davidson diagonalization with overlap
     ethr =  5.04E-10,  avg # of iterations =  1.7

     negative rho (up, down):  2.601E-03 1.524E-03

     total cpu time spent up to now is      731.0 secs

     total energy              =   -6056.49471773 Ry
     estimated scf accuracy    <       0.00000328 Ry

     total magnetization       =    60.58 Bohr mag/cell
     absolute magnetization    =    68.10 Bohr mag/cell

     iteration # 47     ecut=    40.00 Ry     beta= 0.70
     Davidson diagonalization with overlap
     ethr =  5.04E-10,  avg # of iterations =  1.6

     negative rho (up, down):  2.511E-03 1.431E-03

     total cpu time spent up to now is      748.1 secs

     total energy              =   -6056.49471751 Ry
     estimated scf accuracy    <       0.00000272 Ry

     total magnetization       =    60.58 Bohr mag/cell
     absolute magnetization    =    68.10 Bohr mag/cell

     iteration # 48     ecut=    40.00 Ry     beta= 0.70
     Davidson diagonalization with overlap
     ethr =  5.04E-10,  avg # of iterations =  2.0

     negative rho (up, down):  2.518E-03 1.430E-03

     total cpu time spent up to now is      760.8 secs

     total energy              =   -6056.49471757 Ry
     estimated scf accuracy    <       0.00000195 Ry

     total magnetization       =    60.58 Bohr mag/cell
     absolute magnetization    =    68.09 Bohr mag/cell

     iteration # 49     ecut=    40.00 Ry     beta= 0.70
     Davidson diagonalization with overlap
     ethr =  5.04E-10,  avg # of iterations =  1.9

     negative rho (up, down):  2.458E-03 1.370E-03

     total cpu time spent up to now is      778.5 secs

     total energy              =   -6056.49471743 Ry
     estimated scf accuracy    <       0.00000691 Ry

     total magnetization       =    60.58 Bohr mag/cell
     absolute magnetization    =    68.10 Bohr mag/cell

     iteration # 50     ecut=    40.00 Ry     beta= 0.70
     Davidson diagonalization with overlap
     ethr =  5.04E-10,  avg # of iterations =  1.1

     negative rho (up, down):  2.347E-03 1.259E-03

     total cpu time spent up to now is      791.4 secs

     total energy              =   -6056.49471754 Ry
     estimated scf accuracy    <       0.00000254 Ry

     total magnetization       =    60.58 Bohr mag/cell
     absolute magnetization    =    68.09 Bohr mag/cell

     iteration # 51     ecut=    40.00 Ry     beta= 0.70
     Davidson diagonalization with overlap
     ethr =  5.04E-10,  avg # of iterations =  1.7

     negative rho (up, down):  2.243E-03 1.154E-03

     Magnetic moment per site  (integrated on atomic sphere of radius R)
     atom   1 (R=0.089)  charge=  5.6029  magn=  1.6427
     atom   2 (R=0.089)  charge=  5.6024  magn=  1.6321
     atom   3 (R=0.089)  charge=  5.6020  magn=  1.6330
     atom   4 (R=0.089)  charge=  5.6017  magn=  1.6406
     atom   5 (R=0.089)  charge=  5.6016  magn=  1.6391
     atom   6 (R=0.089)  charge=  5.6011  magn=  1.6427
     atom   7 (R=0.089)  charge=  5.6028  magn=  1.6484
     atom   8 (R=0.089)  charge=  5.6027  magn=  1.6407
     atom   9 (R=0.089)  charge=  5.6014  magn=  1.6386
     atom  10 (R=0.089)  charge=  5.5996  magn=  1.5761
     atom  11 (R=0.089)  charge=  5.5986  magn=  1.5774
     atom  12 (R=0.089)  charge=  5.5980  magn=  1.5863
     atom  13 (R=0.089)  charge=  5.5985  magn=  1.5816
     atom  14 (R=0.089)  charge=  5.5981  magn=  1.5739
     atom  15 (R=0.089)  charge=  5.5985  magn=  1.5826
     atom  16 (R=0.089)  charge=  5.5985  magn=  1.5789
     atom  17 (R=0.089)  charge=  5.5987  magn=  1.5838
     atom  18 (R=0.089)  charge=  5.5978  magn=  1.5807
     atom  19 (R=0.089)  charge=  5.5992  magn=  1.5593
     atom  20 (R=0.089)  charge=  5.5961  magn=  1.5879
     atom  21 (R=0.089)  charge=  5.5979  magn=  1.5736
     atom  22 (R=0.089)  charge=  5.5975  magn=  1.5732
     atom  23 (R=0.089)  charge=  5.5977  magn=  1.5708
     atom  24 (R=0.089)  charge=  5.5966  magn=  1.5988
     atom  25 (R=0.089)  charge=  5.5991  magn=  1.5743
     atom  26 (R=0.089)  charge=  5.5987  magn=  1.5442
     atom  27 (R=0.089)  charge=  5.5978  magn=  1.5659
     atom  28 (R=0.089)  charge=  5.6017  magn=  1.6759
     atom  29 (R=0.089)  charge=  5.6107  magn=  1.2775
     atom  30 (R=0.089)  charge=  5.6030  magn=  1.6697
     atom  31 (R=0.089)  charge=  5.6068  magn=  1.5689
     atom  32 (R=0.089)  charge=  5.6110  magn=  0.9750
     atom  33 (R=0.089)  charge=  5.6021  magn=  1.6315
     atom  34 (R=0.089)  charge=  5.6015  magn=  1.6807
     atom  35 (R=0.089)  charge=  5.5994  magn=  1.5437
     atom  36 (R=0.089)  charge=  5.5995  magn=  1.6626
     atom  37 (R=0.065)  charge=  1.0446  magn= -0.0204
     atom  38 (R=0.065)  charge=  2.9178  magn= -0.0387
     atom  39 (R=0.089)  charge=  0.8145  magn= -0.0154

     total cpu time spent up to now is      808.3 secs

     End of self-consistent calculation

 ------ SPIN UP ------------


          k = 0.0000 0.0000 0.0000 ( 36693 PWs)   bands (ev):

   -21.9648  -9.1636  -7.6678  -6.5069  -5.8165  -5.6153  -5.3766  -5.0639
    -4.8366  -4.8287  -4.8241  -4.8112  -4.7979  -4.7814  -4.6094  -4.3796
    -4.2915  -4.2913  -4.2688  -4.2569  -4.2414  -4.0735  -3.7738  -3.7719
    -3.7610  -3.7494  -3.7269  -3.6876  -3.6360  -3.6344  -3.6297  -3.6258
    -3.6082  -3.5566  -3.5546  -3.4486  -3.2538  -3.2475  -3.2443  -3.2421
    -3.1869  -3.1820  -3.1775  -3.1753  -3.1711  -3.1630  -3.1558  -3.0976
    -3.0191  -3.0162  -2.9485  -2.9432  -2.9400  -2.9331  -2.9253  -2.9113
    -2.9079  -2.9052  -2.8816  -2.8665  -2.8113  -2.8028  -2.8002  -2.7927
    -2.7338  -2.5904  -2.3080  -2.2704  -2.2694  -2.2651  -2.2633  -2.1601
    -2.1404  -2.1268  -2.1193  -2.1083  -2.0980  -2.0930  -2.0837  -2.0780
    -2.0406  -2.0344  -2.0122  -2.0001  -1.9865  -1.9807  -1.9673  -1.9578
    -1.9556  -1.9463  -1.9411  -1.9346  -1.9241  -1.9133  -1.9089  -1.8968
    -1.8962  -1.8922  -1.8905  -1.8889  -1.8858  -1.8849  -1.8811  -1.8687
    -1.8580  -1.8527  -1.8331  -1.8185  -1.8119  -1.7379  -1.7323  -1.6396
    -1.5401  -1.4476  -1.4441  -1.4420  -1.4355  -1.4302  -1.4189  -1.4018
    -1.3968  -1.3937  -1.3808  -1.3530  -1.3503  -1.2215  -1.2156  -1.2012
    -1.1879  -1.1549  -1.0886  -1.0532  -1.0326  -1.0152  -0.9800  -0.9653
    -0.9602  -0.9580  -0.9488  -0.9319  -0.9104  -0.8894  -0.8347  -0.8120
    -0.7380  -0.7017  -0.6996  -0.6981  -0.6821  -0.6577  -0.6442  -0.6369
    -0.6327  -0.6302  -0.6279  -0.6245  -0.6200  -0.6133  -0.6077  -0.5968
    -0.5964  -0.5872  -0.5768  -0.5639  -0.5611  -0.5552  -0.5431  -0.5378
    -0.5338  -0.5234  -0.5165  -0.5079  -0.5043  -0.4909  -0.4892  -0.4832
    -0.4793  -0.4734  -0.4564  -0.4366  -0.4211  -0.4033  -0.3974  -0.3896
    -0.3885  -0.3798  -0.3756  -0.3643  -0.3586  -0.3228  -0.3103  -0.3037
    -0.2992  -0.2962  -0.2400  -0.2344  -0.2296  -0.2212  -0.2005  -0.1864
     0.4908   0.7476

          k = 0.0000 0.2309 0.0000 ( 36641 PWs)   bands (ev):

   -21.9648  -9.1518  -7.5274  -6.4099  -5.8527  -5.6642  -5.5096  -5.3424
    -5.0788  -5.0517  -4.9761  -4.6104  -4.5108  -4.4792  -4.4664  -4.4097
    -4.3432  -4.2942  -4.2158  -4.1927  -4.1502  -4.0397  -3.8874  -3.7731
    -3.7609  -3.6960  -3.6614  -3.6423  -3.6369  -3.6334  -3.6234  -3.6062
    -3.5771  -3.5390  -3.5131  -3.4928  -3.4878  -3.4198  -3.2791  -3.2648
    -3.2570  -3.2104  -3.2056  -3.1888  -3.1676  -3.1084  -3.0746  -3.0540
    -3.0399  -3.0326  -3.0250  -2.9920  -2.9556  -2.9013  -2.8926  -2.8695
    -2.8275  -2.8204  -2.7958  -2.7913  -2.7677  -2.7296  -2.7257  -2.7170
    -2.6797  -2.5919  -2.3928  -2.3800  -2.3548  -2.3404  -2.3245  -2.2390
    -2.2320  -2.2176  -2.2123  -2.2006  -2.1936  -2.1791  -2.1516  -2.1034
    -2.0995  -2.0820  -2.0651  -2.0317  -2.0265  -2.0184  -2.0053  -1.9972
    -1.9887  -1.9867  -1.9782  -1.9754  -1.9622  -1.9539  -1.9171  -1.8791
    -1.8743  -1.8564  -1.8091  -1.7999  -1.7928  -1.7816  -1.7758  -1.7746
    -1.7646  -1.7556  -1.7488  -1.7401  -1.7380  -1.7181  -1.6980  -1.6872
    -1.6754  -1.6587  -1.6336  -1.5887  -1.5651  -1.5014  -1.4659  -1.4614
    -1.4473  -1.4437  -1.4322  -1.4274  -1.4068  -1.3812  -1.3173  -1.2759
    -1.2388  -1.1995  -1.1829  -1.1689  -1.1443  -1.1134  -1.0890  -1.0741
    -1.0219  -0.9944  -0.9857  -0.9666  -0.9385  -0.9298  -0.9003  -0.8914
    -0.8746  -0.8487  -0.8319  -0.8114  -0.8047  -0.7933  -0.7842  -0.7688
    -0.7116  -0.7044  -0.6979  -0.6931  -0.6711  -0.6505  -0.6357  -0.6289
    -0.6224  -0.6186  -0.6106  -0.6007  -0.5866  -0.5732  -0.5618  -0.5401
    -0.5036  -0.4896  -0.4788  -0.4577  -0.4414  -0.4312  -0.3954  -0.3796
    -0.3690  -0.3588  -0.3503  -0.3449  -0.3268  -0.3185  -0.3118  -0.2722
    -0.2471  -0.2336  -0.2254  -0.2057  -0.1959  -0.1858  -0.1711  -0.1491
    -0.1022  -0.0364   0.1121   0.1460   0.1836   0.2746   0.3886   0.4191
     0.4558   0.8014

          k = 0.0000 0.4619 0.0000 ( 36606 PWs)   bands (ev):

   -21.9648  -9.1332  -7.1136  -6.4689  -6.1511  -5.8341  -5.5321  -5.3687
    -5.2022  -5.1526  -5.0762  -4.8201  -4.3509  -4.3130  -4.2796  -4.2349
    -4.1953  -4.1209  -4.1161  -4.0193  -3.9843  -3.9799  -3.9503  -3.8234
    -3.8010  -3.7918  -3.7884  -3.7849  -3.7138  -3.6859  -3.6767  -3.6136
    -3.5174  -3.5080  -3.4946  -3.4718  -3.4614  -3.4238  -3.3615  -3.3528
    -3.3405  -3.3289  -3.3004  -3.2112  -3.1257  -3.0988  -3.0341  -3.0196
    -2.9964  -2.9760  -2.9556  -2.9423  -2.9321  -2.9219  -2.9015  -2.8544
    -2.8410  -2.8198  -2.7792  -2.7511  -2.6485  -2.6326  -2.6134  -2.5862
    -2.5542  -2.5239  -2.5018  -2.4864  -2.4774  -2.4132  -2.3567  -2.3547
    -2.3528  -2.3401  -2.3309  -2.3113  -2.2988  -2.2898  -2.2674  -2.2372
    -2.2246  -2.1947  -2.1755  -2.1510  -2.1245  -2.1155  -2.0595  -2.0412
    -2.0240  -2.0118  -1.9934  -1.9669  -1.9612  -1.9210  -1.9125  -1.9024
    -1.8974  -1.8767  -1.8677  -1.8467  -1.8395  -1.8372  -1.8274  -1.7955
    -1.7831  -1.7441  -1.7330  -1.7206  -1.6570  -1.6395  -1.6140  -1.6027
    -1.5865  -1.5680  -1.5541  -1.5123  -1.5052  -1.4920  -1.4877  -1.4784
    -1.4674  -1.4624  -1.4563  -1.4481  -1.4392  -1.4296  -1.4102  -1.3993
    -1.3829  -1.3654  -1.3080  -1.2697  -1.2583  -1.2477  -1.2252  -1.2021
    -1.1843  -1.1352  -1.1086  -1.0971  -1.0695  -1.0599  -1.0225  -0.9999
    -0.9786  -0.9435  -0.9265  -0.9146  -0.8874  -0.8592  -0.8324  -0.7878
    -0.7473  -0.7221  -0.7101  -0.6977  -0.6944  -0.6868  -0.6798  -0.6698
    -0.6527  -0.6342  -0.5523  -0.5438  -0.5383  -0.5262  -0.5159  -0.5012
    -0.4947  -0.4760  -0.4678  -0.4617  -0.4413  -0.4220  -0.3604  -0.3488
    -0.3357  -0.3259  -0.2996  -0.2528  -0.2462  -0.2166  -0.2098  -0.1710
    -0.1433  -0.1307  -0.1232  -0.1063  -0.1008  -0.0977  -0.0903  -0.0483
     0.0029   0.0240   0.4119   0.5985   0.9267   1.0816   1.1264   1.2539
     1.4651   1.5102

          k = 0.2000-0.1155 0.0000 ( 36641 PWs)   bands (ev):

   -21.9648  -9.1536  -7.5263  -6.4091  -5.8337  -5.6546  -5.5260  -5.3502
    -5.0937  -5.0396  -4.9731  -4.6486  -4.4883  -4.4799  -4.4605  -4.4097
    -4.3213  -4.2980  -4.2376  -4.1615  -4.1497  -4.0832  -3.8697  -3.7780
    -3.7684  -3.6978  -3.6544  -3.6405  -3.6370  -3.6275  -3.6216  -3.6049
    -3.5896  -3.5268  -3.5129  -3.4916  -3.4887  -3.4129  -3.2671  -3.2621
    -3.2481  -3.2090  -3.2051  -3.1960  -3.1711  -3.0994  -3.0727  -3.0593
    -3.0404  -3.0381  -3.0176  -2.9963  -2.9649  -2.8997  -2.8927  -2.8620
    -2.8343  -2.8253  -2.7966  -2.7923  -2.7687  -2.7316  -2.7260  -2.7155
    -2.6923  -2.5846  -2.3896  -2.3809  -2.3600  -2.3466  -2.3265  -2.2394
    -2.2299  -2.2138  -2.2086  -2.2008  -2.1944  -2.1856  -2.1611  -2.1062
    -2.0958  -2.0830  -2.0630  -2.0298  -2.0216  -2.0166  -2.0062  -1.9998
    -1.9865  -1.9831  -1.9756  -1.9734  -1.9661  -1.9543  -1.9332  -1.8874
    -1.8713  -1.8652  -1.8035  -1.7953  -1.7855  -1.7842  -1.7760  -1.7731
    -1.7601  -1.7529  -1.7450  -1.7412  -1.7346  -1.7131  -1.7025  -1.6840
    -1.6725  -1.6662  -1.6266  -1.5780  -1.5648  -1.4765  -1.4673  -1.4659
    -1.4577  -1.4378  -1.4317  -1.4237  -1.4008  -1.3942  -1.3767  -1.2679
    -1.2466  -1.1943  -1.1822  -1.1657  -1.1516  -1.0943  -1.0795  -1.0719
    -1.0561  -0.9780  -0.9663  -0.9593  -0.9328  -0.9270  -0.8954  -0.8855
    -0.8671  -0.8545  -0.8453  -0.8213  -0.8058  -0.7867  -0.7816  -0.7771
    -0.7187  -0.7058  -0.6992  -0.6950  -0.6800  -0.6638  -0.6392  -0.6253
    -0.6218  -0.6158  -0.6122  -0.5979  -0.5834  -0.5725  -0.5593  -0.5451
    -0.5141  -0.4980  -0.4874  -0.4578  -0.4357  -0.4222  -0.4041  -0.3771
    -0.3731  -0.3602  -0.3554  -0.3419  -0.3253  -0.3174  -0.3120  -0.2790
    -0.2463  -0.2377  -0.2243  -0.2051  -0.1985  -0.1822  -0.1751  -0.1540
    -0.0974  -0.0272   0.1295   0.1478   0.2219   0.2839   0.4040   0.4179
     0.4551   0.7638

          k = 0.2000 0.1155 0.0000 ( 36641 PWs)   bands (ev):

   -21.9648  -9.1513  -7.5280  -6.4113  -5.8730  -5.6585  -5.4619  -5.3789
    -5.0734  -5.0455  -4.9898  -4.5840  -4.5158  -4.4777  -4.4698  -4.4066
    -4.3438  -4.3099  -4.2182  -4.1912  -4.1524  -4.0293  -3.8891  -3.7785
    -3.7523  -3.6902  -3.6546  -3.6453  -3.6378  -3.6354  -3.6245  -3.6161
    -3.5553  -3.5473  -3.5229  -3.4925  -3.4879  -3.4209  -3.2839  -3.2632
    -3.2602  -3.2101  -3.2079  -3.1930  -3.1624  -3.1072  -3.0777  -3.0505
    -3.0376  -3.0341  -3.0250  -2.9992  -2.9523  -2.9021  -2.8926  -2.8688
    -2.8341  -2.8090  -2.7972  -2.7906  -2.7762  -2.7282  -2.7281  -2.7142
    -2.6659  -2.5947  -2.3906  -2.3791  -2.3538  -2.3406  -2.3271  -2.2386
    -2.2327  -2.2249  -2.2098  -2.2021  -2.1946  -2.1816  -2.1332  -2.1055
    -2.0993  -2.0839  -2.0589  -2.0296  -2.0244  -2.0184  -2.0155  -1.9968
    -1.9899  -1.9853  -1.9796  -1.9760  -1.9638  -1.9477  -1.9290  -1.8827
    -1.8696  -1.8554  -1.8108  -1.8029  -1.7943  -1.7832  -1.7769  -1.7731
    -1.7635  -1.7544  -1.7529  -1.7400  -1.7381  -1.7254  -1.6924  -1.6894
    -1.6741  -1.6655  -1.6307  -1.5895  -1.5702  -1.5125  -1.4680  -1.4600
    -1.4483  -1.4404  -1.4324  -1.4270  -1.4087  -1.3702  -1.2939  -1.2818
    -1.2374  -1.1977  -1.1841  -1.1695  -1.1449  -1.1247  -1.0885  -1.0802
    -1.0147  -0.9921  -0.9827  -0.9583  -0.9429  -0.9317  -0.9004  -0.8950
    -0.8729  -0.8498  -0.8335  -0.8127  -0.8067  -0.7936  -0.7887  -0.7687
    -0.7083  -0.7021  -0.6962  -0.6905  -0.6787  -0.6454  -0.6372  -0.6275
    -0.6227  -0.6165  -0.6107  -0.5958  -0.5850  -0.5733  -0.5647  -0.5519
    -0.5020  -0.4818  -0.4743  -0.4595  -0.4469  -0.4341  -0.3944  -0.3793
    -0.3716  -0.3603  -0.3508  -0.3417  -0.3260  -0.3170  -0.3123  -0.2700
    -0.2408  -0.2337  -0.2239  -0.2042  -0.1973  -0.1705  -0.1559  -0.1510
    -0.0998  -0.0592   0.1117   0.1471   0.1820   0.2678   0.3930   0.4159
     0.4494   0.7484

          k = 0.2000 0.3464 0.0000 ( 36608 PWs)   bands (ev):

   -21.9648  -9.1355  -7.2515  -6.2577  -6.0623  -5.9249  -5.6798  -5.4593
    -5.3600  -4.9745  -4.7730  -4.5993  -4.4901  -4.4882  -4.3217  -4.2655
    -4.2479  -4.1629  -4.1566  -4.0914  -4.0350  -3.9326  -3.8900  -3.8683
    -3.8110  -3.7729  -3.6810  -3.6768  -3.6387  -3.6326  -3.6230  -3.6088
    -3.5806  -3.5704  -3.5474  -3.5150  -3.4702  -3.4469  -3.4312  -3.3800
    -3.2964  -3.2499  -3.2051  -3.1752  -3.1563  -3.1453  -3.0908  -3.0437
    -3.0122  -2.9718  -2.9680  -2.9562  -2.9310  -2.9073  -2.8895  -2.8799
    -2.8633  -2.8380  -2.7568  -2.6888  -2.6801  -2.6575  -2.6339  -2.6196
    -2.6051  -2.5491  -2.4952  -2.4233  -2.4033  -2.3795  -2.3682  -2.3381
    -2.3227  -2.3139  -2.3064  -2.2889  -2.2656  -2.2555  -2.2485  -2.2363
    -2.2106  -2.1819  -2.1572  -2.1018  -2.0591  -2.0496  -2.0413  -2.0212
    -2.0030  -1.9844  -1.9543  -1.9471  -1.9410  -1.9148  -1.8942  -1.8891
    -1.8824  -1.8809  -1.8726  -1.8532  -1.8501  -1.8324  -1.8159  -1.8117
    -1.7892  -1.7613  -1.7381  -1.7144  -1.7059  -1.6799  -1.6619  -1.6566
    -1.6447  -1.6312  -1.6138  -1.5783  -1.5564  -1.5489  -1.5233  -1.5054
    -1.4948  -1.4845  -1.4721  -1.4618  -1.4433  -1.4284  -1.4127  -1.3607
    -1.3452  -1.3273  -1.3184  -1.2169  -1.2026  -1.1844  -1.1688  -1.0978
    -1.0558  -1.0524  -1.0469  -1.0374  -1.0230  -1.0129  -0.9925  -0.9885
    -0.9701  -0.9442  -0.9293  -0.8870  -0.8681  -0.8560  -0.8483  -0.8342
    -0.8035  -0.7966  -0.7818  -0.7702  -0.7568  -0.7406  -0.6206  -0.6018
    -0.5786  -0.5691  -0.5599  -0.5471  -0.5364  -0.5206  -0.5129  -0.5063
    -0.4839  -0.4598  -0.4357  -0.4199  -0.3986  -0.3798  -0.3393  -0.3284
    -0.3221  -0.3188  -0.3123  -0.2913  -0.2812  -0.2745  -0.2691  -0.2479
    -0.2407  -0.1630  -0.1534  -0.1502  -0.1082  -0.1057  -0.0739   0.0430
     0.2196   0.2393   0.2822   0.3629   0.5418   0.6229   0.9270   1.1295
     1.2245   1.4356

          k = 0.2000-0.5774 0.0000 ( 36660 PWs)   bands (ev):

   -21.9648  -9.1283  -6.7499  -6.6763  -6.1516  -5.9788  -5.7850  -5.4521
    -5.2304  -5.1870  -4.8991  -4.6448  -4.4701  -4.2232  -4.1793  -4.0580
    -4.0462  -4.0337  -4.0167  -4.0069  -3.9612  -3.9417  -3.9365  -3.9345
    -3.9145  -3.8361  -3.7880  -3.7826  -3.7585  -3.7531  -3.7109  -3.6185
    -3.6016  -3.5935  -3.5734  -3.5460  -3.4939  -3.4431  -3.3443  -3.3049
    -3.2984  -3.2834  -3.2143  -3.1979  -3.1716  -3.1210  -3.0871  -3.0817
    -3.0519  -3.0153  -2.9883  -2.9219  -2.8939  -2.8709  -2.8503  -2.8078
    -2.7851  -2.7259  -2.7211  -2.7110  -2.6983  -2.6878  -2.6589  -2.6124
    -2.5543  -2.5037  -2.4952  -2.4871  -2.4624  -2.4251  -2.4159  -2.3606
    -2.3522  -2.3182  -2.3068  -2.3006  -2.2910  -2.2700  -2.2509  -2.2397
    -2.2217  -2.2155  -2.1987  -2.1755  -2.1683  -2.1304  -2.0993  -2.0869
    -2.0753  -2.0534  -2.0009  -1.9736  -1.9524  -1.9312  -1.9212  -1.9132
    -1.8928  -1.8846  -1.8747  -1.8661  -1.8480  -1.8305  -1.8229  -1.7682
    -1.7590  -1.7386  -1.7272  -1.7230  -1.7039  -1.6989  -1.6928  -1.6805
    -1.6753  -1.6678  -1.6428  -1.6275  -1.5861  -1.5676  -1.5571  -1.5155
    -1.4940  -1.4821  -1.4654  -1.4241  -1.4122  -1.4000  -1.3931  -1.3683
    -1.3277  -1.3229  -1.3020  -1.2424  -1.1969  -1.1924  -1.1715  -1.1577
    -1.1301  -1.1222  -1.1158  -1.0974  -1.0768  -1.0572  -1.0433  -1.0189
    -0.9773  -0.9747  -0.9490  -0.9324  -0.9162  -0.8801  -0.8631  -0.8538
    -0.8428  -0.8235  -0.8164  -0.7964  -0.7719  -0.7555  -0.7340  -0.5800
    -0.5620  -0.5527  -0.5434  -0.5393  -0.5269  -0.5204  -0.5079  -0.4750
    -0.4678  -0.4596  -0.4483  -0.4317  -0.3839  -0.3378  -0.3222  -0.3153
    -0.3006  -0.2896  -0.2771  -0.2590  -0.2319  -0.2195  -0.2141  -0.1989
    -0.1887  -0.1607  -0.1210  -0.1166  -0.1037  -0.0915  -0.0701  -0.0400
     0.1439   0.2715   0.5210   0.8806   0.9721   1.1807   1.2445   1.5542
     1.6665   1.7269

          k = 0.2000-0.3464 0.0000 ( 36608 PWs)   bands (ev):

   -21.9648  -9.1393  -7.2467  -6.2659  -5.9961  -5.9393  -5.6785  -5.5244
    -5.3328  -4.9885  -4.7141  -4.6815  -4.4868  -4.4749  -4.3149  -4.2645
    -4.2555  -4.1627  -4.1575  -4.0487  -4.0286  -4.0156  -3.8904  -3.8666
    -3.8174  -3.7709  -3.6762  -3.6619  -3.6528  -3.6306  -3.6234  -3.6013
    -3.5807  -3.5739  -3.5348  -3.5084  -3.4727  -3.4271  -3.4151  -3.3825
    -3.2900  -3.2253  -3.2048  -3.1844  -3.1616  -3.1377  -3.0740  -3.0445
    -2.9968  -2.9944  -2.9644  -2.9498  -2.9444  -2.9121  -2.8921  -2.8758
    -2.8565  -2.8372  -2.7472  -2.7266  -2.6808  -2.6647  -2.6420  -2.6266
    -2.6038  -2.5569  -2.4898  -2.4266  -2.4008  -2.3810  -2.3666  -2.3346
    -2.3238  -2.3115  -2.3052  -2.2794  -2.2664  -2.2536  -2.2432  -2.2361
    -2.2270  -2.1831  -2.1512  -2.1291  -2.0597  -2.0543  -2.0290  -2.0147
    -2.0077  -1.9835  -1.9648  -1.9476  -1.9311  -1.9163  -1.8994  -1.8948
    -1.8873  -1.8781  -1.8706  -1.8524  -1.8421  -1.8364  -1.8178  -1.8024
    -1.7934  -1.7888  -1.7645  -1.7127  -1.7087  -1.6738  -1.6620  -1.6543
    -1.6507  -1.6301  -1.5868  -1.5793  -1.5574  -1.5319  -1.5173  -1.5011
    -1.4892  -1.4835  -1.4749  -1.4514  -1.4357  -1.4211  -1.4128  -1.3598
    -1.3494  -1.3128  -1.2990  -1.2452  -1.2085  -1.1758  -1.1582  -1.0939
    -1.0722  -1.0488  -1.0368  -1.0335  -1.0267  -1.0174  -0.9895  -0.9803
    -0.9648  -0.9579  -0.9341  -0.8912  -0.8791  -0.8672  -0.8467  -0.8334
    -0.8108  -0.7932  -0.7733  -0.7652  -0.7521  -0.7421  -0.6188  -0.6094
    -0.5897  -0.5749  -0.5592  -0.5480  -0.5412  -0.5217  -0.5164  -0.4964
    -0.4839  -0.4600  -0.4274  -0.4141  -0.3998  -0.3875  -0.3522  -0.3304
    -0.3234  -0.3187  -0.3141  -0.2913  -0.2827  -0.2734  -0.2659  -0.2533
    -0.2421  -0.1677  -0.1544  -0.1489  -0.1051  -0.1007  -0.0932   0.0532
     0.1413   0.2410   0.2581   0.4575   0.5180   0.6414   1.0291   1.1281
     1.2407   1.3842

          k = 0.4000-0.2309 0.0000 ( 36606 PWs)   bands (ev):

   -21.9648  -9.1379  -7.1087  -6.4660  -6.1459  -5.7662  -5.5938  -5.3618
    -5.2251  -5.1481  -5.0937  -4.8070  -4.3264  -4.3089  -4.2915  -4.2479
    -4.1992  -4.1195  -4.1154  -4.0473  -3.9846  -3.9795  -3.9726  -3.8177
    -3.8009  -3.7976  -3.7884  -3.7858  -3.7252  -3.6829  -3.6772  -3.5446
    -3.5140  -3.5051  -3.4902  -3.4698  -3.4642  -3.4245  -3.3588  -3.3535
    -3.3378  -3.3324  -3.2545  -3.1996  -3.1341  -3.0980  -3.0424  -3.0317
    -2.9995  -2.9801  -2.9556  -2.9419  -2.9352  -2.9182  -2.8974  -2.8488
    -2.8393  -2.8163  -2.7878  -2.7766  -2.6487  -2.6396  -2.6163  -2.6079
    -2.5481  -2.5249  -2.4991  -2.4880  -2.4738  -2.4089  -2.3569  -2.3541
    -2.3496  -2.3406  -2.3349  -2.3136  -2.3004  -2.2822  -2.2670  -2.2562
    -2.2260  -2.1912  -2.1731  -2.1527  -2.1307  -2.0990  -2.0596  -2.0337
    -2.0221  -2.0096  -1.9822  -1.9730  -1.9712  -1.9256  -1.9115  -1.9048
    -1.9003  -1.8862  -1.8687  -1.8451  -1.8380  -1.8281  -1.8242  -1.8045
    -1.7877  -1.7562  -1.7301  -1.7224  -1.6552  -1.6363  -1.6204  -1.6167
    -1.5972  -1.5702  -1.5402  -1.5214  -1.5067  -1.4853  -1.4831  -1.4759
    -1.4735  -1.4638  -1.4531  -1.4441  -1.4393  -1.4323  -1.4191  -1.4087
    -1.4021  -1.3496  -1.2872  -1.2801  -1.2625  -1.2431  -1.2201  -1.2129
    -1.1831  -1.1208  -1.1092  -1.0998  -1.0578  -1.0454  -1.0140  -0.9744
    -0.9586  -0.9461  -0.9241  -0.9056  -0.8917  -0.8750  -0.8522  -0.7659
    -0.7423  -0.7363  -0.7165  -0.7046  -0.6976  -0.6896  -0.6842  -0.6738
    -0.6648  -0.6351  -0.5564  -0.5483  -0.5372  -0.5288  -0.5231  -0.5118
    -0.5000  -0.4878  -0.4636  -0.4560  -0.4452  -0.4206  -0.3686  -0.3514
    -0.3440  -0.3242  -0.3087  -0.2507  -0.2454  -0.2194  -0.2128  -0.1700
    -0.1416  -0.1385  -0.1277  -0.1159  -0.1009  -0.0959  -0.0913  -0.0449
     0.0028   0.0286   0.4959   0.5801   0.9018   1.1072   1.1337   1.3299
     1.4779   1.4923

          k = 0.4000 0.0000 0.0000 ( 36608 PWs)   bands (ev):

   -21.9648  -9.1384  -7.2486  -6.2637  -6.0265  -5.9306  -5.6788  -5.4854
    -5.3471  -5.0012  -4.7408  -4.6311  -4.4907  -4.4755  -4.3212  -4.2631
    -4.2540  -4.1633  -4.1565  -4.0624  -4.0340  -3.9944  -3.8879  -3.8643
    -3.8152  -3.7698  -3.6775  -3.6655  -3.6406  -3.6278  -3.6210  -3.6151
    -3.5806  -3.5724  -3.5327  -3.5080  -3.4713  -3.4307  -3.4262  -3.3768
    -3.2876  -3.2279  -3.2051  -3.1848  -3.1596  -3.1444  -3.0908  -3.0443
    -3.0059  -2.9836  -2.9677  -2.9514  -2.9379  -2.9076  -2.9006  -2.8741
    -2.8601  -2.8359  -2.7486  -2.7147  -2.6786  -2.6583  -2.6472  -2.6274
    -2.5997  -2.5564  -2.4918  -2.4247  -2.4099  -2.3804  -2.3667  -2.3345
    -2.3211  -2.3120  -2.3050  -2.2823  -2.2686  -2.2543  -2.2427  -2.2376
    -2.2285  -2.1782  -2.1517  -2.1110  -2.0583  -2.0530  -2.0293  -2.0152
    -2.0081  -1.9850  -1.9582  -1.9497  -1.9392  -1.9154  -1.8978  -1.8964
    -1.8891  -1.8771  -1.8721  -1.8532  -1.8440  -1.8344  -1.8205  -1.8100
    -1.7933  -1.7823  -1.7552  -1.7144  -1.7062  -1.6671  -1.6628  -1.6588
    -1.6503  -1.6351  -1.6050  -1.5719  -1.5542  -1.5474  -1.5293  -1.4964
    -1.4928  -1.4825  -1.4686  -1.4512  -1.4308  -1.4225  -1.4106  -1.3622
    -1.3490  -1.3217  -1.3038  -1.2335  -1.2118  -1.1815  -1.1650  -1.0912
    -1.0673  -1.0465  -1.0362  -1.0293  -1.0240  -1.0171  -0.9884  -0.9808
    -0.9652  -0.9531  -0.9296  -0.8897  -0.8824  -0.8603  -0.8494  -0.8362
    -0.8114  -0.7933  -0.7801  -0.7654  -0.7539  -0.7399  -0.6224  -0.5988
    -0.5959  -0.5745  -0.5601  -0.5484  -0.5338  -0.5251  -0.5075  -0.5011
    -0.4818  -0.4588  -0.4311  -0.4214  -0.3986  -0.3863  -0.3482  -0.3321
    -0.3218  -0.3197  -0.3152  -0.2906  -0.2809  -0.2724  -0.2681  -0.2526
    -0.2402  -0.1663  -0.1518  -0.1487  -0.1046  -0.0989  -0.0837   0.0389
     0.1571   0.2412   0.2648   0.4304   0.5299   0.6455   1.0099   1.1266
     1.2383   1.4292

          k = 0.4000 0.2309 0.0000 ( 36606 PWs)   bands (ev):

   -21.9648  -9.1317  -7.1165  -6.4725  -6.1579  -5.8602  -5.4655  -5.3947
    -5.2032  -5.1520  -5.0703  -4.8243  -4.3517  -4.3106  -4.2931  -4.2339
    -4.1884  -4.1215  -4.1173  -4.0080  -3.9847  -3.9797  -3.9175  -3.8320
    -3.8000  -3.7913  -3.7882  -3.7830  -3.6963  -3.6851  -3.6669  -3.6558
    -3.5198  -3.5150  -3.5017  -3.4716  -3.4678  -3.4184  -3.3603  -3.3549
    -3.3400  -3.3295  -3.3001  -3.2121  -3.1300  -3.0896  -3.0372  -3.0126
    -3.0010  -2.9721  -2.9559  -2.9523  -2.9392  -2.9167  -2.8888  -2.8558
    -2.8436  -2.8213  -2.7882  -2.7371  -2.6428  -2.6332  -2.6191  -2.5848
    -2.5584  -2.5209  -2.4989  -2.4957  -2.4815  -2.4122  -2.3593  -2.3542
    -2.3499  -2.3429  -2.3292  -2.3133  -2.2977  -2.2919  -2.2667  -2.2292
    -2.2157  -2.1964  -2.1791  -2.1620  -2.1218  -2.1056  -2.0589  -2.0399
    -2.0268  -2.0137  -1.9955  -1.9773  -1.9551  -1.9209  -1.9145  -1.9037
    -1.8919  -1.8807  -1.8661  -1.8543  -1.8415  -1.8338  -1.8265  -1.7979
    -1.7840  -1.7625  -1.7327  -1.7196  -1.6565  -1.6426  -1.6139  -1.6009
    -1.5812  -1.5681  -1.5476  -1.5081  -1.5047  -1.4962  -1.4878  -1.4803
    -1.4727  -1.4645  -1.4519  -1.4480  -1.4404  -1.4275  -1.4014  -1.3946
    -1.3804  -1.3680  -1.3220  -1.2702  -1.2547  -1.2437  -1.2244  -1.2019
    -1.1838  -1.1331  -1.1116  -1.0958  -1.0788  -1.0504  -1.0367  -0.9991
    -0.9753  -0.9450  -0.9244  -0.9173  -0.8854  -0.8582  -0.8359  -0.7962
    -0.7293  -0.7207  -0.7069  -0.6980  -0.6939  -0.6827  -0.6757  -0.6649
    -0.6576  -0.6520  -0.5517  -0.5447  -0.5397  -0.5253  -0.5157  -0.4955
    -0.4885  -0.4832  -0.4666  -0.4562  -0.4414  -0.4224  -0.3593  -0.3452
    -0.3386  -0.3271  -0.2930  -0.2488  -0.2480  -0.2118  -0.2096  -0.1699
    -0.1464  -0.1293  -0.1252  -0.1032  -0.1007  -0.0955  -0.0780  -0.0565
     0.0028   0.0259   0.3939   0.6580   0.8837   1.0357   1.1322   1.2067
     1.4748   1.5459

          k = 0.4000-0.6928 0.0000 ( 36660 PWs)   bands (ev):

   -21.9648  -9.1274  -6.7577  -6.6746  -6.1538  -5.9378  -5.8566  -5.4063
    -5.2134  -5.1860  -4.9312  -4.6440  -4.4700  -4.2237  -4.1778  -4.0522
    -4.0464  -4.0231  -4.0146  -3.9942  -3.9655  -3.9417  -3.9370  -3.9292
    -3.9174  -3.8105  -3.7918  -3.7835  -3.7642  -3.7479  -3.7308  -3.6239
    -3.6009  -3.5960  -3.5809  -3.5573  -3.4962  -3.4377  -3.3387  -3.3057
    -3.3021  -3.2793  -3.2083  -3.1988  -3.1717  -3.1260  -3.0870  -3.0849
    -3.0634  -3.0038  -2.9941  -2.9218  -2.8910  -2.8648  -2.8555  -2.8035
    -2.7846  -2.7268  -2.7192  -2.7122  -2.6998  -2.6921  -2.6442  -2.6266
    -2.5514  -2.5054  -2.4974  -2.4813  -2.4699  -2.4329  -2.4139  -2.3583
    -2.3491  -2.3192  -2.3125  -2.2976  -2.2903  -2.2675  -2.2474  -2.2357
    -2.2211  -2.2112  -2.1854  -2.1793  -2.1685  -2.1504  -2.1047  -2.0871
    -2.0727  -2.0488  -2.0050  -1.9708  -1.9548  -1.9332  -1.9198  -1.9129
    -1.8927  -1.8856  -1.8800  -1.8588  -1.8422  -1.8369  -1.8241  -1.7643
    -1.7477  -1.7408  -1.7276  -1.7137  -1.7025  -1.6998  -1.6867  -1.6831
    -1.6774  -1.6685  -1.6454  -1.6383  -1.5881  -1.5667  -1.5601  -1.5293
    -1.5018  -1.4778  -1.4583  -1.4251  -1.4117  -1.4019  -1.3902  -1.3736
    -1.3263  -1.3233  -1.2961  -1.2474  -1.1960  -1.1885  -1.1772  -1.1546
    -1.1347  -1.1215  -1.1142  -1.0935  -1.0839  -1.0593  -1.0377  -1.0118
    -0.9776  -0.9708  -0.9473  -0.9296  -0.9191  -0.8821  -0.8668  -0.8617
    -0.8400  -0.8262  -0.8096  -0.7948  -0.7721  -0.7598  -0.7321  -0.5767
    -0.5627  -0.5555  -0.5472  -0.5369  -0.5332  -0.5163  -0.5090  -0.4734
    -0.4649  -0.4546  -0.4511  -0.4313  -0.3827  -0.3294  -0.3237  -0.3118
    -0.3035  -0.2892  -0.2734  -0.2412  -0.2300  -0.2214  -0.2126  -0.2037
    -0.1953  -0.1778  -0.1227  -0.1164  -0.1027  -0.0937  -0.0701  -0.0377
     0.1534   0.2763   0.5644   0.7933   0.9909   1.1811   1.2343   1.5748
     1.6822   1.7181

          k = 0.4000-0.4619 0.0000 ( 36660 PWs)   bands (ev):

   -21.9648  -9.1312  -6.7312  -6.6883  -6.1392  -6.0122  -5.6931  -5.5286
    -5.2409  -5.1917  -4.8734  -4.6461  -4.4722  -4.2272  -4.1766  -4.0796
    -4.0478  -4.0366  -4.0162  -4.0117  -3.9628  -3.9482  -3.9376  -3.9363
    -3.9067  -3.8518  -3.7868  -3.7799  -3.7562  -3.7528  -3.7055  -3.6135
    -3.6013  -3.5945  -3.5712  -3.5189  -3.4603  -3.4386  -3.3686  -3.3061
    -3.2989  -3.2484  -3.2197  -3.1999  -3.1734  -3.1213  -3.0870  -3.0809
    -3.0435  -3.0201  -2.9944  -2.9252  -2.8909  -2.8633  -2.8541  -2.8118
    -2.8018  -2.7258  -2.7185  -2.7064  -2.6961  -2.6850  -2.6626  -2.6416
    -2.5568  -2.5101  -2.4969  -2.4817  -2.4560  -2.4241  -2.4041  -2.3603
    -2.3562  -2.3161  -2.3070  -2.3044  -2.2944  -2.2740  -2.2478  -2.2452
    -2.2272  -2.2179  -2.2006  -2.1736  -2.1711  -2.1402  -2.0955  -2.0800
    -2.0632  -2.0286  -2.0027  -1.9785  -1.9590  -1.9346  -1.9228  -1.9118
    -1.8949  -1.8836  -1.8775  -1.8687  -1.8559  -1.8321  -1.8268  -1.7939
    -1.7632  -1.7401  -1.7301  -1.7205  -1.7026  -1.6971  -1.6908  -1.6803
    -1.6705  -1.6641  -1.6461  -1.6144  -1.5817  -1.5714  -1.5522  -1.5321
    -1.4781  -1.4736  -1.4484  -1.4313  -1.4159  -1.4049  -1.3907  -1.3702
    -1.3356  -1.3187  -1.2944  -1.2637  -1.2068  -1.1811  -1.1729  -1.1519
    -1.1382  -1.1261  -1.1175  -1.0867  -1.0686  -1.0525  -1.0378  -1.0248
    -0.9776  -0.9605  -0.9451  -0.9376  -0.9228  -0.8752  -0.8654  -0.8484
    -0.8427  -0.8244  -0.8190  -0.8016  -0.7740  -0.7581  -0.7257  -0.5871
    -0.5652  -0.5612  -0.5490  -0.5343  -0.5287  -0.5189  -0.5072  -0.4832
    -0.4652  -0.4516  -0.4431  -0.4362  -0.3929  -0.3458  -0.3230  -0.3164
    -0.3047  -0.2936  -0.2756  -0.2638  -0.2280  -0.2201  -0.2137  -0.2013
    -0.1962  -0.1303  -0.1232  -0.1148  -0.1033  -0.0922  -0.0712  -0.0391
     0.1338   0.2561   0.4852   0.8713   1.0937   1.1777   1.2868   1.5161
     1.6771   1.7238

 ------ SPIN DOWN ----------


          k = 0.0000 0.0000 0.0000 ( 36693 PWs)   bands (ev):

   -22.0493  -9.2446  -7.7931  -6.5758  -5.8045  -5.6377  -5.4101  -4.9409
    -4.6381  -4.6265  -4.6244  -4.5996  -4.5908  -4.5732  -4.1915  -3.7556
    -3.7535  -3.7357  -3.7249  -3.7117  -3.6637  -3.3168  -2.8162  -2.8062
    -2.7956  -2.7925  -2.7231  -2.5811  -2.3488  -2.3364  -2.3312  -2.3265
    -2.3060  -2.2173  -2.1370  -2.1330  -2.0668  -2.0493  -2.0383  -2.0371
    -1.9549  -1.9500  -1.9031  -1.8991  -1.8384  -1.8144  -1.8001  -1.7904
    -1.7517  -1.7298  -1.5534  -1.5471  -1.5329  -1.5269  -1.5168  -1.5133
    -1.4994  -1.4985  -1.4675  -1.4584  -1.4298  -1.4238  -1.4208  -1.4192
    -1.3526  -1.2499  -0.9046  -0.8698  -0.8438  -0.8407  -0.7947  -0.7380
    -0.6483  -0.6303  -0.5429  -0.5318  -0.5233  -0.5157  -0.5046  -0.4891
    -0.4683  -0.4604  -0.4372  -0.4322  -0.4236  -0.4227  -0.3756  -0.3628
    -0.3546  -0.3260  -0.3126  -0.2985  -0.2841  -0.2807  -0.2647  -0.2617
    -0.2558  -0.2487  -0.2379  -0.2335  -0.2327  -0.2310  -0.2010  -0.1511
    -0.1305  -0.1147  -0.0986  -0.0607  -0.0298  -0.0166  -0.0069  -0.0035
    -0.0013   0.0014   0.0075   0.0586   0.0757   0.0768   0.1237   0.1494
     0.1603   0.1672   0.1754   0.2090   0.2588   0.3854   0.3963   0.4474
     0.4571   0.4705   0.4768   0.4840   0.6120   0.6829   0.7705   0.8030
     0.8206   0.8634   0.9842   1.0071   1.0269   1.0370   1.0462   1.0518
     1.0964   1.1671   1.1933   1.2137   1.2175   1.2261   1.2350   1.2566
     1.2640   1.2757   1.2864   1.3047   1.3189   1.3274   1.3310   1.3644
     1.3660   1.3753   1.3793   1.3911   1.4146   1.4326   1.4366   1.4460
     1.4591   1.4643   1.4803   1.4922   1.4953   1.5054   1.5089   1.5430
     1.5527   1.5680   1.5704   1.5763   1.5837   1.5895   1.5967   1.6337
     1.6400   1.6406   1.6442   1.6486   1.6519   1.6623   1.6706   1.6768
     1.6794   1.7255   1.7263   1.8684   1.8744   1.8765   1.8809   1.8830
     1.8845   2.0600

          k = 0.0000 0.2309 0.0000 ( 36641 PWs)   bands (ev):

   -22.0493  -9.2330  -7.6519  -6.4731  -5.8733  -5.6706  -5.5254  -5.3792
    -5.0174  -4.9860  -4.8334  -4.4095  -4.1796  -4.0725  -4.0585  -3.9311
    -3.8192  -3.7755  -3.4696  -3.3962  -3.3206  -3.2560  -2.9737  -2.7877
    -2.7671  -2.7395  -2.6818  -2.5775  -2.4522  -2.3683  -2.3649  -2.3546
    -2.3203  -2.2886  -2.2800  -2.2781  -2.2291  -2.1829  -2.0985  -2.0959
    -2.0117  -2.0092  -1.9647  -1.8455  -1.8307  -1.8160  -1.7967  -1.7049
    -1.6726  -1.6491  -1.6052  -1.5681  -1.5572  -1.5321  -1.5214  -1.5174
    -1.4988  -1.4886  -1.4135  -1.3934  -1.3806  -1.3595  -1.3296  -1.2920
    -1.2335  -1.1541  -0.9600  -0.9148  -0.8972  -0.8895  -0.8376  -0.7737
    -0.7668  -0.7143  -0.6811  -0.6377  -0.6191  -0.5770  -0.5478  -0.5381
    -0.5045  -0.4965  -0.4765  -0.4666  -0.4619  -0.4485  -0.4264  -0.3793
    -0.3404  -0.3213  -0.3106  -0.3079  -0.3022  -0.2651  -0.2540  -0.2418
    -0.2327  -0.2220  -0.2184  -0.2124  -0.2090  -0.2069  -0.1831  -0.1596
    -0.1334  -0.1271  -0.1071  -0.1019  -0.0955  -0.0795  -0.0546  -0.0301
    -0.0132  -0.0013   0.0393   0.0693   0.0948   0.1119   0.1157   0.1429
     0.2414   0.2675   0.3004   0.3476   0.3660   0.3749   0.4143   0.4332
     0.4385   0.4441   0.4548   0.4630   0.5886   0.7113   0.7666   0.7833
     0.7960   0.8070   0.8189   0.8341   0.8714   0.8905   0.9434   0.9708
     1.0171   1.0357   1.0634   1.0914   1.1041   1.1266   1.1479   1.1488
     1.2180   1.2363   1.2555   1.2656   1.2786   1.2927   1.3296   1.3378
     1.3539   1.3716   1.4113   1.4307   1.4458   1.4517   1.4767   1.5027
     1.5214   1.5306   1.5363   1.5402   1.5607   1.6075   1.6195   1.6276
     1.6330   1.6585   1.6650   1.6943   1.7021   1.7083   1.7153   1.7233
     1.7408   1.7853   1.7894   1.8046   1.8064   1.8150   1.8247   1.8444
     1.8579   1.8669   1.8725   1.8935   1.9622   1.9755   1.9799   2.0370
     2.0554   2.1094

          k = 0.0000 0.4619 0.0000 ( 36606 PWs)   bands (ev):

   -22.0493  -9.2146  -7.2325  -6.5634  -6.1978  -5.8523  -5.5669  -5.4012
    -5.2126  -5.1564  -5.0700  -4.6459  -4.1281  -4.0399  -3.7876  -3.4597
    -3.4523  -3.3886  -3.3275  -3.1473  -3.1041  -3.0112  -2.9748  -2.8553
    -2.8508  -2.7827  -2.7454  -2.7071  -2.6425  -2.6143  -2.5885  -2.5614
    -2.5331  -2.4386  -2.3266  -2.3102  -2.2386  -2.2122  -2.1206  -2.1143
    -2.1079  -2.0774  -2.0471  -1.8263  -1.8051  -1.7964  -1.7523  -1.7201
    -1.6053  -1.5954  -1.5790  -1.5642  -1.5560  -1.5269  -1.5216  -1.4972
    -1.4800  -1.4140  -1.4094  -1.3845  -1.3612  -1.3472  -1.2074  -1.1793
    -1.0730  -1.0489  -0.9585  -0.9362  -0.9168  -0.8820  -0.8639  -0.8583
    -0.8346  -0.8037  -0.7828  -0.7639  -0.7207  -0.6893  -0.6743  -0.6369
    -0.6167  -0.5987  -0.5716  -0.5601  -0.5273  -0.4896  -0.4591  -0.4142
    -0.3933  -0.3832  -0.3569  -0.3211  -0.2893  -0.2680  -0.2497  -0.2292
    -0.2055  -0.1983  -0.1874  -0.1666  -0.1587  -0.1541  -0.1358  -0.1227
    -0.0965  -0.0839  -0.0676  -0.0513  -0.0445  -0.0426  -0.0299  -0.0098
     0.0100   0.0302   0.0794   0.1324   0.1571   0.1589   0.1709   0.2078
     0.2210   0.2257   0.2489   0.2891   0.3138   0.3223   0.3385   0.3634
     0.3905   0.4045   0.4196   0.4286   0.4690   0.5561   0.5839   0.6029
     0.6501   0.6779   0.7393   0.8013   0.8295   0.8581   0.8752   0.8944
     0.9174   0.9376   0.9611   0.9757   1.0036   1.1080   1.1275   1.1768
     1.1884   1.2169   1.2507   1.2524   1.2890   1.3061   1.3302   1.3496
     1.3782   1.3929   1.3990   1.4644   1.4906   1.5096   1.5346   1.5411
     1.5500   1.5556   1.5791   1.5955   1.6214   1.6273   1.6409   1.6701
     1.6765   1.7070   1.7738   1.7787   1.7952   1.7991   1.8154   1.8290
     1.8395   1.8676   1.8740   1.8855   1.9029   1.9069   1.9163   1.9198
     1.9650   2.0142   2.0453   2.1263   2.1464   2.2279   2.5482   2.6131
     2.6547   2.6912

          k = 0.2000-0.1155 0.0000 ( 36641 PWs)   bands (ev):

   -22.0493  -9.2346  -7.6509  -6.4716  -5.8488  -5.6725  -5.5467  -5.3761
    -5.0330  -4.9771  -4.8227  -4.4626  -4.0998  -4.0745  -4.0523  -3.9484
    -3.8530  -3.7625  -3.4512  -3.3990  -3.3783  -3.2500  -2.9266  -2.8047
    -2.7720  -2.7168  -2.6794  -2.6081  -2.4288  -2.3700  -2.3664  -2.3459
    -2.3241  -2.2830  -2.2782  -2.2726  -2.2269  -2.1990  -2.1018  -2.0951
    -2.0108  -2.0077  -1.9443  -1.8695  -1.8324  -1.8171  -1.8101  -1.7020
    -1.6739  -1.6534  -1.6021  -1.5729  -1.5520  -1.5324  -1.5234  -1.5140
    -1.5052  -1.4977  -1.4069  -1.3948  -1.3813  -1.3648  -1.3256  -1.2832
    -1.2399  -1.1461  -0.9635  -0.9225  -0.8948  -0.8908  -0.8326  -0.7916
    -0.7328  -0.7074  -0.6824  -0.6385  -0.6180  -0.5712  -0.5523  -0.5409
    -0.5058  -0.4944  -0.4816  -0.4773  -0.4657  -0.4406  -0.4110  -0.3817
    -0.3548  -0.3137  -0.3097  -0.3029  -0.2907  -0.2690  -0.2506  -0.2386
    -0.2309  -0.2287  -0.2209  -0.2131  -0.2097  -0.2083  -0.1767  -0.1596
    -0.1425  -0.1277  -0.1152  -0.1035  -0.0808  -0.0677  -0.0521  -0.0286
    -0.0224   0.0053   0.0288   0.0556   0.1001   0.1113   0.1245   0.1426
     0.2342   0.2594   0.2946   0.3493   0.3664   0.3689   0.4262   0.4317
     0.4382   0.4464   0.4549   0.4590   0.5956   0.7017   0.7747   0.7876
     0.7957   0.7989   0.8171   0.8253   0.8821   0.8909   0.9417   0.9666
     1.0130   1.0328   1.0605   1.0734   1.0981   1.1172   1.1448   1.2021
     1.2148   1.2352   1.2503   1.2624   1.2822   1.2886   1.3298   1.3372
     1.3586   1.3784   1.4167   1.4255   1.4424   1.4518   1.4720   1.4833
     1.5173   1.5323   1.5345   1.5375   1.5668   1.6192   1.6223   1.6328
     1.6367   1.6617   1.6645   1.6933   1.6985   1.7065   1.7138   1.7200
     1.7423   1.7837   1.7886   1.8022   1.8056   1.8154   1.8262   1.8439
     1.8646   1.8690   1.8726   1.9086   1.9635   1.9763   1.9775   2.0307
     2.0587   2.1210

          k = 0.2000 0.1155 0.0000 ( 36641 PWs)   bands (ev):

   -22.0493  -9.2325  -7.6525  -6.4746  -5.8939  -5.6606  -5.4862  -5.4072
    -5.0125  -4.9852  -4.8489  -4.3620  -4.1971  -4.0759  -4.0588  -3.9633
    -3.8057  -3.7746  -3.4718  -3.4035  -3.3034  -3.2413  -2.9814  -2.8158
    -2.7623  -2.7241  -2.6990  -2.5542  -2.4586  -2.3714  -2.3632  -2.3474
    -2.3302  -2.2952  -2.2817  -2.2767  -2.2402  -2.1674  -2.0977  -2.0952
    -2.0123  -2.0095  -1.9623  -1.8600  -1.8188  -1.8130  -1.7945  -1.6948
    -1.6810  -1.6568  -1.5961  -1.5824  -1.5548  -1.5323  -1.5180  -1.5135
    -1.5097  -1.4639  -1.4316  -1.3891  -1.3802  -1.3594  -1.3297  -1.2895
    -1.2311  -1.1603  -0.9643  -0.9199  -0.8981  -0.8838  -0.8298  -0.8061
    -0.7711  -0.6872  -0.6686  -0.6444  -0.6282  -0.5758  -0.5579  -0.5295
    -0.5075  -0.4942  -0.4777  -0.4681  -0.4646  -0.4455  -0.4354  -0.3664
    -0.3395  -0.3197  -0.3121  -0.3068  -0.2984  -0.2610  -0.2481  -0.2408
    -0.2353  -0.2238  -0.2180  -0.2157  -0.2097  -0.2082  -0.1776  -0.1605
    -0.1413  -0.1262  -0.1085  -0.1034  -0.0961  -0.0735  -0.0540  -0.0379
    -0.0134   0.0054   0.0454   0.0793   0.0870   0.1113   0.1134   0.1430
     0.2169   0.2812   0.3075   0.3423   0.3580   0.3824   0.4150   0.4262
     0.4400   0.4452   0.4582   0.4632   0.6223   0.6872   0.7673   0.7825
     0.7988   0.8043   0.8210   0.8342   0.8667   0.8893   0.9429   0.9647
     0.9869   1.0530   1.0702   1.0873   1.1042   1.1331   1.1453   1.1530
     1.2150   1.2441   1.2551   1.2716   1.2859   1.2873   1.3281   1.3370
     1.3503   1.3776   1.4163   1.4343   1.4410   1.4524   1.4740   1.5001
     1.5173   1.5310   1.5375   1.5486   1.5551   1.6038   1.6135   1.6268
     1.6369   1.6590   1.6645   1.6950   1.7032   1.7096   1.7138   1.7237
     1.7423   1.7853   1.7899   1.8037   1.8053   1.8159   1.8263   1.8426
     1.8595   1.8657   1.8735   1.8839   1.9615   1.9736   1.9810   2.0305
     2.0598   2.1067

          k = 0.2000 0.3464 0.0000 ( 36608 PWs)   bands (ev):

   -22.0493  -9.2170  -7.3730  -6.3085  -6.1209  -5.9969  -5.6891  -5.4883
    -5.3996  -4.8973  -4.7144  -4.4113  -4.2693  -4.2626  -3.8939  -3.4405
    -3.4253  -3.4194  -3.3980  -3.2455  -3.1598  -3.1235  -3.1168  -2.9122
    -2.7562  -2.6844  -2.6706  -2.6660  -2.5878  -2.5565  -2.5221  -2.4722
    -2.4646  -2.4516  -2.4341  -2.3373  -2.3094  -2.2399  -2.0814  -2.0704
    -2.0320  -1.9975  -1.9573  -1.9424  -1.9176  -1.7925  -1.7378  -1.7184
    -1.6145  -1.6009  -1.5656  -1.5530  -1.5472  -1.5324  -1.5116  -1.4984
    -1.4888  -1.4753  -1.4057  -1.3763  -1.3226  -1.2927  -1.2068  -1.1563
    -1.1068  -1.0600  -0.9965  -0.9605  -0.8960  -0.8694  -0.8500  -0.8218
    -0.7964  -0.7749  -0.7625  -0.7128  -0.6909  -0.6751  -0.6695  -0.6432
    -0.6273  -0.6071  -0.5838  -0.5575  -0.5453  -0.4687  -0.4212  -0.4060
    -0.3936  -0.3807  -0.3495  -0.3235  -0.3169  -0.2894  -0.2810  -0.2619
    -0.2526  -0.2315  -0.2177  -0.2058  -0.1937  -0.1677  -0.1537  -0.1294
    -0.1187  -0.1042  -0.0953  -0.0843  -0.0762  -0.0607  -0.0509  -0.0343
     0.0210   0.0428   0.0593   0.0771   0.1651   0.1848   0.2028   0.2321
     0.2562   0.2625   0.2969   0.3046   0.3595   0.3710   0.3888   0.3918
     0.4024   0.4243   0.4772   0.4906   0.5363   0.5967   0.6717   0.7027
     0.7543   0.7914   0.8096   0.8364   0.8442   0.8493   0.8611   0.8994
     0.9055   0.9220   0.9286   0.9472   0.9822   1.0453   1.0873   1.1001
     1.1380   1.1508   1.1566   1.1825   1.2068   1.2519   1.2653   1.2981
     1.3429   1.4144   1.4528   1.4969   1.5086   1.5252   1.5438   1.5581
     1.5701   1.5795   1.5961   1.6072   1.6581   1.6783   1.6826   1.6904
     1.7032   1.7298   1.7447   1.7573   1.7625   1.7788   1.7849   1.8138
     1.8206   1.8266   1.8385   1.8566   1.8619   1.8847   1.9140   1.9435
     1.9594   1.9646   2.0503   2.0865   2.1944   2.2247   2.2873   2.5237
     2.5464   2.5557

          k = 0.2000-0.5774 0.0000 ( 36660 PWs)   bands (ev):

   -22.0493  -9.2098  -6.8551  -6.7881  -6.2154  -6.0201  -5.8171  -5.4877
    -5.2563  -5.2270  -4.8350  -4.4643  -4.3041  -3.7274  -3.5298  -3.4591
    -3.4567  -3.3593  -3.2060  -3.1208  -3.0488  -3.0346  -3.0270  -2.9029
    -2.8967  -2.8829  -2.8611  -2.8488  -2.7156  -2.6488  -2.5221  -2.5023
    -2.4852  -2.4712  -2.4289  -2.4212  -2.3813  -2.3161  -2.1923  -2.0537
    -1.9710  -1.9642  -1.9440  -1.9071  -1.8721  -1.7900  -1.7237  -1.7088
    -1.6823  -1.6666  -1.6538  -1.5636  -1.5194  -1.4885  -1.4765  -1.4665
    -1.4367  -1.3838  -1.3359  -1.3197  -1.2799  -1.2551  -1.2408  -1.1359
    -1.0884  -1.0496  -0.9574  -0.9404  -0.9276  -0.8717  -0.8629  -0.8267
    -0.8019  -0.7890  -0.7625  -0.7494  -0.7303  -0.6866  -0.6738  -0.6491
[...]
     atom    8 type  1   force =    -0.00051311   -0.00316663   -0.10259398
     atom    9 type  1   force =    -0.00097949    0.00194531   -0.10326398
     atom   10 type  1   force =     0.00065586   -0.00120319   -0.01690163
     atom   11 type  1   force =     0.00024235   -0.00144380   -0.01070335
     atom   12 type  1   force =    -0.00071864    0.00193095   -0.01186967
     atom   13 type  1   force =     0.00026776    0.00239939   -0.01046584
     atom   14 type  1   force =     0.00069012    0.00032877   -0.00682235
     atom   15 type  1   force =    -0.00141195   -0.00032605   -0.01048422
     atom   16 type  1   force =     0.00076650   -0.00233965   -0.01339157
     atom   17 type  1   force =     0.00060464    0.00052420   -0.00928363
     atom   18 type  1   force =    -0.00074690   -0.00050786   -0.01362224
     atom   19 type  1   force =    -0.00117754   -0.00078572    0.01109939
     atom   20 type  1   force =    -0.00734430    0.00076962   -0.00047613
     atom   21 type  1   force =     0.00976898   -0.00784286   -0.00110127
     atom   22 type  1   force =     0.00039187   -0.00023203    0.01330453
     atom   23 type  1   force =    -0.00309556    0.00914889    0.00098857
     atom   24 type  1   force =     0.00177435   -0.00115143    0.01421374
     atom   25 type  1   force =     0.00060585    0.00026685    0.02066678
     atom   26 type  1   force =    -0.00532825    0.00015022    0.00037836
     atom   27 type  1   force =     0.00515397   -0.00091988    0.01025206
     atom   28 type  1   force =    -0.00023228    0.00145239    0.11475610
     atom   29 type  1   force =     0.01262614    0.04973580    0.09318528
     atom   30 type  1   force =    -0.01702303    0.01514646    0.13523857
     atom   31 type  1   force =     0.04209551   -0.02203525    0.13720089
     atom   32 type  1   force =    -0.04718309   -0.04619591    0.04971840
     atom   33 type  1   force =    -0.02026036    0.01175562    0.12059493
     atom   34 type  1   force =     0.00987790   -0.00784356    0.12584912
     atom   35 type  1   force =     0.00517666    0.00559264    0.07866655
     atom   36 type  1   force =    -0.00096432   -0.00266304    0.10717445
     atom   37 type  2   force =    -0.08843038   -0.00190067    0.42530756
     atom   38 type  3   force =     0.28460025    0.12467849   -2.69641712
     atom   39 type  4   force =    -0.00409728   -0.00112902   -0.02286546
     The ionic contribution  to forces
     atom    1 type  1   force =    -0.00557949    0.00004975 -111.13076069
     atom    2 type  1   force =    -0.00391690    0.00049272 -111.14981040
     atom    3 type  1   force =     0.00949631   -0.00119144 -111.13855572
     atom    4 type  1   force =    -0.00435579    0.00576302 -111.13061117
     atom    5 type  1   force =     0.00134717    0.00854752 -111.13664581
     atom    6 type  1   force =     0.00300859    0.00013073 -111.12797550
     atom    7 type  1   force =     0.00088244   -0.00058611 -111.12519588
     atom    8 type  1   force =    -0.00510238   -0.00461073 -111.13355547
     atom    9 type  1   force =     0.00422000   -0.00859544 -111.13534727
     atom   10 type  1   force =    -0.03729873   -0.01604174  -40.06151579
     atom   11 type  1   force =    -0.01585929   -0.05879737  -40.16862391
     atom   12 type  1   force =     0.05314321   -0.04031399  -40.09181907
     atom   13 type  1   force =    -0.06271197    0.03200597  -40.13496027
     atom   14 type  1   force =     0.03380208    0.03331485  -40.19405370
     atom   15 type  1   force =     0.02891719    0.00588487  -40.06919524
     atom   16 type  1   force =    -0.01336179    0.04949224  -40.06898419
     atom   17 type  1   force =     0.00847871    0.01022353  -40.07837584
     atom   18 type  1   force =     0.00489057   -0.01576988  -40.05214764
     atom   19 type  1   force =    -0.27317927    0.00430649   31.55445571
     atom   20 type  1   force =    -0.21358748    0.04276287   30.51137334
     atom   21 type  1   force =     0.48325086   -0.07270704   31.18453424
     atom   22 type  1   force =    -0.20357985    0.27282786   31.56364239
     atom   23 type  1   force =     0.05124956    0.42830528   31.26210950
     atom   24 type  1   force =     0.15061131    0.01521640   31.65196074
     atom   25 type  1   force =     0.03826150   -0.02396773   31.78209295
     atom   26 type  1   force =    -0.24676168   -0.23430112   31.42940594
     atom   27 type  1   force =     0.20979776   -0.43022817   31.33309578
     atom   28 type  1   force =    -1.26974461   -0.54677269  104.16495490
     atom   29 type  1   force =    -1.12526258   -4.44339528   99.27789510
     atom   30 type  1   force =     2.07844084   -1.43150820  103.47268651
     atom   31 type  1   force =    -3.30905926    1.85734164  101.63918905
     atom   32 type  1   force =     2.31347788    2.31800053   98.31204096
     atom   33 type  1   force =     1.20935408   -0.04710165  104.03589656
     atom   34 type  1   force =    -0.45435625    1.59962143  104.10469252
     atom   35 type  1   force =     0.41298852    1.01345244  103.60282663
     atom   36 type  1   force =     0.16058423   -0.49553693  104.42203970
     atom   37 type  2   force =     0.58193707    0.29237500   51.10714789
     atom   38 type  3   force =    -1.15899313   -0.51555661   89.60651038
     atom   39 type  4   force =     0.56457054    0.39686700   15.10958279
     The local contribution  to forces
     atom    1 type  1   force =     0.00605667   -0.00113002  111.23486770
     atom    2 type  1   force =     0.00472429   -0.00244522  111.25536566
     atom    3 type  1   force =    -0.01074732    0.00408202  111.24470294
     atom    4 type  1   force =     0.00321367   -0.00314169  111.23746019
     atom    5 type  1   force =     0.00024502   -0.01152637  111.24342716
     atom    6 type  1   force =    -0.00295563   -0.00024253  111.22974036
     atom    7 type  1   force =    -0.00202997    0.00006114  111.22917156
     atom    8 type  1   force =     0.00645841    0.00708970  111.23948463
     atom    9 type  1   force =    -0.00397383    0.00672501  111.23974921
     atom   10 type  1   force =     0.03750780    0.01644681   40.05823913
     atom   11 type  1   force =     0.01346509    0.05962273   40.15870696
     atom   12 type  1   force =    -0.05152482    0.03736859   40.08626896
     atom   13 type  1   force =     0.06136771   -0.03450194   40.12759704
     atom   14 type  1   force =    -0.03396193   -0.03208107   40.17928461
     atom   15 type  1   force =    -0.02726409   -0.00646151   40.05922693
     atom   16 type  1   force =     0.01333255   -0.04655873   40.06243155
     atom   17 type  1   force =    -0.00896881   -0.01025860   40.06734362
     atom   18 type  1   force =    -0.00314348    0.01662038   40.04389988
     atom   19 type  1   force =     0.27193646   -0.00369056  -31.54311385
     atom   20 type  1   force =     0.22151008   -0.04339637  -30.49617945
     atom   21 type  1   force =    -0.49100156    0.07721810  -31.16974635
     atom   22 type  1   force =     0.20323475   -0.27066347  -31.55661787
     atom   23 type  1   force =    -0.04969809   -0.43711255  -31.24983816
     atom   24 type  1   force =    -0.15157856   -0.01312172  -31.64440703
     atom   25 type  1   force =    -0.04018753    0.02342698  -31.77772025
     atom   26 type  1   force =     0.25061076    0.23358098  -31.41460699
     atom   27 type  1   force =    -0.21140525    0.43063177  -31.32691927
     atom   28 type  1   force =     1.26766212    0.54435008 -104.28780878
     atom   29 type  1   force =     1.10483026    4.37449035  -99.37211985
     atom   30 type  1   force =    -2.05337796    1.40626068 -103.61729556
     atom   31 type  1   force =     3.25680274   -1.83155919 -101.78044944
     atom   32 type  1   force =    -2.27046282   -2.26968186  -98.34554986
     atom   33 type  1   force =    -1.18492851    0.03456069 -104.16089148
     atom   34 type  1   force =     0.43882325   -1.58333608 -104.23942164
     atom   35 type  1   force =    -0.41545819   -1.00930626 -103.68584426
     atom   36 type  1   force =    -0.15784245    0.49940151 -104.53940199
     atom   37 type  2   force =    -0.49547837   -0.28974287  -51.52969699
     atom   38 type  3   force =     0.87699698    0.39613564  -86.93097979
     atom   39 type  4   force =    -0.54685310   -0.39076993  -15.09357489
     The core correction contribution to forces
     atom    1 type  1   force =     0.00011419    0.00008872    0.01015360
     atom    2 type  1   force =     0.00036318   -0.00009241    0.00981730
     atom    3 type  1   force =    -0.00016002    0.00017152    0.01027055
     atom    4 type  1   force =    -0.00009104   -0.00002971    0.01003706
     atom    5 type  1   force =    -0.00010860   -0.00016681    0.01032370
     atom    6 type  1   force =     0.00009125    0.00015556    0.00999814
     atom    7 type  1   force =     0.00003416    0.00013683    0.01030332
     atom    8 type  1   force =    -0.00006621    0.00001964    0.01022150
     atom    9 type  1   force =    -0.00007463   -0.00007420    0.00996768
     atom   10 type  1   force =    -0.00013161   -0.00006344   -0.00185961
     atom   11 type  1   force =    -0.00004157   -0.00004309   -0.00194154
     atom   12 type  1   force =     0.00012482   -0.00048858   -0.00176764
     atom   13 type  1   force =    -0.00012746   -0.00020258   -0.00189059
     atom   14 type  1   force =     0.00023658    0.00010523   -0.00168278
     atom   15 type  1   force =     0.00010650    0.00011810   -0.00194783
     atom   16 type  1   force =    -0.00015419    0.00031226   -0.00167548
     atom   17 type  1   force =     0.00006738   -0.00022401   -0.00183142
     atom   18 type  1   force =     0.00015539    0.00016205   -0.00166268
     atom   19 type  1   force =     0.00009698   -0.00047543    0.00166796
     atom   20 type  1   force =    -0.00128490   -0.00050285    0.00104343
     atom   21 type  1   force =     0.00074103   -0.00069074    0.00023373
     atom   22 type  1   force =    -0.00022320    0.00072059    0.00135627
     atom   23 type  1   force =     0.00004050    0.00094160    0.00098333
     atom   24 type  1   force =     0.00033674    0.00036944    0.00191960
     atom   25 type  1   force =     0.00017455    0.00002013    0.00196357
     atom   26 type  1   force =    -0.00024043    0.00064684    0.00147405
     atom   27 type  1   force =     0.00067545   -0.00042564    0.00096836
     atom   28 type  1   force =     0.00161750    0.00024869   -0.00949912
     atom   29 type  1   force =     0.00298006    0.00984909   -0.00532361
     atom   30 type  1   force =    -0.00427651    0.00338178   -0.00781089
     atom   31 type  1   force =     0.00697009   -0.00390722   -0.00586944
     atom   32 type  1   force =    -0.00118107   -0.00269563    0.00098592
     atom   33 type  1   force =    -0.00696397    0.00322155   -0.00666593
     atom   34 type  1   force =     0.00319502   -0.00333345   -0.00778763
     atom   35 type  1   force =    -0.00283003   -0.00988243   -0.00561489
     atom   36 type  1   force =    -0.00119355    0.00040112   -0.01029189
     atom   37 type  2   force =     0.00122661   -0.00007154   -0.00250633
     atom   38 type  3   force =    -0.00207834   -0.00095746    0.01964776
     atom   39 type  4   force =     0.00000000    0.00000000    0.00000000
     The Hubbard contrib.    to forces
     atom    1 type  1   force =     0.00000000    0.00000000    0.00000000
     atom    2 type  1   force =     0.00000000    0.00000000    0.00000000
     atom    3 type  1   force =     0.00000000    0.00000000    0.00000000
     atom    4 type  1   force =     0.00000000    0.00000000    0.00000000
     atom    5 type  1   force =     0.00000000    0.00000000    0.00000000
     atom    6 type  1   force =     0.00000000    0.00000000    0.00000000
     atom    7 type  1   force =     0.00000000    0.00000000    0.00000000
     atom    8 type  1   force =     0.00000000    0.00000000    0.00000000
     atom    9 type  1   force =     0.00000000    0.00000000    0.00000000
     atom   10 type  1   force =     0.00000000    0.00000000    0.00000000
     atom   11 type  1   force =     0.00000000    0.00000000    0.00000000
     atom   12 type  1   force =     0.00000000    0.00000000    0.00000000
     atom   13 type  1   force =     0.00000000    0.00000000    0.00000000
     atom   14 type  1   force =     0.00000000    0.00000000    0.00000000
     atom   15 type  1   force =     0.00000000    0.00000000    0.00000000
     atom   16 type  1   force =     0.00000000    0.00000000    0.00000000
     atom   17 type  1   force =     0.00000000    0.00000000    0.00000000
     atom   18 type  1   force =     0.00000000    0.00000000    0.00000000
     atom   19 type  1   force =     0.00000000    0.00000000    0.00000000
     atom   20 type  1   force =     0.00000000    0.00000000    0.00000000
     atom   21 type  1   force =     0.00000000    0.00000000    0.00000000
     atom   22 type  1   force =     0.00000000    0.00000000    0.00000000
     atom   23 type  1   force =     0.00000000    0.00000000    0.00000000
     atom   24 type  1   force =     0.00000000    0.00000000    0.00000000
     atom   25 type  1   force =     0.00000000    0.00000000    0.00000000
     atom   26 type  1   force =     0.00000000    0.00000000    0.00000000
     atom   27 type  1   force =     0.00000000    0.00000000    0.00000000
     atom   28 type  1   force =     0.00000000    0.00000000    0.00000000
     atom   29 type  1   force =     0.00000000    0.00000000    0.00000000
     atom   30 type  1   force =     0.00000000    0.00000000    0.00000000
     atom   31 type  1   force =     0.00000000    0.00000000    0.00000000
     atom   32 type  1   force =     0.00000000    0.00000000    0.00000000
     atom   33 type  1   force =     0.00000000    0.00000000    0.00000000
     atom   34 type  1   force =     0.00000000    0.00000000    0.00000000
     atom   35 type  1   force =     0.00000000    0.00000000    0.00000000
     atom   36 type  1   force =     0.00000000    0.00000000    0.00000000
     atom   37 type  2   force =     0.00000000    0.00000000    0.00000000
     atom   38 type  3   force =     0.00000000    0.00000000    0.00000000
     atom   39 type  4   force =     0.00000000    0.00000000    0.00000000
     The SCF correction term to forces
     atom    1 type  1   force =    -0.00000000    0.00000000    0.00000000
     atom    2 type  1   force =     0.00000000   -0.00000000    0.00000000
     atom    3 type  1   force =    -0.00000000    0.00000000    0.00000000
     atom    4 type  1   force =    -0.00000000   -0.00000000    0.00000000
     atom    5 type  1   force =     0.00000000   -0.00000000    0.00000000
     atom    6 type  1   force =     0.00000000    0.00000000    0.00000000
     atom    7 type  1   force =    -0.00000000    0.00000000    0.00000000
     atom    8 type  1   force =     0.00000000   -0.00000000    0.00000000
     atom    9 type  1   force =    -0.00000000   -0.00000000    0.00000000
     atom   10 type  1   force =    -0.00000000    0.00000000    0.00000000
     atom   11 type  1   force =     0.00000000    0.00000000    0.00000000
     atom   12 type  1   force =    -0.00000000    0.00000000    0.00000000
     atom   13 type  1   force =     0.00000000    0.00000000    0.00000000
     atom   14 type  1   force =    -0.00000000   -0.00000000    0.00000000
     atom   15 type  1   force =    -0.00000000    0.00000000    0.00000000
     atom   16 type  1   force =    -0.00000000   -0.00000000    0.00000000
     atom   17 type  1   force =     0.00000000   -0.00000000    0.00000000
     atom   18 type  1   force =     0.00000000    0.00000000    0.00000000
     atom   19 type  1   force =     0.00000000    0.00000000    0.00000000
     atom   20 type  1   force =     0.00000000    0.00000000    0.00000000
     atom   21 type  1   force =    -0.00000000    0.00000000    0.00000000
     atom   22 type  1   force =     0.00000000    0.00000000    0.00000000
     atom   23 type  1   force =    -0.00000000   -0.00000000    0.00000000
     atom   24 type  1   force =     0.00000000   -0.00000000    0.00000000
     atom   25 type  1   force =    -0.00000000   -0.00000000    0.00000000
     atom   26 type  1   force =     0.00000000   -0.00000000    0.00000000
     atom   27 type  1   force =     0.00000000    0.00000000    0.00000000
     atom   28 type  1   force =    -0.00000000   -0.00000000    0.00000000
     atom   29 type  1   force =     0.00000000    0.00000000    0.00000000
     atom   30 type  1   force =    -0.00000000    0.00000000    0.00000000
     atom   31 type  1   force =     0.00000000    0.00000000    0.00000000
     atom   32 type  1   force =     0.00000000    0.00000000    0.00000000
     atom   33 type  1   force =    -0.00000000    0.00000000    0.00000000
     atom   34 type  1   force =     0.00000000   -0.00000000    0.00000000
     atom   35 type  1   force =    -0.00000000   -0.00000000    0.00000000
     atom   36 type  1   force =     0.00000000    0.00000000    0.00000000
     atom   37 type  2   force =     0.00008947    0.00010206   -0.00005286
     atom   38 type  3   force =     0.00003462    0.00005142   -0.00000312
     atom   39 type  4   force =    -0.00003601   -0.00003216   -0.00001624

     Total force =     0.016749     Total SCF correction =     0.000166

     Writing all to output data dir ./pwscf.save/

     init_run     :     11.06s CPU     11.49s WALL (       1 calls)
     electrons    :    782.72s CPU    796.72s WALL (       1 calls)
     forces       :      2.91s CPU      3.04s WALL (       1 calls)

     Called by init_run:
     wfcinit      :      7.66s CPU      7.96s WALL (       1 calls)
     potinit      :      2.12s CPU      2.21s WALL (       1 calls)
     hinit0       :      0.83s CPU      0.85s WALL (       1 calls)

     Called by electrons:
     c_bands      :    662.95s CPU    674.54s WALL (      51 calls)
     sum_band     :     78.84s CPU     79.86s WALL (      51 calls)
     v_of_rho     :     12.53s CPU     13.36s WALL (      52 calls)
     newd         :      3.87s CPU      3.92s WALL (      52 calls)
     PAW_pot      :     14.26s CPU     14.42s WALL (      52 calls)
     mix_rho      :     11.32s CPU     11.55s WALL (      51 calls)
     vdW_kernel   :      1.08s CPU      1.09s WALL (       1 calls)

     Called by c_bands:
     init_us_2    :      6.56s CPU      6.67s WALL (    2704 calls)
     init_us_2:cp :      6.54s CPU      6.66s WALL (    2704 calls)
     cegterg      :    642.73s CPU    653.72s WALL (    1327 calls)

     Called by *egterg:
     cdiaghg      :    193.87s CPU    196.80s WALL (    4326 calls)
     h_psi        :    315.31s CPU    321.76s WALL (    4352 calls)
     s_psi        :     27.97s CPU     28.62s WALL (    4352 calls)
     g_psi        :      0.54s CPU      0.55s WALL (    2999 calls)

     Called by h_psi:
     h_psi:calbec :     46.49s CPU     47.74s WALL (    4352 calls)
     vloc_psi     :    238.11s CPU    242.61s WALL (    4352 calls)
     add_vuspsi   :     29.29s CPU     29.97s WALL (    4352 calls)

     General routines
     calbec       :     66.39s CPU     67.87s WALL (    5782 calls)
     fft          :      9.23s CPU     10.09s WALL (    4705 calls)
     ffts         :      6.98s CPU      7.11s WALL (   19044 calls)
     fftw         :    269.44s CPU    274.33s WALL ( 1372486 calls)
     interpolate  :      0.57s CPU      0.58s WALL (     104 calls)

     Parallel routines

     PWSCF        :  13m21.22s CPU  13m40.47s WALL


   This run was terminated on:  14:42: 5  20Nov2025            

=------------------------------------------------------------------------------=
   JOB DONE.
=------------------------------------------------------------------------------=
