
     Program PWSCF v.7.1 starts on  2Mar2025 at  3:54: 7 
        Git branch: heads/qe-7.1
        Last git commit: 48ba0178f8fede6d020eb786884699a9f063f55d-dirty
        Last git commit date: Fri Jan 27 14:22:33 2023 +0000
        Last git commit subject: Merge branch 'fix_hubbard' into 'develop'

     This program is part of the open-source Quantum ESPRESSO suite
     for quantum simulation of materials; please cite
         "P. Giannozzi et al., J. Phys.:Condens. Matter 21 395502 (2009);
         "P. Giannozzi et al., J. Phys.:Condens. Matter 29 465901 (2017);
         "P. Giannozzi et al., J. Chem. Phys. 152 154105 (2020);
          URL http://www.quantum-espresso.org", 
     in publications or presentations arising from this work. More details at
     http://www.quantum-espresso.org/quote

     Parallel version (MPI), running on    48 processors

     MPI processes distributed on     1 nodes
     248303 MiB available memory on the printing compute node when the environment starts

     Reading input from espresso.pwi
Warning: card &CELL ignored
Warning: card / ignored
Warning: card &FCP ignored
Warning: card / ignored
Warning: card &RISM ignored
Warning: card / ignored

     Current dimensions of program PWSCF are:
     Max number of different atomic species (ntypx) = 10
     Max number of k-points (npk) =  40000
     Max angular momentum in pseudopotentials (lmaxx) =  4
     file Pt.pbe-n-kjpaw_psl.1.0.0.UPF: wavefunction(s)  6S 5D renormalized
     file C.pbe-n-kjpaw_psl.1.0.0.UPF: wavefunction(s)  2S 2P renormalized
     file H.pbe-kjpaw_psl.1.0.0.UPF: wavefunction(s)  1S renormalized

     **************************************************************************
     Initializing libbeef V0.1.2 with the BEEF-vdW functional.
     Citation: Wellendorff et al., PRB 85, 235149 (2012).
     **************************************************************************


     IMPORTANT: XC functional enforced from input :
     Exchange-correlation= BEEF-VDW
                           (   1   4  43  14   2   0   0)
     Any further DFT definition will be discarded
     Please, verify this is what you really want


     R & G space division:  proc/nbgrp/npool/nimage =      48
     Subspace diagonalization in iterative solution of the eigenvalue problem:
     one sub-group per band group will be used
     custom distributed-memory algorithm (size of sub-group:  2*  2 procs)


     Parallelization info
     --------------------
     sticks:   dense  smooth     PW     G-vecs:    dense   smooth      PW
     Min         151      59     16                29407     7165    1028
     Max         152      60     17                29420     7176    1042
     Sum        7267    2839    769              1411785   344073   49691

     Using Slab Decomposition



     bravais-lattice index     =            0
     lattice parameter (alat)  =      16.0349  a.u.
     unit-cell volume          =   10068.6169 (a.u.)^3
     number of atoms/cell      =           38
     number of atomic types    =            3
     number of electrons       =       365.00
     number of Kohn-Sham states=          220
     kinetic-energy cutoff     =      40.0000  Ry
     charge density cutoff     =     410.0000  Ry
     scf convergence threshold =      1.0E-08
     mixing beta               =       0.7000
     number of iterations used =            8  local-TF  mixing
     Exchange-correlation= BEEF-VDW
                           (   1   4  43  14   2   0   0)

     celldm(1)=  16.034858  celldm(2)=   0.000000  celldm(3)=   0.000000
     celldm(4)=   0.000000  celldm(5)=   0.000000  celldm(6)=   0.000000

     crystal axes: (cart. coord. in units of alat)
               a(1) = (   1.000000   0.000000   0.000000 )  
               a(2) = (   0.500000   0.866025   0.000000 )  
               a(3) = (   0.000000   0.000000   2.819966 )  

     reciprocal axes: (cart. coord. in units 2 pi/alat)
               b(1) = (  1.000000 -0.577350  0.000000 )  
               b(2) = (  0.000000  1.154701  0.000000 )  
               b(3) = (  0.000000  0.000000  0.354614 )  


     PseudoPot. # 1 for Pt read from file:
     /users/kbadger1/espresso/pseudo/pslibrary.1.0.0/pbe/PSEUDOPOTENTIALS/Pt.pbe-n-kjpaw_psl.1.0.0.UPF
     MD5 check sum: 2e24a0b5bf98a4ed1a57fa81bca8c143
     Pseudo is Projector augmented-wave + core cor, Zval = 10.0
     Generated using 'atomic' code by A. Dal Corso  v.7.0
     Shape of augmentation charge: PSQ
     Using radial grid of 1277 points,  6 beta functions with: 
                l(1) =   0
                l(2) =   0
                l(3) =   1
                l(4) =   1
                l(5) =   2
                l(6) =   2
     Q(r) pseudized with 0 coefficients 


     PseudoPot. # 2 for C  read from file:
     /users/kbadger1/espresso/pseudo/pslibrary.1.0.0/pbe/PSEUDOPOTENTIALS/C.pbe-n-kjpaw_psl.1.0.0.UPF
     MD5 check sum: 6408e75cdba28732cea38a4db8498ce4
     Pseudo is Projector augmented-wave + core cor, Zval =  4.0
     Generated using 'atomic' code by A. Dal Corso  v.7.0
     Shape of augmentation charge: PSQ
     Using radial grid of 1073 points,  4 beta functions with: 
                l(1) =   0
                l(2) =   0
                l(3) =   1
                l(4) =   1
     Q(r) pseudized with 0 coefficients 


     PseudoPot. # 3 for H  read from file:
     /users/kbadger1/espresso/pseudo/pslibrary.1.0.0/pbe/PSEUDOPOTENTIALS/H.pbe-kjpaw_psl.1.0.0.UPF
     MD5 check sum: fe4c6fa958fa6d3815bf5d2419cbf1df
     Pseudo is Projector augmented-wave, Zval =  1.0
     Generated using 'atomic' code by A. Dal Corso  v.7.0
     Shape of augmentation charge: PSQ
     Using radial grid of  929 points,  2 beta functions with: 
                l(1) =   0
                l(2) =   0
     Q(r) pseudized with 0 coefficients 


     atomic species   valence    mass     pseudopotential
        Pt            10.00   195.08400     Pt( 1.00)
        C              4.00    12.01100     C ( 1.00)
        H              1.00     1.00800     H ( 1.00)

     No symmetry found



   Cartesian axes

     site n.     atom                  positions (alat units)
         1           Pt  tau(   1) = (   0.0000000   0.0000000   1.0017346  )
         2           Pt  tau(   2) = (   0.3333333   0.0000000   1.0017346  )
         3           Pt  tau(   3) = (   0.6666667   0.0000000   1.0017346  )
         4           Pt  tau(   4) = (   0.1666667   0.2886751   1.0017346  )
         5           Pt  tau(   5) = (   0.5000000   0.2886751   1.0017346  )
         6           Pt  tau(   6) = (   0.8333333   0.2886751   1.0017346  )
         7           Pt  tau(   7) = (   0.3333333   0.5773503   1.0017346  )
         8           Pt  tau(   8) = (   0.6666667   0.5773503   1.0017346  )
         9           Pt  tau(   9) = (   1.0000000   0.5773503   1.0017346  )
        10           Pt  tau(  10) = (   0.1666667   0.0962250   1.2739001  )
        11           Pt  tau(  11) = (   0.5000000   0.0962250   1.2739001  )
        12           Pt  tau(  12) = (   0.8333333   0.0962250   1.2739001  )
        13           Pt  tau(  13) = (   0.3333333   0.3849002   1.2739001  )
        14           Pt  tau(  14) = (   0.6666667   0.3849002   1.2739001  )
        15           Pt  tau(  15) = (   1.0000000   0.3849002   1.2739001  )
        16           Pt  tau(  16) = (   0.5000000   0.6735753   1.2739001  )
        17           Pt  tau(  17) = (   0.8333333   0.6735753   1.2739001  )
        18           Pt  tau(  18) = (   1.1666667   0.6735753   1.2739001  )
        19           Pt  tau(  19) = (   0.0026142   0.1930757   1.5498530  )
        20           Pt  tau(  20) = (   0.3309517   0.1930790   1.5498897  )
        21           Pt  tau(  21) = (   0.6667766   0.1939205   1.5417957  )
        22           Pt  tau(  22) = (   0.1667837   0.4776698   1.5466442  )
        23           Pt  tau(  23) = (   0.4997452   0.4813912   1.5409303  )
        24           Pt  tau(  24) = (   0.8338098   0.4813916   1.5409260  )
        25           Pt  tau(  25) = (   0.3346296   0.7716221   1.5436419  )
        26           Pt  tau(  26) = (   0.6667829   0.7716423   1.5455874  )
        27           Pt  tau(  27) = (   0.9989160   0.7716255   1.5436590  )
        28           Pt  tau(  28) = (  -0.0150983  -0.0082348   1.8297265  )
        29           Pt  tau(  29) = (   0.3488641  -0.0082408   1.8298114  )
        30           Pt  tau(  30) = (   0.6668811   0.0021717   1.8157623  )
        31           Pt  tau(  31) = (   0.1669012   0.3090952   1.8601143  )
        32           Pt  tau(  32) = (   0.5022444   0.2916686   1.8155329  )
        33           Pt  tau(  33) = (   0.8315419   0.2916708   1.8155222  )
        34           Pt  tau(  34) = (   0.3337945   0.5792173   1.8135764  )
        35           Pt  tau(  35) = (   0.6668953   0.5742683   1.8134429  )
        36           Pt  tau(  36) = (   0.9999918   0.5792157   1.8135790  )
        37           C   tau(  37) = (   0.1668612   0.0870483   1.9120640  )
        38           H   tau(  38) = (   0.1669900   0.3389859   2.0413788  )

     number of k points=    13  Marzari-Vanderbilt smearing, width (Ry)=  0.0200
                       cart. coord. in units 2pi/alat
        k(    1) = (   0.0000000   0.0000000   0.0000000), wk =   0.0800000
        k(    2) = (   0.0000000   0.2309401   0.0000000), wk =   0.1600000
        k(    3) = (   0.0000000   0.4618802   0.0000000), wk =   0.1600000
        k(    4) = (   0.2000000  -0.1154701   0.0000000), wk =   0.1600000
        k(    5) = (   0.2000000   0.1154701   0.0000000), wk =   0.1600000
        k(    6) = (   0.2000000   0.3464102   0.0000000), wk =   0.1600000
        k(    7) = (   0.2000000  -0.5773503   0.0000000), wk =   0.1600000
        k(    8) = (   0.2000000  -0.3464102   0.0000000), wk =   0.1600000
        k(    9) = (   0.4000000  -0.2309401   0.0000000), wk =   0.1600000
        k(   10) = (   0.4000000  -0.0000000   0.0000000), wk =   0.1600000
        k(   11) = (   0.4000000   0.2309401   0.0000000), wk =   0.1600000
        k(   12) = (   0.4000000  -0.6928203   0.0000000), wk =   0.1600000
        k(   13) = (   0.4000000  -0.4618802   0.0000000), wk =   0.1600000

     Dense  grid:  1411785 G-vectors     FFT dimensions: ( 108, 108, 300)

     Smooth grid:   344073 G-vectors     FFT dimensions: (  72,  72, 192)

     Estimated max dynamical RAM per process >     206.88 MB

     Estimated total dynamical RAM >       9.70 GB

     Initial potential from superposition of free atoms

     starting charge     364.9938, renormalised to     365.0000

     negative rho (up, down):  3.277E-03 0.000E+00


     %%%%%%%%%%%%%%%%%%%%%%%%%%%%%%%%%%%%%%%%%%%%%%%%%%%%%%%%%%%%%%%%%%%%%%%%
     %                                                                      %
     % You are using vdW-DF, which was implemented by the Thonhauser group. %
     % Please cite the following two papers that made this development      %
     % possible and the two reviews that describe the various versions:     %
     %                                                                      %
     %   T. Thonhauser et al., PRL 115, 136402 (2015).                      %
     %   T. Thonhauser et al., PRB 76, 125112 (2007).                       %
     %   K. Berland et al., Rep. Prog. Phys. 78, 066501 (2015).             %
     %   D.C. Langreth et al., J. Phys.: Condens. Matter 21, 084203 (2009). %
     %                                                                      %
     % If you are calculating stress with vdW-DF, please also cite:         %
     %                                                                      %
     %   R. Sabatini et al., J. Phys.: Condens. Matter 24, 424209 (2012).   %
     %                                                                      %
     %%%%%%%%%%%%%%%%%%%%%%%%%%%%%%%%%%%%%%%%%%%%%%%%%%%%%%%%%%%%%%%%%%%%%%%%

     %%%%%%%%%%%%%%%%%%%%%%%%%%%%%%%%%%%%%%%%%%%%%%%%%%%%%%%%%%%%%%%%%%%%%%%%
     %                                                                      %
     %  vdW-DF NEWS:                                                        %
     %                                                                      %
     %  * vdW-DF3 is now available. DOI: 10.1021/acs.jctc.0c00471           %
     %    use with input_dft = 'vdW-DF3-opt1' or 'vdW-DF3-opt2'             %
     %                                                                      %
     %  * Unscreened and range-separated hybrid vdW-DF-cx functionals       %
     %    DOI: 10.1063/1.4986522 and 10.1088/1361-648X/ac2ad2               %
     %    use with input_dft = 'vdW-DF-cx0'    and 'vdW-DF-ahcx'            %
     %  * Unscreened and range-separated hybrid vdW-DF2-b86r functionals    %
     %    DOI: 10.1063/1.4986522 and DOI: 10.1103/PhysRevX.12.041003        %
     %    use with input_dft = 'vdW-DF2-br0' and 'vdW-DF2-ahbr'             %
     %                                                                      %
     %%%%%%%%%%%%%%%%%%%%%%%%%%%%%%%%%%%%%%%%%%%%%%%%%%%%%%%%%%%%%%%%%%%%%%%%


     Starting wfcs are  329 randomized atomic wfcs
     Checking if some PAW data can be deallocated... 

     total cpu time spent up to now is       17.1 secs

     per-process dynamical memory:   211.7 Mb

     Self-consistent Calculation

     iteration #  1     ecut=    40.00 Ry     beta= 0.70
     Davidson diagonalization with overlap
     ethr =  1.00E-02,  avg # of iterations =  2.0

     Threshold (ethr) on eigenvalues was too large:
     Diagonalizing with lowered threshold

     Davidson diagonalization with overlap
     ethr =  5.25E-04,  avg # of iterations =  4.2

     negative rho (up, down):  1.537E-02 0.000E+00

     total cpu time spent up to now is       55.0 secs

     total energy              =  -27774.05452125 Ry
     estimated scf accuracy    <       2.17964593 Ry

     iteration #  2     ecut=    40.00 Ry     beta= 0.70
     Davidson diagonalization with overlap
     ethr =  5.97E-04,  avg # of iterations =  2.0

     negative rho (up, down):  1.286E-02 0.000E+00

     total cpu time spent up to now is       74.0 secs

     total energy              =  -27774.27691861 Ry
     estimated scf accuracy    <       0.99241358 Ry

     iteration #  3     ecut=    40.00 Ry     beta= 0.70
     Davidson diagonalization with overlap
     ethr =  2.72E-04,  avg # of iterations =  2.0

     negative rho (up, down):  8.905E-03 0.000E+00

     total cpu time spent up to now is       86.7 secs

     total energy              =  -27774.34793724 Ry
     estimated scf accuracy    <       0.26439315 Ry

     iteration #  4     ecut=    40.00 Ry     beta= 0.70
     Davidson diagonalization with overlap
     ethr =  7.24E-05,  avg # of iterations =  9.1

     negative rho (up, down):  5.131E-03 0.000E+00

     total cpu time spent up to now is      115.4 secs

     total energy              =  -27774.38680358 Ry
     estimated scf accuracy    <       0.09254485 Ry

     iteration #  5     ecut=    40.00 Ry     beta= 0.70
     Davidson diagonalization with overlap
     ethr =  2.54E-05,  avg # of iterations =  6.9

     negative rho (up, down):  2.832E-03 0.000E+00

     total cpu time spent up to now is      142.3 secs

     total energy              =  -27774.40005108 Ry
     estimated scf accuracy    <       0.05914120 Ry

     iteration #  6     ecut=    40.00 Ry     beta= 0.70
     Davidson diagonalization with overlap
     ethr =  1.62E-05,  avg # of iterations =  2.0

     negative rho (up, down):  1.001E-03 0.000E+00

     total cpu time spent up to now is      161.7 secs

     total energy              =  -27774.40249902 Ry
     estimated scf accuracy    <       0.00691192 Ry

     iteration #  7     ecut=    40.00 Ry     beta= 0.70
     Davidson diagonalization with overlap
     c_bands:  2 eigenvalues not converged
     c_bands:  2 eigenvalues not converged
     c_bands:  2 eigenvalues not converged
     c_bands:  1 eigenvalues not converged
     ethr =  1.89E-06,  avg # of iterations = 16.3

     negative rho (up, down):  5.317E-04 0.000E+00

     total cpu time spent up to now is      207.1 secs

     total energy              =  -27774.40503978 Ry
     estimated scf accuracy    <       0.00254413 Ry

     iteration #  8     ecut=    40.00 Ry     beta= 0.70
     Davidson diagonalization with overlap
     c_bands:  2 eigenvalues not converged
     c_bands:  1 eigenvalues not converged
     c_bands:  1 eigenvalues not converged
     ethr =  6.97E-07,  avg # of iterations =  6.2

     negative rho (up, down):  3.640E-04 0.000E+00

     total cpu time spent up to now is      230.5 secs

     total energy              =  -27774.40539094 Ry
     estimated scf accuracy    <       0.00043461 Ry

     iteration #  9     ecut=    40.00 Ry     beta= 0.70
     Davidson diagonalization with overlap
     ethr =  1.19E-07,  avg # of iterations =  5.7

     negative rho (up, down):  3.240E-04 0.000E+00

     total cpu time spent up to now is      261.0 secs

     total energy              =  -27774.40552539 Ry
     estimated scf accuracy    <       0.00026823 Ry

     iteration # 10     ecut=    40.00 Ry     beta= 0.70
     Davidson diagonalization with overlap
     ethr =  7.35E-08,  avg # of iterations =  1.6

     negative rho (up, down):  3.552E-04 0.000E+00

     total cpu time spent up to now is      272.6 secs

     total energy              =  -27774.40554966 Ry
     estimated scf accuracy    <       0.00018068 Ry

     iteration # 11     ecut=    40.00 Ry     beta= 0.70
     Davidson diagonalization with overlap
     ethr =  4.95E-08,  avg # of iterations =  1.4

     negative rho (up, down):  4.980E-04 0.000E+00

     total cpu time spent up to now is      290.7 secs

     total energy              =  -27774.40557901 Ry
     estimated scf accuracy    <       0.00011071 Ry

     iteration # 12     ecut=    40.00 Ry     beta= 0.70
     Davidson diagonalization with overlap
     ethr =  3.03E-08,  avg # of iterations =  1.5

     negative rho (up, down):  7.061E-04 0.000E+00

     total cpu time spent up to now is      310.3 secs

     total energy              =  -27774.40560058 Ry
     estimated scf accuracy    <       0.00007167 Ry

     iteration # 13     ecut=    40.00 Ry     beta= 0.70
     Davidson diagonalization with overlap
     ethr =  1.96E-08,  avg # of iterations =  1.8

     negative rho (up, down):  1.458E-03 0.000E+00

     total cpu time spent up to now is      322.1 secs

     total energy              =  -27774.40562602 Ry
     estimated scf accuracy    <       0.00003461 Ry

     iteration # 14     ecut=    40.00 Ry     beta= 0.70
     Davidson diagonalization with overlap
     ethr =  9.48E-09,  avg # of iterations =  2.2

     negative rho (up, down):  1.684E-03 0.000E+00

     total cpu time spent up to now is      340.9 secs

     total energy              =  -27774.40563454 Ry
     estimated scf accuracy    <       0.00001332 Ry

     iteration # 15     ecut=    40.00 Ry     beta= 0.70
     Davidson diagonalization with overlap
     ethr =  3.65E-09,  avg # of iterations =  2.2

     negative rho (up, down):  2.712E-03 0.000E+00

     total cpu time spent up to now is      354.1 secs

     total energy              =  -27774.40563349 Ry
     estimated scf accuracy    <       0.00000681 Ry

     iteration # 16     ecut=    40.00 Ry     beta= 0.70
     Davidson diagonalization with overlap
     ethr =  1.87E-09,  avg # of iterations =  2.0

     negative rho (up, down):  2.913E-03 0.000E+00

     total cpu time spent up to now is      374.9 secs

     total energy              =  -27774.40563342 Ry
     estimated scf accuracy    <       0.00000179 Ry

     iteration # 17     ecut=    40.00 Ry     beta= 0.70
     Davidson diagonalization with overlap
     ethr =  4.90E-10,  avg # of iterations =  4.5

     negative rho (up, down):  3.033E-03 0.000E+00

     total cpu time spent up to now is      402.1 secs

     total energy              =  -27774.40563333 Ry
     estimated scf accuracy    <       0.00000072 Ry

     iteration # 18     ecut=    40.00 Ry     beta= 0.70
     Davidson diagonalization with overlap
     ethr =  1.97E-10,  avg # of iterations =  2.6

     negative rho (up, down):  3.098E-03 0.000E+00

     total cpu time spent up to now is      417.0 secs

     total energy              =  -27774.40563310 Ry
     estimated scf accuracy    <       0.00000039 Ry

     iteration # 19     ecut=    40.00 Ry     beta= 0.70
     Davidson diagonalization with overlap
     ethr =  1.08E-10,  avg # of iterations =  1.7

     negative rho (up, down):  3.142E-03 0.000E+00

     total cpu time spent up to now is      435.7 secs

     total energy              =  -27774.40563292 Ry
     estimated scf accuracy    <       0.00000012 Ry

     iteration # 20     ecut=    40.00 Ry     beta= 0.70
     Davidson diagonalization with overlap
     ethr =  3.34E-11,  avg # of iterations =  3.3

     negative rho (up, down):  3.157E-03 0.000E+00

     total cpu time spent up to now is      452.2 secs

     total energy              =  -27774.40563287 Ry
     estimated scf accuracy    <       0.00000004 Ry

     iteration # 21     ecut=    40.00 Ry     beta= 0.70
     Davidson diagonalization with overlap
     ethr =  1.09E-11,  avg # of iterations =  3.5

     negative rho (up, down):  3.134E-03 0.000E+00

     total cpu time spent up to now is      474.4 secs

     total energy              =  -27774.40563299 Ry
     estimated scf accuracy    <       0.00000001 Ry

     iteration # 22     ecut=    40.00 Ry     beta= 0.70
     Davidson diagonalization with overlap
     ethr =  3.82E-12,  avg # of iterations =  3.3

     negative rho (up, down):  3.147E-03 0.000E+00

     total cpu time spent up to now is      497.2 secs

     total energy              =  -27774.40563292 Ry
     estimated scf accuracy    <       0.00000001 Ry

     iteration # 23     ecut=    40.00 Ry     beta= 0.70
     Davidson diagonalization with overlap
     ethr =  3.15E-12,  avg # of iterations =  2.1

     negative rho (up, down):  3.115E-03 0.000E+00

     total cpu time spent up to now is      509.7 secs

     End of self-consistent calculation

          k = 0.0000 0.0000 0.0000 ( 42913 PWs)   bands (ev):

    -9.6676  -6.1048  -4.8065  -4.2702  -4.2573  -3.7673  -3.7495  -3.7269
    -3.7103  -3.6993  -3.6476  -3.6358  -3.5891  -3.3241  -3.1943  -3.1863
    -3.1530  -3.1263  -3.1140  -3.0294  -2.7760  -2.7639  -2.7486  -2.6889
    -2.5650  -2.5605  -2.5458  -2.5176  -2.4943  -2.4527  -2.4509  -2.4242
    -2.3380  -2.3322  -2.2804  -2.2548  -2.2448  -2.2394  -2.2195  -2.1719
    -2.1713  -2.1217  -1.9176  -1.9062  -1.7842  -1.7350  -1.6970  -1.6726
    -1.6362  -1.6332  -1.5922  -1.5070  -1.4779  -1.4705  -1.4104  -1.3848
    -1.3448  -1.2837  -1.1444  -0.9900  -0.9897  -0.8867  -0.8624  -0.8238
    -0.7788  -0.7639  -0.7528  -0.7034  -0.6816  -0.6538  -0.6534  -0.6389
    -0.6237  -0.6130  -0.6059  -0.5856  -0.5515  -0.5354  -0.5337  -0.5284
    -0.4932  -0.4881  -0.4731  -0.4706  -0.4286  -0.4186  -0.3708  -0.3103
    -0.2709  -0.2635  -0.2508  -0.2303  -0.2057  -0.1733  -0.1415  -0.1136
    -0.1116  -0.0839  -0.0228   0.0026   0.0115   0.0410   0.0511   0.0541
     0.0976   0.1158   0.1802   0.1897   0.2026   0.2379   0.4167   0.4798
     0.5149   0.5452   0.6274   0.6521   0.6825   0.6829   0.7027   0.7384
     0.8327   0.8477   0.8484   0.8935   0.9090   0.9102   0.9253   0.9289
     0.9606   1.0431   1.1442   1.1508   1.1801   1.1873   1.2046   1.2511
     1.2581   1.3069   1.3693   1.3858   1.4392   1.4496   1.4759   1.4934
     1.4960   1.5694   1.6049   1.6652   1.7018   1.7123   1.7199   1.7560
     1.8085   1.8645   1.8682   1.8831   1.8839   1.8932   1.8943   1.9060
     1.9235   1.9294   1.9624   1.9678   1.9710   2.0105   2.0121   2.0386
     2.0852   2.0891   2.1067   2.1110   2.1168   2.1687   2.1810   2.2041
     2.2510   2.2513   2.2560   2.2687   2.2723   2.3105   2.3134   2.3423
     2.3709   2.3725   2.4048   2.4098   2.5409   2.5438   2.6442   2.6697
     2.6717   2.7026   2.7043   2.7324   2.8820   2.9954   3.3509   3.3632
     3.5594   3.5666   3.6178   4.4020   4.6437   4.8205   5.6530   5.6729
     5.8407   5.9322   6.1372   6.2182   6.6240   7.4871   7.5151   7.5227
     7.5298   7.5621   7.7518   7.7732

          k = 0.0000 0.2309 0.0000 ( 42996 PWs)   bands (ev):

    -9.6591  -5.9642  -4.7048  -4.3650  -4.2313  -4.0765  -3.8092  -3.7293
    -3.6105  -3.5484  -3.5209  -3.4801  -3.4305  -3.3415  -3.2228  -3.1968
    -3.1158  -3.1010  -3.0401  -2.9834  -2.8006  -2.7517  -2.7001  -2.6772
    -2.6086  -2.6011  -2.5616  -2.5310  -2.4949  -2.4727  -2.4330  -2.4289
    -2.3833  -2.3722  -2.3016  -2.2941  -2.2561  -2.2316  -2.1453  -2.0683
    -2.0538  -2.0275  -1.8858  -1.8779  -1.8305  -1.8120  -1.7714  -1.7367
    -1.7105  -1.7069  -1.6235  -1.5605  -1.4535  -1.4395  -1.3793  -1.3596
    -1.3262  -1.2873  -1.1832  -1.0818  -1.0633  -1.0205  -1.0146  -0.9481
    -0.9290  -0.9090  -0.8859  -0.8644  -0.7940  -0.7844  -0.7310  -0.7053
    -0.6978  -0.6634  -0.6399  -0.5974  -0.5648  -0.5391  -0.5060  -0.5000
    -0.4738  -0.4659  -0.4371  -0.4111  -0.3788  -0.3778  -0.3344  -0.3219
    -0.2846  -0.2685  -0.2624  -0.2160  -0.2139  -0.1934  -0.1665  -0.1275
    -0.0831  -0.0767  -0.0581  -0.0385  -0.0213  -0.0039   0.0038   0.0784
     0.0858   0.1598   0.1618   0.2106   0.2369   0.2396   0.2698   0.2923
     0.2959   0.3454   0.3995   0.4658   0.5323   0.5842   0.6255   0.6777
     0.7170   0.7216   0.7452   0.7547   0.8763   0.8870   0.9394   0.9437
     1.0206   1.0217   1.0421   1.0545   1.0844   1.1052   1.1532   1.1750
     1.2248   1.3042   1.3118   1.3199   1.3702   1.3886   1.4119   1.4543
     1.4850   1.5253   1.5361   1.5996   1.6246   1.6419   1.6631   1.7048
     1.7084   1.7475   1.7934   1.8507   1.8529   1.8853   1.8967   1.9323
     1.9602   2.0028   2.0393   2.0669   2.0721   2.1042   2.1515   2.1528
     2.2102   2.2414   2.2504   2.2709   2.3237   2.3324   2.3395   2.3584
     2.3775   2.4128   2.4175   2.4549   2.4761   2.5417   2.5612   2.5840
     2.6122   2.6225   2.6482   2.6817   2.6930   2.7147   2.7591   2.7783
     2.8296   2.8345   2.9312   2.9792   3.0196   3.3020   3.3129   3.4886
     3.7769   4.0225   4.2057   4.2445   4.8589   4.9701   5.3739   5.5089
     5.8209   5.9099   6.3509   6.5153   6.5815   6.6147   6.8599   7.3235
     7.5303   7.6628   7.7633   7.8263

          k = 0.0000 0.4619 0.0000 ( 43046 PWs)   bands (ev):

    -9.6453  -5.5637  -4.9603  -4.4442  -4.1668  -4.1005  -3.8406  -3.6923
    -3.6596  -3.4932  -3.3535  -3.2686  -3.2136  -3.1423  -3.1206  -3.1190
    -2.9964  -2.9556  -2.9282  -2.9006  -2.8715  -2.8246  -2.7573  -2.7426
    -2.7131  -2.7019  -2.6684  -2.6419  -2.5822  -2.5553  -2.4489  -2.3896
    -2.3261  -2.3211  -2.2957  -2.2401  -2.2010  -2.1381  -2.1216  -2.0627
    -2.0606  -2.0302  -1.9954  -1.8837  -1.8326  -1.7912  -1.7591  -1.7466
    -1.6526  -1.6335  -1.5996  -1.5807  -1.5542  -1.5466  -1.4885  -1.4584
    -1.4075  -1.3443  -1.2811  -1.2271  -1.2074  -1.1971  -1.1508  -1.1279
    -1.0276  -0.9994  -0.9800  -0.9441  -0.8931  -0.8715  -0.8450  -0.8253
    -0.7520  -0.7237  -0.7069  -0.6861  -0.6251  -0.6065  -0.5503  -0.5472
    -0.5235  -0.4984  -0.4873  -0.4597  -0.4276  -0.4212  -0.4021  -0.3971
    -0.3659  -0.3310  -0.3003  -0.2863  -0.2513  -0.2262  -0.2121  -0.2006
    -0.1350  -0.1087  -0.1005  -0.0735  -0.0276  -0.0149   0.0006   0.0261
     0.0441   0.0877   0.1384   0.1890   0.1976   0.2509   0.2651   0.3037
     0.3756   0.3768   0.4435   0.4610   0.5142   0.5372   0.5864   0.6061
     0.6327   0.6631   0.6762   0.7383   0.7517   0.7636   0.7739   0.8036
     0.8239   0.9061   0.9109   0.9514   0.9722   0.9883   1.0647   1.0717
     1.1468   1.2302   1.2394   1.2864   1.3130   1.3561   1.3649   1.4018
     1.4708   1.4790   1.5592   1.5603   1.5758   1.5979   1.6187   1.6473
     1.7197   1.7522   1.7767   1.7876   1.8493   1.8584   1.9112   1.9149
     1.9629   2.0103   2.0393   2.0885   2.1348   2.1374   2.2247   2.2490
     2.2687   2.3044   2.3354   2.3563   2.3828   2.3975   2.4549   2.4860
     2.4998   2.5333   2.5488   2.5832   2.5983   2.6496   2.6656   2.7244
     2.7737   2.8374   2.8396   2.8532   2.8943   2.9292   3.0899   3.2562
     3.2993   3.3436   3.5648   3.7678   3.8324   4.0358   4.1152   4.3960
     4.4508   4.6479   4.6885   4.7948   5.1189   5.1481   5.2695   5.3550
     5.4800   5.5085   5.6093   6.0386   6.1657   6.2555   6.5232   6.9196
     6.9672   7.2353   7.4966   7.5631

          k = 0.2000-0.1155 0.0000 ( 42996 PWs)   bands (ev):

    -9.6585  -5.9648  -4.7074  -4.3832  -4.2133  -4.0667  -3.7839  -3.7535
    -3.6098  -3.5431  -3.5291  -3.4698  -3.4401  -3.3417  -3.2538  -3.1733
    -3.1275  -3.0805  -3.0551  -2.9680  -2.8339  -2.7450  -2.6912  -2.6689
    -2.6241  -2.5831  -2.5595  -2.5167  -2.4899  -2.4846  -2.4382  -2.4252
    -2.3870  -2.3675  -2.3214  -2.2966  -2.2613  -2.1998  -2.1741  -2.0989
    -2.0536  -2.0176  -1.9102  -1.8537  -1.8151  -1.8009  -1.7681  -1.7411
    -1.7178  -1.6878  -1.6363  -1.5338  -1.4560  -1.4219  -1.3815  -1.3597
    -1.3217  -1.2946  -1.2017  -1.0928  -1.0496  -1.0144  -1.0086  -0.9750
    -0.9271  -0.8984  -0.8895  -0.8486  -0.8030  -0.7639  -0.7298  -0.7063
    -0.6836  -0.6713  -0.6521  -0.6098  -0.5743  -0.5528  -0.5235  -0.4921
    -0.4663  -0.4472  -0.4168  -0.4071  -0.3934  -0.3675  -0.3500  -0.3230
    -0.3157  -0.2805  -0.2505  -0.2390  -0.2147  -0.1733  -0.1568  -0.1287
    -0.1023  -0.0747  -0.0549  -0.0401  -0.0243  -0.0048  -0.0006   0.0666
     0.0810   0.1250   0.1686   0.2168   0.2376   0.2516   0.2820   0.2958
     0.3232   0.3672   0.4061   0.4755   0.5266   0.5457   0.6283   0.6443
     0.6820   0.7228   0.7383   0.7906   0.8737   0.8998   0.9265   0.9659
     1.0006   1.0334   1.0662   1.0824   1.0956   1.1163   1.1204   1.1508
     1.2384   1.2876   1.3078   1.3227   1.3427   1.3938   1.4230   1.4434
     1.4831   1.5263   1.5471   1.5856   1.6319   1.6701   1.6898   1.7074
     1.7176   1.7493   1.8178   1.8506   1.8700   1.8752   1.9146   1.9356
     1.9644   1.9846   2.0304   2.0664   2.0879   2.1230   2.1487   2.1674
     2.2097   2.2218   2.2452   2.2623   2.3106   2.3238   2.3406   2.3622
     2.3785   2.4033   2.4195   2.4476   2.4917   2.5441   2.5575   2.5813
     2.6085   2.6177   2.6481   2.6776   2.6899   2.7116   2.7577   2.7743
     2.8372   2.8927   2.9530   2.9751   3.0093   3.1541   3.3171   3.6364
     3.7949   3.9259   4.2277   4.3784   4.6459   4.9660   5.3212   5.6635
     5.7906   6.0278   6.2715   6.4084   6.5641   6.6892   6.7942   7.3231
     7.5092   7.6379   7.7321   7.8206

          k = 0.2000 0.1155 0.0000 ( 42996 PWs)   bands (ev):

    -9.6585  -5.9649  -4.7074  -4.3835  -4.2130  -4.0668  -3.7838  -3.7533
    -3.6098  -3.5433  -3.5292  -3.4698  -3.4399  -3.3417  -3.2537  -3.1734
    -3.1278  -3.0807  -3.0551  -2.9680  -2.8339  -2.7452  -2.6912  -2.6687
    -2.6239  -2.5831  -2.5595  -2.5167  -2.4900  -2.4849  -2.4381  -2.4251
    -2.3868  -2.3674  -2.3215  -2.2966  -2.2615  -2.1997  -2.1742  -2.0989
    -2.0535  -2.0176  -1.9102  -1.8536  -1.8151  -1.8008  -1.7680  -1.7410
    -1.7178  -1.6878  -1.6365  -1.5336  -1.4559  -1.4219  -1.3813  -1.3598
    -1.3217  -1.2944  -1.2015  -1.0924  -1.0495  -1.0143  -1.0082  -0.9749
    -0.9273  -0.8987  -0.8895  -0.8488  -0.8025  -0.7642  -0.7298  -0.7061
    -0.6832  -0.6714  -0.6521  -0.6102  -0.5749  -0.5529  -0.5236  -0.4925
    -0.4664  -0.4472  -0.4167  -0.4070  -0.3935  -0.3677  -0.3496  -0.3232
    -0.3162  -0.2808  -0.2502  -0.2386  -0.2146  -0.1735  -0.1568  -0.1286
    -0.1026  -0.0747  -0.0551  -0.0401  -0.0243  -0.0050  -0.0005   0.0667
     0.0810   0.1248   0.1683   0.2166   0.2377   0.2517   0.2821   0.2959
     0.3235   0.3672   0.4063   0.4753   0.5270   0.5457   0.6283   0.6444
     0.6817   0.7227   0.7383   0.7902   0.8738   0.8996   0.9264   0.9656
     1.0006   1.0334   1.0663   1.0817   1.0956   1.1162   1.1204   1.1506
     1.2382   1.2877   1.3077   1.3228   1.3428   1.3938   1.4229   1.4435
     1.4830   1.5264   1.5473   1.5855   1.6319   1.6704   1.6900   1.7075
     1.7177   1.7495   1.8179   1.8506   1.8701   1.8752   1.9147   1.9356
     1.9643   1.9845   2.0304   2.0663   2.0879   2.1227   2.1485   2.1674
     2.2096   2.2217   2.2451   2.2623   2.3107   2.3238   2.3404   2.3622
     2.3787   2.4030   2.4193   2.4474   2.4915   2.5438   2.5576   2.5813
     2.6085   2.6177   2.6484   2.6780   2.6904   2.7120   2.7577   2.7743
     2.8372   2.8926   2.9528   2.9750   3.0097   3.1545   3.3175   3.6364
     3.7946   3.9259   4.2274   4.3784   4.6458   4.9660   5.3208   5.6637
     5.7909   6.0279   6.2719   6.4084   6.5641   6.6888   6.7943   7.3229
     7.5087   7.6382   7.7322   7.8229

          k = 0.2000 0.3464 0.0000 ( 43046 PWs)   bands (ev):

    -9.6474  -5.6930  -4.6596  -4.5310  -4.3826  -4.0554  -4.0204  -3.4749
    -3.4218  -3.4134  -3.3747  -3.3383  -3.3286  -3.2643  -3.2443  -3.2078
    -3.1338  -3.0530  -2.9039  -2.8600  -2.8340  -2.7880  -2.7746  -2.7037
    -2.6582  -2.6322  -2.5850  -2.5515  -2.5156  -2.4841  -2.4575  -2.4536
    -2.3927  -2.3685  -2.3389  -2.2971  -2.2685  -2.2524  -2.1716  -2.1257
    -2.0149  -1.9473  -1.8789  -1.8538  -1.8248  -1.7902  -1.7519  -1.7291
    -1.6824  -1.6496  -1.5946  -1.5626  -1.5370  -1.4843  -1.4600  -1.3714
    -1.3527  -1.3238  -1.2612  -1.2312  -1.1930  -1.1447  -1.1350  -1.0616
    -1.0336  -0.9772  -0.9593  -0.9521  -0.9197  -0.8723  -0.8160  -0.7856
    -0.7554  -0.7286  -0.7080  -0.6947  -0.6225  -0.6062  -0.5680  -0.5362
    -0.5108  -0.4884  -0.4664  -0.4622  -0.4390  -0.4039  -0.3776  -0.3493
    -0.3152  -0.2958  -0.2870  -0.2613  -0.2231  -0.2067  -0.1895  -0.1447
    -0.1304  -0.1082  -0.0794  -0.0478  -0.0326  -0.0049   0.0078   0.0132
     0.0531   0.0848   0.0961   0.1351   0.1635   0.1983   0.2297   0.2680
     0.2892   0.3358   0.3545   0.4582   0.4946   0.5548   0.5892   0.5988
     0.6480   0.6885   0.7184   0.7380   0.7742   0.7900   0.8075   0.8573
     0.8697   0.8903   0.9341   0.9698   1.0234   1.0884   1.0996   1.1220
     1.1669   1.2373   1.2597   1.2846   1.3024   1.3173   1.3344   1.4344
     1.4505   1.4929   1.5233   1.5413   1.6078   1.6321   1.6412   1.6701
     1.6950   1.7072   1.7364   1.7477   1.7835   1.8132   1.8823   1.9663
     2.0006   2.0439   2.1185   2.1533   2.1893   2.2267   2.2472   2.2814
     2.3216   2.3553   2.3688   2.4090   2.4268   2.4426   2.4556   2.4719
     2.4980   2.5130   2.5358   2.5742   2.5971   2.6264   2.6511   2.7030
     2.7235   2.7531   2.8059   2.8518   2.9057   2.9208   2.9711   2.9985
     3.0882   3.1263   3.4185   3.6242   3.6921   3.8536   3.9159   4.0786
     4.1983   4.3406   4.6621   4.7418   4.9228   5.1341   5.2605   5.3068
     5.4387   5.9500   6.0930   6.2722   6.3926   6.6079   6.6665   6.9670
     7.0913   7.1561   7.2315   7.5270

          k = 0.2000-0.5774 0.0000 ( 43014 PWs)   bands (ev):

    -9.6404  -5.2407  -5.1296  -4.6372  -4.3087  -4.0192  -3.8571  -3.7191
    -3.4119  -3.3983  -3.2839  -3.2287  -3.1863  -3.1233  -3.0780  -3.0571
    -2.9769  -2.9060  -2.8957  -2.8766  -2.8607  -2.8413  -2.8034  -2.7816
    -2.7233  -2.6989  -2.6672  -2.6463  -2.6260  -2.5401  -2.4854  -2.4153
    -2.4080  -2.3785  -2.3631  -2.2839  -2.2294  -2.2196  -2.1856  -2.0856
    -2.0496  -2.0169  -1.9154  -1.8714  -1.8322  -1.7819  -1.7659  -1.7216
    -1.6935  -1.5790  -1.5488  -1.4747  -1.4726  -1.4127  -1.3979  -1.3805
    -1.3575  -1.3478  -1.3018  -1.2779  -1.2449  -1.1980  -1.1799  -1.1598
    -1.1173  -1.1029  -1.0411  -1.0221  -0.9556  -0.9470  -0.8768  -0.8478
    -0.8333  -0.7942  -0.7808  -0.7510  -0.7265  -0.7034  -0.6449  -0.6189
    -0.5715  -0.5397  -0.5284  -0.5116  -0.4786  -0.4501  -0.4035  -0.3839
    -0.3453  -0.3147  -0.3010  -0.2400  -0.1978  -0.1755  -0.1558  -0.1283
    -0.1072  -0.0855  -0.0657  -0.0541  -0.0308   0.0028   0.0192   0.0327
     0.0513   0.0781   0.0939   0.1091   0.1286   0.1540   0.1589   0.1894
     0.2274   0.3139   0.3900   0.4590   0.4912   0.5222   0.5421   0.5880
     0.6125   0.6451   0.6646   0.6737   0.7168   0.7436   0.7703   0.7967
     0.8536   0.8924   0.9237   0.9454   0.9757   1.0214   1.0942   1.1633
     1.1775   1.2361   1.2524   1.2842   1.3092   1.3415   1.3599   1.3691
     1.3972   1.4390   1.4676   1.4915   1.4982   1.5625   1.5847   1.6209
     1.6439   1.6942   1.7594   1.7778   1.8043   1.9079   1.9198   2.0139
     2.0376   2.0819   2.0999   2.1745   2.1803   2.2285   2.2675   2.2901
     2.3535   2.3565   2.4036   2.4216   2.4428   2.4743   2.5058   2.5230
     2.5471   2.5586   2.5792   2.6346   2.6463   2.6859   2.7375   2.7749
     2.8197   2.8590   2.8700   2.8942   2.9147   2.9262   3.1036   3.1873
     3.4190   3.7293   3.9849   4.0107   4.1134   4.2600   4.2774   4.4575
     4.5624   4.6044   4.8701   5.0291   5.0906   5.1775   5.4315   5.5282
     5.5704   5.7454   5.7914   5.9184   6.1542   6.2186   6.3106   6.4317
     6.6925   6.9326   7.1037   7.1505

          k = 0.2000-0.3464 0.0000 ( 43046 PWs)   bands (ev):

    -9.6474  -5.6930  -4.6594  -4.5311  -4.3825  -4.0554  -4.0205  -3.4749
    -3.4214  -3.4135  -3.3747  -3.3385  -3.3288  -3.2644  -3.2443  -3.2079
    -3.1338  -3.0529  -2.9037  -2.8594  -2.8338  -2.7880  -2.7743  -2.7039
    -2.6579  -2.6323  -2.5853  -2.5516  -2.5158  -2.4841  -2.4578  -2.4537
    -2.3927  -2.3686  -2.3389  -2.2970  -2.2686  -2.2523  -2.1712  -2.1254
    -2.0150  -1.9475  -1.8790  -1.8540  -1.8249  -1.7903  -1.7523  -1.7292
    -1.6825  -1.6496  -1.5946  -1.5627  -1.5371  -1.4843  -1.4600  -1.3714
    -1.3525  -1.3239  -1.2613  -1.2315  -1.1931  -1.1450  -1.1354  -1.0619
    -1.0340  -0.9773  -0.9595  -0.9525  -0.9196  -0.8723  -0.8159  -0.7855
    -0.7550  -0.7283  -0.7077  -0.6947  -0.6223  -0.6057  -0.5680  -0.5361
    -0.5109  -0.4883  -0.4663  -0.4620  -0.4390  -0.4038  -0.3773  -0.3495
    -0.3147  -0.2958  -0.2870  -0.2609  -0.2227  -0.2066  -0.1892  -0.1447
    -0.1304  -0.1082  -0.0793  -0.0478  -0.0325  -0.0049   0.0078   0.0128
     0.0527   0.0845   0.0962   0.1349   0.1635   0.1983   0.2296   0.2682
     0.2894   0.3362   0.3547   0.4584   0.4947   0.5548   0.5891   0.5990
     0.6483   0.6887   0.7185   0.7378   0.7739   0.7899   0.8075   0.8575
     0.8699   0.8903   0.9338   0.9700   1.0232   1.0890   1.0996   1.1221
     1.1670   1.2376   1.2598   1.2846   1.3024   1.3173   1.3343   1.4345
     1.4505   1.4928   1.5232   1.5412   1.6076   1.6318   1.6411   1.6698
     1.6949   1.7069   1.7365   1.7475   1.7836   1.8132   1.8822   1.9665
     2.0006   2.0439   2.1183   2.1536   2.1892   2.2269   2.2471   2.2815
     2.3217   2.3550   2.3688   2.4091   2.4267   2.4428   2.4556   2.4722
     2.4980   2.5133   2.5359   2.5741   2.5975   2.6267   2.6511   2.7030
     2.7234   2.7530   2.8055   2.8513   2.9051   2.9207   2.9709   2.9985
     3.0883   3.1264   3.4189   3.6244   3.6919   3.8535   3.9158   4.0785
     4.1978   4.3405   4.6621   4.7419   4.9229   5.1340   5.2604   5.3070
     5.4389   5.9500   6.0927   6.2715   6.3925   6.6081   6.6668   6.9667
     7.0915   7.1564   7.2316   7.5267

          k = 0.4000-0.2309 0.0000 ( 43046 PWs)   bands (ev):

    -9.6437  -5.5663  -4.9713  -4.4459  -4.1394  -4.1005  -3.8225  -3.7222
    -3.6313  -3.5070  -3.3648  -3.2534  -3.2058  -3.1639  -3.1301  -3.0946
    -2.9947  -2.9748  -2.9443  -2.9050  -2.8541  -2.8144  -2.7730  -2.7461
    -2.7249  -2.6975  -2.6709  -2.6170  -2.5694  -2.5435  -2.4912  -2.3899
    -2.3715  -2.3210  -2.2896  -2.2435  -2.2243  -2.1483  -2.1314  -2.0850
    -2.0534  -2.0032  -1.9838  -1.8908  -1.8273  -1.7718  -1.7428  -1.7097
    -1.6437  -1.6341  -1.6075  -1.5705  -1.5456  -1.5309  -1.4834  -1.4459
    -1.4046  -1.3608  -1.2639  -1.2388  -1.2089  -1.1948  -1.1704  -1.1009
    -1.0287  -1.0174  -0.9759  -0.9510  -0.8929  -0.8791  -0.8392  -0.8149
    -0.7785  -0.7138  -0.6999  -0.6733  -0.6356  -0.6042  -0.5889  -0.5428
    -0.5243  -0.4913  -0.4739  -0.4672  -0.4515  -0.4300  -0.4015  -0.3888
    -0.3783  -0.3451  -0.3320  -0.2794  -0.2430  -0.2330  -0.2129  -0.1785
    -0.1572  -0.1280  -0.0825  -0.0605  -0.0565  -0.0214   0.0059   0.0311
     0.0572   0.1073   0.1407   0.1790   0.2115   0.2547   0.2708   0.3249
     0.3473   0.4026   0.4108   0.4767   0.5358   0.5592   0.5822   0.5938
     0.6178   0.6576   0.6894   0.7091   0.7274   0.7559   0.7706   0.7809
     0.8188   0.9038   0.9343   0.9511   0.9690   0.9882   1.0174   1.0717
     1.1412   1.2046   1.2300   1.2631   1.3184   1.3577   1.3713   1.4448
     1.5029   1.5196   1.5387   1.5688   1.5811   1.5934   1.6437   1.6612
     1.7082   1.7631   1.7788   1.8193   1.8455   1.8640   1.8982   1.9225
     1.9801   2.0202   2.0551   2.0971   2.1335   2.1923   2.2245   2.2496
     2.2660   2.2902   2.3242   2.3675   2.3850   2.4031   2.4365   2.4659
     2.5191   2.5362   2.5535   2.5764   2.5962   2.6470   2.6688   2.7217
     2.7783   2.8189   2.8420   2.8672   2.9162   2.9590   3.0878   3.1113
     3.3154   3.4655   3.6166   3.8023   3.8867   4.0396   4.0824   4.3298
     4.4885   4.5612   4.6549   4.8819   5.0100   5.1514   5.2095   5.2905
     5.4979   5.5610   5.6471   6.0054   6.1520   6.2836   6.4142   6.8041
     7.0368   7.1733   7.4931   7.5830

          k = 0.4000-0.0000 0.0000 ( 43046 PWs)   bands (ev):

    -9.6464  -5.6947  -4.6773  -4.5174  -4.3798  -4.0457  -4.0178  -3.4836
    -3.4356  -3.4008  -3.3516  -3.3271  -3.3163  -3.2782  -3.2554  -3.2303
    -3.1373  -3.0641  -2.9028  -2.8505  -2.8316  -2.8044  -2.7517  -2.6855
    -2.6799  -2.6397  -2.5841  -2.5667  -2.5145  -2.4808  -2.4555  -2.4222
    -2.4021  -2.3640  -2.3487  -2.3140  -2.2545  -2.2316  -2.2038  -2.1912
    -2.0020  -1.9262  -1.8630  -1.8370  -1.8276  -1.7942  -1.7500  -1.6977
    -1.6798  -1.6171  -1.5948  -1.5799  -1.5564  -1.4782  -1.4588  -1.3754
    -1.3576  -1.3327  -1.2653  -1.2405  -1.1801  -1.1410  -1.1103  -1.0796
    -1.0535  -0.9876  -0.9615  -0.9258  -0.9079  -0.8759  -0.7983  -0.7891
    -0.7527  -0.7270  -0.7121  -0.7017  -0.6448  -0.5988  -0.5807  -0.5272
    -0.5221  -0.5009  -0.4471  -0.4410  -0.4292  -0.3948  -0.3900  -0.3679
    -0.3344  -0.2979  -0.2654  -0.2334  -0.2207  -0.2041  -0.1935  -0.1697
    -0.1353  -0.1003  -0.0828  -0.0604  -0.0301  -0.0078   0.0078   0.0327
     0.0420   0.0512   0.0899   0.1233   0.1352   0.2035   0.2508   0.2894
     0.2942   0.3234   0.3838   0.4607   0.4838   0.5399   0.5598   0.5860
     0.6255   0.6509   0.7141   0.7404   0.7766   0.8057   0.8338   0.8512
     0.8581   0.9101   0.9319   0.9565   1.0231   1.0878   1.1014   1.1678
     1.1776   1.1973   1.2681   1.2801   1.3030   1.3176   1.3627   1.4084
     1.4226   1.4717   1.5557   1.5817   1.6208   1.6460   1.6571   1.6669
     1.6811   1.7166   1.7344   1.7474   1.7775   1.8503   1.8784   1.9505
     2.0071   2.0326   2.1331   2.1725   2.2095   2.2299   2.2646   2.2826
     2.3302   2.3570   2.3699   2.3861   2.4238   2.4445   2.4629   2.4638
     2.4975   2.5053   2.5391   2.5494   2.5982   2.6103   2.6621   2.7101
     2.7291   2.7962   2.8253   2.8373   2.8950   2.9262   2.9936   3.0270
     3.0869   3.1429   3.3273   3.6372   3.6640   3.8599   3.8968   4.1596
     4.2008   4.3925   4.5976   4.8136   4.9913   5.0068   5.1941   5.2987
     5.3864   5.9276   6.0883   6.2487   6.4536   6.5980   6.6364   6.9119
     7.1012   7.1844   7.2188   7.5136

          k = 0.4000 0.2309 0.0000 ( 43046 PWs)   bands (ev):

    -9.6437  -5.5664  -4.9714  -4.4460  -4.1390  -4.1005  -3.8223  -3.7221
    -3.6314  -3.5074  -3.3648  -3.2534  -3.2059  -3.1638  -3.1299  -3.0947
    -2.9948  -2.9750  -2.9446  -2.9051  -2.8542  -2.8146  -2.7731  -2.7459
    -2.7251  -2.6978  -2.6708  -2.6170  -2.5691  -2.5435  -2.4912  -2.3898
    -2.3715  -2.3206  -2.2893  -2.2433  -2.2241  -2.1482  -2.1314  -2.0848
    -2.0534  -2.0029  -1.9835  -1.8907  -1.8271  -1.7717  -1.7429  -1.7096
    -1.6439  -1.6343  -1.6075  -1.5702  -1.5457  -1.5308  -1.4834  -1.4455
    -1.4042  -1.3606  -1.2635  -1.2383  -1.2084  -1.1945  -1.1697  -1.1006
    -1.0287  -1.0174  -0.9759  -0.9514  -0.8932  -0.8796  -0.8392  -0.8147
    -0.7784  -0.7149  -0.7003  -0.6741  -0.6360  -0.6043  -0.5889  -0.5427
    -0.5243  -0.4911  -0.4736  -0.4669  -0.4514  -0.4301  -0.4021  -0.3887
    -0.3783  -0.3450  -0.3321  -0.2794  -0.2431  -0.2330  -0.2129  -0.1787
    -0.1571  -0.1281  -0.0820  -0.0606  -0.0573  -0.0219   0.0058   0.0307
     0.0568   0.1072   0.1404   0.1792   0.2117   0.2547   0.2709   0.3247
     0.3472   0.4027   0.4109   0.4768   0.5357   0.5592   0.5823   0.5940
     0.6180   0.6577   0.6893   0.7091   0.7273   0.7560   0.7707   0.7806
     0.8184   0.9037   0.9339   0.9512   0.9684   0.9880   1.0171   1.0716
     1.1411   1.2044   1.2297   1.2630   1.3186   1.3578   1.3713   1.4447
     1.5031   1.5196   1.5388   1.5687   1.5814   1.5933   1.6440   1.6616
     1.7085   1.7632   1.7790   1.8193   1.8454   1.8639   1.8981   1.9226
     1.9801   2.0203   2.0551   2.0971   2.1333   2.1921   2.2244   2.2496
     2.2659   2.2900   2.3242   2.3672   2.3850   2.4030   2.4359   2.4658
     2.5190   2.5360   2.5538   2.5766   2.5962   2.6476   2.6694   2.7218
     2.7784   2.8194   2.8419   2.8677   2.9165   2.9590   3.0878   3.1114
     3.3158   3.4655   3.6164   3.8023   3.8866   4.0396   4.0823   4.3300
     4.4887   4.5617   4.6547   4.8822   5.0100   5.1514   5.2096   5.2906
     5.4979   5.5611   5.6472   6.0053   6.1520   6.2841   6.4145   6.8035
     7.0369   7.1735   7.4932   7.5827

          k = 0.4000-0.6928 0.0000 ( 43014 PWs)   bands (ev):

    -9.6394  -5.2415  -5.1389  -4.6305  -4.3045  -4.0112  -3.8526  -3.7289
    -3.4322  -3.3657  -3.2961  -3.2108  -3.1757  -3.1361  -3.0785  -3.0459
    -2.9992  -2.9246  -2.8948  -2.8758  -2.8663  -2.8422  -2.8114  -2.7589
    -2.7256  -2.6831  -2.6638  -2.6480  -2.6081  -2.5685  -2.5018  -2.4427
    -2.4050  -2.3984  -2.3611  -2.2769  -2.2409  -2.2096  -2.1740  -2.0768
    -2.0663  -2.0344  -1.9014  -1.8529  -1.8340  -1.7868  -1.7644  -1.6939
    -1.6547  -1.5709  -1.5554  -1.5032  -1.4675  -1.4296  -1.4019  -1.3769
    -1.3568  -1.3259  -1.2989  -1.2850  -1.2334  -1.1926  -1.1726  -1.1591
    -1.1257  -1.0668  -1.0527  -1.0203  -0.9653  -0.9462  -0.9136  -0.8605
    -0.8361  -0.7956  -0.7727  -0.7544  -0.7392  -0.7142  -0.6362  -0.6094
    -0.5739  -0.5496  -0.5293  -0.5158  -0.4500  -0.4436  -0.3965  -0.3792
    -0.3598  -0.3093  -0.2793  -0.2449  -0.2005  -0.1842  -0.1677  -0.1349
    -0.1140  -0.0873  -0.0667  -0.0613  -0.0475  -0.0172   0.0101   0.0458
     0.0599   0.0678   0.0875   0.1043   0.1342   0.1475   0.1680   0.2159
     0.2886   0.3307   0.3635   0.4297   0.4836   0.5045   0.5498   0.5838
     0.6131   0.6260   0.6510   0.6950   0.7169   0.7339   0.7707   0.7920
     0.8593   0.8853   0.9267   0.9448   0.9510   1.0576   1.0721   1.1302
     1.1475   1.2474   1.2658   1.2810   1.3041   1.3551   1.3680   1.3833
     1.3991   1.4319   1.4714   1.4879   1.5288   1.5588   1.5921   1.6359
     1.6583   1.6892   1.7495   1.7733   1.8329   1.9056   1.9531   1.9739
     2.0346   2.0777   2.0965   2.1838   2.2123   2.2344   2.2648   2.2867
     2.3212   2.3747   2.4083   2.4302   2.4565   2.4802   2.5086   2.5226
     2.5547   2.5678   2.5780   2.6234   2.6469   2.6889   2.7373   2.7747
     2.8078   2.8530   2.8742   2.8905   2.9262   2.9346   3.0903   3.3166
     3.3753   3.7167   3.9388   4.0153   4.1480   4.2185   4.2893   4.4133
     4.5799   4.7468   4.8428   5.0467   5.0966   5.1558   5.2366   5.5278
     5.6128   5.7197   5.8540   5.9234   5.9875   6.1696   6.3661   6.5081
     6.6521   6.8560   7.1062   7.2125

          k = 0.4000-0.4619 0.0000 ( 43014 PWs)   bands (ev):

    -9.6394  -5.2414  -5.1389  -4.6306  -4.3044  -4.0113  -3.8526  -3.7288
    -3.4319  -3.3656  -3.2962  -3.2109  -3.1758  -3.1362  -3.0785  -3.0458
    -2.9991  -2.9244  -2.8947  -2.8758  -2.8664  -2.8421  -2.8114  -2.7588
    -2.7257  -2.6831  -2.6640  -2.6476  -2.6080  -2.5685  -2.5018  -2.4427
    -2.4052  -2.3985  -2.3611  -2.2773  -2.2410  -2.2097  -2.1741  -2.0769
    -2.0665  -2.0346  -1.9016  -1.8525  -1.8341  -1.7869  -1.7644  -1.6940
    -1.6546  -1.5708  -1.5551  -1.5030  -1.4676  -1.4295  -1.4019  -1.3776
    -1.3572  -1.3263  -1.2992  -1.2852  -1.2336  -1.1930  -1.1728  -1.1594
    -1.1256  -1.0667  -1.0526  -1.0205  -0.9654  -0.9459  -0.9136  -0.8602
    -0.8360  -0.7952  -0.7728  -0.7539  -0.7388  -0.7138  -0.6362  -0.6094
    -0.5738  -0.5497  -0.5294  -0.5158  -0.4500  -0.4442  -0.3965  -0.3789
    -0.3597  -0.3091  -0.2791  -0.2451  -0.2008  -0.1844  -0.1672  -0.1350
    -0.1135  -0.0869  -0.0661  -0.0609  -0.0472  -0.0174   0.0100   0.0453
     0.0597   0.0680   0.0876   0.1041   0.1344   0.1475   0.1676   0.2162
     0.2887   0.3306   0.3636   0.4299   0.4835   0.5044   0.5498   0.5836
     0.6130   0.6257   0.6514   0.6947   0.7171   0.7336   0.7708   0.7922
     0.8593   0.8854   0.9267   0.9450   0.9512   1.0575   1.0724   1.1304
     1.1476   1.2472   1.2657   1.2811   1.3041   1.3550   1.3681   1.3832
     1.3990   1.4318   1.4714   1.4878   1.5288   1.5587   1.5920   1.6359
     1.6586   1.6892   1.7495   1.7733   1.8330   1.9055   1.9531   1.9739
     2.0345   2.0775   2.0964   2.1837   2.2124   2.2344   2.2647   2.2868
     2.3215   2.3747   2.4085   2.4303   2.4565   2.4803   2.5089   2.5226
     2.5546   2.5676   2.5777   2.6236   2.6474   2.6890   2.7375   2.7745
     2.8076   2.8525   2.8739   2.8901   2.9260   2.9341   3.0903   3.3168
     3.3753   3.7167   3.9390   4.0152   4.1481   4.2186   4.2897   4.4132
     4.5800   4.7467   4.8428   5.0469   5.0966   5.1558   5.2364   5.5275
     5.6130   5.7181   5.8534   5.9234   5.9877   6.1700   6.3664   6.5079
     6.6520   6.8561   7.1068   7.2127

     the Fermi energy is     2.6478 ev

!    total energy              =  -27774.40563310 Ry
     total all-electron energy =  -1326718.935147 Ry
     estimated scf accuracy    <          2.1E-09 Ry
     smearing contrib. (-TS)   =       0.00437450 Ry
     internal energy E=F+TS    =  -27774.41000761 Ry

     The total energy is F=E-TS. E is the sum of the following terms:
     one-electron contribution =  -20760.94362115 Ry
     hartree contribution      =   10690.29856203 Ry
     xc contribution           =    -895.60924287 Ry
     ewald contribution        =    8672.47180105 Ry
     one-center paw contrib.   =  -25480.62750667 Ry

     convergence has been achieved in  23 iterations

     negative rho (up, down):  3.115E-03 0.000E+00

     Forces acting on atoms (cartesian axes, Ry/au):

     atom    1 type  1   force =    -0.00040932   -0.00042601   -0.00366053
     atom    2 type  1   force =     0.00037551   -0.00042246   -0.00365767
     atom    3 type  1   force =    -0.00000364   -0.00133177   -0.00699408
     atom    4 type  1   force =    -0.00001597    0.00009440   -0.00363779
     atom    5 type  1   force =    -0.00039290   -0.00061942   -0.00391634
     atom    6 type  1   force =     0.00036094   -0.00062527   -0.00391459
     atom    7 type  1   force =    -0.00022233    0.00049060   -0.00442078
     atom    8 type  1   force =    -0.00001764    0.00031484   -0.00416799
     atom    9 type  1   force =     0.00019774    0.00048745   -0.00441486
     atom   10 type  1   force =     0.00005640    0.00319598    0.01619609
     atom   11 type  1   force =     0.00041658   -0.00123135    0.00324282
     atom   12 type  1   force =    -0.00034522   -0.00123145    0.00321467
     atom   13 type  1   force =    -0.00263574   -0.00172381    0.00675810
     atom   14 type  1   force =     0.00004006   -0.00003849   -0.00067581
     atom   15 type  1   force =     0.00273198   -0.00171450    0.00672407
     atom   16 type  1   force =    -0.00158863    0.00168194    0.00193003
     atom   17 type  1   force =     0.00167025    0.00169260    0.00193883
     atom   18 type  1   force =     0.00003009   -0.00108361   -0.00318567
     atom   19 type  1   force =     0.00016872   -0.00025601    0.00047726
     atom   20 type  1   force =    -0.00018402   -0.00025589    0.00047179
     atom   21 type  1   force =    -0.00000887   -0.00020459    0.00007623
     atom   22 type  1   force =    -0.00000919   -0.00022587   -0.00041453
     atom   23 type  1   force =     0.00000858   -0.00038643   -0.00006079
     atom   24 type  1   force =    -0.00002268   -0.00038557   -0.00005423
     atom   25 type  1   force =     0.00001119   -0.00024900   -0.00019094
     atom   26 type  1   force =    -0.00000839   -0.00030706    0.00011083
     atom   27 type  1   force =    -0.00002820   -0.00024932   -0.00019055
     atom   28 type  1   force =     0.00019290   -0.00068198    0.00014128
     atom   29 type  1   force =    -0.00022676   -0.00068150    0.00013423
     atom   30 type  1   force =    -0.00001615   -0.00073669   -0.00023451
     atom   31 type  1   force =    -0.00001376    0.00052658    0.00233831
     atom   32 type  1   force =    -0.00019898   -0.00082447    0.00016125
     atom   33 type  1   force =     0.00016826   -0.00083230    0.00016370
     atom   34 type  1   force =     0.00015036   -0.00057782   -0.00059985
     atom   35 type  1   force =    -0.00002060   -0.00087194   -0.00010808
     atom   36 type  1   force =    -0.00018271   -0.00057677   -0.00059793
     atom   37 type  2   force =    -0.00001473    0.00043693   -0.00050747
     atom   38 type  3   force =    -0.00001312    0.00983009    0.00152549
     The non-local contrib.  to forces
     atom    1 type  1   force =     0.00030601   -0.00000783   -0.01989862
     atom    2 type  1   force =    -0.00030055   -0.00000764   -0.01990709
     atom    3 type  1   force =     0.00000515   -0.00063468   -0.01584618
     atom    4 type  1   force =     0.00000489    0.00051522   -0.01991446
     atom    5 type  1   force =     0.00046193    0.00043758   -0.01968347
     atom    6 type  1   force =    -0.00045583    0.00043373   -0.01968946
     atom    7 type  1   force =    -0.00092889   -0.00002783   -0.01885020
     atom    8 type  1   force =     0.00000251   -0.00010971   -0.02008345
     atom    9 type  1   force =     0.00093911   -0.00003121   -0.01884952
     atom   10 type  1   force =     0.00004767    0.00122710    0.00302019
     atom   11 type  1   force =    -0.00311424    0.00371205    0.00054747
     atom   12 type  1   force =     0.00319678    0.00370383    0.00050889
     atom   13 type  1   force =     0.00085878   -0.00349644    0.00155175
     atom   14 type  1   force =     0.00005323    0.00091727   -0.00406771
     atom   15 type  1   force =    -0.00075903   -0.00349342    0.00152768
     atom   16 type  1   force =     0.00339458    0.00061737   -0.00080708
     atom   17 type  1   force =    -0.00330276    0.00061590   -0.00080293
     atom   18 type  1   force =     0.00003085   -0.00220777    0.00216198
     atom   19 type  1   force =    -0.01255875   -0.00602867    0.00470837
     atom   20 type  1   force =     0.01251007   -0.00601330    0.00473827
     atom   21 type  1   force =     0.00000563    0.00240384    0.00640756
     atom   22 type  1   force =    -0.00001399    0.01738470   -0.00502122
     atom   23 type  1   force =     0.00319855    0.00057270    0.00524141
     atom   24 type  1   force =    -0.00319484    0.00055921    0.00524824
     atom   25 type  1   force =    -0.00285528   -0.00483814    0.00304600
     atom   26 type  1   force =    -0.00003737   -0.00389347    0.01661873
     atom   27 type  1   force =     0.00284329   -0.00483245    0.00305256
     atom   28 type  1   force =     0.07846967    0.03906199   -0.01358870
     atom   29 type  1   force =    -0.07853010    0.03909494   -0.01360727
     atom   30 type  1   force =    -0.00002790   -0.00110201    0.01170175
     atom   31 type  1   force =    -0.00004072   -0.10187789   -0.12604374
     atom   32 type  1   force =    -0.01945836   -0.00751074    0.02595324
     atom   33 type  1   force =     0.01937187   -0.00754917    0.02594850
     atom   34 type  1   force =    -0.00076951   -0.00603161    0.01575281
     atom   35 type  1   force =    -0.00007825    0.02576702    0.02419413
     atom   36 type  1   force =     0.00066894   -0.00604338    0.01573101
     atom   37 type  2   force =    -0.00005560    0.05850400   -0.12654976
     atom   38 type  3   force =    -0.00002157   -0.00648641   -0.04174698
     The ionic contribution  to forces
     atom    1 type  1   force =     0.01293273    0.02410545  -93.95417408
     atom    2 type  1   force =    -0.01281177    0.02417510  -93.95394122
     atom    3 type  1   force =    -0.00011677   -0.00597760  -93.98142337
     atom    4 type  1   force =     0.00011661   -0.01523401  -93.92762282
     atom    5 type  1   force =    -0.03212240   -0.01881183  -93.98598488
     atom    6 type  1   force =     0.03200916   -0.01873321  -93.98620348
     atom    7 type  1   force =    -0.01962668   -0.00506412  -93.97879416
     atom    8 type  1   force =     0.00000793    0.02054085  -94.01267797
     atom    9 type  1   force =     0.01962354   -0.00493506  -93.97877422
     atom   10 type  1   force =     0.00155653    0.14581516  -32.30767186
     atom   11 type  1   force =    -0.22738824    0.04671835  -32.49926018
     atom   12 type  1   force =     0.22722500    0.04649641  -32.50093133
     atom   13 type  1   force =    -0.19932362   -0.18965085  -32.48387415
     atom   14 type  1   force =     0.00009341   -0.05963957  -32.83776718
     atom   15 type  1   force =     0.20085038   -0.18867046  -32.48475860
     atom   16 type  1   force =    -0.00089003    0.16408595  -32.64580863
     atom   17 type  1   force =     0.00230350    0.16481655  -32.64540199
     atom   18 type  1   force =    -0.00002312   -0.10541267  -32.43397447
     atom   19 type  1   force =     0.47548433    0.02604348   30.91982519
     atom   20 type  1   force =    -0.47544048    0.02460793   30.92805541
     atom   21 type  1   force =    -0.00042549   -0.13467257   28.75072260
     atom   22 type  1   force =    -0.00053630   -0.32445737   29.76606791
     atom   23 type  1   force =    -0.17178376   -0.03967706   28.55755247
     atom   24 type  1   force =     0.17233564   -0.03908826   28.55694809
     atom   25 type  1   force =    -0.05198285    0.02881734   28.79574674
     atom   26 type  1   force =     0.00111929    0.39598077   29.80898827
     atom   27 type  1   force =     0.05035020    0.02944669   28.79980969
     atom   28 type  1   force =    -2.22196633   -1.18237482   90.72223380
     atom   29 type  1   force =     2.22199127   -1.18306093   90.73544516
     atom   30 type  1   force =     0.00027547    0.28653892   91.00413903
     atom   31 type  1   force =    -0.00183381    2.08477457   93.08915484
     atom   32 type  1   force =     0.43514634    0.06694712   90.60779099
     atom   33 type  1   force =    -0.43483140    0.06662233   90.60665737
     atom   34 type  1   force =     0.32348733    0.03923926   90.12321178
     atom   35 type  1   force =    -0.00080040   -0.25353914   90.65662571
     atom   36 type  1   force =    -0.32433034    0.03822347   90.12271536
     atom   37 type  2   force =    -0.00148138   -0.41858412   43.68176351
     atom   38 type  3   force =     0.00080649    0.46358797   12.36559065
     The local contribution  to forces
     atom    1 type  1   force =    -0.01359396   -0.02451887   93.95338023
     atom    2 type  1   force =     0.01343415   -0.02458927   93.95315909
     atom    3 type  1   force =     0.00010311    0.00525860   93.97274444
     atom    4 type  1   force =    -0.00014137    0.01479225   93.92690670
     atom    5 type  1   force =     0.03127119    0.01770635   93.98473977
     atom    6 type  1   force =    -0.03119633    0.01763094   93.98496572
     atom    7 type  1   force =     0.02034911    0.00552185   93.97585544
     atom    8 type  1   force =    -0.00002429   -0.02013573   94.01159580
     atom    9 type  1   force =    -0.02038945    0.00539383   93.97583958
     atom   10 type  1   force =    -0.00154534   -0.14359453   32.32100118
     atom   11 type  1   force =     0.23037965   -0.05155356   32.50162217
     atom   12 type  1   force =    -0.23022596   -0.05132235   32.50330049
     atom   13 type  1   force =     0.19538771    0.19113000   32.48849841
     atom   14 type  1   force =    -0.00010329    0.05867541   32.83938193
     atom   15 type  1   force =    -0.19691734    0.19016006   32.48936855
     atom   16 type  1   force =    -0.00415371   -0.16271847   32.64752836
     atom   17 type  1   force =     0.00273582   -0.16343985   32.64712370
     atom   18 type  1   force =     0.00002177    0.10624237   32.42872110
     atom   19 type  1   force =    -0.46185607   -0.02047378  -30.92036636
     atom   20 type  1   force =     0.46183602   -0.01906056  -30.92862709
     atom   21 type  1   force =     0.00041590    0.13147716  -28.75538679
     atom   22 type  1   force =     0.00053439    0.30700891  -29.75947181
     atom   23 type  1   force =     0.16841716    0.03891200  -28.56129398
     atom   24 type  1   force =    -0.16898139    0.03833373  -28.56068824
     atom   25 type  1   force =     0.05431617   -0.02437789  -28.79805750
     atom   26 type  1   force =    -0.00109015   -0.39175006  -29.82242177
     atom   27 type  1   force =    -0.05269263   -0.02501744  -28.80212624
     atom   28 type  1   force =     2.12399476    1.13301908  -90.70440105
     atom   29 type  1   force =    -2.12399898    1.13367431  -90.71758539
     atom   30 type  1   force =    -0.00026340   -0.28565814  -90.99985605
     atom   31 type  1   force =     0.00184239   -1.96580543  -92.97677828
     atom   32 type  1   force =    -0.41697312   -0.06125990  -90.61756643
     atom   33 type  1   force =     0.41671606   -0.06090305  -90.61642895
     atom   34 type  1   force =    -0.32211992   -0.03427342  -90.12393954
     atom   35 type  1   force =     0.00085833    0.22882167  -90.66445468
     atom   36 type  1   force =     0.32302203   -0.03324733  -90.12342085
     atom   37 type  2   force =     0.00156283    0.36196898  -43.55878250
     atom   38 type  3   force =    -0.00079912   -0.44727650  -12.32231651
     The core correction contribution to forces
     atom    1 type  1   force =    -0.00004392   -0.00000549    0.01704198
     atom    2 type  1   force =     0.00004430   -0.00000573    0.01704134
     atom    3 type  1   force =     0.00000116    0.00001661    0.01754064
     atom    4 type  1   force =     0.00000040    0.00001308    0.01700380
     atom    5 type  1   force =    -0.00000940    0.00004564    0.01701990
     atom    6 type  1   force =     0.00001035    0.00004521    0.01702012
     atom    7 type  1   force =    -0.00001696    0.00004962    0.01738077
     atom    8 type  1   force =     0.00000053    0.00001725    0.01700701
     atom    9 type  1   force =     0.00001849    0.00004878    0.01738043
     atom   10 type  1   force =    -0.00000395   -0.00025678   -0.00014074
     atom   11 type  1   force =     0.00052874   -0.00011300    0.00034180
     atom   12 type  1   force =    -0.00053175   -0.00011317    0.00034804
     atom   13 type  1   force =     0.00043162    0.00028750    0.00059354
     atom   14 type  1   force =    -0.00000171    0.00001080    0.00178629
     atom   15 type  1   force =    -0.00043669    0.00028598    0.00059801
     atom   16 type  1   force =     0.00006596   -0.00030509    0.00103083
     atom   17 type  1   force =    -0.00007160   -0.00030566    0.00103078
     atom   18 type  1   force =    -0.00000250    0.00027867   -0.00008243
     atom   19 type  1   force =    -0.00089326    0.00019983   -0.00366926
     atom   20 type  1   force =     0.00089636    0.00020473   -0.00367601
     atom   21 type  1   force =    -0.00000142    0.00059078   -0.00164471
     atom   22 type  1   force =     0.00000165   -0.00017518   -0.00197610
     atom   23 type  1   force =     0.00017971   -0.00019375   -0.00154033
     atom   24 type  1   force =    -0.00018320   -0.00019294   -0.00153995
     atom   25 type  1   force =     0.00054324    0.00014220   -0.00091120
     atom   26 type  1   force =    -0.00000159   -0.00064879   -0.00305306
     atom   27 type  1   force =    -0.00054071    0.00014172   -0.00091126
     atom   28 type  1   force =     0.01970631    0.00960914   -0.00409302
     atom   29 type  1   force =    -0.01970313    0.00960396   -0.00410650
     atom   30 type  1   force =    -0.00000016   -0.00051578   -0.01619930
     atom   31 type  1   force =     0.00001436   -0.01657517    0.01600875
     atom   32 type  1   force =     0.00108625    0.00099779   -0.01600102
     atom   33 type  1   force =    -0.00108663    0.00099805   -0.01600079
     atom   34 type  1   force =    -0.00044324    0.00047878   -0.01561112
     atom   35 type  1   force =     0.00000223   -0.00192270   -0.01646161
     atom   36 type  1   force =     0.00044717    0.00047791   -0.01561106
     atom   37 type  2   force =    -0.00004185   -0.00145765    0.00306490
     atom   38 type  3   force =     0.00000000    0.00000000    0.00000000
     The Hubbard contrib.    to forces
     atom    1 type  1   force =     0.00000000    0.00000000    0.00000000
     atom    2 type  1   force =     0.00000000    0.00000000    0.00000000
     atom    3 type  1   force =     0.00000000    0.00000000    0.00000000
     atom    4 type  1   force =     0.00000000    0.00000000    0.00000000
     atom    5 type  1   force =     0.00000000    0.00000000    0.00000000
     atom    6 type  1   force =     0.00000000    0.00000000    0.00000000
     atom    7 type  1   force =     0.00000000    0.00000000    0.00000000
     atom    8 type  1   force =     0.00000000    0.00000000    0.00000000
     atom    9 type  1   force =     0.00000000    0.00000000    0.00000000
     atom   10 type  1   force =     0.00000000    0.00000000    0.00000000
     atom   11 type  1   force =     0.00000000    0.00000000    0.00000000
     atom   12 type  1   force =     0.00000000    0.00000000    0.00000000
     atom   13 type  1   force =     0.00000000    0.00000000    0.00000000
     atom   14 type  1   force =     0.00000000    0.00000000    0.00000000
     atom   15 type  1   force =     0.00000000    0.00000000    0.00000000
     atom   16 type  1   force =     0.00000000    0.00000000    0.00000000
     atom   17 type  1   force =     0.00000000    0.00000000    0.00000000
     atom   18 type  1   force =     0.00000000    0.00000000    0.00000000
     atom   19 type  1   force =     0.00000000    0.00000000    0.00000000
     atom   20 type  1   force =     0.00000000    0.00000000    0.00000000
     atom   21 type  1   force =     0.00000000    0.00000000    0.00000000
     atom   22 type  1   force =     0.00000000    0.00000000    0.00000000
     atom   23 type  1   force =     0.00000000    0.00000000    0.00000000
     atom   24 type  1   force =     0.00000000    0.00000000    0.00000000
     atom   25 type  1   force =     0.00000000    0.00000000    0.00000000
     atom   26 type  1   force =     0.00000000    0.00000000    0.00000000
     atom   27 type  1   force =     0.00000000    0.00000000    0.00000000
     atom   28 type  1   force =     0.00000000    0.00000000    0.00000000
     atom   29 type  1   force =     0.00000000    0.00000000    0.00000000
     atom   30 type  1   force =     0.00000000    0.00000000    0.00000000
     atom   31 type  1   force =     0.00000000    0.00000000    0.00000000
     atom   32 type  1   force =     0.00000000    0.00000000    0.00000000
     atom   33 type  1   force =     0.00000000    0.00000000    0.00000000
     atom   34 type  1   force =     0.00000000    0.00000000    0.00000000
     atom   35 type  1   force =     0.00000000    0.00000000    0.00000000
     atom   36 type  1   force =     0.00000000    0.00000000    0.00000000
     atom   37 type  2   force =     0.00000000    0.00000000    0.00000000
     atom   38 type  3   force =     0.00000000    0.00000000    0.00000000
     The SCF correction term to forces
     atom    1 type  1   force =    -0.00000000   -0.00000000   -0.00000000
     atom    2 type  1   force =     0.00000000    0.00000000   -0.00000000
     atom    3 type  1   force =     0.00000000    0.00000000   -0.00000000
     atom    4 type  1   force =     0.00000000    0.00000000   -0.00000000
     atom    5 type  1   force =     0.00000000   -0.00000000   -0.00000000
     atom    6 type  1   force =    -0.00000000   -0.00000000   -0.00000000
     atom    7 type  1   force =     0.00000000    0.00000000   -0.00000000
     atom    8 type  1   force =    -0.00000000   -0.00000000   -0.00000000
     atom    9 type  1   force =     0.00000000    0.00000000   -0.00000000
     atom   10 type  1   force =     0.00000000    0.00000000   -0.00000000
     atom   11 type  1   force =     0.00000000   -0.00000000   -0.00000000
     atom   12 type  1   force =    -0.00000000   -0.00000000   -0.00000000
     atom   13 type  1   force =     0.00000000    0.00000000   -0.00000000
     atom   14 type  1   force =    -0.00000000   -0.00000000   -0.00000000
     atom   15 type  1   force =    -0.00000000   -0.00000000   -0.00000000
     atom   16 type  1   force =    -0.00000000   -0.00000000   -0.00000000
     atom   17 type  1   force =     0.00000000    0.00000000   -0.00000000
     atom   18 type  1   force =     0.00000000    0.00000000   -0.00000000
     atom   19 type  1   force =    -0.00000848   -0.00000180   -0.00002079
     atom   20 type  1   force =     0.00001306    0.00000040   -0.00001890
     atom   21 type  1   force =    -0.00000444   -0.00000873   -0.00002253
     atom   22 type  1   force =     0.00000411    0.00000813   -0.00001343
     atom   23 type  1   force =    -0.00000404   -0.00000525   -0.00002045
     atom   24 type  1   force =     0.00000015   -0.00000224   -0.00002248
     atom   25 type  1   force =    -0.00001104    0.00000256   -0.00001508
     atom   26 type  1   force =     0.00000049   -0.00000043   -0.00002145
     atom   27 type  1   force =     0.00001070    0.00000724   -0.00001541
     atom   28 type  1   force =    -0.00001245   -0.00000229   -0.00000986
     atom   29 type  1   force =     0.00001323    0.00000131   -0.00001188
     atom   30 type  1   force =    -0.00000113   -0.00000460   -0.00002003
     atom   31 type  1   force =     0.00000308    0.00000558   -0.00000338
     atom   32 type  1   force =    -0.00000104   -0.00000365   -0.00001563
     atom   33 type  1   force =    -0.00000260   -0.00000539   -0.00001254
     atom   34 type  1   force =    -0.00000526    0.00000424   -0.00001389
     atom   35 type  1   force =    -0.00000346   -0.00000372   -0.00001174
     atom   36 type  1   force =     0.00000855    0.00000763   -0.00001249
     atom   37 type  2   force =     0.00000031    0.00000079   -0.00000372
     atom   38 type  3   force =     0.00000013    0.00000011   -0.00000177

     Total force =     0.010585     Total SCF correction =     0.000079

     Writing all to output data dir ./pwscf.save/

     init_run     :     16.41s CPU     16.84s WALL (       1 calls)
     electrons    :    477.47s CPU    492.86s WALL (       1 calls)
     forces       :      8.95s CPU      9.79s WALL (       1 calls)

     Called by init_run:
     wfcinit      :      5.60s CPU      5.78s WALL (       1 calls)
     potinit      :      9.21s CPU      9.40s WALL (       1 calls)
     hinit0       :      1.00s CPU      1.02s WALL (       1 calls)

     Called by electrons:
     c_bands      :    396.84s CPU    404.56s WALL (      24 calls)
     sum_band     :     46.70s CPU     51.05s WALL (      24 calls)
     v_of_rho     :     21.94s CPU     24.03s WALL (      24 calls)
     newd         :      3.43s CPU      4.32s WALL (      24 calls)
     PAW_pot      :      5.04s CPU      5.17s WALL (      24 calls)
     mix_rho      :     11.56s CPU     11.71s WALL (      24 calls)
     vdW_kernel   :      4.44s CPU      4.47s WALL (       1 calls)

     Called by c_bands:
     init_us_2    :      3.43s CPU      3.47s WALL (     650 calls)
     init_us_2:cp :      3.42s CPU      3.47s WALL (     650 calls)
     cegterg      :    386.01s CPU    393.38s WALL (     312 calls)

     Called by *egterg:
     cdiaghg      :     95.20s CPU     96.42s WALL (    1466 calls)
     h_psi        :    179.17s CPU    182.38s WALL (    1492 calls)
     s_psi        :     18.56s CPU     19.14s WALL (    1492 calls)
     g_psi        :      0.56s CPU      0.57s WALL (    1167 calls)

     Called by h_psi:
     h_psi:calbec :     26.66s CPU     27.75s WALL (    1492 calls)
     vloc_psi     :    132.68s CPU    134.20s WALL (    1492 calls)
     add_vuspsi   :     18.43s CPU     19.03s WALL (    1492 calls)

     General routines
     calbec       :     36.71s CPU     38.97s WALL (    1856 calls)
     fft          :     19.57s CPU     21.84s WALL (    1572 calls)
     ffts         :      6.90s CPU      6.96s WALL (    5954 calls)
     fftw         :    133.98s CPU    135.48s WALL (  402792 calls)
     interpolate  :      0.63s CPU      0.68s WALL (      24 calls)

     Parallel routines

     PWSCF        :   8m24.83s CPU   8m44.24s WALL


   This run was terminated on:   4: 2:52   2Mar2025            

=------------------------------------------------------------------------------=
   JOB DONE.
=------------------------------------------------------------------------------=
