
     Program PWSCF v.7.1 starts on 23Feb2025 at 20:59: 6 
        Git branch: heads/qe-7.1
        Last git commit: 48ba0178f8fede6d020eb786884699a9f063f55d-dirty
        Last git commit date: Fri Jan 27 14:22:33 2023 +0000
        Last git commit subject: Merge branch 'fix_hubbard' into 'develop'

     This program is part of the open-source Quantum ESPRESSO suite
     for quantum simulation of materials; please cite
         "P. Giannozzi et al., J. Phys.:Condens. Matter 21 395502 (2009);
         "P. Giannozzi et al., J. Phys.:Condens. Matter 29 465901 (2017);
         "P. Giannozzi et al., J. Chem. Phys. 152 154105 (2020);
          URL http://www.quantum-espresso.org", 
     in publications or presentations arising from this work. More details at
     http://www.quantum-espresso.org/quote

     Parallel version (MPI), running on    48 processors

     MPI processes distributed on     1 nodes
     39669 MiB available memory on the printing compute node when the environment starts

     Reading input from espresso.pwi
Warning: card &CELL ignored
Warning: card / ignored
Warning: card &FCP ignored
Warning: card / ignored
Warning: card &RISM ignored
Warning: card / ignored

     Current dimensions of program PWSCF are:
     Max number of different atomic species (ntypx) = 10
     Max number of k-points (npk) =  40000
     Max angular momentum in pseudopotentials (lmaxx) =  4
     file Pt.pbe-n-kjpaw_psl.1.0.0.UPF: wavefunction(s)  6S 5D renormalized
     file H.pbe-kjpaw_psl.1.0.0.UPF: wavefunction(s)  1S renormalized

     **************************************************************************
     Initializing libbeef V0.1.2 with the BEEF-vdW functional.
     Citation: Wellendorff et al., PRB 85, 235149 (2012).
     **************************************************************************


     IMPORTANT: XC functional enforced from input :
     Exchange-correlation= BEEF-VDW
                           (   1   4  43  14   2   0   0)
     Any further DFT definition will be discarded
     Please, verify this is what you really want


     R & G space division:  proc/nbgrp/npool/nimage =      48
     Subspace diagonalization in iterative solution of the eigenvalue problem:
     one sub-group per band group will be used
     custom distributed-memory algorithm (size of sub-group:  2*  2 procs)


     Parallelization info
     --------------------
     sticks:   dense  smooth     PW     G-vecs:    dense   smooth      PW
     Min         151      59     16                29407     7165    1028
     Max         152      60     17                29420     7176    1042
     Sum        7267    2839    769              1411785   344073   49691

     Using Slab Decomposition



     bravais-lattice index     =            0
     lattice parameter (alat)  =      16.0349  a.u.
     unit-cell volume          =   10068.6169 (a.u.)^3
     number of atoms/cell      =           37
     number of atomic types    =            2
     number of electrons       =       361.00
     number of Kohn-Sham states=          217
     kinetic-energy cutoff     =      40.0000  Ry
     charge density cutoff     =     410.0000  Ry
     scf convergence threshold =      1.0E-08
     mixing beta               =       0.7000
     number of iterations used =            8  local-TF  mixing
     Exchange-correlation= BEEF-VDW
                           (   1   4  43  14   2   0   0)

     celldm(1)=  16.034858  celldm(2)=   0.000000  celldm(3)=   0.000000
     celldm(4)=   0.000000  celldm(5)=   0.000000  celldm(6)=   0.000000

     crystal axes: (cart. coord. in units of alat)
               a(1) = (   1.000000   0.000000   0.000000 )  
               a(2) = (   0.500000   0.866025   0.000000 )  
               a(3) = (   0.000000   0.000000   2.819966 )  

     reciprocal axes: (cart. coord. in units 2 pi/alat)
               b(1) = (  1.000000 -0.577350  0.000000 )  
               b(2) = (  0.000000  1.154701  0.000000 )  
               b(3) = (  0.000000  0.000000  0.354614 )  


     PseudoPot. # 1 for Pt read from file:
     /users/kbadger1/espresso/pseudo/pslibrary.1.0.0/pbe/PSEUDOPOTENTIALS/Pt.pbe-n-kjpaw_psl.1.0.0.UPF
     MD5 check sum: 2e24a0b5bf98a4ed1a57fa81bca8c143
     Pseudo is Projector augmented-wave + core cor, Zval = 10.0
     Generated using 'atomic' code by A. Dal Corso  v.7.0
     Shape of augmentation charge: PSQ
     Using radial grid of 1277 points,  6 beta functions with: 
                l(1) =   0
                l(2) =   0
                l(3) =   1
                l(4) =   1
                l(5) =   2
                l(6) =   2
     Q(r) pseudized with 0 coefficients 


     PseudoPot. # 2 for H  read from file:
     /users/kbadger1/espresso/pseudo/pslibrary.1.0.0/pbe/PSEUDOPOTENTIALS/H.pbe-kjpaw_psl.1.0.0.UPF
     MD5 check sum: fe4c6fa958fa6d3815bf5d2419cbf1df
     Pseudo is Projector augmented-wave, Zval =  1.0
     Generated using 'atomic' code by A. Dal Corso  v.7.0
     Shape of augmentation charge: PSQ
     Using radial grid of  929 points,  2 beta functions with: 
                l(1) =   0
                l(2) =   0
     Q(r) pseudized with 0 coefficients 


     atomic species   valence    mass     pseudopotential
        Pt            10.00   195.08400     Pt( 1.00)
        H              1.00     1.00800     H ( 1.00)

     No symmetry found



   Cartesian axes

     site n.     atom                  positions (alat units)
         1           Pt  tau(   1) = (   0.0000000   0.0000000   1.0017346  )
         2           Pt  tau(   2) = (   0.3333333   0.0000000   1.0017346  )
         3           Pt  tau(   3) = (   0.6666667   0.0000000   1.0017346  )
         4           Pt  tau(   4) = (   0.1666667   0.2886751   1.0017346  )
         5           Pt  tau(   5) = (   0.5000000   0.2886751   1.0017346  )
         6           Pt  tau(   6) = (   0.8333333   0.2886751   1.0017346  )
         7           Pt  tau(   7) = (   0.3333333   0.5773503   1.0017346  )
         8           Pt  tau(   8) = (   0.6666667   0.5773503   1.0017346  )
         9           Pt  tau(   9) = (   1.0000000   0.5773503   1.0017346  )
        10           Pt  tau(  10) = (   0.1666667   0.0962250   1.2739001  )
        11           Pt  tau(  11) = (   0.5000000   0.0962250   1.2739001  )
        12           Pt  tau(  12) = (   0.8333333   0.0962250   1.2739001  )
        13           Pt  tau(  13) = (   0.3333333   0.3849002   1.2739001  )
        14           Pt  tau(  14) = (   0.6666667   0.3849002   1.2739001  )
        15           Pt  tau(  15) = (   1.0000000   0.3849002   1.2739001  )
        16           Pt  tau(  16) = (   0.5000000   0.6735753   1.2739001  )
        17           Pt  tau(  17) = (   0.8333333   0.6735753   1.2739001  )
        18           Pt  tau(  18) = (   1.1666667   0.6735753   1.2739001  )
        19           Pt  tau(  19) = (   0.0015841   0.1931988   1.5437092  )
        20           Pt  tau(  20) = (   0.3337624   0.1926996   1.5452949  )
        21           Pt  tau(  21) = (   0.6676709   0.1928434   1.5423899  )
        22           Pt  tau(  22) = (   0.1672426   0.4802914   1.5443237  )
        23           Pt  tau(  23) = (   0.5008386   0.4817974   1.5423835  )
        24           Pt  tau(  24) = (   0.8342091   0.4816293   1.5426108  )
        25           Pt  tau(  25) = (   0.3337220   0.7700218   1.5416496  )
        26           Pt  tau(  26) = (   0.6681092   0.7707951   1.5437110  )
        27           Pt  tau(  27) = (   0.9995700   0.7707173   1.5443180  )
        28           Pt  tau(  28) = (  -0.0004941  -0.0002796   1.8156136  )
        29           Pt  tau(  29) = (   0.3376698  -0.0001026   1.8259172  )
        30           Pt  tau(  30) = (   0.6695429   0.0011155   1.8167831  )
        31           Pt  tau(  31) = (   0.1687415   0.2924874   1.8259326  )
        32           Pt  tau(  32) = (   0.5067099   0.2925583   1.8168386  )
        33           Pt  tau(  33) = (   0.8359930   0.2900284   1.8170494  )
        34           Pt  tau(  34) = (   0.3357399   0.5792849   1.8167890  )
        35           Pt  tau(  35) = (   0.6691640   0.5789772   1.8170468  )
        36           Pt  tau(  36) = (   1.0023503   0.5787101   1.8172656  )
        37           H   tau(  37) = (   0.2711997   0.1565758   1.9444724  )

     number of k points=    13  Marzari-Vanderbilt smearing, width (Ry)=  0.0200
                       cart. coord. in units 2pi/alat
        k(    1) = (   0.0000000   0.0000000   0.0000000), wk =   0.0800000
        k(    2) = (   0.0000000   0.2309401   0.0000000), wk =   0.1600000
        k(    3) = (   0.0000000   0.4618802   0.0000000), wk =   0.1600000
        k(    4) = (   0.2000000  -0.1154701   0.0000000), wk =   0.1600000
        k(    5) = (   0.2000000   0.1154701   0.0000000), wk =   0.1600000
        k(    6) = (   0.2000000   0.3464102   0.0000000), wk =   0.1600000
        k(    7) = (   0.2000000  -0.5773503   0.0000000), wk =   0.1600000
        k(    8) = (   0.2000000  -0.3464102   0.0000000), wk =   0.1600000
        k(    9) = (   0.4000000  -0.2309401   0.0000000), wk =   0.1600000
        k(   10) = (   0.4000000  -0.0000000   0.0000000), wk =   0.1600000
        k(   11) = (   0.4000000   0.2309401   0.0000000), wk =   0.1600000
        k(   12) = (   0.4000000  -0.6928203   0.0000000), wk =   0.1600000
        k(   13) = (   0.4000000  -0.4618802   0.0000000), wk =   0.1600000

     Dense  grid:  1411785 G-vectors     FFT dimensions: ( 108, 108, 300)

     Smooth grid:   344073 G-vectors     FFT dimensions: (  72,  72, 192)

     Estimated max dynamical RAM per process >     203.68 MB

     Estimated total dynamical RAM >       9.55 GB

     Initial potential from superposition of free atoms

     starting charge     360.9939, renormalised to     361.0000

     negative rho (up, down):  3.375E-03 0.000E+00


     %%%%%%%%%%%%%%%%%%%%%%%%%%%%%%%%%%%%%%%%%%%%%%%%%%%%%%%%%%%%%%%%%%%%%%%%
     %                                                                      %
     % You are using vdW-DF, which was implemented by the Thonhauser group. %
     % Please cite the following two papers that made this development      %
     % possible and the two reviews that describe the various versions:     %
     %                                                                      %
     %   T. Thonhauser et al., PRL 115, 136402 (2015).                      %
     %   T. Thonhauser et al., PRB 76, 125112 (2007).                       %
     %   K. Berland et al., Rep. Prog. Phys. 78, 066501 (2015).             %
     %   D.C. Langreth et al., J. Phys.: Condens. Matter 21, 084203 (2009). %
     %                                                                      %
     % If you are calculating stress with vdW-DF, please also cite:         %
     %                                                                      %
     %   R. Sabatini et al., J. Phys.: Condens. Matter 24, 424209 (2012).   %
     %                                                                      %
     %%%%%%%%%%%%%%%%%%%%%%%%%%%%%%%%%%%%%%%%%%%%%%%%%%%%%%%%%%%%%%%%%%%%%%%%

     %%%%%%%%%%%%%%%%%%%%%%%%%%%%%%%%%%%%%%%%%%%%%%%%%%%%%%%%%%%%%%%%%%%%%%%%
     %                                                                      %
     %  vdW-DF NEWS:                                                        %
     %                                                                      %
     %  * vdW-DF3 is now available. DOI: 10.1021/acs.jctc.0c00471           %
     %    use with input_dft = 'vdW-DF3-opt1' or 'vdW-DF3-opt2'             %
     %                                                                      %
     %  * Unscreened and range-separated hybrid vdW-DF-cx functionals       %
     %    DOI: 10.1063/1.4986522 and 10.1088/1361-648X/ac2ad2               %
     %    use with input_dft = 'vdW-DF-cx0'    and 'vdW-DF-ahcx'            %
     %  * Unscreened and range-separated hybrid vdW-DF2-b86r functionals    %
     %    DOI: 10.1063/1.4986522 and DOI: 10.1103/PhysRevX.12.041003        %
     %    use with input_dft = 'vdW-DF2-br0' and 'vdW-DF2-ahbr'             %
     %                                                                      %
     %%%%%%%%%%%%%%%%%%%%%%%%%%%%%%%%%%%%%%%%%%%%%%%%%%%%%%%%%%%%%%%%%%%%%%%%


     Starting wfcs are  325 randomized atomic wfcs
     Checking if some PAW data can be deallocated... 

     total cpu time spent up to now is       10.5 secs

     per-process dynamical memory:   207.7 Mb

     Self-consistent Calculation

     iteration #  1     ecut=    40.00 Ry     beta= 0.70
     Davidson diagonalization with overlap
     ethr =  1.00E-02,  avg # of iterations =  2.0

     Threshold (ethr) on eigenvalues was too large:
     Diagonalizing with lowered threshold

     Davidson diagonalization with overlap
     ethr =  3.74E-04,  avg # of iterations =  3.6

     negative rho (up, down):  1.777E-02 0.000E+00

     total cpu time spent up to now is       41.3 secs

     total energy              =  -27755.28256467 Ry
     estimated scf accuracy    <       1.55263872 Ry

     iteration #  2     ecut=    40.00 Ry     beta= 0.70
     Davidson diagonalization with overlap
     ethr =  4.30E-04,  avg # of iterations =  2.0

     negative rho (up, down):  1.594E-02 0.000E+00

     total cpu time spent up to now is       54.1 secs

     total energy              =  -27755.38113302 Ry
     estimated scf accuracy    <       0.81369243 Ry

     iteration #  3     ecut=    40.00 Ry     beta= 0.70
     Davidson diagonalization with overlap
     ethr =  2.25E-04,  avg # of iterations =  2.0

     negative rho (up, down):  1.057E-02 0.000E+00

     total cpu time spent up to now is       66.5 secs

     total energy              =  -27755.43310168 Ry
     estimated scf accuracy    <       0.09420002 Ry

     iteration #  4     ecut=    40.00 Ry     beta= 0.70
     Davidson diagonalization with overlap
     c_bands:  2 eigenvalues not converged
     c_bands:  1 eigenvalues not converged
     ethr =  2.61E-05,  avg # of iterations = 13.9

     negative rho (up, down):  7.760E-03 0.000E+00

     total cpu time spent up to now is       97.6 secs

     total energy              =  -27755.48279951 Ry
     estimated scf accuracy    <       0.08567705 Ry

     iteration #  5     ecut=    40.00 Ry     beta= 0.70
     Davidson diagonalization with overlap
     c_bands:  1 eigenvalues not converged
     ethr =  2.37E-05,  avg # of iterations =  4.1

     negative rho (up, down):  3.465E-03 0.000E+00

     total cpu time spent up to now is      111.8 secs

     total energy              =  -27755.48266518 Ry
     estimated scf accuracy    <       0.03014148 Ry

     iteration #  6     ecut=    40.00 Ry     beta= 0.70
     Davidson diagonalization with overlap
     c_bands:  1 eigenvalues not converged
     c_bands:  1 eigenvalues not converged
     c_bands:  1 eigenvalues not converged
     ethr =  8.35E-06,  avg # of iterations =  7.2

     negative rho (up, down):  1.663E-03 0.000E+00

     total cpu time spent up to now is      126.7 secs

     total energy              =  -27755.48484807 Ry
     estimated scf accuracy    <       0.00251858 Ry

     iteration #  7     ecut=    40.00 Ry     beta= 0.70
     Davidson diagonalization with overlap
     c_bands:  2 eigenvalues not converged
     c_bands:  1 eigenvalues not converged
     ethr =  6.98E-07,  avg # of iterations = 13.8

     negative rho (up, down):  1.277E-03 0.000E+00

     total cpu time spent up to now is      155.8 secs

     total energy              =  -27755.48537841 Ry
     estimated scf accuracy    <       0.00195111 Ry

     iteration #  8     ecut=    40.00 Ry     beta= 0.70
     Davidson diagonalization with overlap
     ethr =  5.40E-07,  avg # of iterations =  2.7

     negative rho (up, down):  1.110E-03 0.000E+00

     total cpu time spent up to now is      168.7 secs

     total energy              =  -27755.48552744 Ry
     estimated scf accuracy    <       0.00021438 Ry

     iteration #  9     ecut=    40.00 Ry     beta= 0.70
     Davidson diagonalization with overlap
     ethr =  5.94E-08,  avg # of iterations =  5.2

     negative rho (up, down):  8.968E-04 0.000E+00

     total cpu time spent up to now is      193.6 secs

     total energy              =  -27755.48564478 Ry
     estimated scf accuracy    <       0.00008673 Ry

     iteration # 10     ecut=    40.00 Ry     beta= 0.70
     Davidson diagonalization with overlap
     c_bands:  1 eigenvalues not converged
     ethr =  2.40E-08,  avg # of iterations =  5.4

     negative rho (up, down):  8.761E-04 0.000E+00

     total cpu time spent up to now is      215.1 secs

     total energy              =  -27755.48566428 Ry
     estimated scf accuracy    <       0.00008649 Ry

     iteration # 11     ecut=    40.00 Ry     beta= 0.70
     Davidson diagonalization with overlap
     ethr =  2.40E-08,  avg # of iterations =  1.2

     negative rho (up, down):  9.610E-04 0.000E+00

     total cpu time spent up to now is      226.9 secs

     total energy              =  -27755.48566848 Ry
     estimated scf accuracy    <       0.00005597 Ry

     iteration # 12     ecut=    40.00 Ry     beta= 0.70
     Davidson diagonalization with overlap
     ethr =  1.55E-08,  avg # of iterations =  1.9

     negative rho (up, down):  1.185E-03 0.000E+00

     total cpu time spent up to now is      240.7 secs

     total energy              =  -27755.48567481 Ry
     estimated scf accuracy    <       0.00001956 Ry

     iteration # 13     ecut=    40.00 Ry     beta= 0.70
     Davidson diagonalization with overlap
     ethr =  5.42E-09,  avg # of iterations =  2.1

     negative rho (up, down):  1.646E-03 0.000E+00

     total cpu time spent up to now is      252.9 secs

     total energy              =  -27755.48568004 Ry
     estimated scf accuracy    <       0.00001167 Ry

     iteration # 14     ecut=    40.00 Ry     beta= 0.70
     Davidson diagonalization with overlap
     ethr =  3.23E-09,  avg # of iterations =  1.9

     negative rho (up, down):  1.985E-03 0.000E+00

     total cpu time spent up to now is      265.7 secs

     total energy              =  -27755.48568327 Ry
     estimated scf accuracy    <       0.00000675 Ry

     iteration # 15     ecut=    40.00 Ry     beta= 0.70
     Davidson diagonalization with overlap
     ethr =  1.87E-09,  avg # of iterations =  2.0

     negative rho (up, down):  2.719E-03 0.000E+00

     total cpu time spent up to now is      278.3 secs

     total energy              =  -27755.48568087 Ry
     estimated scf accuracy    <       0.00000592 Ry

     iteration # 16     ecut=    40.00 Ry     beta= 0.70
     Davidson diagonalization with overlap
     ethr =  1.64E-09,  avg # of iterations =  1.3

     negative rho (up, down):  2.864E-03 0.000E+00

     total cpu time spent up to now is      290.3 secs

     total energy              =  -27755.48568065 Ry
     estimated scf accuracy    <       0.00000111 Ry

     iteration # 17     ecut=    40.00 Ry     beta= 0.70
     Davidson diagonalization with overlap
     ethr =  3.07E-10,  avg # of iterations =  4.2

     negative rho (up, down):  2.946E-03 0.000E+00

     total cpu time spent up to now is      312.1 secs

     total energy              =  -27755.48568074 Ry
     estimated scf accuracy    <       0.00000055 Ry

     iteration # 18     ecut=    40.00 Ry     beta= 0.70
     Davidson diagonalization with overlap
     ethr =  1.53E-10,  avg # of iterations =  2.0

     negative rho (up, down):  3.001E-03 0.000E+00

     total cpu time spent up to now is      325.3 secs

     total energy              =  -27755.48568050 Ry
     estimated scf accuracy    <       0.00000024 Ry

     iteration # 19     ecut=    40.00 Ry     beta= 0.70
     Davidson diagonalization with overlap
     ethr =  6.61E-11,  avg # of iterations =  2.2

     negative rho (up, down):  3.122E-03 0.000E+00

     total cpu time spent up to now is      338.1 secs

     total energy              =  -27755.48567982 Ry
     estimated scf accuracy    <       0.00000008 Ry

     iteration # 20     ecut=    40.00 Ry     beta= 0.70
     Davidson diagonalization with overlap
     ethr =  2.31E-11,  avg # of iterations =  3.6

     negative rho (up, down):  3.157E-03 0.000E+00

     total cpu time spent up to now is      355.0 secs

     total energy              =  -27755.48567965 Ry
     estimated scf accuracy    <       0.00000002 Ry

     iteration # 21     ecut=    40.00 Ry     beta= 0.70
     Davidson diagonalization with overlap
     ethr =  4.84E-12,  avg # of iterations =  5.4

     negative rho (up, down):  3.163E-03 0.000E+00

     total cpu time spent up to now is      378.6 secs

     End of self-consistent calculation

          k = 0.0000 0.0000 0.0000 ( 42913 PWs)   bands (ev):

    -6.3064  -5.1485  -4.4062  -3.8900  -3.8833  -3.8697  -3.8675  -3.8578
    -3.8508  -3.8470  -3.5430  -3.3200  -3.3191  -3.3109  -3.3013  -3.3006
    -3.2265  -2.8514  -2.8501  -2.8497  -2.8427  -2.8377  -2.7375  -2.6327
    -2.6287  -2.6277  -2.6240  -2.6156  -2.5139  -2.4049  -2.4036  -2.4026
    -2.3954  -2.3947  -2.3900  -2.3779  -2.3678  -2.3640  -2.3442  -2.3358
    -1.9565  -1.7855  -1.7850  -1.7602  -1.7447  -1.7189  -1.7064  -1.7001
    -1.6881  -1.6872  -1.5645  -1.5463  -1.5461  -1.4483  -1.4372  -0.9811
    -0.9711  -0.9616  -0.9592  -0.9451  -0.8951  -0.8801  -0.7850  -0.7845
    -0.7814  -0.7729  -0.7634  -0.7617  -0.7495  -0.7296  -0.7205  -0.7178
    -0.7150  -0.7103  -0.6846  -0.6773  -0.6706  -0.5607  -0.5513  -0.5438
    -0.5417  -0.5315  -0.5130  -0.3858  -0.3632  -0.3623  -0.3487  -0.3428
    -0.3352  -0.2976  -0.2866  -0.2257  -0.2078  -0.1955  -0.1693  -0.1254
    -0.1238  -0.0849  -0.0846  -0.0725  -0.0052   0.0643   0.0763   0.0797
     0.0834   0.0900   0.1030   0.3412   0.5519   0.5768   0.5805   0.5862
     0.5873   0.6019   0.6220   0.6359   0.6403   0.6460   0.6632   0.7216
     0.7345   0.7828   0.8623   0.8774   0.8814   0.8859   0.9008   0.9781
     1.0086   1.0442   1.0579   1.0595   1.0704   1.2785   1.2985   1.3093
     1.3227   1.3274   1.3276   1.3775   1.4015   1.5231   1.5430   1.5642
     1.5698   1.5724   1.5728   1.6946   1.7130   1.7299   1.7440   1.7544
     1.7547   1.7586   1.7675   1.7788   1.7834   1.7858   1.7891   1.8550
     1.8880   1.8943   1.8969   1.9170   1.9199   1.9441   1.9453   1.9886
     2.0001   2.0187   2.0287   2.0294   2.0481   2.0634   2.0647   2.1265
     2.1340   2.1373   2.1537   2.1586   2.1600   2.2075   2.2345   2.2459
     2.2573   2.2582   2.2710   2.2740   2.4599   2.4669   2.5608   2.5634
     2.5739   2.5838   2.5901   2.5916   3.1062   3.4153   3.4269   3.4607
     3.4724   3.4825   3.4830   5.3787   5.7191   5.7655   5.7872   5.8122
     5.8181   7.1290   7.3147   7.3781   7.4000   7.4023   7.4043   7.5325
     7.6294

          k = 0.0000 0.2309 0.0000 ( 42996 PWs)   bands (ev):

    -6.1594  -5.0181  -4.4074  -4.3027  -3.9786  -3.9645  -3.7474  -3.6708
    -3.6378  -3.6259  -3.5074  -3.4090  -3.3830  -3.2514  -3.2385  -3.2317
    -3.1341  -2.9440  -2.8177  -2.8121  -2.7997  -2.7866  -2.7266  -2.6980
    -2.6669  -2.6394  -2.6298  -2.5957  -2.5629  -2.5318  -2.5267  -2.4317
    -2.4216  -2.4026  -2.3844  -2.2599  -2.2015  -2.1906  -2.1789  -2.1453
    -1.9801  -1.9047  -1.8993  -1.8511  -1.8202  -1.7965  -1.7848  -1.7048
    -1.6059  -1.5658  -1.5312  -1.5095  -1.4767  -1.4543  -1.4385  -1.2415
    -1.1473  -1.1430  -1.0820  -1.0574  -1.0201  -0.9914  -0.9584  -0.9477
    -0.9293  -0.9212  -0.8671  -0.8567  -0.8030  -0.7744  -0.7623  -0.7415
    -0.6786  -0.6659  -0.6489  -0.5989  -0.5941  -0.5737  -0.5349  -0.4995
    -0.4921  -0.4744  -0.4676  -0.3895  -0.3810  -0.3709  -0.3648  -0.3513
    -0.3102  -0.2856  -0.2634  -0.2306  -0.2054  -0.2001  -0.1828  -0.1568
    -0.1321  -0.1107  -0.0936  -0.0873  -0.0088   0.0453   0.0680   0.0810
     0.0879   0.0941   0.1014   0.1242   0.1606   0.1657   0.1821   0.1985
     0.3864   0.5021   0.5464   0.5794   0.5876   0.5999   0.6090   0.6303
     0.6393   0.7429   0.7990   0.8092   0.8867   0.9393   0.9488   0.9604
     0.9914   1.0131   1.0422   1.0642   1.0796   1.1520   1.1756   1.1901
     1.2022   1.2108   1.2969   1.3910   1.4165   1.4223   1.4315   1.4465
     1.4654   1.5176   1.5515   1.5797   1.5942   1.6070   1.6518   1.6725
     1.6864   1.6962   1.7653   1.7915   1.8075   1.8270   1.8581   1.9336
     1.9587   1.9628   1.9799   1.9924   2.0198   2.0319   2.1010   2.1135
     2.1585   2.1723   2.1772   2.1945   2.2199   2.2270   2.2374   2.2438
     2.2470   2.3075   2.3121   2.4458   2.4627   2.4744   2.4885   2.5040
     2.5096   2.5402   2.5608   2.5775   2.5908   2.6586   2.6961   2.7193
     2.7748   2.8785   2.8871   2.8999   2.9326   3.2646   3.3296   3.8308
     4.0515   4.0792   4.1879   4.9789   5.3681   5.4964   6.1245   6.2120
     6.2308   6.3424   6.5905   6.9890   7.1735   7.3408   7.5239   7.5795
     7.6283

          k = 0.0000 0.4619 0.0000 ( 43046 PWs)   bands (ev):

    -5.7364  -5.1032  -4.6801  -4.2018  -4.0135  -3.9891  -3.7852  -3.6435
    -3.4890  -3.3642  -3.2920  -3.2858  -3.2357  -3.1244  -3.0782  -3.0640
    -3.0594  -3.0330  -2.9106  -2.9006  -2.8892  -2.8505  -2.8418  -2.8145
    -2.7261  -2.7171  -2.7136  -2.6822  -2.4541  -2.4500  -2.4399  -2.4383
    -2.4261  -2.3421  -2.2041  -2.1935  -2.1702  -2.1527  -2.1362  -2.0529
    -1.9455  -1.8694  -1.8633  -1.8428  -1.8041  -1.7890  -1.7464  -1.7263
    -1.7072  -1.6760  -1.6460  -1.6003  -1.4999  -1.4930  -1.4608  -1.3948
    -1.3470  -1.3201  -1.2819  -1.2674  -1.2215  -1.1230  -1.0614  -1.0553
    -1.0417  -1.0067  -0.9517  -0.9413  -0.8908  -0.8122  -0.8065  -0.7973
    -0.7515  -0.6848  -0.6797  -0.6665  -0.6570  -0.6357  -0.5903  -0.5749
    -0.5591  -0.5531  -0.5411  -0.5373  -0.5284  -0.4969  -0.4585  -0.4026
    -0.3955  -0.3807  -0.3693  -0.3598  -0.3228  -0.2406  -0.2117  -0.1848
    -0.1426  -0.1321  -0.1107  -0.0890  -0.0578  -0.0512   0.0338   0.0705
     0.0877   0.1078   0.1453   0.1789   0.2256   0.3190   0.3402   0.4113
     0.4306   0.4786   0.4919   0.5245   0.5309   0.5375   0.5394   0.5972
     0.6230   0.6450   0.6507   0.6614   0.6837   0.7036   0.7163   0.7420
     0.7482   0.8704   0.8859   0.8969   0.9563   0.9810   1.0679   1.0831
     1.1611   1.1903   1.2323   1.2836   1.3479   1.3631   1.4110   1.4200
     1.4494   1.4674   1.4930   1.5161   1.5621   1.5691   1.6173   1.6555
     1.6762   1.7130   1.7320   1.7429   1.7547   1.7923   1.8825   1.9279
     1.9879   2.0049   2.0233   2.0329   2.0771   2.1274   2.1400   2.1961
     2.2137   2.2343   2.2410   2.2922   2.3193   2.3381   2.3434   2.4509
     2.4622   2.4752   2.4902   2.4946   2.4993   2.5182   2.5221   2.7016
     2.7212   2.7333   2.7439   2.7480   2.9068   2.9580   3.1597   3.3364
     3.3805   3.5770   3.7756   3.7896   4.0749   4.1734   4.2832   4.4799
     4.7680   4.9981   5.0055   5.0896   5.2175   5.2597   5.3462   5.3915
     5.6056   5.6568   6.1913   6.2855   6.6911   6.8249   7.1532   7.3070
     7.7113

          k = 0.2000-0.1155 0.0000 ( 42996 PWs)   bands (ev):

    -6.1594  -5.0181  -4.4074  -4.3027  -3.9786  -3.9646  -3.7474  -3.6708
    -3.6378  -3.6259  -3.5074  -3.4090  -3.3830  -3.2514  -3.2385  -3.2317
    -3.1341  -2.9440  -2.8177  -2.8121  -2.7997  -2.7866  -2.7266  -2.6980
    -2.6669  -2.6394  -2.6298  -2.5957  -2.5629  -2.5317  -2.5267  -2.4317
    -2.4216  -2.4027  -2.3844  -2.2599  -2.2015  -2.1906  -2.1789  -2.1453
    -1.9801  -1.9047  -1.8993  -1.8511  -1.8202  -1.7965  -1.7848  -1.7049
    -1.6059  -1.5658  -1.5312  -1.5095  -1.4767  -1.4543  -1.4385  -1.2415
    -1.1473  -1.1430  -1.0820  -1.0574  -1.0201  -0.9914  -0.9584  -0.9477
    -0.9293  -0.9212  -0.8671  -0.8567  -0.8030  -0.7744  -0.7623  -0.7415
    -0.6786  -0.6659  -0.6489  -0.5989  -0.5941  -0.5737  -0.5349  -0.4995
    -0.4921  -0.4744  -0.4676  -0.3895  -0.3810  -0.3709  -0.3648  -0.3513
    -0.3102  -0.2856  -0.2634  -0.2306  -0.2054  -0.2002  -0.1828  -0.1568
    -0.1321  -0.1107  -0.0935  -0.0873  -0.0087   0.0453   0.0680   0.0810
     0.0879   0.0941   0.1014   0.1242   0.1606   0.1657   0.1821   0.1985
     0.3864   0.5021   0.5463   0.5794   0.5876   0.5999   0.6090   0.6303
     0.6393   0.7429   0.7990   0.8092   0.8867   0.9393   0.9488   0.9605
     0.9914   1.0131   1.0422   1.0642   1.0796   1.1520   1.1756   1.1901
     1.2022   1.2108   1.2969   1.3910   1.4165   1.4222   1.4315   1.4465
     1.4654   1.5176   1.5515   1.5797   1.5942   1.6070   1.6518   1.6725
     1.6864   1.6962   1.7653   1.7916   1.8075   1.8271   1.8581   1.9336
     1.9586   1.9629   1.9799   1.9924   2.0198   2.0319   2.1010   2.1135
     2.1584   2.1723   2.1772   2.1945   2.2199   2.2270   2.2374   2.2438
     2.2470   2.3075   2.3121   2.4458   2.4627   2.4744   2.4885   2.5041
     2.5096   2.5403   2.5608   2.5775   2.5908   2.6586   2.6961   2.7193
     2.7748   2.8785   2.8871   2.8999   2.9326   3.2646   3.3297   3.8308
     4.0515   4.0792   4.1879   4.9789   5.3681   5.4964   6.1245   6.2120
     6.2308   6.3424   6.5905   6.9890   7.1735   7.3408   7.5239   7.5795
     7.6283

          k = 0.2000 0.1155 0.0000 ( 42996 PWs)   bands (ev):

    -6.1606  -5.0294  -4.4588  -4.2487  -3.9807  -3.9743  -3.7480  -3.6784
    -3.6264  -3.6251  -3.5511  -3.4037  -3.2911  -3.2538  -3.2352  -3.2350
    -3.1995  -2.9393  -2.8155  -2.8145  -2.7993  -2.7369  -2.7253  -2.6831
    -2.6668  -2.6560  -2.6416  -2.6324  -2.5306  -2.5269  -2.4960  -2.4279
    -2.4208  -2.3880  -2.3806  -2.2292  -2.1993  -2.1862  -2.1841  -2.1653
    -1.9564  -1.9022  -1.8966  -1.8559  -1.8213  -1.8135  -1.7859  -1.7273
    -1.6076  -1.5752  -1.5312  -1.5215  -1.4662  -1.4466  -1.4242  -1.2361
    -1.1433  -1.1424  -1.0737  -1.0568  -1.0213  -0.9847  -0.9742  -0.9480
    -0.9308  -0.9176  -0.8972  -0.8500  -0.7869  -0.7715  -0.7620  -0.7551
    -0.6893  -0.6784  -0.6683  -0.5994  -0.5826  -0.5735  -0.5355  -0.4832
    -0.4802  -0.4713  -0.4681  -0.3894  -0.3867  -0.3692  -0.3548  -0.3514
    -0.2967  -0.2922  -0.2667  -0.2439  -0.2066  -0.1970  -0.1890  -0.1533
    -0.1422  -0.1151  -0.0994  -0.0929  -0.0083   0.0513   0.0597   0.0603
     0.0762   0.0867   0.1075   0.1107   0.1505   0.1720   0.1738   0.1891
     0.4199   0.5002   0.5365   0.5614   0.5926   0.6051   0.6075   0.6332
     0.6491   0.6901   0.7790   0.8041   0.8890   0.9358   0.9468   0.9703
     0.9803   1.0000   1.0387   1.0648   1.0662   1.1643   1.1831   1.1929
     1.2067   1.2143   1.3728   1.3835   1.4124   1.4144   1.4241   1.4449
     1.4703   1.5284   1.5368   1.5584   1.5993   1.6016   1.6593   1.6689
     1.6841   1.6871   1.7676   1.7838   1.8167   1.8306   1.8814   1.9197
     1.9267   1.9642   1.9758   1.9796   2.0213   2.0372   2.0995   2.1117
     2.1634   2.1677   2.1837   2.2135   2.2156   2.2328   2.2365   2.2436
     2.2475   2.3035   2.3076   2.4488   2.4574   2.4708   2.5004   2.5139
     2.5173   2.5454   2.5817   2.5837   2.5938   2.6759   2.6922   2.7178
     2.7784   2.8824   2.8847   2.8955   2.9349   3.2859   3.3215   3.8426
     4.0339   4.0755   4.1971   4.9364   5.4457   5.4951   6.0837   6.2143
     6.2637   6.3309   6.5326   6.9747   7.1758   7.3244   7.5586   7.5846
     7.6287

          k = 0.2000 0.3464 0.0000 ( 43046 PWs)   bands (ev):

    -5.8761  -4.8421  -4.6317  -4.6170  -4.1706  -3.5529  -3.5482  -3.5410
    -3.5200  -3.4819  -3.4800  -3.4652  -3.3708  -3.3559  -3.1670  -2.9834
    -2.9763  -2.9637  -2.9580  -2.8938  -2.8743  -2.7383  -2.7228  -2.7160
    -2.7092  -2.6285  -2.6133  -2.5704  -2.5632  -2.5527  -2.4916  -2.4779
    -2.4540  -2.4023  -2.3941  -2.3163  -2.1348  -2.0391  -1.9677  -1.9548
    -1.9413  -1.9173  -1.9074  -1.8998  -1.8445  -1.8271  -1.7691  -1.6805
    -1.6715  -1.6410  -1.5682  -1.5416  -1.4931  -1.4850  -1.4526  -1.3963
    -1.3716  -1.2342  -1.2092  -1.1980  -1.1234  -1.1037  -1.0882  -1.0830
    -1.0578  -1.0129  -0.9861  -0.8675  -0.8509  -0.8345  -0.8219  -0.7845
    -0.7601  -0.7228  -0.7070  -0.6885  -0.6532  -0.5658  -0.5502  -0.5320
    -0.5183  -0.5136  -0.5073  -0.4791  -0.4583  -0.4404  -0.4027  -0.3891
    -0.3594  -0.3421  -0.2745  -0.2670  -0.2319  -0.2054  -0.1784  -0.1658
    -0.1518  -0.1209  -0.1075  -0.1014  -0.0964  -0.0795  -0.0687  -0.0547
    -0.0136   0.0031   0.0840   0.1041   0.1517   0.2080   0.2300   0.2325
     0.2510   0.4229   0.4380   0.4601   0.5645   0.5755   0.6105   0.6182
     0.6469   0.6504   0.6878   0.6961   0.7263   0.7389   0.7601   0.8256
     0.9295   0.9598   1.0025   1.0090   1.0414   1.0564   1.0823   1.1335
     1.1910   1.2302   1.2541   1.3033   1.3130   1.3560   1.3945   1.4405
     1.4538   1.4692   1.5185   1.5341   1.5473   1.5614   1.5718   1.5783
     1.5954   1.6033   1.6186   1.7070   1.7633   1.8056   1.9219   1.9429
     1.9659   2.0916   2.1074   2.1206   2.1278   2.1944   2.2324   2.2534
     2.2592   2.2781   2.3025   2.3157   2.3271   2.3331   2.3453   2.3868
     2.3997   2.4204   2.4858   2.5104   2.5231   2.5456   2.5545   2.6008
     2.7215   2.7490   2.7887   2.8048   2.8569   2.8697   2.8764   2.9728
     3.0194   3.3425   3.5355   3.5477   3.9538   4.0856   4.0940   4.1037
     4.5712   4.7935   4.8152   4.9956   5.0160   5.0612   5.6632   6.0845
     6.2058   6.2270   6.3993   6.6383   6.9299   6.9903   6.9999   7.0261
     7.0519

          k = 0.2000-0.5774 0.0000 ( 43014 PWs)   bands (ev):

    -5.3557  -5.3241  -4.7634  -4.4893  -4.0854  -3.8509  -3.5441  -3.4899
    -3.4031  -3.3726  -3.2659  -3.2578  -3.1572  -3.1518  -3.0554  -3.0326
    -3.0255  -2.9976  -2.9943  -2.9798  -2.8628  -2.8277  -2.8234  -2.7965
    -2.7783  -2.7637  -2.6999  -2.6255  -2.5668  -2.4717  -2.4304  -2.4262
    -2.4054  -2.3853  -2.3441  -2.2948  -2.1859  -2.1704  -2.1013  -1.9960
    -1.9832  -1.9169  -1.8487  -1.8342  -1.7896  -1.7409  -1.6660  -1.6191
    -1.5879  -1.5754  -1.5573  -1.5168  -1.5077  -1.4687  -1.3863  -1.3710
    -1.3505  -1.3442  -1.3359  -1.3284  -1.2760  -1.2596  -1.2310  -1.1365
    -1.0957  -1.0650  -1.0466  -0.9544  -0.9201  -0.9049  -0.8729  -0.8516
    -0.8215  -0.7959  -0.7454  -0.7339  -0.7154  -0.6958  -0.6596  -0.6106
    -0.5991  -0.5697  -0.5152  -0.4890  -0.4824  -0.4710  -0.4035  -0.3411
    -0.3129  -0.2909  -0.2792  -0.2511  -0.2259  -0.2198  -0.2133  -0.1815
    -0.1618  -0.1467  -0.1356  -0.1072  -0.0832  -0.0710  -0.0600  -0.0582
    -0.0494  -0.0355   0.0065   0.0312   0.0525   0.2204   0.2671   0.3375
     0.3548   0.3866   0.4511   0.4732   0.4863   0.5042   0.5491   0.5638
     0.5730   0.5776   0.6461   0.6797   0.7059   0.7252   0.7729   0.7819
     0.8429   0.8531   0.9039   1.0388   1.0596   1.1002   1.1154   1.1364
     1.1762   1.2062   1.2348   1.2487   1.2613   1.2753   1.2951   1.3065
     1.3987   1.4184   1.4339   1.4582   1.4890   1.5146   1.5340   1.5476
     1.5536   1.6890   1.7201   1.7741   1.8422   1.8613   1.9426   1.9583
     1.9979   2.0630   2.0798   2.0888   2.1703   2.1817   2.2582   2.2793
     2.3043   2.3080   2.3146   2.3422   2.3600   2.3972   2.4644   2.4719
     2.4948   2.5095   2.5201   2.5252   2.5330   2.6009   2.6996   2.7316
     2.7372   2.7450   2.7511   2.8106   2.8443   2.9334   3.0532   3.7353
     3.8974   3.9122   4.0899   4.1542   4.2248   4.2855   4.2907   4.6284
     4.8731   4.9063   5.1034   5.3584   5.3753   5.4660   5.5011   5.6555
     5.7683   5.8407   5.8913   6.1583   6.2999   6.3347   6.7698   6.9662
     6.9934

          k = 0.2000-0.3464 0.0000 ( 43046 PWs)   bands (ev):

    -5.8727  -4.8062  -4.6366  -4.6148  -4.1650  -3.5514  -3.5440  -3.5413
    -3.5291  -3.4932  -3.4811  -3.4594  -3.3685  -3.3570  -3.1996  -2.9702
    -2.9685  -2.9607  -2.9440  -2.8912  -2.8698  -2.7369  -2.7256  -2.7186
    -2.7061  -2.6779  -2.6174  -2.5774  -2.5611  -2.5498  -2.5259  -2.4820
    -2.4528  -2.4199  -2.4011  -2.3107  -2.2604  -2.0539  -1.9684  -1.9631
    -1.9250  -1.9157  -1.9012  -1.8953  -1.8435  -1.8186  -1.7747  -1.6765
    -1.6662  -1.6065  -1.5608  -1.5121  -1.4894  -1.4865  -1.4502  -1.3966
    -1.3851  -1.2243  -1.2155  -1.2026  -1.1318  -1.1071  -1.0904  -1.0756
    -1.0350  -1.0118  -1.0062  -0.8559  -0.8359  -0.8320  -0.8189  -0.7859
    -0.7644  -0.7205  -0.6955  -0.6874  -0.6479  -0.5773  -0.5489  -0.5383
    -0.5197  -0.5080  -0.5028  -0.4703  -0.4496  -0.4398  -0.3870  -0.3721
    -0.3514  -0.3149  -0.2687  -0.2566  -0.2300  -0.2008  -0.1797  -0.1679
    -0.1519  -0.1147  -0.1037  -0.0916  -0.0860  -0.0763  -0.0710  -0.0596
    -0.0296   0.0152   0.0940   0.1281   0.1523   0.1783   0.2301   0.2419
     0.2534   0.4243   0.4347   0.5083   0.5735   0.5798   0.5974   0.6162
     0.6302   0.6483   0.6774   0.7005   0.7255   0.7402   0.7678   0.8197
     0.8835   0.9636   1.0041   1.0101   1.0347   1.0656   1.1039   1.1334
     1.1914   1.2237   1.2395   1.2677   1.3256   1.3414   1.3953   1.4508
     1.4661   1.4773   1.5109   1.5219   1.5536   1.5581   1.5696   1.5863
     1.5980   1.5995   1.6238   1.7184   1.7782   1.8120   1.9230   1.9369
     1.9663   2.0685   2.1192   2.1227   2.1271   2.2141   2.2297   2.2489
     2.2650   2.2827   2.3035   2.3131   2.3317   2.3368   2.3494   2.3886
     2.4032   2.4109   2.4871   2.5156   2.5186   2.5443   2.5555   2.6019
     2.7224   2.7608   2.7868   2.7919   2.8537   2.8705   2.8797   3.0013
     3.0191   3.2942   3.5075   3.5604   3.8971   4.0846   4.0936   4.1082
     4.5839   4.8030   4.8084   4.9619   5.0081   5.0665   5.6364   6.0538
     6.2037   6.2464   6.4480   6.6930   6.9383   6.9827   7.0117   7.0221
     7.0509

          k = 0.4000-0.2309 0.0000 ( 43046 PWs)   bands (ev):

    -5.7364  -5.1032  -4.6801  -4.2018  -4.0135  -3.9891  -3.7852  -3.6435
    -3.4890  -3.3642  -3.2920  -3.2858  -3.2356  -3.1244  -3.0782  -3.0640
    -3.0594  -3.0330  -2.9106  -2.9006  -2.8892  -2.8505  -2.8418  -2.8145
    -2.7261  -2.7171  -2.7136  -2.6823  -2.4541  -2.4500  -2.4399  -2.4383
    -2.4261  -2.3421  -2.2040  -2.1935  -2.1701  -2.1527  -2.1362  -2.0529
    -1.9455  -1.8694  -1.8633  -1.8428  -1.8041  -1.7890  -1.7464  -1.7263
    -1.7072  -1.6760  -1.6460  -1.6003  -1.4999  -1.4930  -1.4608  -1.3948
    -1.3470  -1.3201  -1.2819  -1.2674  -1.2215  -1.1230  -1.0614  -1.0553
    -1.0418  -1.0067  -0.9517  -0.9413  -0.8908  -0.8123  -0.8065  -0.7973
    -0.7515  -0.6848  -0.6797  -0.6665  -0.6570  -0.6357  -0.5903  -0.5749
    -0.5591  -0.5531  -0.5411  -0.5373  -0.5284  -0.4969  -0.4585  -0.4026
    -0.3955  -0.3807  -0.3693  -0.3598  -0.3228  -0.2406  -0.2118  -0.1848
    -0.1426  -0.1321  -0.1107  -0.0890  -0.0578  -0.0512   0.0338   0.0705
     0.0876   0.1078   0.1453   0.1789   0.2256   0.3190   0.3402   0.4113
     0.4306   0.4786   0.4919   0.5245   0.5309   0.5375   0.5394   0.5972
     0.6230   0.6450   0.6507   0.6614   0.6837   0.7036   0.7163   0.7420
     0.7482   0.8704   0.8859   0.8970   0.9563   0.9809   1.0679   1.0831
     1.1611   1.1903   1.2323   1.2835   1.3479   1.3631   1.4109   1.4200
     1.4494   1.4674   1.4930   1.5161   1.5621   1.5691   1.6173   1.6555
     1.6762   1.7130   1.7320   1.7429   1.7547   1.7922   1.8825   1.9279
     1.9879   2.0049   2.0233   2.0329   2.0771   2.1274   2.1400   2.1961
     2.2137   2.2343   2.2410   2.2922   2.3193   2.3381   2.3434   2.4509
     2.4622   2.4752   2.4902   2.4946   2.4993   2.5182   2.5221   2.7016
     2.7212   2.7334   2.7439   2.7480   2.9068   2.9580   3.1597   3.3364
     3.3805   3.5770   3.7756   3.7896   4.0749   4.1734   4.2832   4.4799
     4.7680   4.9981   5.0055   5.0896   5.2175   5.2597   5.3462   5.3915
     5.6056   5.6568   6.1912   6.2855   6.6911   6.8249   7.1532   7.3070
     7.7113

          k = 0.4000-0.0000 0.0000 ( 43046 PWs)   bands (ev):

    -5.8761  -4.8421  -4.6317  -4.6170  -4.1706  -3.5529  -3.5482  -3.5410
    -3.5200  -3.4819  -3.4800  -3.4652  -3.3708  -3.3559  -3.1670  -2.9834
    -2.9763  -2.9637  -2.9580  -2.8938  -2.8743  -2.7383  -2.7229  -2.7160
    -2.7092  -2.6285  -2.6133  -2.5704  -2.5632  -2.5527  -2.4916  -2.4779
    -2.4540  -2.4023  -2.3941  -2.3163  -2.1348  -2.0391  -1.9677  -1.9548
    -1.9413  -1.9173  -1.9074  -1.8998  -1.8445  -1.8271  -1.7691  -1.6805
    -1.6715  -1.6410  -1.5682  -1.5416  -1.4931  -1.4850  -1.4526  -1.3963
    -1.3716  -1.2342  -1.2092  -1.1980  -1.1234  -1.1037  -1.0882  -1.0829
    -1.0578  -1.0129  -0.9861  -0.8675  -0.8509  -0.8345  -0.8219  -0.7845
    -0.7601  -0.7228  -0.7070  -0.6885  -0.6532  -0.5658  -0.5502  -0.5320
    -0.5183  -0.5136  -0.5073  -0.4791  -0.4583  -0.4404  -0.4027  -0.3891
    -0.3594  -0.3421  -0.2745  -0.2670  -0.2320  -0.2054  -0.1784  -0.1659
    -0.1518  -0.1209  -0.1075  -0.1015  -0.0964  -0.0795  -0.0687  -0.0547
    -0.0136   0.0031   0.0840   0.1041   0.1517   0.2080   0.2300   0.2326
     0.2510   0.4230   0.4380   0.4601   0.5645   0.5755   0.6105   0.6182
     0.6469   0.6505   0.6878   0.6961   0.7263   0.7390   0.7601   0.8256
     0.9295   0.9598   1.0025   1.0090   1.0414   1.0564   1.0822   1.1335
     1.1910   1.2302   1.2541   1.3033   1.3130   1.3560   1.3945   1.4404
     1.4538   1.4692   1.5185   1.5341   1.5473   1.5614   1.5718   1.5783
     1.5954   1.6033   1.6186   1.7070   1.7633   1.8056   1.9219   1.9429
     1.9659   2.0916   2.1074   2.1206   2.1278   2.1944   2.2324   2.2534
     2.2592   2.2781   2.3025   2.3157   2.3271   2.3331   2.3453   2.3868
     2.3997   2.4204   2.4858   2.5104   2.5231   2.5456   2.5546   2.6008
     2.7215   2.7490   2.7887   2.8048   2.8569   2.8697   2.8764   2.9728
     3.0194   3.3425   3.5355   3.5477   3.9538   4.0856   4.0940   4.1037
     4.5712   4.7935   4.8152   4.9956   5.0160   5.0612   5.6632   6.0845
     6.2058   6.2270   6.3993   6.6383   6.9299   6.9903   6.9999   7.0261
     7.0519

          k = 0.4000 0.2309 0.0000 ( 43046 PWs)   bands (ev):

    -5.7421  -5.1253  -4.7109  -4.1994  -4.0158  -4.0078  -3.7721  -3.6261
    -3.4887  -3.3634  -3.2848  -3.2838  -3.2130  -3.1207  -3.1052  -3.0690
    -3.0643  -3.0535  -2.9158  -2.9009  -2.8976  -2.8543  -2.8466  -2.7995
    -2.7362  -2.7132  -2.7115  -2.4688  -2.4530  -2.4439  -2.4430  -2.4299
    -2.4247  -2.2546  -2.2011  -2.1759  -2.1692  -2.1424  -2.1384  -2.0389
    -1.9631  -1.8668  -1.8583  -1.8471  -1.8349  -1.7861  -1.7801  -1.7138
    -1.7117  -1.6652  -1.6434  -1.6408  -1.5027  -1.4828  -1.4604  -1.4296
    -1.3390  -1.3079  -1.2713  -1.2673  -1.2172  -1.1211  -1.0566  -1.0508
    -1.0488  -1.0111  -0.9614  -0.9427  -0.9157  -0.8246  -0.8216  -0.8129
    -0.7775  -0.6900  -0.6855  -0.6597  -0.6583  -0.6397  -0.5988  -0.5643
    -0.5618  -0.5520  -0.5463  -0.5404  -0.5249  -0.4910  -0.4544  -0.3986
    -0.3894  -0.3841  -0.3712  -0.3422  -0.3307  -0.2800  -0.2212  -0.1895
    -0.1642  -0.1296  -0.1047  -0.0913  -0.0865  -0.0749   0.0309   0.0593
     0.0867   0.0874   0.1502   0.1702   0.1841   0.3154   0.3567   0.3809
     0.4200   0.4661   0.5094   0.5190   0.5377   0.5463   0.5521   0.5764
     0.6190   0.6476   0.6493   0.6733   0.6747   0.6998   0.7157   0.7463
     0.7743   0.8567   0.8669   0.8883   0.9612   1.0027   1.0751   1.0848
     1.1693   1.1925   1.2344   1.3010   1.3324   1.3685   1.3797   1.4163
     1.4598   1.4605   1.5005   1.5165   1.5591   1.5727   1.6067   1.6655
     1.6696   1.7088   1.7266   1.7404   1.7498   1.7966   1.8808   1.9106
     1.9516   2.0020   2.0095   2.0354   2.0889   2.1243   2.1353   2.2054
     2.2167   2.2340   2.2356   2.3116   2.3151   2.3301   2.3414   2.4497
     2.4613   2.4806   2.4837   2.4966   2.5058   2.5258   2.5319   2.7031
     2.7353   2.7412   2.7481   2.7510   2.9118   2.9586   3.2280   3.3315
     3.3943   3.5480   3.7826   3.7864   4.0962   4.1757   4.2738   4.5218
     4.8304   5.0033   5.0058   5.0664   5.2117   5.2386   5.3862   5.3997
     5.6006   5.6596   6.1556   6.3014   6.6593   6.8106   7.2129   7.2853
     7.7645

          k = 0.4000-0.6928 0.0000 ( 43014 PWs)   bands (ev):

    -5.3682  -5.3294  -4.7391  -4.5517  -4.0831  -3.8086  -3.5568  -3.4961
    -3.4010  -3.3762  -3.2692  -3.2603  -3.1612  -3.1524  -3.0590  -3.0338
    -3.0198  -2.9998  -2.9922  -2.9764  -2.8510  -2.8278  -2.8167  -2.8077
    -2.7852  -2.7789  -2.6643  -2.5797  -2.5499  -2.4409  -2.4227  -2.4159
    -2.4068  -2.3752  -2.3060  -2.2826  -2.1838  -2.1743  -2.0825  -1.9950
    -1.9835  -1.9454  -1.8418  -1.8234  -1.7820  -1.7704  -1.6737  -1.6236
    -1.5966  -1.5756  -1.5577  -1.5085  -1.4918  -1.4597  -1.3863  -1.3789
    -1.3606  -1.3405  -1.3330  -1.3258  -1.2960  -1.2539  -1.2126  -1.1303
    -1.1218  -1.0761  -1.0383  -0.9680  -0.9116  -0.9065  -0.8970  -0.8484
    -0.8328  -0.8195  -0.7595  -0.7276  -0.7212  -0.6936  -0.6600  -0.6289
    -0.5834  -0.5727  -0.5315  -0.4843  -0.4786  -0.4668  -0.4147  -0.3563
    -0.3095  -0.2987  -0.2798  -0.2718  -0.2251  -0.2200  -0.2066  -0.1948
    -0.1806  -0.1673  -0.1368  -0.1051  -0.0788  -0.0771  -0.0653  -0.0590
    -0.0458  -0.0383  -0.0121   0.0363   0.0448   0.2321   0.2540   0.3423
     0.3604   0.4102   0.4550   0.4739   0.4922   0.5134   0.5527   0.5685
     0.5828   0.5885   0.6411   0.6961   0.7043   0.7431   0.7689   0.7800
     0.8378   0.8458   0.8787   0.9625   1.0552   1.1050   1.1118   1.1457
     1.1857   1.2086   1.2326   1.2415   1.2652   1.2688   1.2966   1.3080
     1.3945   1.4352   1.4441   1.4696   1.4800   1.5065   1.5264   1.5358
     1.5471   1.7004   1.7315   1.7754   1.8132   1.8773   1.9498   1.9615
     2.0364   2.0532   2.0771   2.0931   2.1535   2.1929   2.2562   2.2787
     2.2863   2.3022   2.3143   2.3326   2.3673   2.3992   2.4671   2.4728
     2.4897   2.5010   2.5224   2.5280   2.5341   2.6003   2.7126   2.7357
     2.7447   2.7477   2.7512   2.8072   2.8530   2.9211   3.0133   3.7788
     3.8958   3.9110   4.1022   4.1484   4.2654   4.2838   4.2915   4.6477
     4.8518   4.9138   5.1619   5.3500   5.3852   5.4371   5.5101   5.7319
     5.7377   5.8104   5.9043   6.1477   6.2594   6.3465   6.7929   6.9403
     6.9870

          k = 0.4000-0.4619 0.0000 ( 43014 PWs)   bands (ev):

    -5.3557  -5.3240  -4.7634  -4.4893  -4.0854  -3.8509  -3.5441  -3.4899
    -3.4031  -3.3726  -3.2659  -3.2578  -3.1572  -3.1518  -3.0554  -3.0326
    -3.0255  -2.9976  -2.9943  -2.9798  -2.8628  -2.8277  -2.8234  -2.7965
    -2.7783  -2.7637  -2.6999  -2.6255  -2.5668  -2.4716  -2.4304  -2.4262
    -2.4054  -2.3853  -2.3441  -2.2948  -2.1859  -2.1704  -2.1013  -1.9960
    -1.9832  -1.9169  -1.8487  -1.8341  -1.7896  -1.7409  -1.6660  -1.6191
    -1.5879  -1.5754  -1.5573  -1.5168  -1.5077  -1.4687  -1.3863  -1.3710
    -1.3506  -1.3442  -1.3359  -1.3284  -1.2760  -1.2597  -1.2310  -1.1365
    -1.0957  -1.0650  -1.0466  -0.9544  -0.9201  -0.9049  -0.8729  -0.8516
    -0.8215  -0.7959  -0.7454  -0.7339  -0.7154  -0.6958  -0.6596  -0.6106
    -0.5990  -0.5697  -0.5152  -0.4890  -0.4824  -0.4710  -0.4035  -0.3411
    -0.3129  -0.2909  -0.2792  -0.2511  -0.2259  -0.2198  -0.2132  -0.1815
    -0.1618  -0.1467  -0.1356  -0.1072  -0.0832  -0.0710  -0.0601  -0.0582
    -0.0494  -0.0355   0.0065   0.0312   0.0524   0.2204   0.2671   0.3376
     0.3547   0.3866   0.4511   0.4732   0.4863   0.5042   0.5491   0.5639
     0.5730   0.5776   0.6461   0.6797   0.7059   0.7252   0.7729   0.7819
     0.8429   0.8531   0.9039   1.0388   1.0596   1.1002   1.1154   1.1365
     1.1762   1.2062   1.2347   1.2487   1.2613   1.2752   1.2951   1.3065
     1.3988   1.4184   1.4339   1.4582   1.4890   1.5146   1.5340   1.5475
     1.5536   1.6890   1.7201   1.7741   1.8422   1.8613   1.9426   1.9583
     1.9980   2.0630   2.0798   2.0888   2.1703   2.1817   2.2582   2.2793
     2.3043   2.3080   2.3146   2.3422   2.3600   2.3972   2.4644   2.4719
     2.4948   2.5095   2.5201   2.5252   2.5330   2.6009   2.6996   2.7316
     2.7372   2.7450   2.7511   2.8106   2.8443   2.9334   3.0532   3.7353
     3.8974   3.9122   4.0899   4.1542   4.2248   4.2855   4.2907   4.6284
     4.8731   4.9063   5.1034   5.3584   5.3753   5.4660   5.5011   5.6555
     5.7683   5.8407   5.8913   6.1583   6.2999   6.3347   6.7698   6.9663
     6.9934

     the Fermi energy is     2.5140 ev

!    total energy              =  -27755.48567962 Ry
     total all-electron energy =  -1326642.251096 Ry
     estimated scf accuracy    <          3.2E-09 Ry
     smearing contrib. (-TS)   =       0.00301074 Ry
     internal energy E=F+TS    =  -27755.48869036 Ry

     The total energy is F=E-TS. E is the sum of the following terms:
     one-electron contribution =  -20679.79033914 Ry
     hartree contribution      =   10647.02908664 Ry
     xc contribution           =    -890.71574457 Ry
     ewald contribution        =    8641.96903246 Ry
     one-center paw contrib.   =  -25473.98072574 Ry

     convergence has been achieved in  21 iterations

     negative rho (up, down):  3.163E-03 0.000E+00

     Forces acting on atoms (cartesian axes, Ry/au):

     atom    1 type  1   force =    -0.00022969   -0.00013365   -0.00322466
     atom    2 type  1   force =     0.00004048   -0.00007766   -0.00321593
     atom    3 type  1   force =    -0.00037302    0.00061483   -0.00385287
     atom    4 type  1   force =    -0.00004656    0.00007395   -0.00321548
     atom    5 type  1   force =    -0.00028501   -0.00016568   -0.00355322
     atom    6 type  1   force =    -0.00030713   -0.00021892   -0.00364144
     atom    7 type  1   force =     0.00034485   -0.00063019   -0.00385382
     atom    8 type  1   force =    -0.00034226   -0.00015486   -0.00364224
     atom    9 type  1   force =     0.00006124    0.00003573   -0.00318992
     atom   10 type  1   force =     0.00032127    0.00018252    0.00601880
     atom   11 type  1   force =    -0.00005056   -0.00084587    0.00443809
     atom   12 type  1   force =     0.00015378    0.00010616    0.00140931
     atom   13 type  1   force =    -0.00076417    0.00037707    0.00443788
     atom   14 type  1   force =     0.00012143    0.00006627    0.00246835
     atom   15 type  1   force =     0.00114038    0.00024202    0.00504071
     atom   16 type  1   force =     0.00017185    0.00008394    0.00140773
     atom   17 type  1   force =     0.00078020    0.00086598    0.00504006
     atom   18 type  1   force =    -0.00004744   -0.00002994    0.00021212
     atom   19 type  1   force =     0.00003510    0.00004119    0.00007484
     atom   20 type  1   force =     0.00004432    0.00002368   -0.00006377
     atom   21 type  1   force =     0.00003366    0.00004594    0.00000789
     atom   22 type  1   force =     0.00008428    0.00005347    0.00014874
     atom   23 type  1   force =     0.00006653    0.00000994    0.00002209
     atom   24 type  1   force =     0.00002920    0.00002281    0.00021951
     atom   25 type  1   force =     0.00007619    0.00004984    0.00008673
     atom   26 type  1   force =     0.00004929    0.00001307    0.00006681
     atom   27 type  1   force =     0.00007985    0.00004260    0.00015375
     atom   28 type  1   force =     0.00000831   -0.00000102   -0.00006519
     atom   29 type  1   force =     0.00019927    0.00009109   -0.00000850
     atom   30 type  1   force =     0.00006692    0.00016820   -0.00003906
     atom   31 type  1   force =     0.00018059    0.00012389   -0.00002365
     atom   32 type  1   force =     0.00021737    0.00011236   -0.00022355
     atom   33 type  1   force =     0.00014286   -0.00005098   -0.00008904
     atom   34 type  1   force =     0.00017043   -0.00002086   -0.00004538
     atom   35 type  1   force =     0.00003171    0.00015624   -0.00008899
     atom   36 type  1   force =     0.00016500    0.00009503   -0.00000018
     atom   37 type  2   force =    -0.00237053   -0.00136818    0.00078348
     The non-local contrib.  to forces
     atom    1 type  1   force =    -0.00056492   -0.00032575   -0.01781994
     atom    2 type  1   force =    -0.00043934    0.00068150   -0.01835906
     atom    3 type  1   force =     0.00129033   -0.00085924   -0.01857100
     atom    4 type  1   force =     0.00036969   -0.00072285   -0.01835922
     atom    5 type  1   force =    -0.00019918   -0.00011482   -0.01772302
     atom    6 type  1   force =    -0.00012900    0.00029023   -0.01825292
     atom    7 type  1   force =    -0.00009837    0.00154737   -0.01857066
     atom    8 type  1   force =     0.00018734   -0.00025700   -0.01825255
     atom    9 type  1   force =    -0.00026655   -0.00015312   -0.01860041
     atom   10 type  1   force =     0.00013876    0.00007818    0.00047780
     atom   11 type  1   force =    -0.00026346    0.00069506    0.00095494
     atom   12 type  1   force =     0.00152100    0.00130171   -0.00040563
     atom   13 type  1   force =     0.00046764   -0.00057484    0.00095393
     atom   14 type  1   force =     0.00074333    0.00042930   -0.00069499
     atom   15 type  1   force =    -0.00034459    0.00016141    0.00011999
     atom   16 type  1   force =     0.00188938    0.00066646   -0.00040773
     atom   17 type  1   force =    -0.00003240   -0.00037934    0.00011944
     atom   18 type  1   force =    -0.00142202   -0.00082324    0.00020113
     atom   19 type  1   force =    -0.00287799   -0.00119970    0.00106759
     atom   20 type  1   force =     0.00124715    0.00071799    0.00733244
     atom   21 type  1   force =     0.00162297    0.00082513    0.00194692
     atom   22 type  1   force =     0.00129979    0.00365681   -0.00067797
     atom   23 type  1   force =     0.00153458    0.00099691    0.00196219
     atom   24 type  1   force =    -0.00121074   -0.00069338    0.00357060
     atom   25 type  1   force =     0.00078412    0.00045783    0.00442762
     atom   26 type  1   force =    -0.00248184   -0.00188866    0.00105823
     atom   27 type  1   force =     0.00380831   -0.00070677   -0.00067312
     atom   28 type  1   force =     0.01808728    0.01042980    0.02571801
     atom   29 type  1   force =    -0.01124984    0.02151083   -0.00769129
     atom   30 type  1   force =     0.00001599    0.00043769    0.01610027
     atom   31 type  1   force =     0.01300970   -0.02050002   -0.00769897
     atom   32 type  1   force =    -0.03034396   -0.01754056    0.02865799
     atom   33 type  1   force =    -0.00083212    0.00040777    0.01593371
     atom   34 type  1   force =     0.00037624   -0.00019569    0.01609305
     atom   35 type  1   force =    -0.00005560   -0.00091124    0.01593165
     atom   36 type  1   force =    -0.00090690   -0.00051945    0.01691258
     atom   37 type  2   force =    -0.00317222   -0.00182980   -0.02304301
     The ionic contribution  to forces
     atom    1 type  1   force =     0.00797591    0.00461433  -93.41790537
     atom    2 type  1   force =     0.00124156    0.00578391  -93.40187209
     atom    3 type  1   force =    -0.00924094   -0.00322871  -93.41693315
     atom    4 type  1   force =     0.00562184   -0.00181871  -93.40187358
     atom    5 type  1   force =    -0.01151293   -0.00666368  -93.41256622
     atom    6 type  1   force =     0.00594957    0.00013520  -93.42300452
     atom    7 type  1   force =    -0.00743379   -0.00638183  -93.41695502
     atom    8 type  1   force =     0.00310648    0.00508369  -93.42302333
     atom    9 type  1   force =     0.00437620    0.00252416  -93.40910441
     atom   10 type  1   force =     0.05917753    0.03410908  -31.48093332
     atom   11 type  1   force =    -0.08176604   -0.00740148  -31.48203040
     atom   12 type  1   force =     0.04118963    0.02513841  -31.57972788
     atom   13 type  1   force =    -0.04752549   -0.06716345  -31.48218852
     atom   14 type  1   force =    -0.00903305   -0.00536830  -31.60512438
     atom   15 type  1   force =     0.06503300    0.00570282  -31.53874768
     atom   16 type  1   force =     0.04244518    0.02330698  -31.57992011
     atom   17 type  1   force =     0.03740196    0.05344918  -31.53874791
     atom   18 type  1   force =    -0.07655263   -0.04426738  -31.48881913
     atom   19 type  1   force =     0.13492178    0.00802321   31.18349624
     atom   20 type  1   force =    -0.06586197   -0.03812235   31.57765587
     atom   21 type  1   force =    -0.04885041   -0.05308455   30.77868929
     atom   22 type  1   force =     0.02133859   -0.02087248   31.20131042
     atom   23 type  1   force =    -0.07009624   -0.01574777   30.77743406
     atom   24 type  1   force =     0.04580570    0.02656876   30.86385630
     atom   25 type  1   force =    -0.04135573   -0.02368240   30.60780953
     atom   26 type  1   force =     0.07438320    0.11285803   31.18375968
     atom   27 type  1   force =    -0.00748722    0.02892887   31.20009931
     atom   28 type  1   force =     0.02906202    0.01643324   92.23243362
     atom   29 type  1   force =     0.23189507   -0.85008092   92.83871176
     atom   30 type  1   force =     0.05231169    0.00786028   92.57664058
     atom   31 type  1   force =    -0.62015088    0.62557013   92.84075841
     atom   32 type  1   force =     0.09486897    0.05378739   92.28338098
     atom   33 type  1   force =     0.03735385   -0.01478838   92.64324933
     atom   34 type  1   force =     0.03258662    0.04210877   92.57728532
     atom   35 type  1   force =     0.00649303    0.04043006   92.64289536
     atom   36 type  1   force =    -0.02879723   -0.01621104   92.58369098
     atom   37 type  2   force =     0.09112517    0.05246694   11.90631999
     The local contribution  to forces
     atom    1 type  1   force =    -0.00761562   -0.00440801   93.41523681
     atom    2 type  1   force =    -0.00078789   -0.00653061   93.39977807
     atom    3 type  1   force =     0.00758501    0.00470380   93.41427899
     atom    4 type  1   force =    -0.00603988    0.00258951   93.39978037
     atom    5 type  1   force =     0.01143455    0.00661954   93.40945254
     atom    6 type  1   force =    -0.00611185   -0.00060605   93.42039713
     atom    7 type  1   force =     0.00788147    0.00420761   93.41430194
     atom    8 type  1   force =    -0.00359702   -0.00498777   93.42041628
     atom    9 type  1   force =    -0.00401494   -0.00231846   93.40735710
     atom   10 type  1   force =    -0.05886377   -0.03392801   31.48548120
     atom   11 type  1   force =     0.08183763    0.00579635   31.48450258
     atom   12 type  1   force =    -0.04248939   -0.02626186   31.58016557
     atom   13 type  1   force =     0.04616529    0.06802694   31.48465891
     atom   14 type  1   force =     0.00841085    0.00500640   31.60688295
     atom   15 type  1   force =    -0.06341731   -0.00564883   31.54251470
     atom   16 type  1   force =    -0.04406679   -0.02386864   31.58035563
     atom   17 type  1   force =    -0.03654874   -0.05207965   31.54251461
     atom   18 type  1   force =     0.07778346    0.04497471   31.48793162
     atom   19 type  1   force =    -0.13175890   -0.00673956  -31.18205435
     atom   20 type  1   force =     0.06461297    0.03740163  -31.58246761
     atom   21 type  1   force =     0.04728228    0.05221949  -30.77860990
     atom   22 type  1   force =    -0.02247600    0.01734979  -31.19835884
     atom   23 type  1   force =     0.06856496    0.01482114  -30.77735721
     atom   24 type  1   force =    -0.04455305   -0.02584626  -30.86524240
     atom   25 type  1   force =     0.04048101    0.02317954  -30.61016435
     atom   26 type  1   force =    -0.07169112   -0.11075974  -31.18231913
     atom   27 type  1   force =     0.00386819   -0.02815229  -31.19714516
     atom   28 type  1   force =    -0.04614615   -0.02628909  -92.24212612
     atom   29 type  1   force =    -0.21778686    0.82088256  -92.82106405
     atom   30 type  1   force =    -0.05263149   -0.00790110  -92.57629983
     atom   31 type  1   force =     0.60191315   -0.59875567  -92.82311945
     atom   32 type  1   force =    -0.06474467   -0.03639264  -92.29659393
     atom   33 type  1   force =    -0.03590658    0.01431533  -92.64278981
     atom   34 type  1   force =    -0.03278281   -0.04236550  -92.57694461
     atom   35 type  1   force =    -0.00617840   -0.03894485  -92.64243284
     atom   36 type  1   force =     0.02977229    0.01677068  -92.58404520
     atom   37 type  2   force =    -0.09032410   -0.05200574  -11.88250115
     The core correction contribution to forces
     atom    1 type  1   force =    -0.00001891   -0.00001094    0.01728756
     atom    2 type  1   force =     0.00002334   -0.00001377    0.01726138
     atom    3 type  1   force =    -0.00001091    0.00000412    0.01739586
     atom    4 type  1   force =    -0.00000023    0.00002713    0.01726135
     atom    5 type  1   force =    -0.00000392   -0.00000229    0.01730880
     atom    6 type  1   force =    -0.00001705   -0.00002802    0.01724850
     atom    7 type  1   force =    -0.00000191   -0.00001148    0.01739588
     atom    8 type  1   force =    -0.00003278   -0.00000074    0.01724850
     atom    9 type  1   force =    -0.00004241   -0.00002451    0.01718830
     atom   10 type  1   force =    -0.00013259   -0.00007631    0.00102599
     atom   11 type  1   force =     0.00013817    0.00006386    0.00103689
     atom   12 type  1   force =    -0.00006279   -0.00005873    0.00140525
     atom   13 type  1   force =     0.00012532    0.00008780    0.00103736
     atom   14 type  1   force =     0.00001291    0.00000792    0.00142765
     atom   15 type  1   force =    -0.00014019    0.00003282    0.00119024
     atom   16 type  1   force =    -0.00008260   -0.00002566    0.00140599
     atom   17 type  1   force =    -0.00004147   -0.00013764    0.00119034
     atom   18 type  1   force =     0.00013150    0.00007634    0.00093049
     atom   19 type  1   force =    -0.00024803   -0.00003133   -0.00237251
     atom   20 type  1   force =     0.00003294    0.00001917   -0.00252703
     atom   21 type  1   force =    -0.00000946    0.00009259   -0.00195993
     atom   22 type  1   force =    -0.00010080   -0.00008312   -0.00206631
     atom   23 type  1   force =     0.00007430   -0.00005478   -0.00196148
     atom   24 type  1   force =    -0.00000127   -0.00000134   -0.00190890
     atom   25 type  1   force =     0.00016878    0.00009680   -0.00192177
     atom   26 type  1   force =    -0.00015075   -0.00019934   -0.00237120
     atom   27 type  1   force =    -0.00012165   -0.00004538   -0.00206664
     atom   28 type  1   force =    -0.00098910   -0.00056972   -0.01612769
     atom   29 type  1   force =    -0.00266306    0.00777172   -0.01000260
     atom   30 type  1   force =     0.00036984   -0.00023338   -0.01651200
     atom   31 type  1   force =     0.00539874   -0.00619219   -0.01000231
     atom   32 type  1   force =     0.00043759    0.00025582   -0.01569906
     atom   33 type  1   force =    -0.00046265    0.00001867   -0.01652491
     atom   34 type  1   force =    -0.00001535    0.00043518   -0.01651125
     atom   35 type  1   force =    -0.00021687   -0.00041222   -0.01652490
     atom   36 type  1   force =     0.00009222    0.00005279   -0.01660668
     atom   37 type  2   force =     0.00000000    0.00000000    0.00000000
     The Hubbard contrib.    to forces
     atom    1 type  1   force =     0.00000000    0.00000000    0.00000000
     atom    2 type  1   force =     0.00000000    0.00000000    0.00000000
     atom    3 type  1   force =     0.00000000    0.00000000    0.00000000
     atom    4 type  1   force =     0.00000000    0.00000000    0.00000000
     atom    5 type  1   force =     0.00000000    0.00000000    0.00000000
     atom    6 type  1   force =     0.00000000    0.00000000    0.00000000
     atom    7 type  1   force =     0.00000000    0.00000000    0.00000000
     atom    8 type  1   force =     0.00000000    0.00000000    0.00000000
     atom    9 type  1   force =     0.00000000    0.00000000    0.00000000
     atom   10 type  1   force =     0.00000000    0.00000000    0.00000000
     atom   11 type  1   force =     0.00000000    0.00000000    0.00000000
     atom   12 type  1   force =     0.00000000    0.00000000    0.00000000
     atom   13 type  1   force =     0.00000000    0.00000000    0.00000000
     atom   14 type  1   force =     0.00000000    0.00000000    0.00000000
     atom   15 type  1   force =     0.00000000    0.00000000    0.00000000
     atom   16 type  1   force =     0.00000000    0.00000000    0.00000000
     atom   17 type  1   force =     0.00000000    0.00000000    0.00000000
     atom   18 type  1   force =     0.00000000    0.00000000    0.00000000
     atom   19 type  1   force =     0.00000000    0.00000000    0.00000000
     atom   20 type  1   force =     0.00000000    0.00000000    0.00000000
     atom   21 type  1   force =     0.00000000    0.00000000    0.00000000
     atom   22 type  1   force =     0.00000000    0.00000000    0.00000000
     atom   23 type  1   force =     0.00000000    0.00000000    0.00000000
     atom   24 type  1   force =     0.00000000    0.00000000    0.00000000
     atom   25 type  1   force =     0.00000000    0.00000000    0.00000000
     atom   26 type  1   force =     0.00000000    0.00000000    0.00000000
     atom   27 type  1   force =     0.00000000    0.00000000    0.00000000
     atom   28 type  1   force =     0.00000000    0.00000000    0.00000000
     atom   29 type  1   force =     0.00000000    0.00000000    0.00000000
     atom   30 type  1   force =     0.00000000    0.00000000    0.00000000
     atom   31 type  1   force =     0.00000000    0.00000000    0.00000000
     atom   32 type  1   force =     0.00000000    0.00000000    0.00000000
     atom   33 type  1   force =     0.00000000    0.00000000    0.00000000
     atom   34 type  1   force =     0.00000000    0.00000000    0.00000000
     atom   35 type  1   force =     0.00000000    0.00000000    0.00000000
     atom   36 type  1   force =     0.00000000    0.00000000    0.00000000
     atom   37 type  2   force =     0.00000000    0.00000000    0.00000000
     The SCF correction term to forces
     atom    1 type  1   force =    -0.00000000   -0.00000000   -0.00000000
     atom    2 type  1   force =     0.00000000    0.00000000   -0.00000000
     atom    3 type  1   force =     0.00000000   -0.00000000   -0.00000000
     atom    4 type  1   force =     0.00000000   -0.00000000   -0.00000000
     atom    5 type  1   force =    -0.00000000   -0.00000000   -0.00000000
     atom    6 type  1   force =     0.00000000   -0.00000000   -0.00000000
     atom    7 type  1   force =    -0.00000000    0.00000000   -0.00000000
     atom    8 type  1   force =    -0.00000000    0.00000000   -0.00000000
     atom    9 type  1   force =     0.00000000    0.00000000   -0.00000000
     atom   10 type  1   force =     0.00000000   -0.00000000   -0.00000000
     atom   11 type  1   force =     0.00000000    0.00000000   -0.00000000
     atom   12 type  1   force =    -0.00000000   -0.00000000   -0.00000000
     atom   13 type  1   force =     0.00000000    0.00000000   -0.00000000
     atom   14 type  1   force =    -0.00000000   -0.00000000   -0.00000000
     atom   15 type  1   force =     0.00000000   -0.00000000   -0.00000000
     atom   16 type  1   force =    -0.00000000    0.00000000   -0.00000000
     atom   17 type  1   force =     0.00000000    0.00000000   -0.00000000
     atom   18 type  1   force =     0.00000000    0.00000000   -0.00000000
     atom   19 type  1   force =    -0.00000171   -0.00001140   -0.00006720
     atom   20 type  1   force =     0.00001328    0.00000725   -0.00006250
     atom   21 type  1   force =    -0.00001167   -0.00000668   -0.00006354
     atom   22 type  1   force =     0.00002274    0.00000251   -0.00006362
     atom   23 type  1   force =    -0.00001103   -0.00000552   -0.00006053
     atom   24 type  1   force =    -0.00001140   -0.00000494   -0.00006115
     atom   25 type  1   force =    -0.00000195   -0.00000190   -0.00006936
     atom   26 type  1   force =    -0.00001016    0.00000280   -0.00006583
     atom   27 type  1   force =     0.00001227    0.00001819   -0.00006570
     atom   28 type  1   force =    -0.00000569   -0.00000522    0.00003193
     atom   29 type  1   force =     0.00000399    0.00000694    0.00003261
     atom   30 type  1   force =     0.00000093    0.00000473    0.00002686
     atom   31 type  1   force =     0.00000991    0.00000166    0.00003361
     atom   32 type  1   force =    -0.00000052    0.00000237    0.00002541
     atom   33 type  1   force =    -0.00000960   -0.00000435    0.00003757
     atom   34 type  1   force =     0.00000576   -0.00000359    0.00002705
     atom   35 type  1   force =    -0.00001041   -0.00000548    0.00003667
     atom   36 type  1   force =     0.00000465    0.00000207    0.00004309
     atom   37 type  2   force =     0.00000066    0.00000044    0.00000259

     Total force =     0.002940     Total SCF correction =     0.000223

     Writing all to output data dir ./pwscf.save/

     init_run     :     10.06s CPU     10.36s WALL (       1 calls)
     electrons    :    354.86s CPU    368.29s WALL (       1 calls)
     forces       :      3.90s CPU      4.54s WALL (       1 calls)

     Called by init_run:
     wfcinit      :      5.65s CPU      5.83s WALL (       1 calls)
     potinit      :      3.03s CPU      3.10s WALL (       1 calls)
     hinit0       :      0.81s CPU      0.82s WALL (       1 calls)

     Called by electrons:
     c_bands      :    301.48s CPU    309.94s WALL (      22 calls)
     sum_band     :     34.05s CPU     35.45s WALL (      22 calls)
     v_of_rho     :      9.54s CPU     11.84s WALL (      22 calls)
     newd         :      2.65s CPU      3.43s WALL (      22 calls)
     PAW_pot      :      4.61s CPU      4.74s WALL (      22 calls)
     mix_rho      :      4.62s CPU      4.82s WALL (      22 calls)
     vdW_kernel   :      1.68s CPU      1.70s WALL (       1 calls)

     Called by c_bands:
     init_us_2    :      3.00s CPU      3.05s WALL (     598 calls)
     init_us_2:cp :      3.00s CPU      3.05s WALL (     598 calls)
     cegterg      :    293.63s CPU    301.63s WALL (     286 calls)

     Called by *egterg:
     cdiaghg      :     79.02s CPU     80.31s WALL (    1439 calls)
     h_psi        :    137.72s CPU    142.28s WALL (    1465 calls)
     s_psi        :     16.38s CPU     16.77s WALL (    1465 calls)
     g_psi        :      0.54s CPU      0.56s WALL (    1166 calls)

     Called by h_psi:
     h_psi:calbec :     20.94s CPU     21.98s WALL (    1465 calls)
     vloc_psi     :     98.31s CPU    101.56s WALL (    1465 calls)
     add_vuspsi   :     17.20s CPU     17.47s WALL (    1465 calls)

     General routines
     calbec       :     29.30s CPU     30.59s WALL (    1803 calls)
     fft          :      5.67s CPU      7.79s WALL (    1446 calls)
     ffts         :      2.70s CPU      2.73s WALL (    5328 calls)
     fftw         :     96.34s CPU     99.25s WALL (  379904 calls)
     interpolate  :      0.60s CPU      0.65s WALL (      22 calls)

     Parallel routines

     PWSCF        :   6m10.41s CPU   6m27.46s WALL


   This run was terminated on:  21: 5:34  23Feb2025            

=------------------------------------------------------------------------------=
   JOB DONE.
=------------------------------------------------------------------------------=
