
     Program PWSCF v.7.1 starts on 24Feb2025 at 20:40:22 
        Git branch: heads/qe-7.1
        Last git commit: 48ba0178f8fede6d020eb786884699a9f063f55d-dirty
        Last git commit date: Fri Jan 27 14:22:33 2023 +0000
        Last git commit subject: Merge branch 'fix_hubbard' into 'develop'

     This program is part of the open-source Quantum ESPRESSO suite
     for quantum simulation of materials; please cite
         "P. Giannozzi et al., J. Phys.:Condens. Matter 21 395502 (2009);
         "P. Giannozzi et al., J. Phys.:Condens. Matter 29 465901 (2017);
         "P. Giannozzi et al., J. Chem. Phys. 152 154105 (2020);
          URL http://www.quantum-espresso.org", 
     in publications or presentations arising from this work. More details at
     http://www.quantum-espresso.org/quote

     Parallel version (MPI), running on    48 processors

     MPI processes distributed on     1 nodes
     190562 MiB available memory on the printing compute node when the environment starts

     Reading input from espresso.pwi
Warning: card &CELL ignored
Warning: card / ignored
Warning: card &FCP ignored
Warning: card / ignored
Warning: card &RISM ignored
Warning: card / ignored

     Current dimensions of program PWSCF are:
     Max number of different atomic species (ntypx) = 10
     Max number of k-points (npk) =  40000
     Max angular momentum in pseudopotentials (lmaxx) =  4
     file Pt.pbe-n-kjpaw_psl.1.0.0.UPF: wavefunction(s)  6S 5D renormalized
     file H.pbe-kjpaw_psl.1.0.0.UPF: wavefunction(s)  1S renormalized

     **************************************************************************
     Initializing libbeef V0.1.2 with the BEEF-vdW functional.
     Citation: Wellendorff et al., PRB 85, 235149 (2012).
     **************************************************************************


     IMPORTANT: XC functional enforced from input :
     Exchange-correlation= BEEF-VDW
                           (   1   4  43  14   2   0   0)
     Any further DFT definition will be discarded
     Please, verify this is what you really want


     R & G space division:  proc/nbgrp/npool/nimage =      48
     Subspace diagonalization in iterative solution of the eigenvalue problem:
     one sub-group per band group will be used
     custom distributed-memory algorithm (size of sub-group:  2*  2 procs)


     Parallelization info
     --------------------
     sticks:   dense  smooth     PW     G-vecs:    dense   smooth      PW
     Min         151      59     16                29407     7165    1028
     Max         152      60     17                29420     7176    1042
     Sum        7267    2839    769              1411785   344073   49691

     Using Slab Decomposition



     bravais-lattice index     =            0
     lattice parameter (alat)  =      16.0349  a.u.
     unit-cell volume          =   10068.6169 (a.u.)^3
     number of atoms/cell      =           37
     number of atomic types    =            2
     number of electrons       =       361.00
     number of Kohn-Sham states=          217
     kinetic-energy cutoff     =      40.0000  Ry
     charge density cutoff     =     410.0000  Ry
     scf convergence threshold =      1.0E-08
     mixing beta               =       0.7000
     number of iterations used =            8  local-TF  mixing
     Exchange-correlation= BEEF-VDW
                           (   1   4  43  14   2   0   0)

     celldm(1)=  16.034858  celldm(2)=   0.000000  celldm(3)=   0.000000
     celldm(4)=   0.000000  celldm(5)=   0.000000  celldm(6)=   0.000000

     crystal axes: (cart. coord. in units of alat)
               a(1) = (   1.000000   0.000000   0.000000 )  
               a(2) = (   0.500000   0.866025   0.000000 )  
               a(3) = (   0.000000   0.000000   2.819966 )  

     reciprocal axes: (cart. coord. in units 2 pi/alat)
               b(1) = (  1.000000 -0.577350  0.000000 )  
               b(2) = (  0.000000  1.154701  0.000000 )  
               b(3) = (  0.000000  0.000000  0.354614 )  


     PseudoPot. # 1 for Pt read from file:
     /users/kbadger1/espresso/pseudo/pslibrary.1.0.0/pbe/PSEUDOPOTENTIALS/Pt.pbe-n-kjpaw_psl.1.0.0.UPF
     MD5 check sum: 2e24a0b5bf98a4ed1a57fa81bca8c143
     Pseudo is Projector augmented-wave + core cor, Zval = 10.0
     Generated using 'atomic' code by A. Dal Corso  v.7.0
     Shape of augmentation charge: PSQ
     Using radial grid of 1277 points,  6 beta functions with: 
                l(1) =   0
                l(2) =   0
                l(3) =   1
                l(4) =   1
                l(5) =   2
                l(6) =   2
     Q(r) pseudized with 0 coefficients 


     PseudoPot. # 2 for H  read from file:
     /users/kbadger1/espresso/pseudo/pslibrary.1.0.0/pbe/PSEUDOPOTENTIALS/H.pbe-kjpaw_psl.1.0.0.UPF
     MD5 check sum: fe4c6fa958fa6d3815bf5d2419cbf1df
     Pseudo is Projector augmented-wave, Zval =  1.0
     Generated using 'atomic' code by A. Dal Corso  v.7.0
     Shape of augmentation charge: PSQ
     Using radial grid of  929 points,  2 beta functions with: 
                l(1) =   0
                l(2) =   0
     Q(r) pseudized with 0 coefficients 


     atomic species   valence    mass     pseudopotential
        Pt            10.00   195.08400     Pt( 1.00)
        H              1.00     1.00800     H ( 1.00)

     No symmetry found



   Cartesian axes

     site n.     atom                  positions (alat units)
         1           Pt  tau(   1) = (   0.0000000   0.0000000   1.0017346  )
         2           Pt  tau(   2) = (   0.3333333   0.0000000   1.0017346  )
         3           Pt  tau(   3) = (   0.6666667   0.0000000   1.0017346  )
         4           Pt  tau(   4) = (   0.1666667   0.2886751   1.0017346  )
         5           Pt  tau(   5) = (   0.5000000   0.2886751   1.0017346  )
         6           Pt  tau(   6) = (   0.8333333   0.2886751   1.0017346  )
         7           Pt  tau(   7) = (   0.3333333   0.5773503   1.0017346  )
         8           Pt  tau(   8) = (   0.6666667   0.5773503   1.0017346  )
         9           Pt  tau(   9) = (   1.0000000   0.5773503   1.0017346  )
        10           Pt  tau(  10) = (   0.1666667   0.0962250   1.2739001  )
        11           Pt  tau(  11) = (   0.5000000   0.0962250   1.2739001  )
        12           Pt  tau(  12) = (   0.8333333   0.0962250   1.2739001  )
        13           Pt  tau(  13) = (   0.3333333   0.3849002   1.2739001  )
        14           Pt  tau(  14) = (   0.6666667   0.3849002   1.2739001  )
        15           Pt  tau(  15) = (   1.0000000   0.3849002   1.2739001  )
        16           Pt  tau(  16) = (   0.5000000   0.6735753   1.2739001  )
        17           Pt  tau(  17) = (   0.8333333   0.6735753   1.2739001  )
        18           Pt  tau(  18) = (   1.1666667   0.6735753   1.2739001  )
        19           Pt  tau(  19) = (   0.0016218   0.1920851   1.5436222  )
        20           Pt  tau(  20) = (   0.3342442   0.1914705   1.5442457  )
        21           Pt  tau(  21) = (   0.6678940   0.1918494   1.5423645  )
        22           Pt  tau(  22) = (   0.1673894   0.4774412   1.5466443  )
        23           Pt  tau(  23) = (   0.5009554   0.4806373   1.5425068  )
        24           Pt  tau(  24) = (   0.8343540   0.4806077   1.5426488  )
        25           Pt  tau(  25) = (   0.3339422   0.7685880   1.5420604  )
        26           Pt  tau(  26) = (   0.6679442   0.7695568   1.5434006  )
        27           Pt  tau(  27) = (   1.0004272   0.7689418   1.5435657  )
        28           Pt  tau(  28) = (  -0.0000399  -0.0025273   1.8159721  )
        29           Pt  tau(  29) = (   0.3377176  -0.0025572   1.8212303  )
        30           Pt  tau(  30) = (   0.6691817  -0.0008963   1.8169687  )
        31           Pt  tau(  31) = (   0.1708181   0.2875147   1.8280961  )
        32           Pt  tau(  32) = (   0.5052060   0.2885966   1.8163057  )
        33           Pt  tau(  33) = (   0.8360987   0.2877356   1.8165880  )
        34           Pt  tau(  34) = (   0.3360684   0.5767009   1.8168620  )
        35           Pt  tau(  35) = (   0.6693966   0.5762382   1.8168852  )
        36           Pt  tau(  36) = (   1.0024963   0.5764840   1.8174492  )
        37           H   tau(  37) = (   0.2130227   0.1793894   1.9766164  )

     number of k points=    13  Marzari-Vanderbilt smearing, width (Ry)=  0.0200
                       cart. coord. in units 2pi/alat
        k(    1) = (   0.0000000   0.0000000   0.0000000), wk =   0.0800000
        k(    2) = (   0.0000000   0.2309401   0.0000000), wk =   0.1600000
        k(    3) = (   0.0000000   0.4618802   0.0000000), wk =   0.1600000
        k(    4) = (   0.2000000  -0.1154701   0.0000000), wk =   0.1600000
        k(    5) = (   0.2000000   0.1154701   0.0000000), wk =   0.1600000
        k(    6) = (   0.2000000   0.3464102   0.0000000), wk =   0.1600000
        k(    7) = (   0.2000000  -0.5773503   0.0000000), wk =   0.1600000
        k(    8) = (   0.2000000  -0.3464102   0.0000000), wk =   0.1600000
        k(    9) = (   0.4000000  -0.2309401   0.0000000), wk =   0.1600000
        k(   10) = (   0.4000000  -0.0000000   0.0000000), wk =   0.1600000
        k(   11) = (   0.4000000   0.2309401   0.0000000), wk =   0.1600000
        k(   12) = (   0.4000000  -0.6928203   0.0000000), wk =   0.1600000
        k(   13) = (   0.4000000  -0.4618802   0.0000000), wk =   0.1600000

     Dense  grid:  1411785 G-vectors     FFT dimensions: ( 108, 108, 300)

     Smooth grid:   344073 G-vectors     FFT dimensions: (  72,  72, 192)

     Estimated max dynamical RAM per process >     203.68 MB

     Estimated total dynamical RAM >       9.55 GB

     Initial potential from superposition of free atoms

     starting charge     360.9939, renormalised to     361.0000

     negative rho (up, down):  3.354E-03 0.000E+00


     %%%%%%%%%%%%%%%%%%%%%%%%%%%%%%%%%%%%%%%%%%%%%%%%%%%%%%%%%%%%%%%%%%%%%%%%
     %                                                                      %
     % You are using vdW-DF, which was implemented by the Thonhauser group. %
     % Please cite the following two papers that made this development      %
     % possible and the two reviews that describe the various versions:     %
     %                                                                      %
     %   T. Thonhauser et al., PRL 115, 136402 (2015).                      %
     %   T. Thonhauser et al., PRB 76, 125112 (2007).                       %
     %   K. Berland et al., Rep. Prog. Phys. 78, 066501 (2015).             %
     %   D.C. Langreth et al., J. Phys.: Condens. Matter 21, 084203 (2009). %
     %                                                                      %
     % If you are calculating stress with vdW-DF, please also cite:         %
     %                                                                      %
     %   R. Sabatini et al., J. Phys.: Condens. Matter 24, 424209 (2012).   %
     %                                                                      %
     %%%%%%%%%%%%%%%%%%%%%%%%%%%%%%%%%%%%%%%%%%%%%%%%%%%%%%%%%%%%%%%%%%%%%%%%

     %%%%%%%%%%%%%%%%%%%%%%%%%%%%%%%%%%%%%%%%%%%%%%%%%%%%%%%%%%%%%%%%%%%%%%%%
     %                                                                      %
     %  vdW-DF NEWS:                                                        %
     %                                                                      %
     %  * vdW-DF3 is now available. DOI: 10.1021/acs.jctc.0c00471           %
     %    use with input_dft = 'vdW-DF3-opt1' or 'vdW-DF3-opt2'             %
     %                                                                      %
     %  * Unscreened and range-separated hybrid vdW-DF-cx functionals       %
     %    DOI: 10.1063/1.4986522 and 10.1088/1361-648X/ac2ad2               %
     %    use with input_dft = 'vdW-DF-cx0'    and 'vdW-DF-ahcx'            %
     %  * Unscreened and range-separated hybrid vdW-DF2-b86r functionals    %
     %    DOI: 10.1063/1.4986522 and DOI: 10.1103/PhysRevX.12.041003        %
     %    use with input_dft = 'vdW-DF2-br0' and 'vdW-DF2-ahbr'             %
     %                                                                      %
     %%%%%%%%%%%%%%%%%%%%%%%%%%%%%%%%%%%%%%%%%%%%%%%%%%%%%%%%%%%%%%%%%%%%%%%%


     Starting wfcs are  325 randomized atomic wfcs
     Checking if some PAW data can be deallocated... 

     total cpu time spent up to now is       10.9 secs

     per-process dynamical memory:   207.6 Mb

     Self-consistent Calculation

     iteration #  1     ecut=    40.00 Ry     beta= 0.70
     Davidson diagonalization with overlap
     ethr =  1.00E-02,  avg # of iterations =  2.0

     Threshold (ethr) on eigenvalues was too large:
     Diagonalizing with lowered threshold

     Davidson diagonalization with overlap
     ethr =  3.84E-04,  avg # of iterations =  4.1

     negative rho (up, down):  1.767E-02 0.000E+00

     total cpu time spent up to now is       41.8 secs

     total energy              =  -27755.27347867 Ry
     estimated scf accuracy    <       1.58426012 Ry

     iteration #  2     ecut=    40.00 Ry     beta= 0.70
     Davidson diagonalization with overlap
     ethr =  4.39E-04,  avg # of iterations =  2.0

     negative rho (up, down):  1.579E-02 0.000E+00

     total cpu time spent up to now is       54.0 secs

     total energy              =  -27755.37407435 Ry
     estimated scf accuracy    <       0.83904824 Ry

     iteration #  3     ecut=    40.00 Ry     beta= 0.70
     Davidson diagonalization with overlap
     ethr =  2.32E-04,  avg # of iterations =  2.0

     negative rho (up, down):  1.035E-02 0.000E+00

     total cpu time spent up to now is       66.6 secs

     total energy              =  -27755.42687027 Ry
     estimated scf accuracy    <       0.09754564 Ry

     iteration #  4     ecut=    40.00 Ry     beta= 0.70
     Davidson diagonalization with overlap
     c_bands:  1 eigenvalues not converged
     c_bands:  1 eigenvalues not converged
     c_bands:  1 eigenvalues not converged
     ethr =  2.70E-05,  avg # of iterations = 15.4

     negative rho (up, down):  7.566E-03 0.000E+00

     total cpu time spent up to now is       98.3 secs

     total energy              =  -27755.47781081 Ry
     estimated scf accuracy    <       0.08833454 Ry

     iteration #  5     ecut=    40.00 Ry     beta= 0.70
     Davidson diagonalization with overlap
     ethr =  2.45E-05,  avg # of iterations =  3.1

     negative rho (up, down):  3.305E-03 0.000E+00

     total cpu time spent up to now is      111.2 secs

     total energy              =  -27755.47770055 Ry
     estimated scf accuracy    <       0.03089004 Ry

     iteration #  6     ecut=    40.00 Ry     beta= 0.70
     Davidson diagonalization with overlap
     c_bands:  1 eigenvalues not converged
     ethr =  8.56E-06,  avg # of iterations =  7.4

     negative rho (up, down):  1.519E-03 0.000E+00

     total cpu time spent up to now is      126.2 secs

     total energy              =  -27755.47991432 Ry
     estimated scf accuracy    <       0.00247935 Ry

     iteration #  7     ecut=    40.00 Ry     beta= 0.70
     Davidson diagonalization with overlap
     ethr =  6.87E-07,  avg # of iterations =  9.2

     negative rho (up, down):  1.158E-03 0.000E+00

     total cpu time spent up to now is      151.8 secs

     total energy              =  -27755.48053314 Ry
     estimated scf accuracy    <       0.00200488 Ry

     iteration #  8     ecut=    40.00 Ry     beta= 0.70
     Davidson diagonalization with overlap
     ethr =  5.55E-07,  avg # of iterations =  1.8

     negative rho (up, down):  9.979E-04 0.000E+00

     total cpu time spent up to now is      164.9 secs

     total energy              =  -27755.48067756 Ry
     estimated scf accuracy    <       0.00021147 Ry

     iteration #  9     ecut=    40.00 Ry     beta= 0.70
     Davidson diagonalization with overlap
     ethr =  5.86E-08,  avg # of iterations =  5.1

     negative rho (up, down):  8.027E-04 0.000E+00

     total cpu time spent up to now is      188.8 secs

     total energy              =  -27755.48078537 Ry
     estimated scf accuracy    <       0.00009428 Ry

     iteration # 10     ecut=    40.00 Ry     beta= 0.70
     Davidson diagonalization with overlap
     c_bands:  1 eigenvalues not converged
     ethr =  2.61E-08,  avg # of iterations =  4.8

     negative rho (up, down):  7.947E-04 0.000E+00

     total cpu time spent up to now is      209.3 secs

     total energy              =  -27755.48080381 Ry
     estimated scf accuracy    <       0.00009197 Ry

     iteration # 11     ecut=    40.00 Ry     beta= 0.70
     Davidson diagonalization with overlap
     ethr =  2.55E-08,  avg # of iterations =  1.2

     negative rho (up, down):  8.829E-04 0.000E+00

     total cpu time spent up to now is      220.9 secs

     total energy              =  -27755.48080953 Ry
     estimated scf accuracy    <       0.00005731 Ry

     iteration # 12     ecut=    40.00 Ry     beta= 0.70
     Davidson diagonalization with overlap
     ethr =  1.59E-08,  avg # of iterations =  1.6

     negative rho (up, down):  1.111E-03 0.000E+00

     total cpu time spent up to now is      232.7 secs

     total energy              =  -27755.48081686 Ry
     estimated scf accuracy    <       0.00002296 Ry

     iteration # 13     ecut=    40.00 Ry     beta= 0.70
     Davidson diagonalization with overlap
     ethr =  6.36E-09,  avg # of iterations =  2.0

     negative rho (up, down):  1.563E-03 0.000E+00

     total cpu time spent up to now is      245.7 secs

     total energy              =  -27755.48082341 Ry
     estimated scf accuracy    <       0.00001279 Ry

     iteration # 14     ecut=    40.00 Ry     beta= 0.70
     Davidson diagonalization with overlap
     ethr =  3.54E-09,  avg # of iterations =  2.2

     negative rho (up, down):  1.944E-03 0.000E+00

     total cpu time spent up to now is      258.9 secs

     total energy              =  -27755.48082807 Ry
     estimated scf accuracy    <       0.00000685 Ry

     iteration # 15     ecut=    40.00 Ry     beta= 0.70
     Davidson diagonalization with overlap
     ethr =  1.90E-09,  avg # of iterations =  2.0

     negative rho (up, down):  2.697E-03 0.000E+00

     total cpu time spent up to now is      271.4 secs

     total energy              =  -27755.48082570 Ry
     estimated scf accuracy    <       0.00000640 Ry

     iteration # 16     ecut=    40.00 Ry     beta= 0.70
     Davidson diagonalization with overlap
     ethr =  1.77E-09,  avg # of iterations =  1.4

     negative rho (up, down):  2.845E-03 0.000E+00

     total cpu time spent up to now is      283.3 secs

     total energy              =  -27755.48082559 Ry
     estimated scf accuracy    <       0.00000096 Ry

     iteration # 17     ecut=    40.00 Ry     beta= 0.70
     Davidson diagonalization with overlap
     ethr =  2.67E-10,  avg # of iterations =  5.2

     negative rho (up, down):  2.974E-03 0.000E+00

     total cpu time spent up to now is      304.6 secs

     total energy              =  -27755.48082540 Ry
     estimated scf accuracy    <       0.00000051 Ry

     iteration # 18     ecut=    40.00 Ry     beta= 0.70
     Davidson diagonalization with overlap
     ethr =  1.40E-10,  avg # of iterations =  3.5

     negative rho (up, down):  3.017E-03 0.000E+00

     total cpu time spent up to now is      320.7 secs

     total energy              =  -27755.48082525 Ry
     estimated scf accuracy    <       0.00000024 Ry

     iteration # 19     ecut=    40.00 Ry     beta= 0.70
     Davidson diagonalization with overlap
     ethr =  6.70E-11,  avg # of iterations =  2.0

     negative rho (up, down):  3.114E-03 0.000E+00

     total cpu time spent up to now is      333.4 secs

     total energy              =  -27755.48082471 Ry
     estimated scf accuracy    <       0.00000009 Ry

     iteration # 20     ecut=    40.00 Ry     beta= 0.70
     Davidson diagonalization with overlap
     ethr =  2.51E-11,  avg # of iterations =  3.8

     negative rho (up, down):  3.149E-03 0.000E+00

     total cpu time spent up to now is      351.3 secs

     total energy              =  -27755.48082454 Ry
     estimated scf accuracy    <       0.00000002 Ry

     iteration # 21     ecut=    40.00 Ry     beta= 0.70
     Davidson diagonalization with overlap
     ethr =  4.69E-12,  avg # of iterations =  5.0

     negative rho (up, down):  3.153E-03 0.000E+00

     total cpu time spent up to now is      373.7 secs

     End of self-consistent calculation

          k = 0.0000 0.0000 0.0000 ( 42913 PWs)   bands (ev):

    -6.2951  -5.0477  -4.1081  -3.8856  -3.8774  -3.8676  -3.8653  -3.8628
    -3.8506  -3.8454  -3.4543  -3.3179  -3.3149  -3.3088  -3.3013  -3.2999
    -3.1479  -2.8529  -2.8433  -2.8417  -2.8377  -2.8359  -2.7509  -2.6276
    -2.6266  -2.6249  -2.6230  -2.6167  -2.4999  -2.4046  -2.3980  -2.3944
    -2.3910  -2.3884  -2.3854  -2.3750  -2.3668  -2.3645  -2.3493  -2.3326
    -2.1189  -1.7810  -1.7798  -1.7578  -1.7436  -1.7160  -1.7042  -1.6981
    -1.6900  -1.6880  -1.5783  -1.5468  -1.5259  -1.4520  -1.4028  -0.9849
    -0.9680  -0.9589  -0.9546  -0.9478  -0.8997  -0.8899  -0.7835  -0.7827
    -0.7755  -0.7611  -0.7593  -0.7554  -0.7453  -0.7366  -0.7208  -0.7189
    -0.7128  -0.7022  -0.6765  -0.6731  -0.6503  -0.5553  -0.5508  -0.5443
    -0.5360  -0.5301  -0.5059  -0.3774  -0.3649  -0.3616  -0.3511  -0.3421
    -0.3272  -0.2990  -0.2849  -0.2202  -0.2010  -0.1696  -0.1528  -0.1201
    -0.1181  -0.0833  -0.0795  -0.0703  -0.0194   0.0643   0.0695   0.0831
     0.0922   0.0959   0.1024   0.3787   0.5609   0.5739   0.5820   0.5857
     0.5942   0.5962   0.6193   0.6396   0.6496   0.6531   0.6645   0.7185
     0.7377   0.7801   0.8693   0.8800   0.8916   0.8927   0.9038   0.9921
     1.0073   1.0456   1.0626   1.0654   1.0770   1.2332   1.2967   1.3184
     1.3207   1.3268   1.3361   1.3678   1.3982   1.4065   1.5616   1.5696
     1.5755   1.5780   1.5816   1.6418   1.7291   1.7315   1.7498   1.7549
     1.7596   1.7734   1.7747   1.7840   1.7871   1.7921   1.7941   1.8663
     1.8958   1.9004   1.9185   1.9249   1.9366   1.9398   1.9555   1.9983
     2.0093   2.0319   2.0383   2.0432   2.0506   2.0607   2.0644   2.1318
     2.1426   2.1483   2.1561   2.1593   2.1659   2.1738   2.2325   2.2548
     2.2602   2.2613   2.2736   2.2801   2.4581   2.4779   2.5580   2.5675
     2.5840   2.5902   2.5940   2.5970   3.0215   3.4147   3.4477   3.4731
     3.4765   3.4866   3.4885   5.2104   5.7439   5.7739   5.7934   5.8127
     5.8233   7.0365   7.3440   7.3734   7.3969   7.4093   7.4131   7.4757
     7.5904

          k = 0.0000 0.2309 0.0000 ( 42996 PWs)   bands (ev):

    -6.1481  -4.9056  -4.3840  -4.0567  -3.9782  -3.9051  -3.7404  -3.6730
    -3.6432  -3.6248  -3.4768  -3.4049  -3.3430  -3.2494  -3.2412  -3.2305
    -3.0741  -2.9246  -2.8163  -2.8051  -2.7974  -2.7871  -2.7246  -2.6957
    -2.6643  -2.6395  -2.6309  -2.5949  -2.5716  -2.5344  -2.5026  -2.4289
    -2.4221  -2.3966  -2.3775  -2.2653  -2.1984  -2.1861  -2.1728  -2.1511
    -2.0668  -1.9038  -1.8957  -1.8367  -1.8236  -1.7946  -1.7830  -1.7037
    -1.5985  -1.5849  -1.5296  -1.5206  -1.4674  -1.4522  -1.4241  -1.2323
    -1.1468  -1.1431  -1.0757  -1.0529  -1.0212  -0.9856  -0.9626  -0.9495
    -0.9266  -0.9158  -0.8583  -0.8548  -0.7897  -0.7672  -0.7600  -0.7430
    -0.6846  -0.6746  -0.6620  -0.5987  -0.5917  -0.5722  -0.5302  -0.4876
    -0.4799  -0.4738  -0.4627  -0.3884  -0.3834  -0.3703  -0.3667  -0.3438
    -0.3136  -0.2794  -0.2543  -0.2361  -0.2048  -0.1944  -0.1729  -0.1566
    -0.1217  -0.1164  -0.1000  -0.0897   0.0005   0.0566   0.0781   0.0835
     0.0906   0.1007   0.1098   0.1266   0.1669   0.1725   0.1936   0.2054
     0.4033   0.4910   0.5108   0.5581   0.5971   0.6026   0.6148   0.6364
     0.6412   0.7482   0.7982   0.8060   0.8434   0.9319   0.9487   0.9745
     0.9925   1.0057   1.0519   1.0689   1.0861   1.1230   1.1672   1.1946
     1.2066   1.2164   1.2421   1.3934   1.4097   1.4273   1.4442   1.4501
     1.4742   1.5102   1.5565   1.5836   1.6021   1.6118   1.6669   1.6814
     1.6903   1.6957   1.7568   1.8018   1.8098   1.8359   1.8677   1.9344
     1.9715   1.9743   1.9807   1.9953   2.0082   2.0403   2.1053   2.1193
     2.1412   2.1779   2.1900   2.1953   2.2299   2.2366   2.2413   2.2462
     2.2494   2.3051   2.3138   2.4343   2.4665   2.4836   2.4997   2.5126
     2.5186   2.5501   2.5792   2.5901   2.5983   2.6787   2.7013   2.7244
     2.7387   2.8855   2.8923   2.9013   2.9327   3.2647   3.3422   3.7894
     4.0607   4.0794   4.1962   4.9266   5.3219   5.5075   6.0714   6.2202
     6.2313   6.3519   6.5873   6.9429   7.1854   7.2926   7.5521   7.5841
     7.5992

          k = 0.0000 0.4619 0.0000 ( 43046 PWs)   bands (ev):

    -5.7248  -5.0887  -4.5112  -4.0645  -4.0133  -3.9414  -3.6569  -3.6228
    -3.4830  -3.3598  -3.3013  -3.2840  -3.2211  -3.1197  -3.0791  -3.0640
    -3.0598  -3.0001  -2.9177  -2.8982  -2.8720  -2.8509  -2.8228  -2.8118
    -2.7289  -2.7144  -2.7085  -2.6606  -2.4501  -2.4443  -2.4372  -2.4310
    -2.4248  -2.3524  -2.2032  -2.1873  -2.1633  -2.1491  -2.1389  -2.0688
    -1.9141  -1.8676  -1.8546  -1.8409  -1.8070  -1.7865  -1.7559  -1.7151
    -1.7067  -1.6682  -1.6418  -1.5976  -1.4975  -1.4868  -1.4546  -1.4306
    -1.3429  -1.3073  -1.2756  -1.2707  -1.2226  -1.1189  -1.0578  -1.0537
    -1.0358  -1.0205  -0.9538  -0.9271  -0.8926  -0.8170  -0.8062  -0.7955
    -0.7799  -0.6944  -0.6748  -0.6633  -0.6538  -0.6314  -0.5949  -0.5709
    -0.5640  -0.5456  -0.5412  -0.5348  -0.5292  -0.4993  -0.4737  -0.4035
    -0.3940  -0.3731  -0.3654  -0.3552  -0.3231  -0.2347  -0.2187  -0.1864
    -0.1505  -0.1304  -0.1089  -0.0867  -0.0645  -0.0604   0.0062   0.0675
     0.0898   0.1233   0.1501   0.1821   0.1970   0.3293   0.3462   0.4097
     0.4250   0.4757   0.5006   0.5219   0.5389   0.5428   0.5537   0.6176
     0.6320   0.6422   0.6495   0.6664   0.6877   0.7078   0.7093   0.7232
     0.7643   0.8644   0.8816   0.8991   0.9334   0.9755   1.0636   1.0775
     1.1235   1.1975   1.2276   1.2990   1.3547   1.3692   1.4056   1.4235
     1.4500   1.4706   1.4791   1.5282   1.5680   1.5734   1.6255   1.6475
     1.6881   1.7209   1.7344   1.7412   1.7594   1.7842   1.8885   1.9349
     1.9872   2.0170   2.0303   2.0390   2.0466   2.1355   2.1452   2.1716
     2.2286   2.2376   2.2454   2.2971   2.3157   2.3390   2.3493   2.4392
     2.4678   2.4825   2.4927   2.5043   2.5077   2.5275   2.5303   2.7037
     2.7301   2.7453   2.7509   2.7557   2.9201   2.9648   3.1559   3.3496
     3.3977   3.5601   3.7874   3.7917   4.0803   4.1795   4.2633   4.5040
     4.7402   5.0063   5.0096   5.0684   5.2143   5.2689   5.3439   5.4022
     5.6271   5.6635   6.1441   6.2984   6.6650   6.8311   7.0848   7.3173
     7.6008

          k = 0.2000-0.1155 0.0000 ( 42996 PWs)   bands (ev):

    -6.1481  -4.9062  -4.3869  -4.0422  -3.9774  -3.9171  -3.7403  -3.6731
    -3.6369  -3.6285  -3.4836  -3.4040  -3.3415  -3.2432  -3.2394  -3.2301
    -3.0684  -2.9449  -2.8166  -2.8073  -2.7954  -2.7788  -2.7222  -2.7007
    -2.6631  -2.6402  -2.6312  -2.5952  -2.5592  -2.5299  -2.5129  -2.4257
    -2.4179  -2.3961  -2.3789  -2.2544  -2.1969  -2.1861  -2.1796  -2.1445
    -2.0759  -1.9028  -1.8997  -1.8613  -1.8225  -1.8041  -1.7831  -1.7061
    -1.6098  -1.5717  -1.5236  -1.5077  -1.4794  -1.4551  -1.4055  -1.2428
    -1.1483  -1.1384  -1.0814  -1.0625  -1.0209  -0.9951  -0.9540  -0.9377
    -0.9236  -0.9130  -0.8786  -0.8542  -0.7988  -0.7719  -0.7608  -0.7242
    -0.6773  -0.6582  -0.6483  -0.5974  -0.5924  -0.5543  -0.5353  -0.4975
    -0.4909  -0.4818  -0.4636  -0.3938  -0.3758  -0.3654  -0.3578  -0.3526
    -0.3077  -0.2893  -0.2537  -0.2232  -0.2065  -0.1969  -0.1815  -0.1534
    -0.1382  -0.1049  -0.0984  -0.0832  -0.0023   0.0568   0.0781   0.0841
     0.0927   0.1007   0.1078   0.1290   0.1624   0.1742   0.1902   0.2031
     0.3518   0.4918   0.5300   0.5709   0.5930   0.6039   0.6175   0.6300
     0.6448   0.7214   0.7986   0.8095   0.8619   0.9322   0.9514   0.9625
     1.0020   1.0126   1.0544   1.0737   1.0866   1.1570   1.1763   1.1974
     1.2023   1.2137   1.2679   1.4076   1.4129   1.4255   1.4383   1.4506
     1.4688   1.5109   1.5524   1.5801   1.5928   1.6130   1.6319   1.6819
     1.6860   1.7002   1.7395   1.8003   1.8138   1.8343   1.8683   1.9387
     1.9591   1.9718   1.9861   1.9983   2.0255   2.0391   2.1030   2.1246
     2.1618   2.1788   2.1876   2.1981   2.2303   2.2319   2.2415   2.2478
     2.2502   2.3106   2.3204   2.4462   2.4657   2.4823   2.4948   2.5031
     2.5129   2.5401   2.5624   2.5799   2.5973   2.6628   2.7036   2.7225
     2.7614   2.8803   2.8921   2.9017   2.9401   3.2404   3.3338   3.8062
     4.0622   4.0817   4.1985   4.9279   5.3387   5.5016   6.0630   6.2208
     6.2305   6.3495   6.5794   6.9560   7.1849   7.2788   7.5457   7.5849
     7.6009

          k = 0.2000 0.1155 0.0000 ( 42996 PWs)   bands (ev):

    -6.1485  -4.9085  -4.3991  -4.0215  -3.9774  -3.9327  -3.7409  -3.6793
    -3.6302  -3.6275  -3.5137  -3.4018  -3.2836  -3.2470  -3.2427  -3.2287
    -3.1132  -2.9401  -2.8154  -2.8095  -2.7939  -2.7329  -2.7232  -2.6936
    -2.6641  -2.6493  -2.6420  -2.6185  -2.5360  -2.5278  -2.4977  -2.4275
    -2.4176  -2.3819  -2.3762  -2.2462  -2.1987  -2.1865  -2.1799  -2.1548
    -2.0846  -1.9020  -1.8931  -1.8710  -1.8201  -1.8128  -1.7802  -1.7039
    -1.6062  -1.5571  -1.5331  -1.5172  -1.4808  -1.4509  -1.4041  -1.2368
    -1.1455  -1.1327  -1.0747  -1.0492  -1.0338  -0.9860  -0.9657  -0.9418
    -0.9263  -0.9127  -0.8809  -0.8532  -0.8020  -0.7762  -0.7536  -0.7465
    -0.6798  -0.6754  -0.6576  -0.5968  -0.5865  -0.5619  -0.5343  -0.4819
    -0.4765  -0.4742  -0.4613  -0.3877  -0.3802  -0.3648  -0.3558  -0.3521
    -0.3016  -0.2900  -0.2562  -0.2347  -0.2043  -0.1960  -0.1883  -0.1521
    -0.1451  -0.1081  -0.0995  -0.0817  -0.0039   0.0562   0.0687   0.0786
     0.0851   0.0952   0.1107   0.1224   0.1557   0.1786   0.1830   0.2003
     0.3970   0.4881   0.5239   0.5791   0.5898   0.6006   0.6188   0.6314
     0.6451   0.6905   0.7895   0.8056   0.8676   0.9281   0.9497   0.9737
     0.9941   1.0032   1.0584   1.0725   1.0768   1.1672   1.1785   1.1933
     1.2084   1.2157   1.2919   1.3887   1.4040   1.4270   1.4349   1.4524
     1.4727   1.5107   1.5520   1.5741   1.5984   1.6108   1.6509   1.6773
     1.6907   1.6912   1.7421   1.7954   1.8166   1.8377   1.8791   1.9272
     1.9601   1.9678   1.9765   1.9948   2.0225   2.0419   2.1031   2.1235
     2.1554   2.1763   2.1880   2.2026   2.2328   2.2361   2.2424   2.2470
     2.2499   2.3061   2.3150   2.4494   2.4554   2.4788   2.5030   2.5114
     2.5216   2.5455   2.5754   2.5902   2.5987   2.6730   2.7008   2.7208
     2.7553   2.8835   2.8943   2.8981   2.9406   3.2609   3.3338   3.8061
     4.0479   4.0791   4.2031   4.8985   5.3880   5.5045   6.0534   6.2175
     6.2399   6.3443   6.5352   6.9561   7.1819   7.2756   7.5586   7.5869
     7.6055

          k = 0.2000 0.3464 0.0000 ( 43046 PWs)   bands (ev):

    -5.8630  -4.6788  -4.6291  -4.6055  -3.8626  -3.5502  -3.5471  -3.5347
    -3.5155  -3.4779  -3.4766  -3.4611  -3.3653  -3.3556  -3.1174  -2.9820
    -2.9737  -2.9608  -2.9397  -2.8966  -2.8590  -2.7322  -2.7180  -2.7127
    -2.7035  -2.6396  -2.6004  -2.5678  -2.5568  -2.5435  -2.4917  -2.4748
    -2.4505  -2.4090  -2.3974  -2.3231  -2.2154  -2.0557  -1.9663  -1.9538
    -1.9294  -1.9139  -1.9065  -1.9009  -1.8404  -1.8250  -1.7600  -1.6703
    -1.6675  -1.6320  -1.5649  -1.5433  -1.4928  -1.4878  -1.4474  -1.3948
    -1.3752  -1.2277  -1.2045  -1.1938  -1.1210  -1.1097  -1.0869  -1.0818
    -1.0522  -1.0063  -0.9811  -0.8639  -0.8484  -0.8400  -0.8270  -0.7812
    -0.7699  -0.7129  -0.7058  -0.6851  -0.6462  -0.5670  -0.5532  -0.5328
    -0.5163  -0.5058  -0.4998  -0.4885  -0.4570  -0.4367  -0.4052  -0.3806
    -0.3577  -0.3362  -0.2733  -0.2585  -0.2267  -0.2000  -0.1830  -0.1602
    -0.1463  -0.1233  -0.1068  -0.0949  -0.0886  -0.0705  -0.0607  -0.0505
    -0.0090   0.0122   0.0869   0.1083   0.1571   0.2017   0.2291   0.2362
     0.2483   0.3873   0.4372   0.4570   0.5530   0.5788   0.6109   0.6186
     0.6422   0.6598   0.6726   0.7099   0.7184   0.7406   0.7705   0.8369
     0.8824   0.9377   1.0053   1.0162   1.0498   1.0637   1.0905   1.1363
     1.1699   1.2482   1.2558   1.2755   1.3290   1.3448   1.3853   1.4512
     1.4724   1.4791   1.5185   1.5380   1.5531   1.5694   1.5749   1.5884
     1.6013   1.6070   1.6253   1.7170   1.7705   1.8148   1.9222   1.9400
     1.9613   2.0662   2.1148   2.1284   2.1321   2.1716   2.2365   2.2612
     2.2706   2.2847   2.3023   2.3196   2.3334   2.3358   2.3492   2.3889
     2.4045   2.4298   2.4841   2.5141   2.5212   2.5517   2.5633   2.6024
     2.7383   2.7606   2.7962   2.8085   2.8683   2.8755   2.8799   2.9874
     3.0241   3.3101   3.5397   3.5528   3.9421   4.0900   4.1005   4.1175
     4.4908   4.8010   4.8213   5.0055   5.0200   5.0713   5.6608   5.9916
     6.2104   6.2457   6.4153   6.5977   6.9311   6.9944   7.0157   7.0261
     7.0579

          k = 0.2000-0.5774 0.0000 ( 43014 PWs)   bands (ev):

    -5.3364  -5.3171  -4.7246  -4.2231  -4.0785  -3.7065  -3.5453  -3.4417
    -3.3943  -3.3532  -3.2623  -3.2264  -3.1596  -3.1495  -3.0474  -3.0331
    -3.0200  -2.9952  -2.9881  -2.9733  -2.8734  -2.8265  -2.8212  -2.8009
    -2.7790  -2.7264  -2.7030  -2.6096  -2.5636  -2.4754  -2.4243  -2.4189
    -2.4041  -2.3901  -2.3501  -2.2885  -2.2026  -2.1723  -2.1243  -1.9975
    -1.9839  -1.8851  -1.8484  -1.8177  -1.7861  -1.7439  -1.6647  -1.6264
    -1.5893  -1.5740  -1.5566  -1.5028  -1.4983  -1.4649  -1.3803  -1.3679
    -1.3481  -1.3402  -1.3340  -1.3269  -1.2675  -1.2580  -1.2512  -1.1260
    -1.1084  -1.0614  -1.0355  -0.9598  -0.9126  -0.9034  -0.8763  -0.8473
    -0.8262  -0.8036  -0.7442  -0.7220  -0.7072  -0.6976  -0.6547  -0.6490
    -0.5981  -0.5596  -0.5171  -0.4834  -0.4753  -0.4745  -0.4204  -0.3508
    -0.3121  -0.2901  -0.2702  -0.2467  -0.2232  -0.2211  -0.2116  -0.1859
    -0.1645  -0.1434  -0.1297  -0.1221  -0.0825  -0.0692  -0.0584  -0.0550
    -0.0483  -0.0229   0.0063   0.0380   0.0459   0.2038   0.2620   0.2760
     0.3566   0.3696   0.4616   0.4713   0.4879   0.5218   0.5527   0.5637
     0.5733   0.5900   0.6315   0.6889   0.7126   0.7313   0.7748   0.7836
     0.8403   0.8552   0.9021   1.0002   1.0444   1.1113   1.1205   1.1412
     1.1602   1.2197   1.2467   1.2629   1.2704   1.2822   1.3044   1.3126
     1.3912   1.4161   1.4399   1.4762   1.5017   1.5144   1.5348   1.5496
     1.5543   1.6688   1.7253   1.7823   1.8333   1.8724   1.9527   1.9664
     1.9932   2.0445   2.0875   2.0969   2.1414   2.1930   2.2539   2.2717
     2.3015   2.3167   2.3205   2.3442   2.3716   2.4034   2.4659   2.4790
     2.4854   2.5087   2.5296   2.5322   2.5368   2.6023   2.7157   2.7377
     2.7461   2.7506   2.7589   2.8173   2.8576   2.9394   3.0613   3.6847
     3.9006   3.9055   4.0974   4.1619   4.2504   4.2893   4.2954   4.6116
     4.9002   4.9101   5.1058   5.3618   5.3860   5.4761   5.5069   5.6639
     5.7531   5.8255   5.8935   6.1487   6.3127   6.3409   6.7101   6.9738
     6.9924

          k = 0.2000-0.3464 0.0000 ( 43046 PWs)   bands (ev):

    -5.8619  -4.6689  -4.6315  -4.6026  -3.8470  -3.5495  -3.5411  -3.5356
    -3.5185  -3.4887  -3.4760  -3.4590  -3.3634  -3.3586  -3.1429  -2.9722
    -2.9668  -2.9631  -2.9180  -2.8938  -2.8482  -2.7345  -2.7199  -2.7084
    -2.7042  -2.6809  -2.6065  -2.5750  -2.5527  -2.5431  -2.5157  -2.4799
    -2.4479  -2.4229  -2.4009  -2.3189  -2.2484  -2.0539  -1.9648  -1.9595
    -1.9314  -1.9153  -1.9010  -1.8969  -1.8406  -1.8220  -1.7539  -1.6740
    -1.6632  -1.6156  -1.5738  -1.5307  -1.4953  -1.4857  -1.4409  -1.3971
    -1.3861  -1.2253  -1.2216  -1.1974  -1.1265  -1.1010  -1.0890  -1.0816
    -1.0478  -1.0059  -0.9855  -0.8550  -0.8380  -0.8278  -0.8140  -0.7774
    -0.7651  -0.7207  -0.6997  -0.6860  -0.6358  -0.5791  -0.5612  -0.5349
    -0.5168  -0.5063  -0.5003  -0.4724  -0.4533  -0.4378  -0.4026  -0.3733
    -0.3518  -0.3158  -0.2741  -0.2496  -0.2382  -0.2013  -0.1769  -0.1611
    -0.1524  -0.1107  -0.1032  -0.0902  -0.0853  -0.0665  -0.0623  -0.0553
    -0.0197   0.0174   0.1023   0.1248   0.1470   0.1675   0.2337   0.2400
     0.2490   0.3865   0.4339   0.4610   0.5726   0.5803   0.6081   0.6194
     0.6370   0.6573   0.6743   0.7039   0.7217   0.7356   0.7744   0.8240
     0.8607   0.9480   1.0035   1.0186   1.0484   1.0665   1.1033   1.1348
     1.1658   1.2355   1.2603   1.2746   1.3297   1.3426   1.3989   1.4551
     1.4714   1.4809   1.5055   1.5363   1.5561   1.5646   1.5750   1.5934
     1.5996   1.6063   1.6257   1.7174   1.7846   1.8156   1.9097   1.9415
     1.9643   2.0572   2.1237   2.1273   2.1321   2.1900   2.2337   2.2555
     2.2708   2.2848   2.3050   2.3201   2.3353   2.3424   2.3524   2.3885
     2.4104   2.4176   2.4897   2.5094   2.5300   2.5518   2.5624   2.6042
     2.7263   2.7614   2.7871   2.7963   2.8669   2.8756   2.8822   3.0062
     3.0241   3.2910   3.5310   3.5612   3.9028   4.0877   4.0997   4.1190
     4.5058   4.8079   4.8198   4.9894   5.0164   5.0726   5.6413   5.9865
     6.2076   6.2517   6.4481   6.6253   6.9310   6.9997   7.0167   7.0273
     7.4216

          k = 0.4000-0.2309 0.0000 ( 43046 PWs)   bands (ev):

    -5.7249  -5.0895  -4.5127  -4.0604  -4.0088  -3.9513  -3.6823  -3.5792
    -3.4854  -3.3590  -3.2934  -3.2872  -3.2231  -3.1184  -3.0747  -3.0670
    -3.0550  -3.0096  -2.9145  -2.9017  -2.8835  -2.8480  -2.8280  -2.8078
    -2.7366  -2.7153  -2.7075  -2.6352  -2.4491  -2.4453  -2.4393  -2.4362
    -2.4238  -2.3496  -2.1987  -2.1906  -2.1654  -2.1502  -2.1359  -2.0659
    -1.9399  -1.8645  -1.8580  -1.8467  -1.8202  -1.7883  -1.7412  -1.7282
    -1.7025  -1.6881  -1.6439  -1.5808  -1.4992  -1.4868  -1.4639  -1.4226
    -1.3453  -1.3228  -1.2840  -1.2656  -1.2421  -1.1214  -1.0591  -1.0432
    -1.0380  -1.0128  -0.9480  -0.9400  -0.8853  -0.8142  -0.7980  -0.7904
    -0.7328  -0.6926  -0.6816  -0.6609  -0.6583  -0.6279  -0.5936  -0.5748
    -0.5575  -0.5495  -0.5415  -0.5356  -0.5251  -0.4930  -0.4435  -0.4002
    -0.3946  -0.3836  -0.3669  -0.3587  -0.3421  -0.2558  -0.2064  -0.1908
    -0.1405  -0.1330  -0.1092  -0.0918  -0.0625  -0.0477   0.0157   0.0741
     0.0867   0.0950   0.1457   0.1808   0.2082   0.3250   0.3414   0.3972
     0.4268   0.4686   0.5050   0.5216   0.5302   0.5388   0.5446   0.5715
     0.6276   0.6480   0.6638   0.6725   0.6845   0.7044   0.7221   0.7431
     0.7615   0.8724   0.8925   0.9060   0.9575   0.9799   1.0759   1.0900
     1.1619   1.2035   1.2250   1.2791   1.3429   1.3748   1.4088   1.4332
     1.4510   1.4683   1.4818   1.5178   1.5478   1.5743   1.6048   1.6386
     1.6876   1.7123   1.7381   1.7452   1.7598   1.8225   1.8480   1.9342
     1.9834   2.0075   2.0356   2.0380   2.0691   2.1280   2.1501   2.1834
     2.2288   2.2421   2.2488   2.2947   2.3306   2.3402   2.3532   2.4457
     2.4638   2.4804   2.4940   2.5006   2.5037   2.5192   2.5214   2.7066
     2.7164   2.7288   2.7447   2.7506   2.9197   2.9634   3.1582   3.3401
     3.4074   3.5557   3.7826   3.7964   4.0912   4.1801   4.2604   4.4980
     4.7398   5.0022   5.0102   5.0714   5.2272   5.2731   5.3419   5.3973
     5.6274   5.6629   6.1308   6.2937   6.6705   6.8373   7.0831   7.3169
     7.6045

          k = 0.4000-0.0000 0.0000 ( 43046 PWs)   bands (ev):

    -5.8631  -4.6842  -4.6246  -4.6057  -3.8587  -3.5486  -3.5423  -3.5358
    -3.5123  -3.4813  -3.4750  -3.4679  -3.3666  -3.3541  -3.1162  -2.9753
    -2.9646  -2.9612  -2.9564  -2.8785  -2.8667  -2.7388  -2.7186  -2.7119
    -2.7033  -2.6396  -2.6097  -2.5662  -2.5632  -2.5441  -2.4931  -2.4754
    -2.4458  -2.4123  -2.3931  -2.3143  -2.1845  -2.0459  -1.9646  -1.9577
    -1.9386  -1.9195  -1.9050  -1.8994  -1.8751  -1.8381  -1.8028  -1.6708
    -1.6672  -1.5928  -1.5690  -1.5364  -1.4888  -1.4833  -1.4418  -1.3965
    -1.3832  -1.2334  -1.2026  -1.1936  -1.1312  -1.0996  -1.0900  -1.0806
    -1.0488  -1.0105  -0.9898  -0.8671  -0.8395  -0.8328  -0.8217  -0.7788
    -0.7596  -0.7230  -0.7087  -0.6843  -0.6534  -0.5679  -0.5467  -0.5306
    -0.5132  -0.5092  -0.5023  -0.4860  -0.4511  -0.4387  -0.3981  -0.3792
    -0.3539  -0.3412  -0.2722  -0.2622  -0.2239  -0.1983  -0.1736  -0.1587
    -0.1468  -0.1249  -0.1069  -0.0965  -0.0935  -0.0783  -0.0635  -0.0497
    -0.0066   0.0120   0.0641   0.1113   0.1563   0.1795   0.2328   0.2400
     0.2497   0.3990   0.4357   0.4486   0.5720   0.5765   0.6161   0.6277
     0.6387   0.6543   0.6898   0.7007   0.7274   0.7372   0.7672   0.8205
     0.9112   0.9488   1.0041   1.0254   1.0463   1.0658   1.0929   1.1396
     1.1895   1.2327   1.2641   1.3035   1.3211   1.3465   1.3906   1.4384
     1.4548   1.4735   1.5058   1.5414   1.5552   1.5669   1.5757   1.5888
     1.5987   1.6022   1.6226   1.6847   1.7958   1.8110   1.8977   1.9478
     1.9713   2.0622   2.1214   2.1263   2.1337   2.2095   2.2401   2.2558
     2.2671   2.2798   2.3072   2.3234   2.3319   2.3422   2.3531   2.3885
     2.4013   2.4158   2.4898   2.5137   2.5305   2.5529   2.5601   2.6063
     2.6787   2.7506   2.7907   2.8076   2.8625   2.8749   2.8801   2.9948
     3.0245   3.3300   3.5481   3.5587   3.9340   4.0866   4.0906   4.1110
     4.4993   4.8031   4.8239   5.0164   5.0190   5.0689   5.6768   5.9879
     6.2069   6.2362   6.4086   6.5812   6.9275   6.9994   7.0130   7.0336
     7.4064

          k = 0.4000 0.2309 0.0000 ( 43046 PWs)   bands (ev):

    -5.7268  -5.0952  -4.5232  -4.0511  -4.0084  -3.9769  -3.6941  -3.5633
    -3.4884  -3.3585  -3.2873  -3.2854  -3.1997  -3.1208  -3.0880  -3.0681
    -3.0590  -3.0398  -2.9176  -2.9006  -2.8874  -2.8538  -2.8412  -2.7954
    -2.7365  -2.7131  -2.7092  -2.4900  -2.4479  -2.4436  -2.4395  -2.4299
    -2.4198  -2.3269  -2.1980  -2.1819  -2.1601  -2.1562  -2.1363  -2.0748
    -1.9634  -1.8622  -1.8576  -1.8452  -1.8347  -1.7814  -1.7543  -1.7171
    -1.7074  -1.6879  -1.6375  -1.5940  -1.5024  -1.4786  -1.4589  -1.4279
    -1.3401  -1.3115  -1.2747  -1.2633  -1.2261  -1.1188  -1.0698  -1.0483
    -1.0405  -1.0210  -0.9474  -0.9356  -0.9265  -0.8219  -0.8140  -0.8030
    -0.7685  -0.6894  -0.6780  -0.6649  -0.6540  -0.6361  -0.6024  -0.5655
    -0.5580  -0.5454  -0.5432  -0.5358  -0.5230  -0.4909  -0.4494  -0.3949
    -0.3850  -0.3820  -0.3686  -0.3454  -0.3351  -0.2849  -0.2152  -0.1862
    -0.1531  -0.1235  -0.0999  -0.0925  -0.0788  -0.0697   0.0334   0.0686
     0.0870   0.0913   0.1491   0.1746   0.1987   0.3285   0.3533   0.3718
     0.4253   0.4763   0.5044   0.5229   0.5335   0.5459   0.5556   0.5710
     0.6283   0.6453   0.6560   0.6774   0.6817   0.7060   0.7148   0.7463
     0.7714   0.8602   0.8813   0.8995   0.9645   0.9901   1.0762   1.0845
     1.1613   1.1998   1.2204   1.2884   1.3469   1.3626   1.3954   1.4242
     1.4603   1.4641   1.4839   1.5220   1.5574   1.5755   1.6027   1.6432
     1.6883   1.7147   1.7327   1.7416   1.7581   1.8054   1.8602   1.9262
     1.9682   2.0084   2.0280   2.0388   2.0760   2.1284   2.1485   2.1816
     2.2339   2.2379   2.2438   2.3038   2.3218   2.3371   2.3506   2.4391
     2.4676   2.4834   2.4907   2.5012   2.5086   2.5267   2.5330   2.7064
     2.7229   2.7447   2.7479   2.7583   2.9213   2.9641   3.1970   3.3414
     3.4059   3.5341   3.7869   3.7930   4.0960   4.1816   4.2532   4.5249
     4.7747   5.0043   5.0099   5.0612   5.2181   5.2584   5.3690   5.4052
     5.6246   5.6643   6.0989   6.3045   6.6530   6.8242   7.1228   7.3056
     7.6193

          k = 0.4000-0.6928 0.0000 ( 43014 PWs)   bands (ev):

    -5.3374  -5.3224  -4.7174  -4.2554  -4.0773  -3.6747  -3.5516  -3.4278
    -3.3989  -3.3596  -3.2667  -3.2485  -3.1589  -3.1450  -3.0532  -3.0306
    -3.0165  -2.9970  -2.9857  -2.9761  -2.8641  -2.8358  -2.8223  -2.7983
    -2.7824  -2.7551  -2.6658  -2.5739  -2.5450  -2.4357  -2.4268  -2.4162
    -2.4024  -2.3840  -2.3293  -2.2828  -2.2324  -2.1804  -2.1197  -1.9911
    -1.9843  -1.9457  -1.8430  -1.7988  -1.7825  -1.7582  -1.6636  -1.6253
    -1.5892  -1.5668  -1.5408  -1.5120  -1.4922  -1.4642  -1.3840  -1.3763
    -1.3558  -1.3412  -1.3335  -1.3237  -1.2818  -1.2574  -1.2248  -1.1394
    -1.1174  -1.0671  -1.0297  -0.9625  -0.9136  -0.9056  -0.8937  -0.8423
    -0.8264  -0.8164  -0.7561  -0.7254  -0.7131  -0.6966  -0.6564  -0.6145
    -0.6027  -0.5724  -0.5262  -0.4846  -0.4777  -0.4671  -0.4150  -0.3461
    -0.3128  -0.2899  -0.2739  -0.2648  -0.2240  -0.2180  -0.2031  -0.1885
    -0.1787  -0.1592  -0.1322  -0.1059  -0.0808  -0.0738  -0.0615  -0.0570
    -0.0433  -0.0307  -0.0048   0.0430   0.0467   0.1811   0.2571   0.3352
     0.3599   0.3768   0.4637   0.4673   0.4953   0.5127   0.5468   0.5713
     0.5827   0.5918   0.6327   0.6897   0.7110   0.7300   0.7732   0.7824
     0.8381   0.8554   0.8914   0.9741   1.0633   1.1096   1.1241   1.1462
     1.1766   1.2148   1.2322   1.2509   1.2707   1.2744   1.3077   1.3114
     1.3834   1.4329   1.4449   1.4830   1.4954   1.5172   1.5248   1.5410
     1.5540   1.6997   1.7282   1.7639   1.8154   1.8796   1.9514   1.9645
     2.0166   2.0466   2.0862   2.0975   2.1453   2.1990   2.2534   2.2806
     2.2952   2.3097   2.3197   2.3368   2.3694   2.3983   2.4683   2.4790
     2.4903   2.5048   2.5296   2.5312   2.5395   2.6028   2.7134   2.7335
     2.7457   2.7500   2.7601   2.8130   2.8514   2.9349   3.0382   3.7144
     3.9006   3.9074   4.1091   4.1568   4.2773   4.2877   4.3008   4.6188
     4.8796   4.9153   5.1481   5.3579   5.3904   5.4510   5.5128   5.6562
     5.7402   5.8177   5.9087   6.1533   6.2832   6.3526   6.7258   6.9549
     6.9933

          k = 0.4000-0.4619 0.0000 ( 43014 PWs)   bands (ev):

    -5.3342  -5.3199  -4.7230  -4.2302  -4.0767  -3.7005  -3.5436  -3.4286
    -3.3907  -3.3539  -3.2662  -3.2405  -3.1542  -3.1450  -3.0485  -3.0334
    -3.0206  -2.9944  -2.9867  -2.9775  -2.8786  -2.8292  -2.8229  -2.8012
    -2.7791  -2.7133  -2.7026  -2.6072  -2.5654  -2.4770  -2.4226  -2.4195
    -2.4036  -2.3910  -2.3480  -2.2866  -2.1985  -2.1784  -2.1326  -1.9907
    -1.9828  -1.9249  -1.8481  -1.8116  -1.7898  -1.7365  -1.6507  -1.6246
    -1.5873  -1.5683  -1.5482  -1.5170  -1.5095  -1.4716  -1.3797  -1.3725
    -1.3510  -1.3433  -1.3396  -1.3277  -1.2748  -1.2604  -1.2487  -1.1273
    -1.0959  -1.0644  -1.0299  -0.9486  -0.9214  -0.8995  -0.8751  -0.8446
    -0.8126  -0.7979  -0.7493  -0.7338  -0.7077  -0.6993  -0.6558  -0.6129
    -0.6001  -0.5817  -0.5125  -0.4943  -0.4824  -0.4677  -0.4211  -0.3425
    -0.3018  -0.2941  -0.2715  -0.2537  -0.2233  -0.2158  -0.2073  -0.1730
    -0.1645  -0.1497  -0.1281  -0.1046  -0.0884  -0.0695  -0.0602  -0.0531
    -0.0450  -0.0313   0.0088   0.0395   0.0516   0.1247   0.2652   0.3272
     0.3585   0.3669   0.4603   0.4696   0.4938   0.5007   0.5523   0.5735
     0.5762   0.5871   0.6439   0.6789   0.7153   0.7177   0.7783   0.7870
     0.8422   0.8623   0.9051   1.0235   1.0630   1.1091   1.1239   1.1407
     1.1644   1.2101   1.2322   1.2515   1.2675   1.2771   1.3014   1.3130
     1.3755   1.4340   1.4406   1.4801   1.4945   1.5192   1.5308   1.5468
     1.5611   1.6975   1.7330   1.7585   1.8242   1.8730   1.9398   1.9624
     1.9992   2.0527   2.0869   2.0947   2.1624   2.1939   2.2578   2.2856
     2.3010   2.3154   2.3198   2.3425   2.3604   2.3962   2.4704   2.4768
     2.4940   2.5133   2.5258   2.5324   2.5387   2.6033   2.7063   2.7257
     2.7428   2.7462   2.7526   2.8146   2.8397   2.9367   3.0585   3.6969
     3.9022   3.9083   4.1062   4.1583   4.2586   4.2888   4.3086   4.6043
     4.8865   4.9109   5.1221   5.3659   5.3822   5.4700   5.5061   5.6210
     5.7485   5.8266   5.9026   6.1600   6.3099   6.3480   6.7135   6.9747
     6.9984

     the Fermi energy is     2.5177 ev

!    total energy              =  -27755.48082452 Ry
     total all-electron energy =  -1326642.246241 Ry
     estimated scf accuracy    <          6.9E-09 Ry
     smearing contrib. (-TS)   =       0.00283328 Ry
     internal energy E=F+TS    =  -27755.48365780 Ry

     The total energy is F=E-TS. E is the sum of the following terms:
     one-electron contribution =  -20676.18279307 Ry
     hartree contribution      =   10645.26606183 Ry
     xc contribution           =    -890.68654419 Ry
     ewald contribution        =    8640.09689271 Ry
     one-center paw contrib.   =  -25473.97727507 Ry

     convergence has been achieved in  21 iterations

     negative rho (up, down):  3.153E-03 0.000E+00

     Forces acting on atoms (cartesian axes, Ry/au):

     atom    1 type  1   force =    -0.00038028    0.00028706   -0.00326323
     atom    2 type  1   force =     0.00013866    0.00029126   -0.00335019
     atom    3 type  1   force =    -0.00054376    0.00215236   -0.00531493
     atom    4 type  1   force =    -0.00014816    0.00036744   -0.00338124
     atom    5 type  1   force =     0.00002008   -0.00027458   -0.00385443
     atom    6 type  1   force =    -0.00052450   -0.00023259   -0.00387496
     atom    7 type  1   force =    -0.00018445   -0.00004194   -0.00303259
     atom    8 type  1   force =    -0.00025904    0.00001037   -0.00348019
     atom    9 type  1   force =     0.00007774    0.00018560   -0.00289370
     atom   10 type  1   force =     0.00031627   -0.00038291    0.00590151
     atom   11 type  1   force =     0.00106008   -0.00157662    0.00173246
     atom   12 type  1   force =    -0.00065719   -0.00128224    0.00035123
     atom   13 type  1   force =    -0.00150854    0.00081215    0.00661812
     atom   14 type  1   force =     0.00020481   -0.00041482    0.00243990
     atom   15 type  1   force =     0.00217218    0.00062443    0.00701191
     atom   16 type  1   force =     0.00022014   -0.00016353    0.00272250
     atom   17 type  1   force =     0.00080174    0.00024748    0.00410597
     atom   18 type  1   force =    -0.00018398    0.00059503    0.00145049
     atom   19 type  1   force =    -0.00002945   -0.00001547    0.00027892
     atom   20 type  1   force =     0.00000180    0.00009310    0.00003240
     atom   21 type  1   force =     0.00001102   -0.00014712   -0.00013297
     atom   22 type  1   force =    -0.00001026    0.00001627    0.00020831
     atom   23 type  1   force =     0.00001396   -0.00002721    0.00000554
     atom   24 type  1   force =     0.00010113   -0.00010970    0.00017445
     atom   25 type  1   force =    -0.00004129   -0.00007788   -0.00005358
     atom   26 type  1   force =     0.00005337    0.00000194   -0.00004223
     atom   27 type  1   force =     0.00003188    0.00007558   -0.00003449
     atom   28 type  1   force =    -0.00019385   -0.00028528   -0.00004663
     atom   29 type  1   force =    -0.00002825    0.00005203   -0.00015458
     atom   30 type  1   force =     0.00014856   -0.00032941    0.00016634
     atom   31 type  1   force =    -0.00000634   -0.00013020   -0.00008004
     atom   32 type  1   force =    -0.00001058   -0.00022041   -0.00016119
     atom   33 type  1   force =    -0.00037074   -0.00019875    0.00022835
     atom   34 type  1   force =    -0.00014964   -0.00006050    0.00010170
     atom   35 type  1   force =     0.00010054   -0.00011496   -0.00028007
     atom   36 type  1   force =    -0.00020360    0.00013301   -0.00003095
     atom   37 type  2   force =    -0.00004006    0.00014103   -0.00006790
     The non-local contrib.  to forces
     atom    1 type  1   force =    -0.00016760   -0.00028954   -0.01794116
     atom    2 type  1   force =    -0.00028839    0.00029301   -0.01810195
     atom    3 type  1   force =     0.00087086   -0.00199041   -0.01755750
     atom    4 type  1   force =     0.00031397   -0.00074322   -0.01882326
     atom    5 type  1   force =    -0.00019676    0.00004171   -0.01790735
     atom    6 type  1   force =    -0.00014270    0.00022623   -0.01834869
     atom    7 type  1   force =     0.00032336    0.00118132   -0.01904713
     atom    8 type  1   force =     0.00013626   -0.00019389   -0.01876228
     atom    9 type  1   force =    -0.00043060    0.00052539   -0.01922630
     atom   10 type  1   force =     0.00033214   -0.00077256    0.00000455
     atom   11 type  1   force =    -0.00080195    0.00056865    0.00033841
     atom   12 type  1   force =     0.00208197    0.00096848   -0.00041633
     atom   13 type  1   force =     0.00060069   -0.00076337    0.00139192
     atom   14 type  1   force =     0.00062836   -0.00005026   -0.00066983
     atom   15 type  1   force =    -0.00009783   -0.00042659    0.00106112
     atom   16 type  1   force =     0.00173064   -0.00001436   -0.00037851
     atom   17 type  1   force =    -0.00031607   -0.00039198   -0.00006367
     atom   18 type  1   force =    -0.00060152   -0.00203359    0.00050192
     atom   19 type  1   force =    -0.00407507   -0.00358830    0.00205407
     atom   20 type  1   force =     0.00261134   -0.00116122    0.00591709
     atom   21 type  1   force =     0.00049507    0.00040389    0.00231772
     atom   22 type  1   force =     0.00155635    0.01047941   -0.00795533
     atom   23 type  1   force =     0.00200694    0.00055975    0.00199175
     atom   24 type  1   force =    -0.00159617   -0.00015550    0.00275023
     atom   25 type  1   force =     0.00087750    0.00064225    0.00451619
     atom   26 type  1   force =    -0.00091394   -0.00251484    0.00031400
     atom   27 type  1   force =     0.00101085    0.00007563    0.00196480
     atom   28 type  1   force =     0.02031573    0.01455887    0.02783132
     atom   29 type  1   force =    -0.02126977    0.02686739    0.02502975
     atom   30 type  1   force =     0.00075941   -0.00060599    0.01591841
     atom   31 type  1   force =    -0.00546749    0.00994128   -0.07417684
     atom   32 type  1   force =    -0.01383830   -0.00562561    0.02334643
     atom   33 type  1   force =     0.00181809   -0.00033810    0.01789071
     atom   34 type  1   force =    -0.00070903   -0.00209934    0.01737629
     atom   35 type  1   force =    -0.00094136   -0.00038205    0.01627330
     atom   36 type  1   force =     0.00017962   -0.00233687    0.01718251
     atom   37 type  2   force =    -0.00684738    0.01820844   -0.03010832
     The ionic contribution  to forces
     atom    1 type  1   force =     0.00234676    0.00275324  -93.41538009
     atom    2 type  1   force =     0.00181060    0.00288850  -93.40853588
     atom    3 type  1   force =    -0.00416453   -0.00949123  -93.41270302
     atom    4 type  1   force =     0.00235852    0.00794998  -93.39648392
     atom    5 type  1   force =    -0.01145806   -0.00122585  -93.41452135
     atom    6 type  1   force =     0.00917515    0.00169997  -93.41880871
     atom    7 type  1   force =    -0.01321705   -0.00592602  -93.40159364
     atom    8 type  1   force =     0.00151630    0.00305655  -93.42128973
     atom    9 type  1   force =     0.01173923   -0.00181513  -93.39776356
     atom   10 type  1   force =     0.02521786    0.03471557  -31.51841273
     atom   11 type  1   force =    -0.04407899   -0.02237235  -31.52765502
     atom   12 type  1   force =     0.04068095   -0.00199479  -31.56596864
     atom   13 type  1   force =    -0.09678201    0.01547662  -31.46945857
     atom   14 type  1   force =    -0.00025550   -0.00063000  -31.60860437
     atom   15 type  1   force =     0.10626860    0.04636364  -31.50168335
     atom   16 type  1   force =    -0.00261507    0.00462202  -31.57737856
     atom   17 type  1   force =     0.04874433    0.01736452  -31.55777286
     atom   18 type  1   force =    -0.03669483   -0.13275887  -31.41938455
     atom   19 type  1   force =     0.11189510    0.00554411   31.18465540
     atom   20 type  1   force =    -0.09467031   -0.00280078   31.31329394
     atom   21 type  1   force =    -0.00437851   -0.06927879   30.79058107
     atom   22 type  1   force =     0.01115308    0.07892642   31.60398407
     atom   23 type  1   force =    -0.07362315    0.00715357   30.80789565
     atom   24 type  1   force =     0.06668584    0.01872679   30.86727147
     atom   25 type  1   force =    -0.08647140   -0.04646527   30.68979681
     atom   26 type  1   force =     0.02771877    0.07092725   31.08133108
     atom   27 type  1   force =     0.07384430   -0.03971907   31.01237224
     atom   28 type  1   force =    -0.07585966   -0.13732214   92.21383168
     atom   29 type  1   force =     0.14810311   -0.41382932   92.68848530
     atom   30 type  1   force =     0.05277444   -0.01981999   92.66903042
     atom   31 type  1   force =    -0.52303851    0.95260292   92.51772991
     atom   32 type  1   force =     0.18149795    0.06708589   92.33994765
     atom   33 type  1   force =    -0.04861016    0.03602402   92.54158442
     atom   34 type  1   force =     0.03975427    0.09978331   92.60151611
     atom   35 type  1   force =    -0.01031279    0.00395040   92.69895590
     atom   36 type  1   force =    -0.02705647   -0.00954583   92.66987226
     atom   37 type  2   force =     0.19000184   -0.56261985   12.14126319
     The local contribution  to forces
     atom    1 type  1   force =    -0.00252553   -0.00215953   93.41283122
     atom    2 type  1   force =    -0.00144900   -0.00288970   93.40606078
     atom    3 type  1   force =     0.00274696    0.01373306   93.40741156
     atom    4 type  1   force =    -0.00281763   -0.00688528   93.39474398
     atom    5 type  1   force =     0.01165632    0.00100604   93.41133305
     atom    6 type  1   force =    -0.00952326   -0.00207939   93.41609581
     atom    7 type  1   force =     0.01269034    0.00471334   93.40037985
     atom    8 type  1   force =    -0.00189733   -0.00286564   93.41937628
     atom    9 type  1   force =    -0.01120393    0.00148439   93.39696272
     atom   10 type  1   force =    -0.02518363   -0.03424487   31.52324357
     atom   11 type  1   force =     0.04595313    0.02010656   31.52790038
     atom   12 type  1   force =    -0.04336869   -0.00027584   31.56546988
     atom   13 type  1   force =     0.09441406   -0.01384256   31.47377815
     atom   14 type  1   force =    -0.00015309    0.00028708   31.61033851
     atom   15 type  1   force =    -0.10374624   -0.04523121   31.50663882
     atom   16 type  1   force =     0.00121373   -0.00477483   31.57910276
     atom   17 type  1   force =    -0.04763491   -0.01669176   31.56070067
     atom   18 type  1   force =     0.03704830    0.13487765   31.41977596
     atom   19 type  1   force =    -0.10748232   -0.00206455  -31.18380460
     atom   20 type  1   force =     0.09182731    0.00402795  -31.31658162
     atom   21 type  1   force =     0.00397790    0.06851336  -30.79103339
     atom   22 type  1   force =    -0.01258230   -0.08933808  -31.59396446
     atom   23 type  1   force =     0.07156659   -0.00771339  -30.80793524
     atom   24 type  1   force =    -0.06495655   -0.01865536  -30.86792563
     atom   25 type  1   force =     0.08525397    0.04565167  -30.69247113
     atom   26 type  1   force =    -0.02668077   -0.06827173  -31.07943879
     atom   27 type  1   force =    -0.07449328    0.03959609  -31.01246623
     atom   28 type  1   force =     0.05588545    0.12256535  -92.22581311
     atom   29 type  1   force =    -0.12647384    0.38567983  -92.69913595
     atom   30 type  1   force =    -0.05348407    0.02017607  -92.66827620
     atom   31 type  1   force =     0.52361854   -0.95225737  -92.44024943
     atom   32 type  1   force =    -0.16805953   -0.06177945  -92.34726597
     atom   33 type  1   force =     0.04688710   -0.03583414  -92.54272577
     atom   34 type  1   force =    -0.03920935   -0.09800959  -92.60206247
     atom   35 type  1   force =     0.01140793   -0.00337899  -92.69896878
     atom   36 type  1   force =     0.02671698    0.01169315  -92.67028968
     atom   37 type  2   force =    -0.18319514    0.54455219  -12.11123519
     The core correction contribution to forces
     atom    1 type  1   force =    -0.00000627   -0.00001065    0.01726176
     atom    2 type  1   force =     0.00003233    0.00000243    0.01726049
     atom    3 type  1   force =     0.00000822   -0.00008670    0.01755087
     atom    4 type  1   force =    -0.00000916    0.00004310    0.01721784
     atom    5 type  1   force =     0.00001513   -0.00006673    0.01726974
     atom    6 type  1   force =    -0.00002400   -0.00005257    0.01722223
     atom    7 type  1   force =     0.00004056   -0.00003931    0.01725590
     atom    8 type  1   force =    -0.00001449    0.00000183    0.01724013
     atom    9 type  1   force =    -0.00004834   -0.00004452    0.01716656
     atom   10 type  1   force =    -0.00006015   -0.00008311    0.00112406
     atom   11 type  1   force =    -0.00003777    0.00013808    0.00121109
     atom   12 type  1   force =    -0.00001537    0.00004896    0.00132927
     atom   13 type  1   force =     0.00025807   -0.00006421    0.00094782
     atom   14 type  1   force =    -0.00000284    0.00000816    0.00142083
     atom   15 type  1   force =    -0.00026375   -0.00009177    0.00104540
     atom   16 type  1   force =    -0.00006974   -0.00000482    0.00143246
     atom   17 type  1   force =    -0.00002601   -0.00005297    0.00130625
     atom   18 type  1   force =     0.00005904    0.00047959    0.00062213
     atom   19 type  1   force =    -0.00036014    0.00008962   -0.00255488
     atom   20 type  1   force =     0.00021391    0.00001336   -0.00252410
     atom   21 type  1   force =    -0.00007056    0.00022659   -0.00191518
     atom   22 type  1   force =    -0.00015317   -0.00006438   -0.00178582
     atom   23 type  1   force =     0.00008317   -0.00001608   -0.00188740
     atom   24 type  1   force =    -0.00003615   -0.00002057   -0.00186496
     atom   25 type  1   force =     0.00032091    0.00010155   -0.00180860
     atom   26 type  1   force =    -0.00006879   -0.00013731   -0.00218420
     atom   27 type  1   force =    -0.00035407    0.00011455   -0.00181816
     atom   28 type  1   force =    -0.00052994   -0.00007852   -0.01593625
     atom   29 type  1   force =    -0.00039350    0.00133164   -0.01457410
     atom   30 type  1   force =     0.00010011   -0.00007480   -0.01653399
     atom   31 type  1   force =     0.00486939   -0.01042590   -0.00342033
     atom   32 type  1   force =     0.00039247    0.00008870   -0.01621836
     atom   33 type  1   force =    -0.00045816   -0.00005970   -0.01655740
     atom   34 type  1   force =     0.00001391    0.00027235   -0.01675840
     atom   35 type  1   force =    -0.00004748   -0.00029359   -0.01658438
     atom   36 type  1   force =    -0.00004862    0.00032430   -0.01683348
     atom   37 type  2   force =     0.00000000    0.00000000    0.00000000
     The Hubbard contrib.    to forces
     atom    1 type  1   force =     0.00000000    0.00000000    0.00000000
     atom    2 type  1   force =     0.00000000    0.00000000    0.00000000
     atom    3 type  1   force =     0.00000000    0.00000000    0.00000000
     atom    4 type  1   force =     0.00000000    0.00000000    0.00000000
     atom    5 type  1   force =     0.00000000    0.00000000    0.00000000
     atom    6 type  1   force =     0.00000000    0.00000000    0.00000000
     atom    7 type  1   force =     0.00000000    0.00000000    0.00000000
     atom    8 type  1   force =     0.00000000    0.00000000    0.00000000
     atom    9 type  1   force =     0.00000000    0.00000000    0.00000000
     atom   10 type  1   force =     0.00000000    0.00000000    0.00000000
     atom   11 type  1   force =     0.00000000    0.00000000    0.00000000
     atom   12 type  1   force =     0.00000000    0.00000000    0.00000000
     atom   13 type  1   force =     0.00000000    0.00000000    0.00000000
     atom   14 type  1   force =     0.00000000    0.00000000    0.00000000
     atom   15 type  1   force =     0.00000000    0.00000000    0.00000000
     atom   16 type  1   force =     0.00000000    0.00000000    0.00000000
     atom   17 type  1   force =     0.00000000    0.00000000    0.00000000
     atom   18 type  1   force =     0.00000000    0.00000000    0.00000000
     atom   19 type  1   force =     0.00000000    0.00000000    0.00000000
     atom   20 type  1   force =     0.00000000    0.00000000    0.00000000
     atom   21 type  1   force =     0.00000000    0.00000000    0.00000000
     atom   22 type  1   force =     0.00000000    0.00000000    0.00000000
     atom   23 type  1   force =     0.00000000    0.00000000    0.00000000
     atom   24 type  1   force =     0.00000000    0.00000000    0.00000000
     atom   25 type  1   force =     0.00000000    0.00000000    0.00000000
     atom   26 type  1   force =     0.00000000    0.00000000    0.00000000
     atom   27 type  1   force =     0.00000000    0.00000000    0.00000000
     atom   28 type  1   force =     0.00000000    0.00000000    0.00000000
     atom   29 type  1   force =     0.00000000    0.00000000    0.00000000
     atom   30 type  1   force =     0.00000000    0.00000000    0.00000000
     atom   31 type  1   force =     0.00000000    0.00000000    0.00000000
     atom   32 type  1   force =     0.00000000    0.00000000    0.00000000
     atom   33 type  1   force =     0.00000000    0.00000000    0.00000000
     atom   34 type  1   force =     0.00000000    0.00000000    0.00000000
     atom   35 type  1   force =     0.00000000    0.00000000    0.00000000
     atom   36 type  1   force =     0.00000000    0.00000000    0.00000000
     atom   37 type  2   force =     0.00000000    0.00000000    0.00000000
     The SCF correction term to forces
     atom    1 type  1   force =    -0.00000000   -0.00000000   -0.00000000
     atom    2 type  1   force =     0.00000000   -0.00000000   -0.00000000
     atom    3 type  1   force =    -0.00000000   -0.00000000   -0.00000000
     atom    4 type  1   force =     0.00000000    0.00000000   -0.00000000
     atom    5 type  1   force =     0.00000000   -0.00000000   -0.00000000
     atom    6 type  1   force =    -0.00000000   -0.00000000   -0.00000000
     atom    7 type  1   force =    -0.00000000    0.00000000   -0.00000000
     atom    8 type  1   force =     0.00000000    0.00000000   -0.00000000
     atom    9 type  1   force =     0.00000000    0.00000000   -0.00000000
     atom   10 type  1   force =     0.00000000    0.00000000   -0.00000000
     atom   11 type  1   force =     0.00000000   -0.00000000   -0.00000000
     atom   12 type  1   force =    -0.00000000   -0.00000000   -0.00000000
     atom   13 type  1   force =     0.00000000    0.00000000   -0.00000000
     atom   14 type  1   force =    -0.00000000   -0.00000000   -0.00000000
     atom   15 type  1   force =     0.00000000    0.00000000   -0.00000000
     atom   16 type  1   force =    -0.00000000    0.00000000   -0.00000000
     atom   17 type  1   force =     0.00000000    0.00000000   -0.00000000
     atom   18 type  1   force =     0.00000000    0.00000000   -0.00000000
     atom   19 type  1   force =    -0.00000699    0.00000366   -0.00007972
     atom   20 type  1   force =     0.00001958    0.00001380   -0.00008158
     atom   21 type  1   force =    -0.00001286   -0.00001216   -0.00009185
     atom   22 type  1   force =     0.00001580    0.00001291   -0.00007882
     atom   23 type  1   force =    -0.00001957   -0.00001105   -0.00006788
     atom   24 type  1   force =     0.00000419   -0.00000504   -0.00006532
     atom   25 type  1   force =    -0.00002225   -0.00000808   -0.00009551
     atom   26 type  1   force =    -0.00000188   -0.00000142   -0.00007298
     atom   27 type  1   force =     0.00002411    0.00000838   -0.00009581
     atom   28 type  1   force =    -0.00000541   -0.00000883    0.00003106
     atom   29 type  1   force =     0.00000577    0.00000250    0.00003176
     atom   30 type  1   force =    -0.00000132   -0.00000469    0.00001903
     atom   31 type  1   force =     0.00001176    0.00000888    0.00002799
     atom   32 type  1   force =    -0.00000314    0.00001007    0.00002040
     atom   33 type  1   force =    -0.00000759    0.00000917    0.00002772
     atom   34 type  1   force =     0.00000059   -0.00000723    0.00002152
     atom   35 type  1   force =    -0.00000574   -0.00001071    0.00003521
     atom   36 type  1   force =     0.00000491   -0.00000172    0.00002878
     atom   37 type  2   force =     0.00000065    0.00000026    0.00000375

     Total force =     0.001052     Total SCF correction =     0.000266
     SCF correction compared to forces is large: reduce conv_thr to get better values

     Writing all to output data dir ./pwscf.save/

     init_run     :     10.37s CPU     10.70s WALL (       1 calls)
     electrons    :    354.17s CPU    363.11s WALL (       1 calls)
     forces       :      3.47s CPU      3.88s WALL (       1 calls)

     Called by init_run:
     wfcinit      :      5.94s CPU      6.12s WALL (       1 calls)
     potinit      :      3.05s CPU      3.14s WALL (       1 calls)
     hinit0       :      0.82s CPU      0.83s WALL (       1 calls)

     Called by electrons:
     c_bands      :    300.33s CPU    305.44s WALL (      22 calls)
     sum_band     :     34.11s CPU     35.14s WALL (      22 calls)
     v_of_rho     :      9.58s CPU     11.16s WALL (      22 calls)
     newd         :      3.04s CPU      3.75s WALL (      22 calls)
     PAW_pot      :      4.77s CPU      4.84s WALL (      22 calls)
     mix_rho      :      4.43s CPU      4.59s WALL (      22 calls)
     vdW_kernel   :      1.69s CPU      1.71s WALL (       1 calls)

     Called by c_bands:
     init_us_2    :      3.05s CPU      3.11s WALL (     598 calls)
     init_us_2:cp :      3.05s CPU      3.10s WALL (     598 calls)
     cegterg      :    292.61s CPU    297.46s WALL (     286 calls)

     Called by *egterg:
     cdiaghg      :     78.67s CPU     79.33s WALL (    1399 calls)
     h_psi        :    136.82s CPU    139.30s WALL (    1425 calls)
     s_psi        :     16.41s CPU     16.73s WALL (    1425 calls)
     g_psi        :      0.56s CPU      0.57s WALL (    1126 calls)

     Called by h_psi:
     h_psi:calbec :     20.68s CPU     21.32s WALL (    1425 calls)
     vloc_psi     :     97.62s CPU     99.24s WALL (    1425 calls)
     add_vuspsi   :     17.19s CPU     17.40s WALL (    1425 calls)

     General routines
     calbec       :     29.12s CPU     29.89s WALL (    1763 calls)
     fft          :      5.64s CPU      7.22s WALL (    1446 calls)
     ffts         :      2.61s CPU      2.66s WALL (    5212 calls)
     fftw         :     95.28s CPU     96.78s WALL (  383660 calls)
     interpolate  :      0.61s CPU      0.67s WALL (      22 calls)

     Parallel routines

     PWSCF        :   6m10.89s CPU   6m23.38s WALL


   This run was terminated on:  20:46:45  24Feb2025            

=------------------------------------------------------------------------------=
   JOB DONE.
=------------------------------------------------------------------------------=
