
     Program PWSCF v.7.1 starts on 14Dec2025 at 10:12: 8 
        Git branch: heads/qe-7.1
        Last git commit: 48ba0178f8fede6d020eb786884699a9f063f55d-dirty
        Last git commit date: Fri Jan 27 14:22:33 2023 +0000
        Last git commit subject: Merge branch 'fix_hubbard' into 'develop'

     This program is part of the open-source Quantum ESPRESSO suite
     for quantum simulation of materials; please cite
         "P. Giannozzi et al., J. Phys.:Condens. Matter 21 395502 (2009);
         "P. Giannozzi et al., J. Phys.:Condens. Matter 29 465901 (2017);
         "P. Giannozzi et al., J. Chem. Phys. 152 154105 (2020);
          URL http://www.quantum-espresso.org", 
     in publications or presentations arising from this work. More details at
     http://www.quantum-espresso.org/quote

     Parallel version (MPI), running on    96 processors

     MPI processes distributed on     2 nodes
     109151 MiB available memory on the printing compute node when the environment starts

     Reading input from espresso.pwi
Warning: card &CELL ignored
Warning: card / ignored
Warning: card &FCP ignored
Warning: card / ignored
Warning: card &RISM ignored
Warning: card / ignored

     Current dimensions of program PWSCF are:
     Max number of different atomic species (ntypx) = 10
     Max number of k-points (npk) =  40000
     Max angular momentum in pseudopotentials (lmaxx) =  4
     file Co.pbe-n-kjpaw_psl.1.0.0.UPF: wavefunction(s)  4S 3D renormalized
     file C.pbe-n-kjpaw_psl.1.0.0.UPF: wavefunction(s)  2S 2P renormalized
     file O.pbe-nl-kjpaw_psl.1.0.0.UPF: wavefunction(s)  2S 2P renormalized
     file H.pbe-kjpaw_psl.1.0.0.UPF: wavefunction(s)  1S renormalized

     **************************************************************************
     Initializing libbeef V0.1.2 with the BEEF-vdW functional.
     Citation: Wellendorff et al., PRB 85, 235149 (2012).
     **************************************************************************


     IMPORTANT: XC functional enforced from input :
     Exchange-correlation= BEEF-VDW
                           (   1   4  43  14   2   0   0)
     Any further DFT definition will be discarded
     Please, verify this is what you really want


     R & G space division:  proc/nbgrp/npool/nimage =      96
     Subspace diagonalization in iterative solution of the eigenvalue problem:
     one sub-group per band group will be used
     custom distributed-memory algorithm (size of sub-group:  2*  2 procs)


     Parallelization info
     --------------------
     sticks:   dense  smooth     PW     G-vecs:    dense   smooth      PW
     Min          43      28      7                 7829     4248     595
     Max          44      29      8                 7845     4281     630
     Sum        4153    2773    757               752179   409445   59217

     Using Slab Decomposition



     bravais-lattice index     =            0
     lattice parameter (alat)  =      14.1729  a.u.
     unit-cell volume          =    8574.3059 (a.u.)^3
     number of atoms/cell      =           39
     number of atomic types    =            4
     number of electrons       =       335.00
     number of Kohn-Sham states=          202
     kinetic-energy cutoff     =      50.0000  Ry
     charge density cutoff     =     300.0000  Ry
     scf convergence threshold =      1.0E-08
     mixing beta               =       0.7000
     number of iterations used =            8  local-TF  mixing
     Exchange-correlation= BEEF-VDW
                           (   1   4  43  14   2   0   0)

     celldm(1)=  14.172946  celldm(2)=   0.000000  celldm(3)=   0.000000
     celldm(4)=   0.000000  celldm(5)=   0.000000  celldm(6)=   0.000000

     crystal axes: (cart. coord. in units of alat)
               a(1) = (   1.000000   0.000000   0.000000 )  
               a(2) = (   0.500000   0.866025   0.000000 )  
               a(3) = (   0.000000   0.000000   3.477667 )  

     reciprocal axes: (cart. coord. in units 2 pi/alat)
               b(1) = (  1.000000 -0.577350  0.000000 )  
               b(2) = (  0.000000  1.154701  0.000000 )  
               b(3) = (  0.000000  0.000000  0.287549 )  


     PseudoPot. # 1 for Co read from file:
     /users/kbadger1/espresso/pseudo/pslibrary.1.0.0/pbe/PSEUDOPOTENTIALS/Co.pbe-n-kjpaw_psl.1.0.0.UPF
     MD5 check sum: 88af6ec42553d4236c267fdfcb472151
     Pseudo is Projector augmented-wave + core cor, Zval =  9.0
     Generated using 'atomic' code by A. Dal Corso  v.7.0
     Shape of augmentation charge: PSQ
     Using radial grid of 1193 points,  6 beta functions with: 
                l(1) =   0
                l(2) =   0
                l(3) =   1
                l(4) =   1
                l(5) =   2
                l(6) =   2
     Q(r) pseudized with 0 coefficients 


     PseudoPot. # 2 for C  read from file:
     /users/kbadger1/espresso/pseudo/pslibrary.1.0.0/pbe/PSEUDOPOTENTIALS/C.pbe-n-kjpaw_psl.1.0.0.UPF
     MD5 check sum: 6408e75cdba28732cea38a4db8498ce4
     Pseudo is Projector augmented-wave + core cor, Zval =  4.0
     Generated using 'atomic' code by A. Dal Corso  v.7.0
     Shape of augmentation charge: PSQ
     Using radial grid of 1073 points,  4 beta functions with: 
                l(1) =   0
                l(2) =   0
                l(3) =   1
                l(4) =   1
     Q(r) pseudized with 0 coefficients 


     PseudoPot. # 3 for O  read from file:
     /users/kbadger1/espresso/pseudo/pslibrary.1.0.0/pbe/PSEUDOPOTENTIALS/O.pbe-nl-kjpaw_psl.1.0.0.UPF
     MD5 check sum: f0439fab3598ca4e468f064226030408
     Pseudo is Projector augmented-wave + core cor, Zval =  6.0
     Generated using 'atomic' code by A. Dal Corso  v.7.0
     Shape of augmentation charge: PSQ
     Using radial grid of 1095 points,  4 beta functions with: 
                l(1) =   0
                l(2) =   0
                l(3) =   1
                l(4) =   1
     Q(r) pseudized with 0 coefficients 


     PseudoPot. # 4 for H  read from file:
     /users/kbadger1/espresso/pseudo/pslibrary.1.0.0/pbe/PSEUDOPOTENTIALS/H.pbe-kjpaw_psl.1.0.0.UPF
     MD5 check sum: fe4c6fa958fa6d3815bf5d2419cbf1df
     Pseudo is Projector augmented-wave, Zval =  1.0
     Generated using 'atomic' code by A. Dal Corso  v.7.0
     Shape of augmentation charge: PSQ
     Using radial grid of  929 points,  2 beta functions with: 
                l(1) =   0
                l(2) =   0
     Q(r) pseudized with 0 coefficients 


     atomic species   valence    mass     pseudopotential
        Co             9.00    58.93319     Co( 1.00)
        C              4.00    12.01100     C ( 1.00)
        O              6.00    15.99900     O ( 1.00)
        H              1.00     1.00800     H ( 1.00)

     Starting magnetic structure 
     atomic species   magnetization
        Co           1.000
        C            1.000
        O            0.000
        H            0.000

     No symmetry found



   Cartesian axes

     site n.     atom                  positions (alat units)
         1           Co  tau(   1) = (   0.0000000   0.1924501   1.3333333  )
         2           Co  tau(   2) = (   0.3333333   0.1924501   1.3333333  )
         3           Co  tau(   3) = (   0.6666667   0.1924501   1.3333333  )
         4           Co  tau(   4) = (   0.1666667   0.4811252   1.3333333  )
         5           Co  tau(   5) = (   0.5000000   0.4811252   1.3333333  )
         6           Co  tau(   6) = (   0.8333333   0.4811252   1.3333333  )
         7           Co  tau(   7) = (   0.3333333   0.7698004   1.3333333  )
         8           Co  tau(   8) = (   0.6666667   0.7698004   1.3333333  )
         9           Co  tau(   9) = (   1.0000000   0.7698004   1.3333333  )
        10           Co  tau(  10) = (   0.0000000   0.0000000   1.6036667  )
        11           Co  tau(  11) = (   0.3333333   0.0000000   1.6036667  )
        12           Co  tau(  12) = (   0.6666667   0.0000000   1.6036667  )
        13           Co  tau(  13) = (   0.1666667   0.2886751   1.6036667  )
        14           Co  tau(  14) = (   0.5000000   0.2886751   1.6036667  )
        15           Co  tau(  15) = (   0.8333333   0.2886751   1.6036667  )
        16           Co  tau(  16) = (   0.3333333   0.5773503   1.6036667  )
        17           Co  tau(  17) = (   0.6666667   0.5773503   1.6036667  )
        18           Co  tau(  18) = (   1.0000000   0.5773503   1.6036667  )
        19           Co  tau(  19) = (   0.0000000   0.1924501   1.8740000  )
        20           Co  tau(  20) = (   0.3333333   0.1924501   1.8740000  )
        21           Co  tau(  21) = (   0.6666667   0.1924501   1.8740000  )
        22           Co  tau(  22) = (   0.1666667   0.4811252   1.8740000  )
        23           Co  tau(  23) = (   0.5000000   0.4811252   1.8740000  )
        24           Co  tau(  24) = (   0.8333333   0.4811252   1.8740000  )
        25           Co  tau(  25) = (   0.3333333   0.7698004   1.8740000  )
        26           Co  tau(  26) = (   0.6666667   0.7698004   1.8740000  )
        27           Co  tau(  27) = (   1.0000000   0.7698004   1.8740000  )
        28           Co  tau(  28) = (   0.0000000   0.0000000   2.1443333  )
        29           Co  tau(  29) = (   0.3333333   0.0000000   2.1443333  )
        30           Co  tau(  30) = (   0.6666667   0.0000000   2.1443333  )
        31           Co  tau(  31) = (   0.1666667   0.2886751   2.1443333  )
        32           Co  tau(  32) = (   0.5000000   0.2886751   2.1443333  )
        33           Co  tau(  33) = (   0.8333333   0.2886751   2.1443333  )
        34           Co  tau(  34) = (   0.3333333   0.5773503   2.1443333  )
        35           Co  tau(  35) = (   0.6666667   0.5773503   2.1443333  )
        36           Co  tau(  36) = (   1.0000000   0.5773503   2.1443333  )
        37           C   tau(  37) = (   0.1982255  -0.0273893   2.3535549  )
        38           O   tau(  38) = (   0.0592286  -0.0486843   2.4411265  )
        39           H   tau(  39) = (   0.3275363  -0.0020078   2.4268368  )

     number of k points=    13  Marzari-Vanderbilt smearing, width (Ry)=  0.0010
                       cart. coord. in units 2pi/alat
        k(    1) = (   0.0000000   0.0000000   0.0000000), wk =   0.0400000
        k(    2) = (   0.0000000   0.2309401   0.0000000), wk =   0.0800000
        k(    3) = (   0.0000000   0.4618802   0.0000000), wk =   0.0800000
        k(    4) = (   0.2000000  -0.1154701   0.0000000), wk =   0.0800000
        k(    5) = (   0.2000000   0.1154701   0.0000000), wk =   0.0800000
        k(    6) = (   0.2000000   0.3464102   0.0000000), wk =   0.0800000
        k(    7) = (   0.2000000  -0.5773503   0.0000000), wk =   0.0800000
        k(    8) = (   0.2000000  -0.3464102   0.0000000), wk =   0.0800000
        k(    9) = (   0.4000000  -0.2309401   0.0000000), wk =   0.0800000
        k(   10) = (   0.4000000   0.0000000   0.0000000), wk =   0.0800000
        k(   11) = (   0.4000000   0.2309401   0.0000000), wk =   0.0800000
        k(   12) = (   0.4000000  -0.6928203   0.0000000), wk =   0.0800000
        k(   13) = (   0.4000000  -0.4618802   0.0000000), wk =   0.0800000

     Dense  grid:   752179 G-vectors     FFT dimensions: (  80,  80, 288)

     Smooth grid:   409445 G-vectors     FFT dimensions: (  64,  64, 225)

     Estimated max dynamical RAM per process >      99.02 MB

     Estimated total dynamical RAM >       9.28 GB
     Generating pointlists ...
     new r_m :   0.1034 (alat units)  1.4648 (a.u.) for type    1
     new r_m :   0.0622 (alat units)  0.8815 (a.u.) for type    2
     new r_m :   0.0683 (alat units)  0.9685 (a.u.) for type    3
     new r_m :   0.0622 (alat units)  0.8815 (a.u.) for type    4

     Initial potential from superposition of free atoms

     starting charge     334.9897, renormalised to     335.0000

     negative rho (up, down):  3.028E-03 4.714E-04


     %%%%%%%%%%%%%%%%%%%%%%%%%%%%%%%%%%%%%%%%%%%%%%%%%%%%%%%%%%%%%%%%%%%%%%%%
     %                                                                      %
     % You are using vdW-DF, which was implemented by the Thonhauser group. %
     % Please cite the following two papers that made this development      %
     % possible and the two reviews that describe the various versions:     %
     %                                                                      %
     %   T. Thonhauser et al., PRL 115, 136402 (2015).                      %
     %   T. Thonhauser et al., PRB 76, 125112 (2007).                       %
     %   K. Berland et al., Rep. Prog. Phys. 78, 066501 (2015).             %
     %   D.C. Langreth et al., J. Phys.: Condens. Matter 21, 084203 (2009). %
     %                                                                      %
     % If you are calculating stress with vdW-DF, please also cite:         %
     %                                                                      %
     %   R. Sabatini et al., J. Phys.: Condens. Matter 24, 424209 (2012).   %
     %   C.M. Frostenson et al., Electr. Struct. 4, 014001 (2022).          %
     %                                                                      %
     %%%%%%%%%%%%%%%%%%%%%%%%%%%%%%%%%%%%%%%%%%%%%%%%%%%%%%%%%%%%%%%%%%%%%%%%

     %%%%%%%%%%%%%%%%%%%%%%%%%%%%%%%%%%%%%%%%%%%%%%%%%%%%%%%%%%%%%%%%%%%%%%%%
     %                                                                      %
     %  vdW-DF NEWS:                                                        %
     %                                                                      %
     %  * vdW-DF3 is now available. DOI: 10.1021/acs.jctc.0c00471           %
     %    use with input_dft = 'vdW-DF3-opt1' or 'vdW-DF3-opt2'             %
     %                                                                      %
     %  * Unscreened and range-separated hybrid vdW-DF-cx functionals       %
     %    DOI: 10.1063/1.4986522 and 10.1088/1361-648X/ac2ad2               %
     %    use with input_dft = 'vdW-DF-cx0'    and 'vdW-DF-ahcx'            %
     %  * Unscreened and range-separated hybrid vdW-DF2-b86r functionals    %
     %    DOI: 10.1063/1.4986522 and DOI: 10.1103/PhysRevX.12.041003        %
     %    use with input_dft = 'vdW-DF2-br0' and 'vdW-DF2-ahbr'             %
     %                                                                      %
     %%%%%%%%%%%%%%%%%%%%%%%%%%%%%%%%%%%%%%%%%%%%%%%%%%%%%%%%%%%%%%%%%%%%%%%%


     Starting wfcs are  333 randomized atomic wfcs
     Checking if some PAW data can be deallocated... 

     total cpu time spent up to now is       12.2 secs

     per-process dynamical memory:   230.7 Mb

     Self-consistent Calculation

     iteration #  1     ecut=    50.00 Ry     beta= 0.70
     Davidson diagonalization with overlap
     ethr =  1.00E-02,  avg # of iterations =  2.0

     negative rho (up, down):  2.387E-05 5.952E-08

     total cpu time spent up to now is       33.5 secs

     total energy              =   -6053.08189515 Ry
     estimated scf accuracy    <      39.70570038 Ry

     total magnetization       =    69.00 Bohr mag/cell
     absolute magnetization    =    81.30 Bohr mag/cell

     iteration #  2     ecut=    50.00 Ry     beta= 0.70
     Davidson diagonalization with overlap
     ethr =  1.00E-02,  avg # of iterations =  1.0

     negative rho (up, down):  2.747E-06 1.755E-09

     total cpu time spent up to now is       47.2 secs

     total energy              =   -6052.55056330 Ry
     estimated scf accuracy    <      24.41528254 Ry

     total magnetization       =    68.54 Bohr mag/cell
     absolute magnetization    =    76.70 Bohr mag/cell

     iteration #  3     ecut=    50.00 Ry     beta= 0.70
     Davidson diagonalization with overlap
     ethr =  7.29E-03,  avg # of iterations =  1.0

     negative rho (up, down):  1.345E-08 0.000E+00

     total cpu time spent up to now is       64.5 secs

     total energy              =   -6055.13066833 Ry
     estimated scf accuracy    <      87.53417150 Ry

     total magnetization       =    65.80 Bohr mag/cell
     absolute magnetization    =    73.08 Bohr mag/cell

     iteration #  4     ecut=    50.00 Ry     beta= 0.70
     Davidson diagonalization with overlap
     ethr =  7.29E-03,  avg # of iterations =  1.0

     total cpu time spent up to now is       77.2 secs

     total energy              =   -6056.29884613 Ry
     estimated scf accuracy    <       5.86933379 Ry

     total magnetization       =    60.36 Bohr mag/cell
     absolute magnetization    =    70.45 Bohr mag/cell

     iteration #  5     ecut=    50.00 Ry     beta= 0.70
     Davidson diagonalization with overlap
     ethr =  1.75E-03,  avg # of iterations =  1.5

     total cpu time spent up to now is       95.4 secs

     total energy              =   -6056.34342290 Ry
     estimated scf accuracy    <       2.21969058 Ry

     total magnetization       =    60.27 Bohr mag/cell
     absolute magnetization    =    69.79 Bohr mag/cell

     iteration #  6     ecut=    50.00 Ry     beta= 0.70
     Davidson diagonalization with overlap
     ethr =  6.63E-04,  avg # of iterations =  1.7

     total cpu time spent up to now is      109.7 secs

     total energy              =   -6056.46427927 Ry
     estimated scf accuracy    <       0.61705753 Ry

     total magnetization       =    60.20 Bohr mag/cell
     absolute magnetization    =    69.58 Bohr mag/cell

     iteration #  7     ecut=    50.00 Ry     beta= 0.70
     Davidson diagonalization with overlap
     ethr =  1.84E-04,  avg # of iterations =  4.2

     total cpu time spent up to now is      130.1 secs

     total energy              =   -6056.49703545 Ry
     estimated scf accuracy    <       0.71793163 Ry

     total magnetization       =    60.20 Bohr mag/cell
     absolute magnetization    =    69.27 Bohr mag/cell

     iteration #  8     ecut=    50.00 Ry     beta= 0.70
     Davidson diagonalization with overlap
     ethr =  1.84E-04,  avg # of iterations =  1.7

     total cpu time spent up to now is      148.9 secs

     total energy              =   -6056.50590984 Ry
     estimated scf accuracy    <       0.14306545 Ry

     total magnetization       =    60.40 Bohr mag/cell
     absolute magnetization    =    69.26 Bohr mag/cell

     iteration #  9     ecut=    50.00 Ry     beta= 0.70
     Davidson diagonalization with overlap
     c_bands:  1 eigenvalues not converged
     c_bands:  1 eigenvalues not converged
     ethr =  4.27E-05,  avg # of iterations = 12.3

     total cpu time spent up to now is      182.7 secs

     total energy              =   -6056.53376375 Ry
     estimated scf accuracy    <       0.26064430 Ry

     total magnetization       =    61.25 Bohr mag/cell
     absolute magnetization    =    69.24 Bohr mag/cell

     iteration # 10     ecut=    50.00 Ry     beta= 0.70
     Davidson diagonalization with overlap
     ethr =  4.27E-05,  avg # of iterations =  1.5

     total cpu time spent up to now is      195.9 secs

     total energy              =   -6056.53927674 Ry
     estimated scf accuracy    <       0.20506836 Ry

     total magnetization       =    61.24 Bohr mag/cell
     absolute magnetization    =    69.13 Bohr mag/cell

     iteration # 11     ecut=    50.00 Ry     beta= 0.70
     Davidson diagonalization with overlap
     ethr =  4.27E-05,  avg # of iterations =  1.0

     total cpu time spent up to now is      213.0 secs

     total energy              =   -6056.52382316 Ry
     estimated scf accuracy    <       0.10830460 Ry

     total magnetization       =    61.25 Bohr mag/cell
     absolute magnetization    =    69.05 Bohr mag/cell

     iteration # 12     ecut=    50.00 Ry     beta= 0.70
     Davidson diagonalization with overlap
     ethr =  3.23E-05,  avg # of iterations =  2.0

     total cpu time spent up to now is      227.4 secs

     total energy              =   -6056.52871992 Ry
     estimated scf accuracy    <       0.14123442 Ry

     total magnetization       =    61.02 Bohr mag/cell
     absolute magnetization    =    68.62 Bohr mag/cell

     iteration # 13     ecut=    50.00 Ry     beta= 0.70
     Davidson diagonalization with overlap
     ethr =  3.23E-05,  avg # of iterations =  1.2

     total cpu time spent up to now is      245.2 secs

     total energy              =   -6056.52554540 Ry
     estimated scf accuracy    <       0.11053147 Ry

     total magnetization       =    61.10 Bohr mag/cell
     absolute magnetization    =    68.61 Bohr mag/cell

     iteration # 14     ecut=    50.00 Ry     beta= 0.70
     Davidson diagonalization with overlap
     ethr =  3.23E-05,  avg # of iterations =  1.3

     total cpu time spent up to now is      258.1 secs

     total energy              =   -6056.52379880 Ry
     estimated scf accuracy    <       0.09989375 Ry

     total magnetization       =    61.25 Bohr mag/cell
     absolute magnetization    =    68.76 Bohr mag/cell

     iteration # 15     ecut=    50.00 Ry     beta= 0.70
     Davidson diagonalization with overlap
     ethr =  2.98E-05,  avg # of iterations =  1.0

     negative rho (up, down):  2.825E-05 9.694E-07

     total cpu time spent up to now is      275.3 secs

     total energy              =   -6056.52224157 Ry
     estimated scf accuracy    <       0.09565881 Ry

     total magnetization       =    61.18 Bohr mag/cell
     absolute magnetization    =    68.68 Bohr mag/cell

     iteration # 16     ecut=    50.00 Ry     beta= 0.70
     Davidson diagonalization with overlap
     ethr =  2.86E-05,  avg # of iterations =  1.1

     negative rho (up, down):  4.616E-03 3.768E-03

     total cpu time spent up to now is      288.5 secs

     total energy              =   -6056.51726035 Ry
     estimated scf accuracy    <       0.06625144 Ry

     total magnetization       =    61.24 Bohr mag/cell
     absolute magnetization    =    68.71 Bohr mag/cell

     iteration # 17     ecut=    50.00 Ry     beta= 0.70
     Davidson diagonalization with overlap
     ethr =  1.98E-05,  avg # of iterations =  1.8

     negative rho (up, down):  1.398E-02 1.264E-02

     total cpu time spent up to now is      306.8 secs

     total energy              =   -6056.51552391 Ry
     estimated scf accuracy    <       0.03353139 Ry

     total magnetization       =    61.24 Bohr mag/cell
     absolute magnetization    =    68.76 Bohr mag/cell

     iteration # 18     ecut=    50.00 Ry     beta= 0.70
     Davidson diagonalization with overlap
     c_bands:  2 eigenvalues not converged
     ethr =  1.00E-05,  avg # of iterations =  3.0

     negative rho (up, down):  4.676E-03 3.772E-03

     total cpu time spent up to now is      326.1 secs

     total energy              =   -6056.51601172 Ry
     estimated scf accuracy    <       0.09140305 Ry

     total magnetization       =    61.24 Bohr mag/cell
     absolute magnetization    =    68.69 Bohr mag/cell

     iteration # 19     ecut=    50.00 Ry     beta= 0.70
     Davidson diagonalization with overlap
     ethr =  1.00E-05,  avg # of iterations =  1.2

     negative rho (up, down):  7.693E-03 6.660E-03

     total cpu time spent up to now is      339.2 secs

     total energy              =   -6056.51565161 Ry
     estimated scf accuracy    <       0.02824361 Ry

     total magnetization       =    61.24 Bohr mag/cell
     absolute magnetization    =    68.71 Bohr mag/cell

     iteration # 20     ecut=    50.00 Ry     beta= 0.70
     Davidson diagonalization with overlap
     c_bands:  3 eigenvalues not converged
     ethr =  8.43E-06,  avg # of iterations =  1.8

     negative rho (up, down):  8.558E-03 7.529E-03

     total cpu time spent up to now is      357.5 secs

     total energy              =   -6056.51466666 Ry
     estimated scf accuracy    <       0.03165938 Ry

     total magnetization       =    61.24 Bohr mag/cell
     absolute magnetization    =    68.71 Bohr mag/cell

     iteration # 21     ecut=    50.00 Ry     beta= 0.70
     Davidson diagonalization with overlap
     ethr =  8.43E-06,  avg # of iterations =  1.2

     negative rho (up, down):  1.104E-02 1.001E-02

     total cpu time spent up to now is      370.5 secs

     total energy              =   -6056.51409795 Ry
     estimated scf accuracy    <       0.01956197 Ry

     total magnetization       =    61.25 Bohr mag/cell
     absolute magnetization    =    68.72 Bohr mag/cell

     iteration # 22     ecut=    50.00 Ry     beta= 0.70
     Davidson diagonalization with overlap
     ethr =  5.84E-06,  avg # of iterations =  1.2

     negative rho (up, down):  2.559E-02 2.454E-02

     total cpu time spent up to now is      387.9 secs

     total energy              =   -6056.51284107 Ry
     estimated scf accuracy    <       0.01061354 Ry

     total magnetization       =    61.24 Bohr mag/cell
     absolute magnetization    =    68.72 Bohr mag/cell

     iteration # 23     ecut=    50.00 Ry     beta= 0.70
     Davidson diagonalization with overlap
     c_bands:  2 eigenvalues not converged
     c_bands:  4 eigenvalues not converged
     ethr =  3.17E-06,  avg # of iterations =  3.2

     negative rho (up, down):  1.598E-02 1.520E-02

     total cpu time spent up to now is      403.5 secs

     total energy              =   -6056.51237548 Ry
     estimated scf accuracy    <       0.00264641 Ry

     total magnetization       =    61.24 Bohr mag/cell
     absolute magnetization    =    68.72 Bohr mag/cell

     iteration # 24     ecut=    50.00 Ry     beta= 0.70
     Davidson diagonalization with overlap
     ethr =  7.90E-07,  avg # of iterations =  3.5

     negative rho (up, down):  1.504E-02 1.427E-02

     total cpu time spent up to now is      423.6 secs

     total energy              =   -6056.51210382 Ry
     estimated scf accuracy    <       0.01052179 Ry

     total magnetization       =    61.25 Bohr mag/cell
     absolute magnetization    =    68.73 Bohr mag/cell

     iteration # 25     ecut=    50.00 Ry     beta= 0.70
     Davidson diagonalization with overlap
     ethr =  7.90E-07,  avg # of iterations =  1.7

     negative rho (up, down):  1.302E-02 1.229E-02

     total cpu time spent up to now is      437.2 secs

     total energy              =   -6056.51244000 Ry
     estimated scf accuracy    <       0.00270494 Ry

     total magnetization       =    61.24 Bohr mag/cell
     absolute magnetization    =    68.73 Bohr mag/cell

     iteration # 26     ecut=    50.00 Ry     beta= 0.70
     Davidson diagonalization with overlap
     ethr =  7.90E-07,  avg # of iterations =  1.7

     negative rho (up, down):  1.442E-02 1.378E-02

     total cpu time spent up to now is      455.5 secs

     total energy              =   -6056.51266787 Ry
     estimated scf accuracy    <       0.00349002 Ry

     total magnetization       =    61.24 Bohr mag/cell
     absolute magnetization    =    68.74 Bohr mag/cell

     iteration # 27     ecut=    50.00 Ry     beta= 0.70
     Davidson diagonalization with overlap
     ethr =  7.90E-07,  avg # of iterations =  1.1

     negative rho (up, down):  6.090E-03 5.419E-03

     total cpu time spent up to now is      468.8 secs

     total energy              =   -6056.51262658 Ry
     estimated scf accuracy    <       0.00043214 Ry

     total magnetization       =    61.24 Bohr mag/cell
     absolute magnetization    =    68.74 Bohr mag/cell

     iteration # 28     ecut=    50.00 Ry     beta= 0.70
     Davidson diagonalization with overlap
     ethr =  1.29E-07,  avg # of iterations =  4.1

     negative rho (up, down):  6.563E-03 5.896E-03

     total cpu time spent up to now is      489.2 secs

     total energy              =   -6056.51267918 Ry
     estimated scf accuracy    <       0.00044006 Ry

     total magnetization       =    61.24 Bohr mag/cell
     absolute magnetization    =    68.74 Bohr mag/cell

     iteration # 29     ecut=    50.00 Ry     beta= 0.70
     Davidson diagonalization with overlap
     ethr =  1.29E-07,  avg # of iterations =  1.5

     negative rho (up, down):  3.346E-03 2.378E-03

     total cpu time spent up to now is      507.5 secs

     total energy              =   -6056.51268350 Ry
     estimated scf accuracy    <       0.00039073 Ry

     total magnetization       =    61.24 Bohr mag/cell
     absolute magnetization    =    68.74 Bohr mag/cell

     iteration # 30     ecut=    50.00 Ry     beta= 0.70
     Davidson diagonalization with overlap
     ethr =  1.17E-07,  avg # of iterations =  1.9

     negative rho (up, down):  3.802E-03 2.882E-03

     total cpu time spent up to now is      521.6 secs

     total energy              =   -6056.51268420 Ry
     estimated scf accuracy    <       0.00073198 Ry

     total magnetization       =    61.24 Bohr mag/cell
     absolute magnetization    =    68.74 Bohr mag/cell

     iteration # 31     ecut=    50.00 Ry     beta= 0.70
     Davidson diagonalization with overlap
     ethr =  1.17E-07,  avg # of iterations =  1.0

     negative rho (up, down):  4.150E-03 3.222E-03

     total cpu time spent up to now is      539.6 secs

     total energy              =   -6056.51272116 Ry
     estimated scf accuracy    <       0.00020069 Ry

     total magnetization       =    61.24 Bohr mag/cell
     absolute magnetization    =    68.75 Bohr mag/cell

     iteration # 32     ecut=    50.00 Ry     beta= 0.70
     Davidson diagonalization with overlap
     ethr =  5.99E-08,  avg # of iterations =  1.4

     negative rho (up, down):  3.376E-03 2.310E-03

     total cpu time spent up to now is      553.1 secs

     total energy              =   -6056.51272474 Ry
     estimated scf accuracy    <       0.00004839 Ry

     total magnetization       =    61.24 Bohr mag/cell
     absolute magnetization    =    68.75 Bohr mag/cell

     iteration # 33     ecut=    50.00 Ry     beta= 0.70
     Davidson diagonalization with overlap
     ethr =  1.44E-08,  avg # of iterations =  5.6

     negative rho (up, down):  3.291E-03 2.218E-03

     total cpu time spent up to now is      574.7 secs

     total energy              =   -6056.51272645 Ry
     estimated scf accuracy    <       0.00006116 Ry

     total magnetization       =    61.24 Bohr mag/cell
     absolute magnetization    =    68.75 Bohr mag/cell

     iteration # 34     ecut=    50.00 Ry     beta= 0.70
     Davidson diagonalization with overlap
     ethr =  1.44E-08,  avg # of iterations =  1.7

     negative rho (up, down):  3.379E-03 2.306E-03

     total cpu time spent up to now is      588.8 secs

     total energy              =   -6056.51272565 Ry
     estimated scf accuracy    <       0.00004927 Ry

     total magnetization       =    61.24 Bohr mag/cell
     absolute magnetization    =    68.75 Bohr mag/cell

     iteration # 35     ecut=    50.00 Ry     beta= 0.70
     Davidson diagonalization with overlap
     ethr =  1.44E-08,  avg # of iterations =  1.1

     negative rho (up, down):  3.291E-03 2.222E-03

     total cpu time spent up to now is      606.7 secs

     total energy              =   -6056.51272536 Ry
     estimated scf accuracy    <       0.00003419 Ry

     total magnetization       =    61.24 Bohr mag/cell
     absolute magnetization    =    68.75 Bohr mag/cell

     iteration # 36     ecut=    50.00 Ry     beta= 0.70
     Davidson diagonalization with overlap
     ethr =  1.02E-08,  avg # of iterations =  1.8

     negative rho (up, down):  3.141E-03 2.084E-03

     total cpu time spent up to now is      620.9 secs

     total energy              =   -6056.51272587 Ry
     estimated scf accuracy    <       0.00001527 Ry

     total magnetization       =    61.24 Bohr mag/cell
     absolute magnetization    =    68.75 Bohr mag/cell

     iteration # 37     ecut=    50.00 Ry     beta= 0.70
     Davidson diagonalization with overlap
     ethr =  4.56E-09,  avg # of iterations =  3.5

     negative rho (up, down):  3.133E-03 2.109E-03

     total cpu time spent up to now is      640.8 secs

     total energy              =   -6056.51272671 Ry
     estimated scf accuracy    <       0.00005443 Ry

     total magnetization       =    61.24 Bohr mag/cell
     absolute magnetization    =    68.75 Bohr mag/cell

     iteration # 38     ecut=    50.00 Ry     beta= 0.70
     Davidson diagonalization with overlap
     ethr =  4.56E-09,  avg # of iterations =  1.8

     negative rho (up, down):  3.026E-03 1.998E-03

     total cpu time spent up to now is      660.5 secs

     total energy              =   -6056.51272753 Ry
     estimated scf accuracy    <       0.00000825 Ry

     total magnetization       =    61.24 Bohr mag/cell
     absolute magnetization    =    68.74 Bohr mag/cell

     iteration # 39     ecut=    50.00 Ry     beta= 0.70
     Davidson diagonalization with overlap
     ethr =  2.46E-09,  avg # of iterations =  2.4

     negative rho (up, down):  2.899E-03 1.852E-03

     total cpu time spent up to now is      675.1 secs

     total energy              =   -6056.51272619 Ry
     estimated scf accuracy    <       0.00001251 Ry

     total magnetization       =    61.24 Bohr mag/cell
     absolute magnetization    =    68.74 Bohr mag/cell

     iteration # 40     ecut=    50.00 Ry     beta= 0.70
     Davidson diagonalization with overlap
     ethr =  2.46E-09,  avg # of iterations =  1.5

     negative rho (up, down):  2.802E-03 1.746E-03

     total cpu time spent up to now is      693.3 secs

     total energy              =   -6056.51272555 Ry
     estimated scf accuracy    <       0.00000662 Ry

     total magnetization       =    61.24 Bohr mag/cell
     absolute magnetization    =    68.74 Bohr mag/cell

     iteration # 41     ecut=    50.00 Ry     beta= 0.70
     Davidson diagonalization with overlap
     ethr =  1.98E-09,  avg # of iterations =  1.8

     negative rho (up, down):  2.596E-03 1.522E-03

     total cpu time spent up to now is      707.6 secs

     total energy              =   -6056.51272458 Ry
     estimated scf accuracy    <       0.00000906 Ry

     total magnetization       =    61.24 Bohr mag/cell
     absolute magnetization    =    68.74 Bohr mag/cell

     iteration # 42     ecut=    50.00 Ry     beta= 0.70
     Davidson diagonalization with overlap
     ethr =  1.98E-09,  avg # of iterations =  1.5

     negative rho (up, down):  2.445E-03 1.349E-03

     total cpu time spent up to now is      726.3 secs

     total energy              =   -6056.51272479 Ry
     estimated scf accuracy    <       0.00001155 Ry

     total magnetization       =    61.24 Bohr mag/cell
     absolute magnetization    =    68.74 Bohr mag/cell

     iteration # 43     ecut=    50.00 Ry     beta= 0.70
     Davidson diagonalization with overlap
     ethr =  1.98E-09,  avg # of iterations =  1.4

     negative rho (up, down):  2.439E-03 1.349E-03

     total cpu time spent up to now is      739.7 secs

     total energy              =   -6056.51272504 Ry
     estimated scf accuracy    <       0.00000912 Ry

     total magnetization       =    61.24 Bohr mag/cell
     absolute magnetization    =    68.74 Bohr mag/cell

     iteration # 44     ecut=    50.00 Ry     beta= 0.70
     Davidson diagonalization with overlap
     ethr =  1.98E-09,  avg # of iterations =  1.0

     negative rho (up, down):  2.526E-03 1.445E-03

     total cpu time spent up to now is      756.9 secs

     total energy              =   -6056.51272491 Ry
     estimated scf accuracy    <       0.00000616 Ry

     total magnetization       =    61.24 Bohr mag/cell
     absolute magnetization    =    68.74 Bohr mag/cell

     iteration # 45     ecut=    50.00 Ry     beta= 0.70
     Davidson diagonalization with overlap
     ethr =  1.84E-09,  avg # of iterations =  1.2

     negative rho (up, down):  2.305E-03 1.213E-03

     total cpu time spent up to now is      770.1 secs

     total energy              =   -6056.51272489 Ry
     estimated scf accuracy    <       0.00000653 Ry

     total magnetization       =    61.24 Bohr mag/cell
     absolute magnetization    =    68.74 Bohr mag/cell

     iteration # 46     ecut=    50.00 Ry     beta= 0.70
     Davidson diagonalization with overlap
     ethr =  1.84E-09,  avg # of iterations =  1.0

     negative rho (up, down):  2.396E-03 1.301E-03

     total cpu time spent up to now is      787.9 secs

     total energy              =   -6056.51272508 Ry
     estimated scf accuracy    <       0.00000223 Ry

     total magnetization       =    61.24 Bohr mag/cell
     absolute magnetization    =    68.74 Bohr mag/cell

     iteration # 47     ecut=    50.00 Ry     beta= 0.70
     Davidson diagonalization with overlap
     ethr =  6.65E-10,  avg # of iterations =  2.1

     negative rho (up, down):  2.236E-03 1.142E-03

     total cpu time spent up to now is      806.9 secs

     total energy              =   -6056.51272493 Ry
     estimated scf accuracy    <       0.00000452 Ry

     total magnetization       =    61.24 Bohr mag/cell
     absolute magnetization    =    68.74 Bohr mag/cell

     iteration # 48     ecut=    50.00 Ry     beta= 0.70
     Davidson diagonalization with overlap
     ethr =  6.65E-10,  avg # of iterations =  1.2

     negative rho (up, down):  2.208E-03 1.115E-03

     total cpu time spent up to now is      820.1 secs

     total energy              =   -6056.51272504 Ry
     estimated scf accuracy    <       0.00000089 Ry

     total magnetization       =    61.24 Bohr mag/cell
     absolute magnetization    =    68.74 Bohr mag/cell

     iteration # 49     ecut=    50.00 Ry     beta= 0.70
     Davidson diagonalization with overlap
     ethr =  2.65E-10,  avg # of iterations =  3.0

     negative rho (up, down):  2.241E-03 1.147E-03

     total cpu time spent up to now is      840.8 secs

     total energy              =   -6056.51272510 Ry
     estimated scf accuracy    <       0.00000203 Ry

     total magnetization       =    61.24 Bohr mag/cell
     absolute magnetization    =    68.74 Bohr mag/cell

     iteration # 50     ecut=    50.00 Ry     beta= 0.70
     Davidson diagonalization with overlap
     ethr =  2.65E-10,  avg # of iterations =  1.5

     negative rho (up, down):  2.211E-03 1.117E-03

     total cpu time spent up to now is      854.6 secs

     total energy              =   -6056.51272514 Ry
     estimated scf accuracy    <       0.00000062 Ry

     total magnetization       =    61.24 Bohr mag/cell
     absolute magnetization    =    68.74 Bohr mag/cell

     iteration # 51     ecut=    50.00 Ry     beta= 0.70
     Davidson diagonalization with overlap
     ethr =  1.86E-10,  avg # of iterations =  1.5

     negative rho (up, down):  2.223E-03 1.128E-03

     total cpu time spent up to now is      872.8 secs

     total energy              =   -6056.51272515 Ry
     estimated scf accuracy    <       0.00000038 Ry

     total magnetization       =    61.24 Bohr mag/cell
     absolute magnetization    =    68.74 Bohr mag/cell

     iteration # 52     ecut=    50.00 Ry     beta= 0.70
     Davidson diagonalization with overlap
     ethr =  1.14E-10,  avg # of iterations =  2.7

     negative rho (up, down):  2.211E-03 1.116E-03

     total cpu time spent up to now is      887.7 secs

     total energy              =   -6056.51272514 Ry
     estimated scf accuracy    <       0.00000041 Ry

     total magnetization       =    61.24 Bohr mag/cell
     absolute magnetization    =    68.74 Bohr mag/cell

     iteration # 53     ecut=    50.00 Ry     beta= 0.70
     Davidson diagonalization with overlap
     ethr =  1.14E-10,  avg # of iterations =  1.5

     negative rho (up, down):  2.218E-03 1.123E-03

     total cpu time spent up to now is      906.9 secs

     total energy              =   -6056.51272514 Ry
     estimated scf accuracy    <       0.00000085 Ry

     total magnetization       =    61.24 Bohr mag/cell
     absolute magnetization    =    68.74 Bohr mag/cell

     iteration # 54     ecut=    50.00 Ry     beta= 0.70
     Davidson diagonalization with overlap
     ethr =  1.14E-10,  avg # of iterations =  1.4

     negative rho (up, down):  2.213E-03 1.118E-03

     total cpu time spent up to now is      920.6 secs

     total energy              =   -6056.51272514 Ry
     estimated scf accuracy    <       0.00000059 Ry

     total magnetization       =    61.24 Bohr mag/cell
     absolute magnetization    =    68.74 Bohr mag/cell

     iteration # 55     ecut=    50.00 Ry     beta= 0.70
     Davidson diagonalization with overlap
     ethr =  1.14E-10,  avg # of iterations =  1.2

     negative rho (up, down):  2.212E-03 1.117E-03

     total cpu time spent up to now is      938.5 secs

     total energy              =   -6056.51272516 Ry
     estimated scf accuracy    <       0.00000024 Ry

     total magnetization       =    61.24 Bohr mag/cell
     absolute magnetization    =    68.74 Bohr mag/cell

     iteration # 56     ecut=    50.00 Ry     beta= 0.70
     Davidson diagonalization with overlap
     ethr =  7.12E-11,  avg # of iterations =  1.8

     negative rho (up, down):  2.200E-03 1.105E-03

     total cpu time spent up to now is      957.4 secs

     total energy              =   -6056.51272514 Ry
     estimated scf accuracy    <       0.00000014 Ry

     total magnetization       =    61.24 Bohr mag/cell
     absolute magnetization    =    68.74 Bohr mag/cell

     iteration # 57     ecut=    50.00 Ry     beta= 0.70
     Davidson diagonalization with overlap
     ethr =  4.22E-11,  avg # of iterations =  2.3

     negative rho (up, down):  2.199E-03 1.104E-03

     total cpu time spent up to now is      972.6 secs

     total energy              =   -6056.51272513 Ry
     estimated scf accuracy    <       0.00000025 Ry

     total magnetization       =    61.24 Bohr mag/cell
     absolute magnetization    =    68.74 Bohr mag/cell

     iteration # 58     ecut=    50.00 Ry     beta= 0.70
     Davidson diagonalization with overlap
     ethr =  4.22E-11,  avg # of iterations =  1.5

     negative rho (up, down):  2.203E-03 1.108E-03

     total cpu time spent up to now is      990.7 secs

     total energy              =   -6056.51272515 Ry
     estimated scf accuracy    <       0.00000004 Ry

     total magnetization       =    61.24 Bohr mag/cell
     absolute magnetization    =    68.74 Bohr mag/cell

     iteration # 59     ecut=    50.00 Ry     beta= 0.70
     Davidson diagonalization with overlap
     c_bands:  1 eigenvalues not converged
     ethr =  1.19E-11,  avg # of iterations =  5.9

     negative rho (up, down):  2.205E-03 1.110E-03

     total cpu time spent up to now is     1010.0 secs

     total energy              =   -6056.51272515 Ry
     estimated scf accuracy    <       0.00000018 Ry

     total magnetization       =    61.24 Bohr mag/cell
     absolute magnetization    =    68.74 Bohr mag/cell

     iteration # 60     ecut=    50.00 Ry     beta= 0.70
     Davidson diagonalization with overlap
     ethr =  1.19E-11,  avg # of iterations =  1.6

     negative rho (up, down):  2.205E-03 1.110E-03

     total cpu time spent up to now is     1028.6 secs

     total energy              =   -6056.51272516 Ry
     estimated scf accuracy    <       0.00000004 Ry

     total magnetization       =    61.24 Bohr mag/cell
     absolute magnetization    =    68.74 Bohr mag/cell

     iteration # 61     ecut=    50.00 Ry     beta= 0.70
     Davidson diagonalization with overlap
     ethr =  1.17E-11,  avg # of iterations =  1.4

     negative rho (up, down):  2.206E-03 1.111E-03

     total cpu time spent up to now is     1046.6 secs

     total energy              =   -6056.51272516 Ry
     estimated scf accuracy    <       0.00000005 Ry

     total magnetization       =    61.24 Bohr mag/cell
     absolute magnetization    =    68.74 Bohr mag/cell

     iteration # 62     ecut=    50.00 Ry     beta= 0.70
     Davidson diagonalization with overlap
     ethr =  1.17E-11,  avg # of iterations =  1.2

     negative rho (up, down):  2.206E-03 1.111E-03

     total cpu time spent up to now is     1059.7 secs

     total energy              =   -6056.51272516 Ry
     estimated scf accuracy    <       0.00000001 Ry

     total magnetization       =    61.24 Bohr mag/cell
     absolute magnetization    =    68.74 Bohr mag/cell

     iteration # 63     ecut=    50.00 Ry     beta= 0.70
     Davidson diagonalization with overlap
     ethr =  4.39E-12,  avg # of iterations =  1.7

     negative rho (up, down):  2.207E-03 1.112E-03

     total cpu time spent up to now is     1078.1 secs

     total energy              =   -6056.51272516 Ry
     estimated scf accuracy    <       0.00000002 Ry

     total magnetization       =    61.24 Bohr mag/cell
     absolute magnetization    =    68.74 Bohr mag/cell

     iteration # 64     ecut=    50.00 Ry     beta= 0.70
     Davidson diagonalization with overlap
     ethr =  4.39E-12,  avg # of iterations =  1.4

     negative rho (up, down):  2.228E-03 1.132E-03

     Magnetic moment per site  (integrated on atomic sphere of radius R)
     atom   1 (R=0.103)  charge=  6.2600  magn=  1.7661
     atom   2 (R=0.103)  charge=  6.2601  magn=  1.7664
     atom   3 (R=0.103)  charge=  6.2594  magn=  1.7736
     atom   4 (R=0.103)  charge=  6.2598  magn=  1.7741
     atom   5 (R=0.103)  charge=  6.2597  magn=  1.7702
     atom   6 (R=0.103)  charge=  6.2601  magn=  1.7682
     atom   7 (R=0.103)  charge=  6.2598  magn=  1.7688
     atom   8 (R=0.103)  charge=  6.2608  magn=  1.7632
     atom   9 (R=0.103)  charge=  6.2603  magn=  1.7650
     atom  10 (R=0.103)  charge=  6.2664  magn=  1.6980
     atom  11 (R=0.103)  charge=  6.2672  magn=  1.6876
     atom  12 (R=0.103)  charge=  6.2669  magn=  1.6984
     atom  13 (R=0.103)  charge=  6.2664  magn=  1.6964
     atom  14 (R=0.103)  charge=  6.2669  magn=  1.6971
     atom  15 (R=0.103)  charge=  6.2663  magn=  1.6967
     atom  16 (R=0.103)  charge=  6.2668  magn=  1.6901
     atom  17 (R=0.103)  charge=  6.2666  magn=  1.6945
     atom  18 (R=0.103)  charge=  6.2669  magn=  1.6935
     atom  19 (R=0.103)  charge=  6.2653  magn=  1.7013
     atom  20 (R=0.103)  charge=  6.2655  magn=  1.6938
     atom  21 (R=0.103)  charge=  6.2655  magn=  1.6999
     atom  22 (R=0.103)  charge=  6.2662  magn=  1.7041
     atom  23 (R=0.103)  charge=  6.2651  magn=  1.7047
     atom  24 (R=0.103)  charge=  6.2663  magn=  1.7062
     atom  25 (R=0.103)  charge=  6.2639  magn=  1.7023
     atom  26 (R=0.103)  charge=  6.2633  magn=  1.7191
     atom  27 (R=0.103)  charge=  6.2658  magn=  1.6860
     atom  28 (R=0.103)  charge=  6.2741  magn=  1.6253
     atom  29 (R=0.103)  charge=  6.2944  magn=  1.2183
     atom  30 (R=0.103)  charge=  6.2629  magn=  1.7511
     atom  31 (R=0.103)  charge=  6.2641  magn=  1.7608
     atom  32 (R=0.103)  charge=  6.2611  magn=  1.7627
     atom  33 (R=0.103)  charge=  6.2590  magn=  1.7853
     atom  34 (R=0.103)  charge=  6.2621  magn=  1.7807
     atom  35 (R=0.103)  charge=  6.2693  magn=  1.7203
     atom  36 (R=0.103)  charge=  6.2616  magn=  1.7647
     atom  37 (R=0.062)  charge=  0.9074  magn= -0.0150
     atom  38 (R=0.068)  charge=  3.1229  magn=  0.0040
     atom  39 (R=0.062)  charge=  0.5046  magn=  0.0093

     total cpu time spent up to now is     1091.8 secs

     End of self-consistent calculation

 ------ SPIN UP ------------


          k = 0.0000 0.0000 0.0000 ( 51087 PWs)   bands (ev):

   -21.6625 -10.5270  -7.5164  -6.8853  -6.2536  -5.7030  -5.2701  -4.6425
    -4.6107  -4.6092  -4.6088  -4.6018  -4.5916  -4.5565  -4.2548  -4.0817
    -4.0786  -4.0738  -4.0653  -4.0515  -4.0167  -3.5657  -3.5602  -3.5571
    -3.5551  -3.5417  -3.5123  -3.4394  -3.4287  -3.4262  -3.4254  -3.4204
    -3.4008  -3.3577  -3.3563  -3.0452  -3.0414  -3.0394  -3.0374  -3.0245
    -2.9826  -2.9760  -2.9709  -2.9676  -2.9650  -2.9616  -2.9600  -2.8107
    -2.8086  -2.7821  -2.7517  -2.7391  -2.7329  -2.7313  -2.7239  -2.7092
    -2.7030  -2.6980  -2.6971  -2.6040  -2.6016  -2.5986  -2.5932  -2.5841
    -2.5521  -2.2919  -2.0714  -2.0652  -2.0594  -2.0554  -2.0498  -1.9542
    -1.9379  -1.9238  -1.9076  -1.8972  -1.8954  -1.8875  -1.8811  -1.8797
    -1.8587  -1.8270  -1.8244  -1.7774  -1.7701  -1.7678  -1.7525  -1.7441
    -1.7425  -1.7353  -1.7312  -1.7297  -1.7158  -1.7032  -1.7002  -1.6955
    -1.6931  -1.6902  -1.6883  -1.6875  -1.6868  -1.6819  -1.6777  -1.6775
    -1.6733  -1.6359  -1.6335  -1.6055  -1.6004  -1.5272  -1.5233  -1.4886
    -1.3186  -1.2447  -1.2319  -1.2292  -1.2277  -1.2238  -1.2209  -1.2027
    -1.1947  -1.1932  -1.1591  -1.1527  -1.1392  -1.1021  -1.0211  -1.0193
    -0.9904  -0.9875  -0.8801  -0.8327  -0.8195  -0.8164  -0.8082  -0.7965
    -0.7485  -0.7390  -0.7353  -0.7332  -0.7321  -0.7173  -0.6257  -0.6198
    -0.5168  -0.5005  -0.4915  -0.4905  -0.4672  -0.4589  -0.4323  -0.4275
    -0.4254  -0.4208  -0.4153  -0.4113  -0.4089  -0.4078  -0.4066  -0.4019
    -0.3964  -0.3933  -0.3801  -0.3653  -0.3547  -0.3439  -0.3424  -0.3406
    -0.3272  -0.3193  -0.3012  -0.2990  -0.2953  -0.2711  -0.2684  -0.2663
    -0.2649  -0.2581  -0.2549  -0.2416  -0.2203  -0.2013  -0.1942  -0.1904
    -0.1890  -0.1843  -0.1812  -0.1770  -0.1762  -0.1614  -0.1124  -0.1077
    -0.0964  -0.0953  -0.0330  -0.0321  -0.0272  -0.0214  -0.0205  -0.0032
     0.3517   1.1035

          k = 0.0000 0.2309 0.0000 ( 51134 PWs)   bands (ev):

   -21.6625 -10.5262  -7.3751  -6.8669  -6.1774  -5.6875  -5.3537  -5.2339
    -4.8586  -4.8530  -4.4948  -4.3439  -4.2695  -4.2691  -4.2006  -4.1528
    -4.1156  -4.0983  -3.9974  -3.9519  -3.9455  -3.6838  -3.5720  -3.5638
    -3.4893  -3.4634  -3.4457  -3.4394  -3.4378  -3.4221  -3.4133  -3.3998
    -3.3680  -3.3196  -3.3175  -3.2858  -3.2834  -3.1069  -3.0590  -3.0556
    -3.0062  -3.0033  -2.9970  -2.9917  -2.9286  -2.8792  -2.8714  -2.8472
    -2.8333  -2.8275  -2.8043  -2.7890  -2.6997  -2.6977  -2.6667  -2.6374
    -2.6217  -2.6074  -2.5930  -2.5792  -2.5732  -2.5476  -2.5254  -2.5174
    -2.4591  -2.3120  -2.1855  -2.1678  -2.1589  -2.1367  -2.0940  -2.0319
    -2.0227  -2.0199  -2.0059  -2.0028  -1.9878  -1.9725  -1.9537  -1.9080
    -1.8903  -1.8809  -1.8653  -1.8277  -1.8194  -1.8167  -1.8083  -1.7920
    -1.7830  -1.7764  -1.7731  -1.7709  -1.7662  -1.7327  -1.7029  -1.6907
    -1.6756  -1.6429  -1.6099  -1.5946  -1.5874  -1.5829  -1.5735  -1.5660
    -1.5517  -1.5428  -1.5382  -1.5308  -1.5271  -1.5012  -1.4902  -1.4845
    -1.4646  -1.4590  -1.4347  -1.3803  -1.3631  -1.3353  -1.2638  -1.2549
    -1.2494  -1.2408  -1.2303  -1.2262  -1.2222  -1.2177  -1.1366  -1.0831
    -1.0669  -1.0440  -0.9723  -0.9695  -0.9448  -0.8975  -0.8758  -0.8720
    -0.8316  -0.7792  -0.7591  -0.7453  -0.7313  -0.7230  -0.6920  -0.6839
    -0.6690  -0.6540  -0.6394  -0.5993  -0.5957  -0.5817  -0.5725  -0.5657
    -0.5279  -0.5076  -0.4928  -0.4874  -0.4766  -0.4516  -0.4303  -0.4267
    -0.4207  -0.4129  -0.4049  -0.3958  -0.3816  -0.3690  -0.3555  -0.3382
    -0.3065  -0.2947  -0.2809  -0.2562  -0.2367  -0.2331  -0.2011  -0.1938
    -0.1728  -0.1690  -0.1625  -0.1478  -0.1440  -0.1252  -0.1135  -0.1089
    -0.0770  -0.0339  -0.0300  -0.0215   0.0026   0.0037   0.0373   0.0459
     0.0615   0.1022   0.3398   0.3476   0.4498   0.5416   0.6005   0.6142
     0.6800   0.8375

          k = 0.0000 0.4619 0.0000 ( 51204 PWs)   bands (ev):

   -21.6625 -10.5249  -7.0302  -6.7735  -6.2326  -5.9843  -5.5066  -5.2120
    -4.9987  -4.9917  -4.8541  -4.1558  -4.1148  -4.1010  -4.0851  -4.0229
    -3.9121  -3.9110  -3.8713  -3.7852  -3.7783  -3.7699  -3.6752  -3.6005
    -3.5972  -3.5840  -3.5817  -3.5345  -3.4805  -3.4730  -3.4696  -3.3164
    -3.3099  -3.3018  -3.2962  -3.2649  -3.2596  -3.1698  -3.1506  -3.1469
    -3.1360  -3.1340  -3.0234  -2.9377  -2.9233  -2.8410  -2.8252  -2.8033
    -2.7903  -2.7574  -2.7474  -2.7436  -2.7367  -2.7115  -2.6629  -2.6504
    -2.6235  -2.5878  -2.5771  -2.4811  -2.4383  -2.4318  -2.4166  -2.3854
    -2.3363  -2.3192  -2.2951  -2.2859  -2.2641  -2.1931  -2.1714  -2.1493
    -2.1438  -2.1427  -2.1301  -2.1138  -2.1072  -2.0949  -2.0516  -2.0454
    -2.0086  -2.0050  -1.9781  -1.9574  -1.9303  -1.9155  -1.8522  -1.8391
    -1.8246  -1.8155  -1.7881  -1.7748  -1.7430  -1.7169  -1.7119  -1.7052
    -1.6956  -1.6754  -1.6680  -1.6437  -1.6342  -1.6240  -1.6164  -1.5988
    -1.5798  -1.5698  -1.5226  -1.5086  -1.4552  -1.4407  -1.4258  -1.4124
    -1.3900  -1.3700  -1.3482  -1.3055  -1.2987  -1.2789  -1.2745  -1.2704
    -1.2661  -1.2591  -1.2434  -1.2411  -1.2367  -1.2281  -1.2198  -1.2040
    -1.1905  -1.1704  -1.0969  -1.0698  -1.0437  -1.0354  -1.0122  -1.0046
    -0.9719  -0.9444  -0.9152  -0.8953  -0.8878  -0.8390  -0.8236  -0.7755
    -0.7651  -0.7302  -0.7158  -0.6858  -0.6786  -0.6697  -0.6370  -0.5932
    -0.5399  -0.5142  -0.5101  -0.4965  -0.4894  -0.4857  -0.4760  -0.4648
    -0.4590  -0.4370  -0.4051  -0.3480  -0.3316  -0.3266  -0.3169  -0.3149
    -0.3100  -0.2864  -0.2698  -0.2647  -0.2543  -0.2410  -0.1652  -0.1456
    -0.1380  -0.1330  -0.1095  -0.0761  -0.0428  -0.0336  -0.0051   0.0064
     0.0296   0.0738   0.0769   0.0960   0.0999   0.1056   0.1129   0.1365
     0.2112   0.2250   0.3131   0.9171   1.1557   1.2580   1.3342   1.3607
     1.5713   1.6943

          k = 0.2000-0.1155 0.0000 ( 51134 PWs)   bands (ev):

   -21.6625 -10.5266  -7.3745  -6.8670  -6.1720  -5.6743  -5.3716  -5.2364
    -4.8563  -4.8469  -4.4968  -4.3650  -4.2703  -4.2664  -4.2030  -4.1592
    -4.1138  -4.0768  -4.0085  -3.9521  -3.9355  -3.6859  -3.5724  -3.5631
    -3.4879  -3.4694  -3.4432  -3.4389  -3.4375  -3.4288  -3.4122  -3.3956
    -3.3659  -3.3226  -3.3158  -3.2844  -3.2834  -3.0987  -3.0651  -3.0559
    -3.0266  -2.9999  -2.9981  -2.9887  -2.9238  -2.8987  -2.8682  -2.8410
    -2.8306  -2.8264  -2.8042  -2.7914  -2.7085  -2.6973  -2.6706  -2.6355
    -2.6277  -2.6059  -2.5889  -2.5726  -2.5628  -2.5416  -2.5240  -2.5161
    -2.4648  -2.3207  -2.1862  -2.1729  -2.1476  -2.1312  -2.0918  -2.0344
    -2.0256  -2.0153  -2.0119  -1.9976  -1.9890  -1.9677  -1.9465  -1.9105
    -1.8851  -1.8823  -1.8660  -1.8208  -1.8190  -1.8169  -1.8122  -1.7889
    -1.7862  -1.7769  -1.7731  -1.7712  -1.7696  -1.7410  -1.7011  -1.6830
    -1.6692  -1.6447  -1.6135  -1.5962  -1.5883  -1.5838  -1.5707  -1.5647
    -1.5573  -1.5430  -1.5322  -1.5293  -1.5220  -1.5061  -1.4835  -1.4751
    -1.4668  -1.4558  -1.4314  -1.4097  -1.3662  -1.3317  -1.2594  -1.2552
    -1.2481  -1.2453  -1.2273  -1.2261  -1.2239  -1.2152  -1.1154  -1.0787
    -1.0593  -1.0428  -0.9733  -0.9695  -0.9460  -0.9037  -0.8764  -0.8698
    -0.8082  -0.8006  -0.7725  -0.7525  -0.7360  -0.7254  -0.6849  -0.6845
    -0.6690  -0.6535  -0.6364  -0.6019  -0.5974  -0.5772  -0.5767  -0.5695
    -0.5349  -0.4997  -0.4915  -0.4875  -0.4675  -0.4514  -0.4262  -0.4217
    -0.4155  -0.4132  -0.4089  -0.3983  -0.3780  -0.3684  -0.3604  -0.3514
    -0.3002  -0.2912  -0.2748  -0.2577  -0.2420  -0.2311  -0.2046  -0.1905
    -0.1729  -0.1678  -0.1653  -0.1486  -0.1425  -0.1249  -0.1157  -0.1076
    -0.0746  -0.0348  -0.0294  -0.0222   0.0024   0.0035   0.0459   0.0508
     0.0591   0.1037   0.3303   0.3491   0.4172   0.5208   0.5964   0.6460
     0.6701   0.7879

          k = 0.2000 0.1155 0.0000 ( 51134 PWs)   bands (ev):

   -21.6625 -10.5267  -7.3747  -6.8675  -6.1695  -5.6706  -5.3528  -5.2666
    -4.8507  -4.8443  -4.4992  -4.3728  -4.2712  -4.2651  -4.2037  -4.1599
    -4.1069  -4.0756  -4.0102  -3.9502  -3.9363  -3.6866  -3.5709  -3.5668
    -3.4862  -3.4696  -3.4413  -3.4403  -3.4374  -3.4250  -3.4129  -3.3960
    -3.3674  -3.3223  -3.3156  -3.2848  -3.2827  -3.0948  -3.0573  -3.0559
    -3.0237  -3.0014  -2.9979  -2.9957  -2.9184  -2.8975  -2.8739  -2.8460
    -2.8307  -2.8279  -2.8057  -2.7964  -2.7062  -2.6961  -2.6815  -2.6403
    -2.6271  -2.6005  -2.5917  -2.5695  -2.5583  -2.5420  -2.5254  -2.5196
    -2.4665  -2.3069  -2.1904  -2.1773  -2.1538  -2.1274  -2.0895  -2.0275
    -2.0238  -2.0171  -2.0124  -2.0016  -1.9932  -1.9692  -1.9317  -1.9080
    -1.8940  -1.8792  -1.8597  -1.8282  -1.8191  -1.8155  -1.8105  -1.7869
    -1.7845  -1.7815  -1.7766  -1.7712  -1.7633  -1.7359  -1.6992  -1.6943
    -1.6705  -1.6407  -1.6056  -1.5929  -1.5861  -1.5836  -1.5658  -1.5635
    -1.5557  -1.5445  -1.5397  -1.5294  -1.5237  -1.5060  -1.4815  -1.4750
    -1.4654  -1.4601  -1.4346  -1.4110  -1.3650  -1.3348  -1.2604  -1.2538
    -1.2505  -1.2439  -1.2329  -1.2275  -1.2240  -1.2183  -1.1080  -1.0742
    -1.0582  -1.0418  -0.9770  -0.9687  -0.9424  -0.9037  -0.8798  -0.8714
    -0.8092  -0.7909  -0.7740  -0.7490  -0.7417  -0.7262  -0.6919  -0.6867
    -0.6660  -0.6558  -0.6373  -0.5954  -0.5895  -0.5854  -0.5774  -0.5648
    -0.5341  -0.5030  -0.4928  -0.4863  -0.4726  -0.4381  -0.4303  -0.4272
    -0.4198  -0.4109  -0.4014  -0.3931  -0.3791  -0.3688  -0.3627  -0.3451
    -0.3004  -0.2908  -0.2718  -0.2609  -0.2434  -0.2329  -0.2012  -0.1943
    -0.1709  -0.1690  -0.1660  -0.1472  -0.1374  -0.1258  -0.1141  -0.1080
    -0.0763  -0.0348  -0.0304  -0.0230   0.0034   0.0045   0.0435   0.0494
     0.0613   0.0978   0.3172   0.3494   0.4140   0.5169   0.5935   0.6318
     0.6828   0.7813

          k = 0.2000 0.3464 0.0000 ( 51202 PWs)   bands (ev):

   -21.6625 -10.5257  -7.1217  -6.8201  -6.0728  -5.7259  -5.6838  -5.4702
    -5.2416  -4.5906  -4.5101  -4.2763  -4.2705  -4.2318  -4.0570  -4.0531
    -3.9677  -3.9601  -3.9416  -3.8237  -3.8131  -3.6863  -3.6763  -3.6172
    -3.5670  -3.4790  -3.4777  -3.4480  -3.4298  -3.4207  -3.4121  -3.3904
    -3.3736  -3.3551  -3.3511  -3.3008  -3.2616  -3.2194  -3.2167  -3.1065
    -3.0886  -3.0003  -2.9912  -2.9652  -2.9494  -2.9380  -2.8478  -2.8056
    -2.7932  -2.7767  -2.7603  -2.7568  -2.7111  -2.7006  -2.6809  -2.6719
    -2.6540  -2.5583  -2.5358  -2.4890  -2.4795  -2.4579  -2.4355  -2.4186
    -2.4073  -2.3162  -2.2689  -2.2179  -2.2051  -2.1661  -2.1449  -2.1252
    -2.1185  -2.1146  -2.1009  -2.0787  -2.0665  -2.0483  -2.0451  -2.0306
    -2.0217  -1.9942  -1.9377  -1.9080  -1.8575  -1.8526  -1.8335  -1.8166
    -1.8039  -1.7825  -1.7644  -1.7398  -1.7263  -1.7037  -1.6976  -1.6933
    -1.6767  -1.6720  -1.6577  -1.6546  -1.6407  -1.6340  -1.6124  -1.5940
    -1.5860  -1.5745  -1.5403  -1.5230  -1.5032  -1.4873  -1.4617  -1.4515
    -1.4423  -1.4289  -1.4186  -1.3783  -1.3610  -1.3502  -1.3263  -1.2951
    -1.2808  -1.2762  -1.2737  -1.2512  -1.2394  -1.2326  -1.2145  -1.1755
    -1.1287  -1.1095  -1.1014  -1.0672  -0.9917  -0.9766  -0.9621  -0.8877
    -0.8463  -0.8442  -0.8368  -0.8264  -0.8162  -0.8039  -0.7904  -0.7707
    -0.7596  -0.7403  -0.7172  -0.6857  -0.6740  -0.6675  -0.6452  -0.6338
    -0.6102  -0.5970  -0.5640  -0.5592  -0.5507  -0.5338  -0.4685  -0.4057
    -0.3915  -0.3625  -0.3575  -0.3506  -0.3353  -0.3235  -0.3122  -0.3047
    -0.2966  -0.2900  -0.2183  -0.2102  -0.1968  -0.1894  -0.1529  -0.1414
    -0.1214  -0.1167  -0.1118  -0.0945  -0.0853  -0.0803  -0.0720  -0.0616
    -0.0462  -0.0221   0.0416   0.0500   0.0560   0.1023   0.1061   0.1130
     0.4155   0.4443   0.5078   0.5848   0.7180   0.7871   1.0790   1.2833
     1.3482   1.5045

          k = 0.2000-0.5774 0.0000 ( 51262 PWs)   bands (ev):

   -21.6625 -10.5250  -6.9475  -6.4723  -6.4460  -5.9722  -5.7628  -5.4128
    -5.0531  -5.0172  -4.6180  -4.2620  -4.0183  -3.9781  -3.8643  -3.8451
    -3.8399  -3.8192  -3.8121  -3.7888  -3.7440  -3.7290  -3.7273  -3.7215
    -3.6413  -3.6295  -3.5782  -3.5770  -3.5482  -3.5434  -3.4483  -3.4096
    -3.3917  -3.3844  -3.3693  -3.3301  -3.2415  -3.2285  -3.1239  -3.0991
    -3.0943  -3.0266  -3.0164  -2.9951  -2.9680  -2.8877  -2.8823  -2.8783
    -2.8108  -2.8055  -2.7351  -2.6972  -2.6663  -2.6579  -2.6135  -2.6014
    -2.5491  -2.5180  -2.5079  -2.4947  -2.4899  -2.4643  -2.4493  -2.3858
    -2.3408  -2.3056  -2.2851  -2.2816  -2.2540  -2.2258  -2.2104  -2.1612
    -2.1475  -2.1187  -2.1116  -2.1000  -2.0909  -2.0551  -2.0423  -2.0326
    -2.0208  -2.0120  -1.9903  -1.9741  -1.9663  -1.9587  -1.8955  -1.8821
    -1.8619  -1.8263  -1.8074  -1.7867  -1.7475  -1.7367  -1.7297  -1.7051
    -1.6862  -1.6780  -1.6713  -1.6673  -1.6526  -1.6427  -1.6176  -1.6101
    -1.5511  -1.5299  -1.5209  -1.5171  -1.5009  -1.4976  -1.4914  -1.4783
    -1.4747  -1.4676  -1.4500  -1.4166  -1.4067  -1.3688  -1.3627  -1.3346
    -1.2795  -1.2699  -1.2354  -1.2231  -1.2117  -1.2030  -1.1886  -1.1294
    -1.1182  -1.1095  -1.1012  -1.0463  -1.0250  -0.9774  -0.9658  -0.9464
    -0.9314  -0.9192  -0.9095  -0.8966  -0.8612  -0.8548  -0.8252  -0.8012
    -0.7786  -0.7629  -0.7489  -0.7309  -0.7162  -0.6844  -0.6587  -0.6444
    -0.6345  -0.6222  -0.6130  -0.5919  -0.5663  -0.5465  -0.5296  -0.4559
    -0.3606  -0.3531  -0.3444  -0.3369  -0.3272  -0.3249  -0.3167  -0.3044
    -0.2684  -0.2582  -0.2449  -0.2403  -0.2167  -0.1912  -0.1248  -0.1182
    -0.1039  -0.0925  -0.0757  -0.0690  -0.0265  -0.0138  -0.0099  -0.0002
     0.0053   0.0705   0.0811   0.0848   0.1034   0.1073   0.1333   0.1606
     0.2554   0.4524   0.5148   0.7898   1.3212   1.3766   1.5189   1.6594
     1.8586   1.9365

          k = 0.2000-0.3464 0.0000 ( 51202 PWs)   bands (ev):

   -21.6625 -10.5255  -7.1203  -6.8215  -6.0757  -5.7310  -5.6864  -5.4705
    -5.2285  -4.5971  -4.5030  -4.2765  -4.2709  -4.2297  -4.0562  -4.0533
    -3.9684  -3.9581  -3.9396  -3.8230  -3.8171  -3.6820  -3.6784  -3.6169
    -3.5675  -3.4826  -3.4771  -3.4486  -3.4264  -3.4218  -3.4179  -3.3906
    -3.3740  -3.3563  -3.3486  -3.3040  -3.2627  -3.2230  -3.2158  -3.1053
    -3.0938  -2.9992  -2.9887  -2.9687  -2.9545  -2.9349  -2.8420  -2.8008
    -2.7878  -2.7757  -2.7604  -2.7532  -2.7065  -2.6983  -2.6783  -2.6715
    -2.6545  -2.5416  -2.5358  -2.4943  -2.4798  -2.4541  -2.4373  -2.4204
    -2.4042  -2.3244  -2.2895  -2.2205  -2.2044  -2.1643  -2.1501  -2.1310
    -2.1242  -2.1063  -2.0971  -2.0747  -2.0597  -2.0542  -2.0467  -2.0314
    -2.0275  -1.9984  -1.9335  -1.9057  -1.8572  -1.8492  -1.8224  -1.8160
    -1.8065  -1.7831  -1.7694  -1.7401  -1.7312  -1.7061  -1.6951  -1.6922
    -1.6835  -1.6720  -1.6594  -1.6476  -1.6380  -1.6335  -1.6056  -1.5992
    -1.5839  -1.5756  -1.5550  -1.5228  -1.5050  -1.4932  -1.4592  -1.4509
    -1.4453  -1.4266  -1.4225  -1.3739  -1.3585  -1.3444  -1.3274  -1.3008
    -1.2791  -1.2768  -1.2714  -1.2561  -1.2442  -1.2313  -1.2115  -1.1704
    -1.1390  -1.1062  -1.1025  -1.0655  -0.9934  -0.9811  -0.9635  -0.8655
    -0.8500  -0.8423  -0.8378  -0.8241  -0.8187  -0.8054  -0.7905  -0.7673
    -0.7538  -0.7351  -0.7220  -0.6963  -0.6791  -0.6615  -0.6515  -0.6335
    -0.6151  -0.5898  -0.5734  -0.5539  -0.5506  -0.5334  -0.4604  -0.4061
    -0.3895  -0.3744  -0.3556  -0.3473  -0.3398  -0.3201  -0.3125  -0.3036
    -0.2957  -0.2911  -0.2188  -0.2089  -0.1949  -0.1883  -0.1498  -0.1411
    -0.1228  -0.1182  -0.1151  -0.0972  -0.0875  -0.0777  -0.0718  -0.0573
    -0.0474  -0.0192   0.0403   0.0506   0.0569   0.1011   0.1040   0.1214
     0.4117   0.4443   0.5073   0.5809   0.7032   0.7876   1.1238   1.3095
     1.3250   1.5338

          k = 0.4000-0.2309 0.0000 ( 51204 PWs)   bands (ev):

   -21.6625 -10.5260  -7.0288  -6.7719  -6.2184  -5.9823  -5.4825  -5.2515
    -4.9987  -4.9774  -4.8798  -4.1723  -4.1124  -4.1000  -4.0608  -4.0326
    -3.9114  -3.9094  -3.8747  -3.7811  -3.7776  -3.7719  -3.6861  -3.5998
    -3.5940  -3.5830  -3.5815  -3.5365  -3.4870  -3.4749  -3.4687  -3.3146
    -3.3098  -3.3014  -3.2861  -3.2634  -3.2618  -3.1665  -3.1564  -3.1447
    -3.1404  -3.1349  -3.0279  -2.9575  -2.9222  -2.8518  -2.8277  -2.8100
    -2.7895  -2.7673  -2.7471  -2.7432  -2.7372  -2.7117  -2.6566  -2.6484
    -2.6239  -2.5876  -2.5809  -2.4714  -2.4378  -2.4330  -2.4182  -2.3782
    -2.3304  -2.3101  -2.3022  -2.2874  -2.2495  -2.1954  -2.1555  -2.1515
    -2.1474  -2.1395  -2.1172  -2.1087  -2.1041  -2.0939  -2.0605  -2.0313
    -2.0171  -1.9937  -1.9759  -1.9495  -1.9366  -1.9171  -1.8620  -1.8331
    -1.8205  -1.8144  -1.7939  -1.7801  -1.7409  -1.7187  -1.7124  -1.7070
    -1.6927  -1.6744  -1.6676  -1.6456  -1.6420  -1.6243  -1.6064  -1.5958
    -1.5817  -1.5733  -1.5213  -1.4759  -1.4577  -1.4435  -1.4147  -1.4043
    -1.3937  -1.3782  -1.3445  -1.3041  -1.2936  -1.2804  -1.2752  -1.2696
    -1.2624  -1.2521  -1.2493  -1.2437  -1.2358  -1.2317  -1.2190  -1.2034
    -1.1851  -1.1672  -1.1119  -1.0711  -1.0438  -1.0313  -1.0170  -0.9956
    -0.9789  -0.9370  -0.9189  -0.8945  -0.8860  -0.8402  -0.8273  -0.7755
    -0.7640  -0.7359  -0.7105  -0.6940  -0.6831  -0.6691  -0.6435  -0.6000
    -0.5657  -0.5125  -0.5029  -0.4904  -0.4856  -0.4821  -0.4744  -0.4664
    -0.4539  -0.4409  -0.3930  -0.3457  -0.3399  -0.3238  -0.3168  -0.3114
    -0.3013  -0.2793  -0.2744  -0.2670  -0.2500  -0.2439  -0.1657  -0.1439
    -0.1375  -0.1329  -0.1077  -0.0877  -0.0447  -0.0352  -0.0072   0.0111
     0.0295   0.0756   0.0780   0.0984   0.1010   0.1051   0.1260   0.1330
     0.2109   0.2257   0.2712   0.9473   1.0814   1.2177   1.3350   1.3637
     1.5371   1.7130

          k = 0.4000 0.0000 0.0000 ( 51202 PWs)   bands (ev):

   -21.6625 -10.5264  -7.1204  -6.8192  -6.0637  -5.7073  -5.6903  -5.4771
    -5.2568  -4.5687  -4.5336  -4.2822  -4.2735  -4.2296  -4.0582  -4.0533
    -3.9637  -3.9620  -3.9547  -3.8238  -3.8005  -3.6853  -3.6777  -3.6140
    -3.5660  -3.4784  -3.4710  -3.4511  -3.4290  -3.4235  -3.4155  -3.3916
    -3.3703  -3.3561  -3.3437  -3.3058  -3.2610  -3.2310  -3.2178  -3.1007
    -3.0906  -3.0033  -2.9927  -2.9635  -2.9468  -2.9425  -2.8628  -2.8367
    -2.7934  -2.7649  -2.7607  -2.7566  -2.7074  -2.6953  -2.6789  -2.6713
    -2.6555  -2.5667  -2.5375  -2.4807  -2.4715  -2.4598  -2.4360  -2.4147
    -2.4117  -2.2957  -2.2690  -2.2130  -2.2022  -2.1712  -2.1504  -2.1338
    -2.1129  -2.1047  -2.0992  -2.0808  -2.0672  -2.0524  -2.0457  -2.0309
    -2.0096  -1.9920  -1.9360  -1.9106  -1.8575  -1.8511  -1.8327  -1.8145
    -1.7967  -1.7855  -1.7638  -1.7434  -1.7346  -1.7027  -1.6937  -1.6919
    -1.6781  -1.6739  -1.6600  -1.6466  -1.6405  -1.6270  -1.6149  -1.5949
    -1.5859  -1.5562  -1.5323  -1.5156  -1.5008  -1.4956  -1.4636  -1.4549
    -1.4321  -1.4216  -1.4145  -1.3877  -1.3615  -1.3484  -1.3259  -1.2869
    -1.2819  -1.2786  -1.2722  -1.2503  -1.2371  -1.2341  -1.2142  -1.1808
    -1.1259  -1.1092  -1.1060  -1.0666  -0.9904  -0.9823  -0.9639  -0.8882
    -0.8595  -0.8407  -0.8352  -0.8233  -0.8144  -0.8045  -0.7908  -0.7871
    -0.7545  -0.7432  -0.7171  -0.6857  -0.6751  -0.6653  -0.6450  -0.6351
    -0.6157  -0.6025  -0.5669  -0.5558  -0.5500  -0.5368  -0.4685  -0.3995
    -0.3907  -0.3679  -0.3558  -0.3472  -0.3319  -0.3194  -0.3138  -0.3020
    -0.2981  -0.2879  -0.2221  -0.2065  -0.1985  -0.1885  -0.1532  -0.1470
    -0.1201  -0.1187  -0.1120  -0.1029  -0.0843  -0.0787  -0.0736  -0.0530
    -0.0437  -0.0258   0.0416   0.0499   0.0548   0.1008   0.1041   0.1144
     0.4329   0.4437   0.5077   0.5612   0.7571   0.7719   1.0258   1.2758
     1.3381   1.4863

          k = 0.4000 0.2309 0.0000 ( 51204 PWs)   bands (ev):

   -21.6625 -10.5262  -7.0325  -6.7694  -6.2094  -5.9811  -5.4632  -5.2836
    -4.9974  -4.9671  -4.8963  -4.1759  -4.1029  -4.1007  -4.0576  -4.0342
    -3.9126  -3.9078  -3.8750  -3.7811  -3.7778  -3.7735  -3.6906  -3.6002
    -3.5955  -3.5825  -3.5804  -3.5378  -3.4870  -3.4746  -3.4649  -3.3132
    -3.3090  -3.2978  -3.2825  -3.2649  -3.2571  -3.1632  -3.1492  -3.1452
    -3.1397  -3.1343  -3.0199  -2.9635  -2.9324  -2.8623  -2.8348  -2.8080
    -2.7951  -2.7645  -2.7492  -2.7421  -2.7388  -2.7220  -2.6515  -2.6475
    -2.6268  -2.5962  -2.5801  -2.4734  -2.4342  -2.4291  -2.4239  -2.3762
    -2.3305  -2.3105  -2.3024  -2.2889  -2.2436  -2.1949  -2.1638  -2.1519
    -2.1444  -2.1408  -2.1227  -2.1085  -2.0988  -2.0961  -2.0782  -2.0278
    -2.0067  -1.9909  -1.9735  -1.9420  -1.9201  -1.9157  -1.8698  -1.8299
    -1.8228  -1.8198  -1.7916  -1.7751  -1.7337  -1.7144  -1.7063  -1.7047
    -1.6887  -1.6757  -1.6642  -1.6426  -1.6366  -1.6260  -1.6050  -1.5903
    -1.5812  -1.5681  -1.5230  -1.4870  -1.4532  -1.4415  -1.4189  -1.4100
    -1.3839  -1.3725  -1.3443  -1.3081  -1.2934  -1.2845  -1.2759  -1.2727
    -1.2661  -1.2580  -1.2476  -1.2441  -1.2410  -1.2303  -1.2175  -1.2002
    -1.1867  -1.1519  -1.1202  -1.0712  -1.0436  -1.0304  -1.0197  -0.9897
    -0.9670  -0.9502  -0.9160  -0.9075  -0.8888  -0.8381  -0.8302  -0.7886
    -0.7657  -0.7313  -0.7138  -0.6933  -0.6806  -0.6622  -0.6325  -0.6003
    -0.5724  -0.5181  -0.5076  -0.4914  -0.4876  -0.4781  -0.4731  -0.4660
    -0.4569  -0.4363  -0.3955  -0.3426  -0.3352  -0.3265  -0.3172  -0.3115
    -0.3034  -0.2736  -0.2707  -0.2641  -0.2537  -0.2440  -0.1614  -0.1434
    -0.1388  -0.1362  -0.1087  -0.0886  -0.0436  -0.0365  -0.0066   0.0127
     0.0290   0.0759   0.0775   0.1002   0.1014   0.1039   0.1248   0.1396
     0.2089   0.2211   0.2665   0.9214   1.0792   1.2055   1.3321   1.3583
     1.5649   1.6984

          k = 0.4000-0.6928 0.0000 ( 51262 PWs)   bands (ev):

   -21.6625 -10.5258  -6.9506  -6.4713  -6.4246  -5.9933  -5.7552  -5.3185
    -5.1794  -5.0274  -4.5790  -4.2585  -4.0219  -3.9810  -3.8856  -3.8455
    -3.8367  -3.8250  -3.8134  -3.7928  -3.7356  -3.7296  -3.7268  -3.7194
    -3.6444  -3.6308  -3.5791  -3.5735  -3.5486  -3.5451  -3.4300  -3.4078
    -3.3932  -3.3871  -3.3623  -3.3286  -3.2432  -3.2231  -3.1287  -3.0986
    -3.0956  -3.0347  -3.0126  -2.9960  -2.9654  -2.9022  -2.8849  -2.8759
    -2.8197  -2.8073  -2.7436  -2.7042  -2.6737  -2.6628  -2.6212  -2.5997
    -2.5413  -2.5186  -2.5072  -2.4965  -2.4936  -2.4638  -2.4492  -2.3780
    -2.3283  -2.3006  -2.2947  -2.2842  -2.2494  -2.2222  -2.1913  -2.1650
    -2.1420  -2.1169  -2.1087  -2.1018  -2.0881  -2.0725  -2.0400  -2.0266
    -2.0159  -2.0070  -2.0009  -1.9690  -1.9666  -1.9300  -1.8928  -1.8780
    -1.8687  -1.8573  -1.7937  -1.7888  -1.7528  -1.7272  -1.7109  -1.7020
    -1.6828  -1.6789  -1.6707  -1.6618  -1.6545  -1.6239  -1.6164  -1.5931
    -1.5390  -1.5301  -1.5233  -1.5165  -1.4991  -1.4961  -1.4925  -1.4803
    -1.4747  -1.4641  -1.4459  -1.4289  -1.4092  -1.3758  -1.3611  -1.3427
    -1.2859  -1.2779  -1.2328  -1.2205  -1.2133  -1.2045  -1.1924  -1.1424
    -1.1210  -1.1125  -1.1045  -1.0467  -1.0022  -0.9795  -0.9640  -0.9502
    -0.9307  -0.9206  -0.9069  -0.8957  -0.8626  -0.8497  -0.8147  -0.8021
    -0.7815  -0.7617  -0.7442  -0.7362  -0.7174  -0.6868  -0.6576  -0.6468
    -0.6367  -0.6285  -0.6127  -0.5966  -0.5672  -0.5477  -0.5269  -0.4650
    -0.3606  -0.3480  -0.3431  -0.3373  -0.3314  -0.3209  -0.3144  -0.2988
    -0.2672  -0.2596  -0.2507  -0.2405  -0.2168  -0.1878  -0.1230  -0.1195
    -0.1082  -0.0896  -0.0744  -0.0646  -0.0303  -0.0151  -0.0097  -0.0015
     0.0014   0.0784   0.0825   0.0878   0.1038   0.1094   0.1308   0.1582
     0.1960   0.4794   0.5351   0.8160   1.2114   1.3856   1.4795   1.7292
     1.8331   1.8936

          k = 0.4000-0.4619 0.0000 ( 51262 PWs)   bands (ev):

   -21.6625 -10.5256  -6.9473  -6.4733  -6.4328  -5.9858  -5.7565  -5.3605
    -5.1321  -5.0178  -4.5927  -4.2594  -4.0208  -3.9803  -3.8805  -3.8443
    -3.8379  -3.8240  -3.8156  -3.7890  -3.7378  -3.7287  -3.7263  -3.7208
    -3.6444  -3.6285  -3.5793  -3.5743  -3.5490  -3.5457  -3.4334  -3.4132
    -3.3929  -3.3877  -3.3655  -3.3296  -3.2388  -3.2272  -3.1274  -3.1041
    -3.0969  -3.0341  -3.0110  -2.9977  -2.9682  -2.8948  -2.8826  -2.8767
    -2.8092  -2.8039  -2.7458  -2.7002  -2.6765  -2.6582  -2.6165  -2.6032
    -2.5437  -2.5171  -2.5068  -2.4967  -2.4922  -2.4555  -2.4456  -2.3871
    -2.3289  -2.3047  -2.2934  -2.2816  -2.2595  -2.2199  -2.1939  -2.1610
    -2.1386  -2.1171  -2.1065  -2.1016  -2.0863  -2.0692  -2.0383  -2.0274
    -2.0211  -2.0090  -1.9948  -1.9686  -1.9651  -1.9406  -1.8960  -1.8821
    -1.8668  -1.8426  -1.8029  -1.7903  -1.7462  -1.7335  -1.7198  -1.6998
    -1.6905  -1.6762  -1.6709  -1.6661  -1.6576  -1.6413  -1.6128  -1.6021
    -1.5441  -1.5289  -1.5235  -1.5173  -1.5061  -1.4952  -1.4916  -1.4826
    -1.4724  -1.4663  -1.4506  -1.4219  -1.4058  -1.3679  -1.3622  -1.3363
    -1.2818  -1.2673  -1.2378  -1.2174  -1.2147  -1.2005  -1.1887  -1.1454
    -1.1164  -1.1119  -1.0989  -1.0434  -1.0128  -0.9793  -0.9600  -0.9424
    -0.9409  -0.9234  -0.9092  -0.8924  -0.8649  -0.8519  -0.8232  -0.7988
    -0.7733  -0.7619  -0.7465  -0.7346  -0.7138  -0.6920  -0.6626  -0.6505
    -0.6346  -0.6214  -0.6125  -0.6007  -0.5701  -0.5505  -0.5208  -0.4585
    -0.3575  -0.3494  -0.3445  -0.3380  -0.3287  -0.3207  -0.3136  -0.3051
    -0.2642  -0.2613  -0.2492  -0.2397  -0.2151  -0.1913  -0.1233  -0.1191
    -0.1083  -0.0911  -0.0739  -0.0675  -0.0266  -0.0134  -0.0108  -0.0032
     0.0051   0.0745   0.0816   0.0902   0.1033   0.1076   0.1333   0.1607
     0.2006   0.4737   0.5368   0.8000   1.2511   1.3836   1.4858   1.7117
     1.8462   1.9086

 ------ SPIN DOWN ----------


          k = 0.0000 0.0000 0.0000 ( 51087 PWs)   bands (ev):

   -21.6578 -10.5485  -7.6429  -6.8380  -6.3058  -5.6855  -5.2951  -4.4429
    -4.4171  -4.4129  -4.4114  -4.4045  -4.3910  -4.2906  -3.5458  -3.5401
    -3.5363  -3.5230  -3.5138  -3.5005  -3.3829  -2.5994  -2.5931  -2.5881
    -2.5831  -2.5722  -2.5207  -2.1753  -2.1321  -2.1281  -2.1226  -2.1175
    -2.1133  -1.9383  -1.9231  -1.8609  -1.8500  -1.8361  -1.8295  -1.8108
    -1.7380  -1.7347  -1.6879  -1.6842  -1.6348  -1.5903  -1.5844  -1.5747
    -1.5585  -1.4801  -1.3673  -1.3302  -1.3136  -1.3078  -1.2934  -1.2901
    -1.2859  -1.2851  -1.2730  -1.2392  -1.2290  -1.2107  -1.2088  -1.2034
    -1.1904  -1.0706  -0.7266  -0.6478  -0.6375  -0.6300  -0.6282  -0.4764
    -0.4371  -0.3442  -0.3156  -0.3066  -0.3032  -0.2980  -0.2881  -0.2764
    -0.2475  -0.2278  -0.2155  -0.2106  -0.2081  -0.2049  -0.1726  -0.1455
    -0.1229  -0.1185  -0.1059  -0.1046  -0.0747  -0.0554  -0.0496  -0.0490
    -0.0449  -0.0422  -0.0203  -0.0191  -0.0169  -0.0153   0.0504   0.0781
     0.1208   0.1412   0.1543   0.1651   0.1938   0.2037   0.2085   0.2106
     0.2129   0.2157   0.2178   0.2189   0.2891   0.2899   0.3504   0.3671
     0.3823   0.3951   0.3993   0.4047   0.5890   0.5991   0.6295   0.6523
     0.6792   0.6859   0.6964   0.6975   0.7443   0.9752   0.9918   1.0363
     1.0374   1.1686   1.2023   1.2182   1.2407   1.2550   1.2619   1.2648
     1.3649   1.4017   1.4211   1.4266   1.4337   1.4355   1.4486   1.4610
     1.4808   1.4890   1.5165   1.5216   1.5375   1.5559   1.5668   1.5800
     1.5859   1.5871   1.5895   1.6053   1.6423   1.6607   1.6674   1.6705
     1.6898   1.7031   1.7068   1.7116   1.7144   1.7182   1.7231   1.7594
     1.7602   1.7832   1.7882   1.7958   1.8048   1.8058   1.8134   1.8151
     1.8478   1.8524   1.8573   1.8591   1.8628   1.8642   1.8722   1.8747
     1.8854   1.8982   1.9375   1.9385   2.0850   2.0907   2.0933   2.0959
     2.0967   2.0979

          k = 0.0000 0.2309 0.0000 ( 51134 PWs)   bands (ev):

   -21.6578 -10.5476  -7.4969  -6.8188  -6.2215  -5.6977  -5.3763  -5.2510
    -4.7997  -4.7904  -4.2774  -4.1315  -3.8675  -3.8635  -3.7741  -3.7495
    -3.5710  -3.3224  -3.1923  -3.1847  -3.0793  -2.8055  -2.6097  -2.5942
    -2.5315  -2.4899  -2.4769  -2.2682  -2.1738  -2.1642  -2.1538  -2.1246
    -2.1149  -2.0740  -2.0665  -2.0452  -2.0315  -1.9195  -1.8839  -1.8296
    -1.8010  -1.7933  -1.6900  -1.6625  -1.6114  -1.6015  -1.5857  -1.4858
    -1.4626  -1.4262  -1.3937  -1.3704  -1.3433  -1.3244  -1.3043  -1.2954
    -1.2901  -1.2777  -1.2133  -1.1755  -1.1636  -1.1459  -1.1180  -1.1030
    -1.0353  -0.9684  -0.7870  -0.6970  -0.6829  -0.6735  -0.6297  -0.5738
    -0.5384  -0.5187  -0.4666  -0.4496  -0.3500  -0.3337  -0.3259  -0.3069
    -0.2850  -0.2746  -0.2639  -0.2485  -0.2427  -0.2292  -0.1909  -0.1533
    -0.1191  -0.1074  -0.0987  -0.0906  -0.0721  -0.0482  -0.0366  -0.0196
    -0.0136  -0.0084  -0.0002   0.0037   0.0065   0.0105   0.0348   0.0529
     0.0901   0.0960   0.1060   0.1072   0.1413   0.1539   0.1709   0.1751
     0.2139   0.2311   0.2442   0.2743   0.3129   0.3202   0.3250   0.3558
     0.4763   0.5046   0.5558   0.5674   0.5942   0.6064   0.6218   0.6461
     0.6562   0.6642   0.6703   0.6779   0.8546   0.9487   0.9915   1.0035
     1.0099   1.0228   1.0422   1.0501   1.1002   1.1271   1.1714   1.1941
     1.2113   1.2643   1.2831   1.3024   1.3313   1.3383   1.3714   1.3925
     1.4270   1.4526   1.4739   1.4915   1.5004   1.5172   1.5398   1.5469
     1.5687   1.5912   1.6295   1.6398   1.6560   1.6769   1.6858   1.7052
     1.7401   1.7475   1.7502   1.7552   1.7807   1.7817   1.8326   1.8411
     1.8442   1.8476   1.8882   1.8954   1.9042   1.9205   1.9384   1.9430
     1.9565   1.9840   1.9933   1.9974   2.0243   2.0292   2.0305   2.0570
     2.0624   2.0823   2.0851   2.1049   2.1740   2.1915   2.1948   2.2297
     2.2652   2.2838

          k = 0.0000 0.4619 0.0000 ( 51204 PWs)   bands (ev):

   -21.6578 -10.5462  -7.0913  -6.7799  -6.3226  -6.0068  -5.5491  -5.2361
    -5.0101  -5.0015  -4.8478  -3.9257  -3.9017  -3.8107  -3.3057  -3.2478
    -3.2441  -3.1276  -2.9849  -2.9201  -2.8019  -2.7945  -2.6498  -2.6434
    -2.5940  -2.5816  -2.5261  -2.5045  -2.4077  -2.3977  -2.3535  -2.3276
    -2.3224  -2.1287  -2.1081  -2.0336  -2.0274  -1.9507  -1.9123  -1.9073
    -1.8931  -1.8771  -1.6960  -1.6415  -1.5970  -1.5690  -1.5530  -1.5336
    -1.3927  -1.3756  -1.3558  -1.3548  -1.3412  -1.3131  -1.3076  -1.2958
    -1.2633  -1.1998  -1.1913  -1.1820  -1.1632  -1.1317  -1.0177  -0.9516
    -0.8815  -0.8316  -0.7790  -0.7329  -0.7056  -0.6739  -0.6495  -0.6332
    -0.6179  -0.6053  -0.5722  -0.5411  -0.5122  -0.4753  -0.4582  -0.4249
    -0.3967  -0.3749  -0.3525  -0.3419  -0.3305  -0.2967  -0.2343  -0.1976
    -0.1613  -0.1504  -0.1265  -0.0866  -0.0682  -0.0482  -0.0356   0.0014
     0.0148   0.0300   0.0410   0.0582   0.0623   0.0661   0.0726   0.1078
     0.1197   0.1507   0.1559   0.1620   0.1709   0.1739   0.1982   0.2099
     0.2239   0.2438   0.2788   0.3651   0.3713   0.3802   0.4116   0.4256
     0.4278   0.4485   0.4555   0.5194   0.5339   0.5442   0.5709   0.5806
     0.6020   0.6246   0.6399   0.6434   0.6821   0.7621   0.8267   0.8392
     0.8649   0.9128   0.9541   1.0436   1.0721   1.0778   1.1030   1.1155
     1.1227   1.1615   1.1864   1.2081   1.2166   1.2780   1.3144   1.3969
     1.4077   1.4332   1.4577   1.4857   1.5036   1.5171   1.5436   1.5569
     1.5917   1.6041   1.6333   1.6790   1.7064   1.7202   1.7257   1.7566
     1.7647   1.7738   1.8020   1.8244   1.8375   1.8471   1.8509   1.8853
     1.8955   1.9349   1.9568   1.9855   2.0040   2.0240   2.0299   2.0433
     2.0502   2.0705   2.0833   2.0869   2.0935   2.1188   2.1239   2.1284
     2.1307   2.1739   2.2728   2.3396   2.3520   2.4584   2.5316   2.7829
     2.8484   2.8875

          k = 0.2000-0.1155 0.0000 ( 51134 PWs)   bands (ev):

   -21.6578 -10.5480  -7.4964  -6.8193  -6.2159  -5.6803  -5.3932  -5.2631
    -4.7950  -4.7816  -4.2775  -4.1648  -3.8685  -3.8614  -3.7724  -3.7209
    -3.5755  -3.3242  -3.1932  -3.1697  -3.0909  -2.8250  -2.6060  -2.5774
    -2.5411  -2.4913  -2.4690  -2.2574  -2.1755  -2.1637  -2.1573  -2.1419
    -2.1170  -2.0723  -2.0664  -2.0472  -2.0284  -1.9126  -1.8841  -1.8446
    -1.8002  -1.7881  -1.7388  -1.6337  -1.6075  -1.5999  -1.5626  -1.5060
    -1.4551  -1.4227  -1.3867  -1.3650  -1.3420  -1.3228  -1.3036  -1.2973
    -1.2895  -1.2496  -1.2205  -1.1782  -1.1611  -1.1452  -1.1243  -1.1027
    -1.0402  -0.9645  -0.7845  -0.6946  -0.6846  -0.6705  -0.6396  -0.5758
    -0.5431  -0.5145  -0.4637  -0.4493  -0.3572  -0.3318  -0.3189  -0.3081
    -0.2828  -0.2746  -0.2650  -0.2501  -0.2336  -0.2282  -0.1912  -0.1562
    -0.1283  -0.1046  -0.0987  -0.0863  -0.0737  -0.0470  -0.0359  -0.0192
    -0.0158  -0.0074   0.0015   0.0034   0.0098   0.0111   0.0284   0.0543
     0.0890   0.0956   0.1063   0.1096   0.1385   0.1529   0.1624   0.1784
     0.2187   0.2292   0.2612   0.2790   0.3069   0.3229   0.3261   0.3566
     0.4841   0.4906   0.5500   0.5648   0.5781   0.6169   0.6225   0.6314
     0.6503   0.6671   0.6752   0.6768   0.8543   0.9519   0.9788   1.0030
[...]
     atom    8 type  1   force =     0.00131710    0.00037107   -0.10190676
     atom    9 type  1   force =     0.00162598   -0.00105800   -0.10550731
     atom   10 type  1   force =    -0.00079912    0.00015603   -0.00863150
     atom   11 type  1   force =     0.00182511    0.00046634   -0.01030626
     atom   12 type  1   force =    -0.00103789   -0.00003378   -0.00966465
     atom   13 type  1   force =     0.00007305   -0.00134915   -0.01011361
     atom   14 type  1   force =    -0.00006503   -0.00006495   -0.00997457
     atom   15 type  1   force =     0.00044370    0.00039303   -0.01199894
     atom   16 type  1   force =     0.00198220    0.00059899   -0.01141946
     atom   17 type  1   force =    -0.00093787   -0.00147017   -0.01057592
     atom   18 type  1   force =    -0.00133077    0.00122246   -0.00944927
     atom   19 type  1   force =     0.00219673    0.00682058    0.00545434
     atom   20 type  1   force =    -0.00331881    0.00522262    0.01006914
     atom   21 type  1   force =     0.00074435   -0.00120303    0.01763747
     atom   22 type  1   force =     0.00057036    0.00002716    0.01874403
     atom   23 type  1   force =    -0.00073126   -0.00066501    0.01246600
     atom   24 type  1   force =     0.00120658    0.00148123    0.01673330
     atom   25 type  1   force =    -0.00638953   -0.00218800    0.00439031
     atom   26 type  1   force =     0.00133666   -0.00605316    0.00312952
     atom   27 type  1   force =     0.00412230   -0.00368417    0.00759319
     atom   28 type  1   force =     0.04815876   -0.02161229    0.17110272
     atom   29 type  1   force =     0.01259432    0.00024460    0.16310727
     atom   30 type  1   force =    -0.00273670   -0.00074966    0.12595518
     atom   31 type  1   force =    -0.00480458   -0.02450819    0.12954096
     atom   32 type  1   force =    -0.00150908   -0.00461344    0.11159509
     atom   33 type  1   force =     0.00226019   -0.00285241    0.10800365
     atom   34 type  1   force =     0.01094674    0.01411156    0.12691372
     atom   35 type  1   force =    -0.01868198    0.04581765    0.15284695
     atom   36 type  1   force =    -0.00568778    0.00325352    0.11331233
     atom   37 type  2   force =    -0.23985318   -0.03847437    0.21368515
     atom   38 type  3   force =     2.03775175    0.34645143   -1.62151987
     atom   39 type  4   force =    -0.05893713   -0.01153193   -0.03524409
     The ionic contribution  to forces
     atom    1 type  1   force =    -0.00519848    0.00850945 -111.16817955
     atom    2 type  1   force =     0.00567048    0.00763559 -111.16723817
     atom    3 type  1   force =    -0.00047198    0.00219608 -111.15690487
     atom    4 type  1   force =    -0.00052071    0.00161939 -111.15640799
     atom    5 type  1   force =    -0.00208118   -0.00640174 -111.16155633
     atom    6 type  1   force =     0.00260189   -0.00555162 -111.16051518
     atom    7 type  1   force =    -0.00827787   -0.00204759 -111.16586862
     atom    8 type  1   force =     0.00099666   -0.00388166 -111.18050325
     atom    9 type  1   force =     0.00728117   -0.00207791 -111.16387476
     atom   10 type  1   force =    -0.05400376    0.01463859  -40.21920948
     atom   11 type  1   force =     0.06059317    0.01189377  -40.20607638
     atom   12 type  1   force =    -0.00658312    0.00576685  -40.09924927
     atom   13 type  1   force =     0.00103167    0.06564245  -40.13071657
     atom   14 type  1   force =     0.02083582    0.01036548  -40.08672914
     atom   15 type  1   force =    -0.02186925    0.01726002  -40.08878997
     atom   16 type  1   force =    -0.03620479   -0.02880763  -40.10360402
     atom   17 type  1   force =     0.00557058   -0.07246988  -40.16536167
     atom   18 type  1   force =     0.03063212   -0.02428749  -40.09254077
     atom   19 type  1   force =    -0.26069786    0.43412171   31.17857379
     atom   20 type  1   force =     0.28433305    0.39239012   31.22227260
     atom   21 type  1   force =    -0.02312365    0.09682262   31.69131978
     atom   22 type  1   force =    -0.02453065    0.06798724   31.71426671
     atom   23 type  1   force =    -0.09966139   -0.30790881   31.49808854
     atom   24 type  1   force =     0.12423869   -0.26284873   31.54861527
     atom   25 type  1   force =    -0.41366531   -0.09779928   31.28421593
     atom   26 type  1   force =     0.05096140   -0.22483351   30.47605996
     atom   27 type  1   force =     0.36157726   -0.10027300   31.38844293
     atom   28 type  1   force =    -3.76306538    1.15204146   97.80005514
     atom   29 type  1   force =     4.38601469    0.86123880   98.40506638
     atom   30 type  1   force =    -0.31500748    0.17615037  103.98312698
     atom   31 type  1   force =     0.05310285    2.70773813  103.14626338
     atom   32 type  1   force =     0.63205987    0.39006707  104.28991390
     atom   33 type  1   force =    -0.69264650    0.66847138  104.20103888
     atom   34 type  1   force =    -1.31877452   -1.15930256  103.72278726
     atom   35 type  1   force =     0.31833391   -3.68326785  101.74695913
     atom   36 type  1   force =     0.99697415   -0.84762286  104.16409256
     atom   37 type  2   force =     5.21079192    0.66162197   54.52181603
     atom   38 type  3   force =    -7.67237047   -1.33483891   88.64766143
     atom   39 type  4   force =     2.16515298    0.41004249   15.04268942
     The local contribution  to forces
     atom    1 type  1   force =     0.00315501   -0.00928787  111.27435496
     atom    2 type  1   force =    -0.00481918   -0.00888975  111.27509522
     atom    3 type  1   force =     0.00155759   -0.00062089  111.26154339
     atom    4 type  1   force =     0.00081566   -0.00205525  111.26420861
     atom    5 type  1   force =     0.00251102    0.00794719  111.27061635
     atom    6 type  1   force =    -0.00437206    0.00362401  111.26979885
     atom    7 type  1   force =     0.01146822    0.00207159  111.27154431
     atom    8 type  1   force =    -0.00219637    0.00396034  111.28505120
     atom    9 type  1   force =    -0.00958994    0.00405408  111.27268179
     atom   10 type  1   force =     0.05478700   -0.01545811   40.20725154
     atom   11 type  1   force =    -0.06171602   -0.01234095   40.19386356
     atom   12 type  1   force =     0.00753215   -0.00630915   40.08956850
     atom   13 type  1   force =    -0.00101156   -0.06449278   40.12273038
     atom   14 type  1   force =    -0.02097913   -0.01054293   40.07702547
     atom   15 type  1   force =     0.02145388   -0.01792968   40.07983818
     atom   16 type  1   force =     0.03421922    0.02893517   40.09348520
     atom   17 type  1   force =    -0.00567400    0.07494455   40.15649280
     atom   18 type  1   force =    -0.02859308    0.02380426   40.08249970
     atom   19 type  1   force =     0.25749433   -0.44140631  -31.16367102
     atom   20 type  1   force =    -0.28089190   -0.39445814  -31.21251723
     atom   21 type  1   force =     0.02299760   -0.09467440  -31.68682838
     atom   22 type  1   force =     0.02338185   -0.06843643  -31.70709806
     atom   23 type  1   force =     0.10087436    0.30730767  -31.48798238
     atom   24 type  1   force =    -0.12550699    0.26005269  -31.54266080
     atom   25 type  1   force =     0.42040752    0.10237033  -31.26554195
     atom   26 type  1   force =    -0.05418704    0.23027074  -30.46045233
     atom   27 type  1   force =    -0.36192068    0.10217195  -31.37776735
     atom   28 type  1   force =     3.69348179   -1.12527780  -97.97865880
     atom   29 type  1   force =    -4.38506141   -0.85949789  -98.56588656
     atom   30 type  1   force =     0.31882106   -0.17405357 -104.12349798
     atom   31 type  1   force =    -0.04833435   -2.66863326 -103.28660122
     atom   32 type  1   force =    -0.62561022   -0.37988860 -104.41325339
     atom   33 type  1   force =     0.68605656   -0.66215045 -104.31956337
     atom   34 type  1   force =     1.30218310    1.13938474 -103.85925607
     atom   35 type  1   force =    -0.29668916    3.62084869 -101.90982194
     atom   36 type  1   force =    -0.98483917    0.83619935 -104.28711021
     atom   37 type  2   force =    -4.97206009   -0.62313648  -54.73223302
     atom   38 type  3   force =     5.64911440    0.99049428  -87.04034109
     atom   39 type  4   force =    -2.10478410   -0.39831979  -15.00835744
     The core correction contribution to forces
     atom    1 type  1   force =    -0.00014680   -0.00009631    0.01014137
     atom    2 type  1   force =     0.00002633   -0.00012284    0.01022699
     atom    3 type  1   force =     0.00006795    0.00007094    0.00976001
     atom    4 type  1   force =    -0.00009514   -0.00010598    0.01038321
     atom    5 type  1   force =     0.00017122    0.00016986    0.01013787
     atom    6 type  1   force =    -0.00022669   -0.00015479    0.01002152
     atom    7 type  1   force =     0.00041703    0.00010077    0.01037217
     atom    8 type  1   force =    -0.00036989    0.00001519    0.01012456
     atom    9 type  1   force =    -0.00016886    0.00018493    0.01018093
     atom   10 type  1   force =    -0.00002966    0.00000842   -0.00154929
     atom   11 type  1   force =     0.00001731    0.00011931   -0.00210675
     atom   12 type  1   force =     0.00010430    0.00005338   -0.00168351
     atom   13 type  1   force =     0.00011704    0.00023678   -0.00197881
     atom   14 type  1   force =     0.00006814   -0.00003019   -0.00152841
     atom   15 type  1   force =    -0.00014439   -0.00011261   -0.00181135
     atom   16 type  1   force =    -0.00015570   -0.00010767   -0.00203487
     atom   17 type  1   force =     0.00000817    0.00014575   -0.00162796
     atom   18 type  1   force =     0.00027159   -0.00004764   -0.00188647
     atom   19 type  1   force =    -0.00036905   -0.00017509    0.00095770
     atom   20 type  1   force =    -0.00003783   -0.00009632    0.00107021
     atom   21 type  1   force =     0.00011720   -0.00005171    0.00192117
     atom   22 type  1   force =     0.00021122    0.00022127    0.00218066
     atom   23 type  1   force =    -0.00042713   -0.00033054    0.00161872
     atom   24 type  1   force =    -0.00026543   -0.00029210    0.00179757
     atom   25 type  1   force =    -0.00050774   -0.00002965    0.00129092
     atom   26 type  1   force =     0.00011936    0.00058432    0.00200936
     atom   27 type  1   force =    -0.00000182   -0.00004376    0.00118937
     atom   28 type  1   force =     0.01394398   -0.00311806    0.00521698
     atom   29 type  1   force =    -0.01221080   -0.00228110    0.01163290
     atom   30 type  1   force =    -0.00076150   -0.00022025   -0.00883055
     atom   31 type  1   force =     0.00157865   -0.00526229   -0.00819635
     atom   32 type  1   force =    -0.00121931   -0.00173025   -0.00963075
     atom   33 type  1   force =    -0.00000611   -0.00034566   -0.01029040
     atom   34 type  1   force =     0.00030174    0.00065945   -0.00905250
     atom   35 type  1   force =     0.00162200    0.00745746   -0.00580906
     atom   36 type  1   force =    -0.00179526    0.00262981   -0.00902628
     atom   37 type  2   force =     0.00123048   -0.00019094   -0.00142831
     atom   38 type  3   force =    -0.01633143   -0.00286575    0.01373349
     atom   39 type  4   force =     0.00000000    0.00000000    0.00000000
     The Hubbard contrib.    to forces
     atom    1 type  1   force =     0.00000000    0.00000000    0.00000000
     atom    2 type  1   force =     0.00000000    0.00000000    0.00000000
     atom    3 type  1   force =     0.00000000    0.00000000    0.00000000
     atom    4 type  1   force =     0.00000000    0.00000000    0.00000000
     atom    5 type  1   force =     0.00000000    0.00000000    0.00000000
     atom    6 type  1   force =     0.00000000    0.00000000    0.00000000
     atom    7 type  1   force =     0.00000000    0.00000000    0.00000000
     atom    8 type  1   force =     0.00000000    0.00000000    0.00000000
     atom    9 type  1   force =     0.00000000    0.00000000    0.00000000
     atom   10 type  1   force =     0.00000000    0.00000000    0.00000000
     atom   11 type  1   force =     0.00000000    0.00000000    0.00000000
     atom   12 type  1   force =     0.00000000    0.00000000    0.00000000
     atom   13 type  1   force =     0.00000000    0.00000000    0.00000000
     atom   14 type  1   force =     0.00000000    0.00000000    0.00000000
     atom   15 type  1   force =     0.00000000    0.00000000    0.00000000
     atom   16 type  1   force =     0.00000000    0.00000000    0.00000000
     atom   17 type  1   force =     0.00000000    0.00000000    0.00000000
     atom   18 type  1   force =     0.00000000    0.00000000    0.00000000
     atom   19 type  1   force =     0.00000000    0.00000000    0.00000000
     atom   20 type  1   force =     0.00000000    0.00000000    0.00000000
     atom   21 type  1   force =     0.00000000    0.00000000    0.00000000
     atom   22 type  1   force =     0.00000000    0.00000000    0.00000000
     atom   23 type  1   force =     0.00000000    0.00000000    0.00000000
     atom   24 type  1   force =     0.00000000    0.00000000    0.00000000
     atom   25 type  1   force =     0.00000000    0.00000000    0.00000000
     atom   26 type  1   force =     0.00000000    0.00000000    0.00000000
     atom   27 type  1   force =     0.00000000    0.00000000    0.00000000
     atom   28 type  1   force =     0.00000000    0.00000000    0.00000000
     atom   29 type  1   force =     0.00000000    0.00000000    0.00000000
     atom   30 type  1   force =     0.00000000    0.00000000    0.00000000
     atom   31 type  1   force =     0.00000000    0.00000000    0.00000000
     atom   32 type  1   force =     0.00000000    0.00000000    0.00000000
     atom   33 type  1   force =     0.00000000    0.00000000    0.00000000
     atom   34 type  1   force =     0.00000000    0.00000000    0.00000000
     atom   35 type  1   force =     0.00000000    0.00000000    0.00000000
     atom   36 type  1   force =     0.00000000    0.00000000    0.00000000
     atom   37 type  2   force =     0.00000000    0.00000000    0.00000000
     atom   38 type  3   force =     0.00000000    0.00000000    0.00000000
     atom   39 type  4   force =     0.00000000    0.00000000    0.00000000
     The SCF correction term to forces
     atom    1 type  1   force =    -0.00000000   -0.00000000   -0.00000000
     atom    2 type  1   force =     0.00000000   -0.00000000   -0.00000000
     atom    3 type  1   force =     0.00000000   -0.00000000   -0.00000000
     atom    4 type  1   force =    -0.00000000    0.00000000   -0.00000000
     atom    5 type  1   force =     0.00000000    0.00000000   -0.00000000
     atom    6 type  1   force =     0.00000000   -0.00000000   -0.00000000
     atom    7 type  1   force =    -0.00000000    0.00000000   -0.00000000
     atom    8 type  1   force =     0.00000000    0.00000000   -0.00000000
     atom    9 type  1   force =     0.00000000   -0.00000000   -0.00000000
     atom   10 type  1   force =    -0.00000000    0.00000000   -0.00000000
     atom   11 type  1   force =     0.00000000   -0.00000000   -0.00000000
     atom   12 type  1   force =    -0.00000000   -0.00000000   -0.00000000
     atom   13 type  1   force =    -0.00000000    0.00000000    0.00000000
     atom   14 type  1   force =     0.00000000    0.00000000    0.00000000
     atom   15 type  1   force =    -0.00000000   -0.00000000   -0.00000000
     atom   16 type  1   force =    -0.00000000   -0.00000000    0.00000000
     atom   17 type  1   force =     0.00000000   -0.00000000   -0.00000000
     atom   18 type  1   force =     0.00000000    0.00000000   -0.00000000
     atom   19 type  1   force =    -0.00000000    0.00000000    0.00000000
     atom   20 type  1   force =     0.00000000    0.00000000    0.00000000
     atom   21 type  1   force =     0.00000000    0.00000000    0.00000000
     atom   22 type  1   force =    -0.00000000   -0.00000000    0.00000000
     atom   23 type  1   force =    -0.00000000   -0.00000000    0.00000000
     atom   24 type  1   force =     0.00000000   -0.00000000    0.00000000
     atom   25 type  1   force =     0.00000000   -0.00000000    0.00000000
     atom   26 type  1   force =     0.00000000    0.00000000    0.00000000
     atom   27 type  1   force =    -0.00000000   -0.00000000    0.00000000
     atom   28 type  1   force =     0.00000000   -0.00000000    0.00000000
     atom   29 type  1   force =    -0.00000000   -0.00000000    0.00000000
     atom   30 type  1   force =     0.00000000    0.00000000    0.00000000
     atom   31 type  1   force =     0.00000000   -0.00000000    0.00000000
     atom   32 type  1   force =    -0.00000000    0.00000000    0.00000000
     atom   33 type  1   force =     0.00000000    0.00000000    0.00000000
     atom   34 type  1   force =     0.00000000   -0.00000000    0.00000000
     atom   35 type  1   force =    -0.00000000    0.00000000    0.00000000
     atom   36 type  1   force =    -0.00000000   -0.00000000    0.00000000
     atom   37 type  2   force =    -0.00000119   -0.00000011    0.00001338
     atom   38 type  3   force =     0.00000028   -0.00000060    0.00003196
     atom   39 type  4   force =    -0.00000084    0.00000007    0.00000491

     Total force =     0.003239     Total SCF correction =     0.000035

     Writing all to output data dir ./pwscf.save/

     init_run     :     11.39s CPU     11.85s WALL (       1 calls)
     electrons    :   1056.37s CPU   1079.82s WALL (       1 calls)
     forces       :      3.47s CPU      3.52s WALL (       1 calls)

     Called by init_run:
     wfcinit      :      8.35s CPU      8.69s WALL (       1 calls)
     potinit      :      1.96s CPU      2.05s WALL (       1 calls)
     hinit0       :      0.83s CPU      0.84s WALL (       1 calls)

     Called by electrons:
     c_bands      :    882.84s CPU    900.12s WALL (      64 calls)
     sum_band     :    116.06s CPU    120.58s WALL (      64 calls)
     v_of_rho     :      9.37s CPU      9.53s WALL (      65 calls)
     newd         :      3.44s CPU      3.50s WALL (      65 calls)
     PAW_pot      :     16.20s CPU     16.36s WALL (      65 calls)
     mix_rho      :     29.76s CPU     30.70s WALL (      64 calls)
     vdW_kernel   :      1.07s CPU      1.07s WALL (       1 calls)

     Called by c_bands:
     init_us_2    :     11.26s CPU     11.48s WALL (    3380 calls)
     init_us_2:cp :     11.24s CPU     11.47s WALL (    3380 calls)
     cegterg      :    850.20s CPU    866.15s WALL (    1664 calls)

     Called by *egterg:
     cdiaghg      :    237.44s CPU    240.35s WALL (    5007 calls)
     h_psi        :    408.18s CPU    417.82s WALL (    5033 calls)
     s_psi        :     45.13s CPU     46.21s WALL (    5033 calls)
     g_psi        :      1.19s CPU      1.41s WALL (    3343 calls)

     Called by h_psi:
     h_psi:calbec :     66.29s CPU     67.56s WALL (    5033 calls)
     vloc_psi     :    292.47s CPU    299.66s WALL (    5033 calls)
     add_vuspsi   :     46.42s CPU     47.56s WALL (    5033 calls)

     General routines
     calbec       :     96.59s CPU     98.23s WALL (    6801 calls)
     fft          :      8.10s CPU      8.23s WALL (    5862 calls)
     ffts         :     17.10s CPU     17.93s WALL (   30101 calls)
     fftw         :    337.41s CPU    345.16s WALL ( 1716350 calls)
     interpolate  :      0.38s CPU      0.39s WALL (     130 calls)

     Parallel routines

     PWSCF        :  17m59.34s CPU  18m29.85s WALL


   This run was terminated on:  10:30:38  14Dec2025            

=------------------------------------------------------------------------------=
   JOB DONE.
=------------------------------------------------------------------------------=
