
     Program PWSCF v.7.1 starts on  9Dec2025 at 15:24:58 
        Git branch: heads/qe-7.1
        Last git commit: 48ba0178f8fede6d020eb786884699a9f063f55d-dirty
        Last git commit date: Fri Jan 27 14:22:33 2023 +0000
        Last git commit subject: Merge branch 'fix_hubbard' into 'develop'

     This program is part of the open-source Quantum ESPRESSO suite
     for quantum simulation of materials; please cite
         "P. Giannozzi et al., J. Phys.:Condens. Matter 21 395502 (2009);
         "P. Giannozzi et al., J. Phys.:Condens. Matter 29 465901 (2017);
         "P. Giannozzi et al., J. Chem. Phys. 152 154105 (2020);
          URL http://www.quantum-espresso.org", 
     in publications or presentations arising from this work. More details at
     http://www.quantum-espresso.org/quote

     Parallel version (MPI), running on    96 processors

     MPI processes distributed on     2 nodes
     71413 MiB available memory on the printing compute node when the environment starts

     Reading input from espresso.pwi
Warning: card &CELL ignored
Warning: card / ignored
Warning: card &FCP ignored
Warning: card / ignored
Warning: card &RISM ignored
Warning: card / ignored

     Current dimensions of program PWSCF are:
     Max number of different atomic species (ntypx) = 10
     Max number of k-points (npk) =  40000
     Max angular momentum in pseudopotentials (lmaxx) =  4
     file Co.pbe-n-kjpaw_psl.1.0.0.UPF: wavefunction(s)  4S 3D renormalized
     file C.pbe-n-kjpaw_psl.1.0.0.UPF: wavefunction(s)  2S 2P renormalized
     file O.pbe-nl-kjpaw_psl.1.0.0.UPF: wavefunction(s)  2S 2P renormalized
     file H.pbe-kjpaw_psl.1.0.0.UPF: wavefunction(s)  1S renormalized

     **************************************************************************
     Initializing libbeef V0.1.2 with the BEEF-vdW functional.
     Citation: Wellendorff et al., PRB 85, 235149 (2012).
     **************************************************************************


     IMPORTANT: XC functional enforced from input :
     Exchange-correlation= BEEF-VDW
                           (   1   4  43  14   2   0   0)
     Any further DFT definition will be discarded
     Please, verify this is what you really want


     R & G space division:  proc/nbgrp/npool/nimage =      96
     Subspace diagonalization in iterative solution of the eigenvalue problem:
     one sub-group per band group will be used
     custom distributed-memory algorithm (size of sub-group:  2*  2 procs)


     Parallelization info
     --------------------
     sticks:   dense  smooth     PW     G-vecs:    dense   smooth      PW
     Min          43      28      7                 7829     4248     595
     Max          44      29      8                 7845     4281     630
     Sum        4153    2773    757               752179   409445   59217

     Using Slab Decomposition



     bravais-lattice index     =            0
     lattice parameter (alat)  =      14.1729  a.u.
     unit-cell volume          =    8574.3059 (a.u.)^3
     number of atoms/cell      =           39
     number of atomic types    =            4
     number of electrons       =       335.00
     number of Kohn-Sham states=          202
     kinetic-energy cutoff     =      50.0000  Ry
     charge density cutoff     =     300.0000  Ry
     scf convergence threshold =      1.0E-08
     mixing beta               =       0.7000
     number of iterations used =            8  local-TF  mixing
     Exchange-correlation= BEEF-VDW
                           (   1   4  43  14   2   0   0)

     celldm(1)=  14.172946  celldm(2)=   0.000000  celldm(3)=   0.000000
     celldm(4)=   0.000000  celldm(5)=   0.000000  celldm(6)=   0.000000

     crystal axes: (cart. coord. in units of alat)
               a(1) = (   1.000000   0.000000   0.000000 )  
               a(2) = (   0.500000   0.866025   0.000000 )  
               a(3) = (   0.000000   0.000000   3.477667 )  

     reciprocal axes: (cart. coord. in units 2 pi/alat)
               b(1) = (  1.000000 -0.577350  0.000000 )  
               b(2) = (  0.000000  1.154701  0.000000 )  
               b(3) = (  0.000000  0.000000  0.287549 )  


     PseudoPot. # 1 for Co read from file:
     /users/kbadger1/espresso/pseudo/pslibrary.1.0.0/pbe/PSEUDOPOTENTIALS/Co.pbe-n-kjpaw_psl.1.0.0.UPF
     MD5 check sum: 88af6ec42553d4236c267fdfcb472151
     Pseudo is Projector augmented-wave + core cor, Zval =  9.0
     Generated using 'atomic' code by A. Dal Corso  v.7.0
     Shape of augmentation charge: PSQ
     Using radial grid of 1193 points,  6 beta functions with: 
                l(1) =   0
                l(2) =   0
                l(3) =   1
                l(4) =   1
                l(5) =   2
                l(6) =   2
     Q(r) pseudized with 0 coefficients 


     PseudoPot. # 2 for C  read from file:
     /users/kbadger1/espresso/pseudo/pslibrary.1.0.0/pbe/PSEUDOPOTENTIALS/C.pbe-n-kjpaw_psl.1.0.0.UPF
     MD5 check sum: 6408e75cdba28732cea38a4db8498ce4
     Pseudo is Projector augmented-wave + core cor, Zval =  4.0
     Generated using 'atomic' code by A. Dal Corso  v.7.0
     Shape of augmentation charge: PSQ
     Using radial grid of 1073 points,  4 beta functions with: 
                l(1) =   0
                l(2) =   0
                l(3) =   1
                l(4) =   1
     Q(r) pseudized with 0 coefficients 


     PseudoPot. # 3 for O  read from file:
     /users/kbadger1/espresso/pseudo/pslibrary.1.0.0/pbe/PSEUDOPOTENTIALS/O.pbe-nl-kjpaw_psl.1.0.0.UPF
     MD5 check sum: f0439fab3598ca4e468f064226030408
     Pseudo is Projector augmented-wave + core cor, Zval =  6.0
     Generated using 'atomic' code by A. Dal Corso  v.7.0
     Shape of augmentation charge: PSQ
     Using radial grid of 1095 points,  4 beta functions with: 
                l(1) =   0
                l(2) =   0
                l(3) =   1
                l(4) =   1
     Q(r) pseudized with 0 coefficients 


     PseudoPot. # 4 for H  read from file:
     /users/kbadger1/espresso/pseudo/pslibrary.1.0.0/pbe/PSEUDOPOTENTIALS/H.pbe-kjpaw_psl.1.0.0.UPF
     MD5 check sum: fe4c6fa958fa6d3815bf5d2419cbf1df
     Pseudo is Projector augmented-wave, Zval =  1.0
     Generated using 'atomic' code by A. Dal Corso  v.7.0
     Shape of augmentation charge: PSQ
     Using radial grid of  929 points,  2 beta functions with: 
                l(1) =   0
                l(2) =   0
     Q(r) pseudized with 0 coefficients 


     atomic species   valence    mass     pseudopotential
        Co             9.00    58.93319     Co( 1.00)
        C              4.00    12.01100     C ( 1.00)
        O              6.00    15.99900     O ( 1.00)
        H              1.00     1.00800     H ( 1.00)

     Starting magnetic structure 
     atomic species   magnetization
        Co           1.000
        C            1.000
        O            0.000
        H            0.000

     No symmetry found



   Cartesian axes

     site n.     atom                  positions (alat units)
         1           Co  tau(   1) = (   0.0000000   0.1924501   1.3333333  )
         2           Co  tau(   2) = (   0.3333333   0.1924501   1.3333333  )
         3           Co  tau(   3) = (   0.6666667   0.1924501   1.3333333  )
         4           Co  tau(   4) = (   0.1666667   0.4811252   1.3333333  )
         5           Co  tau(   5) = (   0.5000000   0.4811252   1.3333333  )
         6           Co  tau(   6) = (   0.8333333   0.4811252   1.3333333  )
         7           Co  tau(   7) = (   0.3333333   0.7698004   1.3333333  )
         8           Co  tau(   8) = (   0.6666667   0.7698004   1.3333333  )
         9           Co  tau(   9) = (   1.0000000   0.7698004   1.3333333  )
        10           Co  tau(  10) = (   0.0000000   0.0000000   1.6036667  )
        11           Co  tau(  11) = (   0.3333333   0.0000000   1.6036667  )
        12           Co  tau(  12) = (   0.6666667   0.0000000   1.6036667  )
        13           Co  tau(  13) = (   0.1666667   0.2886751   1.6036667  )
        14           Co  tau(  14) = (   0.5000000   0.2886751   1.6036667  )
        15           Co  tau(  15) = (   0.8333333   0.2886751   1.6036667  )
        16           Co  tau(  16) = (   0.3333333   0.5773503   1.6036667  )
        17           Co  tau(  17) = (   0.6666667   0.5773503   1.6036667  )
        18           Co  tau(  18) = (   1.0000000   0.5773503   1.6036667  )
        19           Co  tau(  19) = (   0.0000000   0.1924501   1.8740000  )
        20           Co  tau(  20) = (   0.3333333   0.1924501   1.8740000  )
        21           Co  tau(  21) = (   0.6666667   0.1924501   1.8740000  )
        22           Co  tau(  22) = (   0.1666667   0.4811252   1.8740000  )
        23           Co  tau(  23) = (   0.5000000   0.4811252   1.8740000  )
        24           Co  tau(  24) = (   0.8333333   0.4811252   1.8740000  )
        25           Co  tau(  25) = (   0.3333333   0.7698004   1.8740000  )
        26           Co  tau(  26) = (   0.6666667   0.7698004   1.8740000  )
        27           Co  tau(  27) = (   1.0000000   0.7698004   1.8740000  )
        28           Co  tau(  28) = (   0.0000000   0.0000000   2.1443333  )
        29           Co  tau(  29) = (   0.3333333   0.0000000   2.1443333  )
        30           Co  tau(  30) = (   0.6666667   0.0000000   2.1443333  )
        31           Co  tau(  31) = (   0.1666667   0.2886751   2.1443333  )
        32           Co  tau(  32) = (   0.5000000   0.2886751   2.1443333  )
        33           Co  tau(  33) = (   0.8333333   0.2886751   2.1443333  )
        34           Co  tau(  34) = (   0.3333333   0.5773503   2.1443333  )
        35           Co  tau(  35) = (   0.6666667   0.5773503   2.1443333  )
        36           Co  tau(  36) = (   1.0000000   0.5773503   2.1443333  )
        37           C   tau(  37) = (   0.1858825   0.0113271   2.3468156  )
        38           O   tau(  38) = (   0.0902258   0.0213519   2.4774539  )
        39           H   tau(  39) = (   0.3461014  -0.0145477   2.3746680  )

     number of k points=    13  Marzari-Vanderbilt smearing, width (Ry)=  0.0010
                       cart. coord. in units 2pi/alat
        k(    1) = (   0.0000000   0.0000000   0.0000000), wk =   0.0400000
        k(    2) = (   0.0000000   0.2309401   0.0000000), wk =   0.0800000
        k(    3) = (   0.0000000   0.4618802   0.0000000), wk =   0.0800000
        k(    4) = (   0.2000000  -0.1154701   0.0000000), wk =   0.0800000
        k(    5) = (   0.2000000   0.1154701   0.0000000), wk =   0.0800000
        k(    6) = (   0.2000000   0.3464102   0.0000000), wk =   0.0800000
        k(    7) = (   0.2000000  -0.5773503   0.0000000), wk =   0.0800000
        k(    8) = (   0.2000000  -0.3464102   0.0000000), wk =   0.0800000
        k(    9) = (   0.4000000  -0.2309401   0.0000000), wk =   0.0800000
        k(   10) = (   0.4000000   0.0000000   0.0000000), wk =   0.0800000
        k(   11) = (   0.4000000   0.2309401   0.0000000), wk =   0.0800000
        k(   12) = (   0.4000000  -0.6928203   0.0000000), wk =   0.0800000
        k(   13) = (   0.4000000  -0.4618802   0.0000000), wk =   0.0800000

     Dense  grid:   752179 G-vectors     FFT dimensions: (  80,  80, 288)

     Smooth grid:   409445 G-vectors     FFT dimensions: (  64,  64, 225)

     Estimated max dynamical RAM per process >      99.02 MB

     Estimated total dynamical RAM >       9.28 GB
     Generating pointlists ...
     new r_m :   0.0953 (alat units)  1.3514 (a.u.) for type    1
     new r_m :   0.0669 (alat units)  0.9484 (a.u.) for type    2
     new r_m :   0.0669 (alat units)  0.9484 (a.u.) for type    3
     new r_m :   0.0679 (alat units)  0.9627 (a.u.) for type    4

     Initial potential from superposition of free atoms

     starting charge     334.9897, renormalised to     335.0000

     negative rho (up, down):  3.041E-03 4.672E-04


     %%%%%%%%%%%%%%%%%%%%%%%%%%%%%%%%%%%%%%%%%%%%%%%%%%%%%%%%%%%%%%%%%%%%%%%%
     %                                                                      %
     % You are using vdW-DF, which was implemented by the Thonhauser group. %
     % Please cite the following two papers that made this development      %
     % possible and the two reviews that describe the various versions:     %
     %                                                                      %
     %   T. Thonhauser et al., PRL 115, 136402 (2015).                      %
     %   T. Thonhauser et al., PRB 76, 125112 (2007).                       %
     %   K. Berland et al., Rep. Prog. Phys. 78, 066501 (2015).             %
     %   D.C. Langreth et al., J. Phys.: Condens. Matter 21, 084203 (2009). %
     %                                                                      %
     % If you are calculating stress with vdW-DF, please also cite:         %
     %                                                                      %
     %   R. Sabatini et al., J. Phys.: Condens. Matter 24, 424209 (2012).   %
     %   C.M. Frostenson et al., Electr. Struct. 4, 014001 (2022).          %
     %                                                                      %
     %%%%%%%%%%%%%%%%%%%%%%%%%%%%%%%%%%%%%%%%%%%%%%%%%%%%%%%%%%%%%%%%%%%%%%%%

     %%%%%%%%%%%%%%%%%%%%%%%%%%%%%%%%%%%%%%%%%%%%%%%%%%%%%%%%%%%%%%%%%%%%%%%%
     %                                                                      %
     %  vdW-DF NEWS:                                                        %
     %                                                                      %
     %  * vdW-DF3 is now available. DOI: 10.1021/acs.jctc.0c00471           %
     %    use with input_dft = 'vdW-DF3-opt1' or 'vdW-DF3-opt2'             %
     %                                                                      %
     %  * Unscreened and range-separated hybrid vdW-DF-cx functionals       %
     %    DOI: 10.1063/1.4986522 and 10.1088/1361-648X/ac2ad2               %
     %    use with input_dft = 'vdW-DF-cx0'    and 'vdW-DF-ahcx'            %
     %  * Unscreened and range-separated hybrid vdW-DF2-b86r functionals    %
     %    DOI: 10.1063/1.4986522 and DOI: 10.1103/PhysRevX.12.041003        %
     %    use with input_dft = 'vdW-DF2-br0' and 'vdW-DF2-ahbr'             %
     %                                                                      %
     %%%%%%%%%%%%%%%%%%%%%%%%%%%%%%%%%%%%%%%%%%%%%%%%%%%%%%%%%%%%%%%%%%%%%%%%


     Starting wfcs are  333 randomized atomic wfcs
     Checking if some PAW data can be deallocated... 

     total cpu time spent up to now is       12.5 secs

     per-process dynamical memory:   231.0 Mb

     Self-consistent Calculation

     iteration #  1     ecut=    50.00 Ry     beta= 0.70
     Davidson diagonalization with overlap
     ethr =  1.00E-02,  avg # of iterations =  2.0

     negative rho (up, down):  2.795E-05 6.614E-08

     total cpu time spent up to now is       35.5 secs

     total energy              =   -6053.07369746 Ry
     estimated scf accuracy    <      39.62269594 Ry

     total magnetization       =    69.00 Bohr mag/cell
     absolute magnetization    =    81.32 Bohr mag/cell

     iteration #  2     ecut=    50.00 Ry     beta= 0.70
     Davidson diagonalization with overlap
     ethr =  1.00E-02,  avg # of iterations =  1.0

     negative rho (up, down):  3.753E-06 1.275E-08

     total cpu time spent up to now is       49.4 secs

     total energy              =   -6052.57388351 Ry
     estimated scf accuracy    <      24.22789955 Ry

     total magnetization       =    68.52 Bohr mag/cell
     absolute magnetization    =    76.69 Bohr mag/cell

     iteration #  3     ecut=    50.00 Ry     beta= 0.70
     Davidson diagonalization with overlap
     ethr =  7.23E-03,  avg # of iterations =  1.0

     negative rho (up, down):  1.147E-08 0.000E+00

     total cpu time spent up to now is       66.9 secs

     total energy              =   -6055.09739699 Ry
     estimated scf accuracy    <      87.48291837 Ry

     total magnetization       =    65.78 Bohr mag/cell
     absolute magnetization    =    73.12 Bohr mag/cell

     iteration #  4     ecut=    50.00 Ry     beta= 0.70
     Davidson diagonalization with overlap
     ethr =  7.23E-03,  avg # of iterations =  1.0

     total cpu time spent up to now is       81.0 secs

     total energy              =   -6056.34236643 Ry
     estimated scf accuracy    <       5.62248937 Ry

     total magnetization       =    60.38 Bohr mag/cell
     absolute magnetization    =    70.41 Bohr mag/cell

     iteration #  5     ecut=    50.00 Ry     beta= 0.70
     Davidson diagonalization with overlap
     ethr =  1.68E-03,  avg # of iterations =  1.3

     total cpu time spent up to now is       98.5 secs

     total energy              =   -6056.34509291 Ry
     estimated scf accuracy    <       2.49436500 Ry

     total magnetization       =    60.23 Bohr mag/cell
     absolute magnetization    =    69.77 Bohr mag/cell

     iteration #  6     ecut=    50.00 Ry     beta= 0.70
     Davidson diagonalization with overlap
     ethr =  7.45E-04,  avg # of iterations =  1.7

     total cpu time spent up to now is      113.5 secs

     total energy              =   -6056.47367578 Ry
     estimated scf accuracy    <       0.59918781 Ry

     total magnetization       =    60.20 Bohr mag/cell
     absolute magnetization    =    69.51 Bohr mag/cell

     iteration #  7     ecut=    50.00 Ry     beta= 0.70
     Davidson diagonalization with overlap
     ethr =  1.79E-04,  avg # of iterations =  5.0

     total cpu time spent up to now is      135.4 secs

     total energy              =   -6056.51106842 Ry
     estimated scf accuracy    <       0.86678090 Ry

     total magnetization       =    60.20 Bohr mag/cell
     absolute magnetization    =    69.12 Bohr mag/cell

     iteration #  8     ecut=    50.00 Ry     beta= 0.70
     Davidson diagonalization with overlap
     ethr =  1.79E-04,  avg # of iterations =  1.9

     total cpu time spent up to now is      154.6 secs

     total energy              =   -6056.52449509 Ry
     estimated scf accuracy    <       0.13308627 Ry

     total magnetization       =    60.49 Bohr mag/cell
     absolute magnetization    =    69.17 Bohr mag/cell

     iteration #  9     ecut=    50.00 Ry     beta= 0.70
     Davidson diagonalization with overlap
     c_bands:  1 eigenvalues not converged
     c_bands:  2 eigenvalues not converged
     c_bands:  2 eigenvalues not converged
     c_bands:  3 eigenvalues not converged
     ethr =  3.97E-05,  avg # of iterations = 13.0

     total cpu time spent up to now is      187.6 secs

     total energy              =   -6056.53941628 Ry
     estimated scf accuracy    <       0.20809365 Ry

     total magnetization       =    61.11 Bohr mag/cell
     absolute magnetization    =    69.18 Bohr mag/cell

     iteration # 10     ecut=    50.00 Ry     beta= 0.70
     Davidson diagonalization with overlap
     ethr =  3.97E-05,  avg # of iterations =  2.1

     total cpu time spent up to now is      202.1 secs

     total energy              =   -6056.54682426 Ry
     estimated scf accuracy    <       0.21539432 Ry

     total magnetization       =    61.25 Bohr mag/cell
     absolute magnetization    =    69.12 Bohr mag/cell

     iteration # 11     ecut=    50.00 Ry     beta= 0.70
     Davidson diagonalization with overlap
     ethr =  3.97E-05,  avg # of iterations =  1.1

     total cpu time spent up to now is      219.6 secs

     total energy              =   -6056.53456093 Ry
     estimated scf accuracy    <       0.11958775 Ry

     total magnetization       =    61.19 Bohr mag/cell
     absolute magnetization    =    69.00 Bohr mag/cell

     iteration # 12     ecut=    50.00 Ry     beta= 0.70
     Davidson diagonalization with overlap
     ethr =  3.57E-05,  avg # of iterations =  1.7

     total cpu time spent up to now is      234.8 secs

     total energy              =   -6056.53840529 Ry
     estimated scf accuracy    <       0.08229449 Ry

     total magnetization       =    61.10 Bohr mag/cell
     absolute magnetization    =    68.71 Bohr mag/cell

     iteration # 13     ecut=    50.00 Ry     beta= 0.70
     Davidson diagonalization with overlap
     ethr =  2.46E-05,  avg # of iterations =  1.4

     total cpu time spent up to now is      253.1 secs

     total energy              =   -6056.53770959 Ry
     estimated scf accuracy    <       0.08278287 Ry

     total magnetization       =    61.10 Bohr mag/cell
     absolute magnetization    =    68.64 Bohr mag/cell

     iteration # 14     ecut=    50.00 Ry     beta= 0.70
     Davidson diagonalization with overlap
     ethr =  2.46E-05,  avg # of iterations =  1.5

     total cpu time spent up to now is      271.3 secs

     total energy              =   -6056.53429986 Ry
     estimated scf accuracy    <       0.08103822 Ry

     total magnetization       =    61.16 Bohr mag/cell
     absolute magnetization    =    68.71 Bohr mag/cell

     iteration # 15     ecut=    50.00 Ry     beta= 0.70
     Davidson diagonalization with overlap
     ethr =  2.42E-05,  avg # of iterations =  1.2

     negative rho (up, down):  4.999E-04 2.305E-04

     total cpu time spent up to now is      284.8 secs

     total energy              =   -6056.53093249 Ry
     estimated scf accuracy    <       0.13591011 Ry

     total magnetization       =    61.14 Bohr mag/cell
     absolute magnetization    =    68.67 Bohr mag/cell

     iteration # 16     ecut=    50.00 Ry     beta= 0.70
     Davidson diagonalization with overlap
     ethr =  2.42E-05,  avg # of iterations =  1.5

     negative rho (up, down):  1.408E-02 1.284E-02

     total cpu time spent up to now is      304.1 secs

     total energy              =   -6056.52705577 Ry
     estimated scf accuracy    <       0.09330676 Ry

     total magnetization       =    61.14 Bohr mag/cell
     absolute magnetization    =    68.60 Bohr mag/cell

     iteration # 17     ecut=    50.00 Ry     beta= 0.70
     Davidson diagonalization with overlap
     ethr =  2.42E-05,  avg # of iterations =  2.0

     negative rho (up, down):  2.722E-02 2.551E-02

     total cpu time spent up to now is      318.3 secs

     total energy              =   -6056.52767095 Ry
     estimated scf accuracy    <       0.03286369 Ry

     total magnetization       =    61.16 Bohr mag/cell
     absolute magnetization    =    68.57 Bohr mag/cell

     iteration # 18     ecut=    50.00 Ry     beta= 0.70
     Davidson diagonalization with overlap
     c_bands:  1 eigenvalues not converged
     c_bands:  1 eigenvalues not converged
     c_bands:  4 eigenvalues not converged
     ethr =  9.81E-06,  avg # of iterations =  5.4

     negative rho (up, down):  1.752E-02 1.608E-02

     total cpu time spent up to now is      340.8 secs

     total energy              =   -6056.52689321 Ry
     estimated scf accuracy    <       0.02941508 Ry

     total magnetization       =    61.20 Bohr mag/cell
     absolute magnetization    =    68.54 Bohr mag/cell

     iteration # 19     ecut=    50.00 Ry     beta= 0.70
     Davidson diagonalization with overlap
     ethr =  8.78E-06,  avg # of iterations =  1.5

     negative rho (up, down):  2.070E-02 1.923E-02

     total cpu time spent up to now is      354.6 secs

     total energy              =   -6056.52683586 Ry
     estimated scf accuracy    <       0.02013486 Ry

     total magnetization       =    61.20 Bohr mag/cell
     absolute magnetization    =    68.58 Bohr mag/cell

     iteration # 20     ecut=    50.00 Ry     beta= 0.70
     Davidson diagonalization with overlap
     c_bands:  2 eigenvalues not converged
     ethr =  6.01E-06,  avg # of iterations =  2.3

     negative rho (up, down):  1.649E-02 1.531E-02

     total cpu time spent up to now is      374.4 secs

     total energy              =   -6056.52570785 Ry
     estimated scf accuracy    <       0.01467088 Ry

     total magnetization       =    61.20 Bohr mag/cell
     absolute magnetization    =    68.58 Bohr mag/cell

     iteration # 21     ecut=    50.00 Ry     beta= 0.70
     Davidson diagonalization with overlap
     ethr =  4.38E-06,  avg # of iterations =  1.4

     negative rho (up, down):  1.245E-02 1.138E-02

     total cpu time spent up to now is      392.6 secs

     total energy              =   -6056.52536714 Ry
     estimated scf accuracy    <       0.01260206 Ry

     total magnetization       =    61.20 Bohr mag/cell
     absolute magnetization    =    68.59 Bohr mag/cell

     iteration # 22     ecut=    50.00 Ry     beta= 0.70
     Davidson diagonalization with overlap
     ethr =  3.76E-06,  avg # of iterations =  1.1

     negative rho (up, down):  8.934E-03 8.414E-03

     total cpu time spent up to now is      406.0 secs

     total energy              =   -6056.52431182 Ry
     estimated scf accuracy    <       0.01151053 Ry

     total magnetization       =    61.23 Bohr mag/cell
     absolute magnetization    =    68.62 Bohr mag/cell

     iteration # 23     ecut=    50.00 Ry     beta= 0.70
     Davidson diagonalization with overlap
     ethr =  3.44E-06,  avg # of iterations =  1.7

     negative rho (up, down):  1.267E-02 1.216E-02

     total cpu time spent up to now is      424.8 secs

     total energy              =   -6056.52469059 Ry
     estimated scf accuracy    <       0.00656855 Ry

     total magnetization       =    61.23 Bohr mag/cell
     absolute magnetization    =    68.65 Bohr mag/cell

     iteration # 24     ecut=    50.00 Ry     beta= 0.70
     Davidson diagonalization with overlap
     ethr =  1.96E-06,  avg # of iterations =  1.8

     negative rho (up, down):  8.987E-03 8.403E-03

     total cpu time spent up to now is      439.0 secs

     total energy              =   -6056.52476290 Ry
     estimated scf accuracy    <       0.00193868 Ry

     total magnetization       =    61.23 Bohr mag/cell
     absolute magnetization    =    68.65 Bohr mag/cell

     iteration # 25     ecut=    50.00 Ry     beta= 0.70
     Davidson diagonalization with overlap
     ethr =  5.79E-07,  avg # of iterations =  3.0

     negative rho (up, down):  6.839E-03 6.276E-03

     total cpu time spent up to now is      458.7 secs

     total energy              =   -6056.52460420 Ry
     estimated scf accuracy    <       0.00194606 Ry

     total magnetization       =    61.23 Bohr mag/cell
     absolute magnetization    =    68.64 Bohr mag/cell

     iteration # 26     ecut=    50.00 Ry     beta= 0.70
     Davidson diagonalization with overlap
     ethr =  5.79E-07,  avg # of iterations =  1.2

     negative rho (up, down):  4.352E-03 3.632E-03

     total cpu time spent up to now is      472.2 secs

     total energy              =   -6056.52497648 Ry
     estimated scf accuracy    <       0.00114044 Ry

     total magnetization       =    61.23 Bohr mag/cell
     absolute magnetization    =    68.65 Bohr mag/cell

     iteration # 27     ecut=    50.00 Ry     beta= 0.70
     Davidson diagonalization with overlap
     ethr =  3.40E-07,  avg # of iterations =  2.0

     negative rho (up, down):  3.933E-03 3.131E-03

     total cpu time spent up to now is      491.7 secs

     total energy              =   -6056.52500794 Ry
     estimated scf accuracy    <       0.00069416 Ry

     total magnetization       =    61.23 Bohr mag/cell
     absolute magnetization    =    68.66 Bohr mag/cell

     iteration # 28     ecut=    50.00 Ry     beta= 0.70
     Davidson diagonalization with overlap
     ethr =  2.07E-07,  avg # of iterations =  1.9

     negative rho (up, down):  2.933E-03 2.052E-03

     total cpu time spent up to now is      505.8 secs

     total energy              =   -6056.52496642 Ry
     estimated scf accuracy    <       0.00032468 Ry

     total magnetization       =    61.24 Bohr mag/cell
     absolute magnetization    =    68.66 Bohr mag/cell

     iteration # 29     ecut=    50.00 Ry     beta= 0.70
     Davidson diagonalization with overlap
     ethr =  9.69E-08,  avg # of iterations =  2.8

     negative rho (up, down):  3.544E-03 2.519E-03

     total cpu time spent up to now is      526.2 secs

     total energy              =   -6056.52501533 Ry
     estimated scf accuracy    <       0.00128559 Ry

     total magnetization       =    61.23 Bohr mag/cell
     absolute magnetization    =    68.65 Bohr mag/cell

     iteration # 30     ecut=    50.00 Ry     beta= 0.70
     Davidson diagonalization with overlap
     ethr =  9.69E-08,  avg # of iterations =  1.8

     negative rho (up, down):  3.221E-03 2.172E-03

     total cpu time spent up to now is      545.5 secs

     total energy              =   -6056.52505203 Ry
     estimated scf accuracy    <       0.00038613 Ry

     total magnetization       =    61.23 Bohr mag/cell
     absolute magnetization    =    68.66 Bohr mag/cell

     iteration # 31     ecut=    50.00 Ry     beta= 0.70
     Davidson diagonalization with overlap
     ethr =  9.69E-08,  avg # of iterations =  1.0

     negative rho (up, down):  2.813E-03 1.726E-03

     total cpu time spent up to now is      558.9 secs

     total energy              =   -6056.52506216 Ry
     estimated scf accuracy    <       0.00001526 Ry

     total magnetization       =    61.23 Bohr mag/cell
     absolute magnetization    =    68.66 Bohr mag/cell

     iteration # 32     ecut=    50.00 Ry     beta= 0.70
     Davidson diagonalization with overlap
     c_bands:  1 eigenvalues not converged
     ethr =  4.55E-09,  avg # of iterations =  9.6

     negative rho (up, down):  2.641E-03 1.543E-03

     total cpu time spent up to now is      587.2 secs

     total energy              =   -6056.52506518 Ry
     estimated scf accuracy    <       0.00001073 Ry

     total magnetization       =    61.23 Bohr mag/cell
     absolute magnetization    =    68.66 Bohr mag/cell

     iteration # 33     ecut=    50.00 Ry     beta= 0.70
     Davidson diagonalization with overlap
     ethr =  3.20E-09,  avg # of iterations =  1.7

     negative rho (up, down):  2.533E-03 1.424E-03

     total cpu time spent up to now is      606.4 secs

     total energy              =   -6056.52506665 Ry
     estimated scf accuracy    <       0.00000856 Ry

     total magnetization       =    61.23 Bohr mag/cell
     absolute magnetization    =    68.65 Bohr mag/cell

     iteration # 34     ecut=    50.00 Ry     beta= 0.70
     Davidson diagonalization with overlap
     ethr =  2.55E-09,  avg # of iterations =  1.4

     negative rho (up, down):  2.149E-03 1.043E-03

     total cpu time spent up to now is      620.4 secs

     total energy              =   -6056.52506927 Ry
     estimated scf accuracy    <       0.00000835 Ry

     total magnetization       =    61.23 Bohr mag/cell
     absolute magnetization    =    68.65 Bohr mag/cell

     iteration # 35     ecut=    50.00 Ry     beta= 0.70
     Davidson diagonalization with overlap
     ethr =  2.49E-09,  avg # of iterations =  2.0

     negative rho (up, down):  2.115E-03 1.015E-03

     total cpu time spent up to now is      639.4 secs

     total energy              =   -6056.52507139 Ry
     estimated scf accuracy    <       0.00000578 Ry

     total magnetization       =    61.23 Bohr mag/cell
     absolute magnetization    =    68.65 Bohr mag/cell

     iteration # 36     ecut=    50.00 Ry     beta= 0.70
     Davidson diagonalization with overlap
     ethr =  1.73E-09,  avg # of iterations =  1.8

     negative rho (up, down):  2.144E-03 1.045E-03

     total cpu time spent up to now is      653.7 secs

     total energy              =   -6056.52507201 Ry
     estimated scf accuracy    <       0.00000401 Ry

     total magnetization       =    61.23 Bohr mag/cell
     absolute magnetization    =    68.65 Bohr mag/cell

     iteration # 37     ecut=    50.00 Ry     beta= 0.70
     Davidson diagonalization with overlap
     ethr =  1.20E-09,  avg # of iterations =  1.9

     negative rho (up, down):  2.187E-03 1.084E-03

     total cpu time spent up to now is      673.6 secs

     total energy              =   -6056.52507202 Ry
     estimated scf accuracy    <       0.00000438 Ry

     total magnetization       =    61.23 Bohr mag/cell
     absolute magnetization    =    68.65 Bohr mag/cell

     iteration # 38     ecut=    50.00 Ry     beta= 0.70
     Davidson diagonalization with overlap
     ethr =  1.20E-09,  avg # of iterations =  1.2

     negative rho (up, down):  2.195E-03 1.100E-03

     total cpu time spent up to now is      691.4 secs

     total energy              =   -6056.52507260 Ry
     estimated scf accuracy    <       0.00000095 Ry

     total magnetization       =    61.23 Bohr mag/cell
     absolute magnetization    =    68.65 Bohr mag/cell

     iteration # 39     ecut=    50.00 Ry     beta= 0.70
     Davidson diagonalization with overlap
     c_bands:  1 eigenvalues not converged
     ethr =  2.85E-10,  avg # of iterations =  6.0

     negative rho (up, down):  2.207E-03 1.108E-03

     total cpu time spent up to now is      711.8 secs

     total energy              =   -6056.52507245 Ry
     estimated scf accuracy    <       0.00000652 Ry

     total magnetization       =    61.23 Bohr mag/cell
     absolute magnetization    =    68.65 Bohr mag/cell

     iteration # 40     ecut=    50.00 Ry     beta= 0.70
     Davidson diagonalization with overlap
     ethr =  2.85E-10,  avg # of iterations =  2.0

     negative rho (up, down):  2.233E-03 1.133E-03

     total cpu time spent up to now is      732.4 secs

     total energy              =   -6056.52507256 Ry
     estimated scf accuracy    <       0.00000258 Ry

     total magnetization       =    61.23 Bohr mag/cell
     absolute magnetization    =    68.65 Bohr mag/cell

     iteration # 41     ecut=    50.00 Ry     beta= 0.70
     Davidson diagonalization with overlap
     ethr =  2.85E-10,  avg # of iterations =  1.0

     negative rho (up, down):  2.241E-03 1.143E-03

     total cpu time spent up to now is      746.0 secs

     total energy              =   -6056.52507282 Ry
     estimated scf accuracy    <       0.00000086 Ry

     total magnetization       =    61.23 Bohr mag/cell
     absolute magnetization    =    68.65 Bohr mag/cell

     iteration # 42     ecut=    50.00 Ry     beta= 0.70
     Davidson diagonalization with overlap
     ethr =  2.56E-10,  avg # of iterations =  1.3

     negative rho (up, down):  2.262E-03 1.164E-03

     total cpu time spent up to now is      764.5 secs

     total energy              =   -6056.52507284 Ry
     estimated scf accuracy    <       0.00000103 Ry

     total magnetization       =    61.23 Bohr mag/cell
     absolute magnetization    =    68.65 Bohr mag/cell

     iteration # 43     ecut=    50.00 Ry     beta= 0.70
     Davidson diagonalization with overlap
     ethr =  2.56E-10,  avg # of iterations =  1.1

     negative rho (up, down):  2.268E-03 1.172E-03

     total cpu time spent up to now is      782.3 secs

     total energy              =   -6056.52507295 Ry
     estimated scf accuracy    <       0.00000078 Ry

     total magnetization       =    61.23 Bohr mag/cell
     absolute magnetization    =    68.65 Bohr mag/cell

     iteration # 44     ecut=    50.00 Ry     beta= 0.70
     Davidson diagonalization with overlap
     ethr =  2.32E-10,  avg # of iterations =  1.3

     negative rho (up, down):  2.260E-03 1.163E-03

     total cpu time spent up to now is      797.4 secs

     total energy              =   -6056.52507293 Ry
     estimated scf accuracy    <       0.00000022 Ry

     total magnetization       =    61.23 Bohr mag/cell
     absolute magnetization    =    68.65 Bohr mag/cell

     iteration # 45     ecut=    50.00 Ry     beta= 0.70
     Davidson diagonalization with overlap
     ethr =  6.60E-11,  avg # of iterations =  1.7

     negative rho (up, down):  2.251E-03 1.156E-03

     total cpu time spent up to now is      816.3 secs

     total energy              =   -6056.52507294 Ry
     estimated scf accuracy    <       0.00000037 Ry

     total magnetization       =    61.23 Bohr mag/cell
     absolute magnetization    =    68.65 Bohr mag/cell

     iteration # 46     ecut=    50.00 Ry     beta= 0.70
     Davidson diagonalization with overlap
     ethr =  6.60E-11,  avg # of iterations =  1.9

     negative rho (up, down):  2.257E-03 1.162E-03

     total cpu time spent up to now is      831.1 secs

     total energy              =   -6056.52507296 Ry
     estimated scf accuracy    <       0.00000026 Ry

     total magnetization       =    61.23 Bohr mag/cell
     absolute magnetization    =    68.65 Bohr mag/cell

     iteration # 47     ecut=    50.00 Ry     beta= 0.70
     Davidson diagonalization with overlap
     ethr =  6.60E-11,  avg # of iterations =  1.7

     negative rho (up, down):  2.259E-03 1.165E-03

     total cpu time spent up to now is      851.0 secs

     total energy              =   -6056.52507298 Ry
     estimated scf accuracy    <       0.00000049 Ry

     total magnetization       =    61.23 Bohr mag/cell
     absolute magnetization    =    68.65 Bohr mag/cell

     iteration # 48     ecut=    50.00 Ry     beta= 0.70
     Davidson diagonalization with overlap
     ethr =  6.60E-11,  avg # of iterations =  1.2

     negative rho (up, down):  2.256E-03 1.163E-03

     total cpu time spent up to now is      864.7 secs

     total energy              =   -6056.52507300 Ry
     estimated scf accuracy    <       0.00000013 Ry

     total magnetization       =    61.23 Bohr mag/cell
     absolute magnetization    =    68.65 Bohr mag/cell

     iteration # 49     ecut=    50.00 Ry     beta= 0.70
     Davidson diagonalization with overlap
     ethr =  3.80E-11,  avg # of iterations =  3.9

     negative rho (up, down):  2.251E-03 1.157E-03

     total cpu time spent up to now is      885.8 secs

     total energy              =   -6056.52507299 Ry
     estimated scf accuracy    <       0.00000012 Ry

     total magnetization       =    61.23 Bohr mag/cell
     absolute magnetization    =    68.65 Bohr mag/cell

     iteration # 50     ecut=    50.00 Ry     beta= 0.70
     Davidson diagonalization with overlap
     ethr =  3.56E-11,  avg # of iterations =  1.5

     negative rho (up, down):  2.247E-03 1.154E-03

     total cpu time spent up to now is      904.3 secs

     total energy              =   -6056.52507299 Ry
     estimated scf accuracy    <       0.00000007 Ry

     total magnetization       =    61.23 Bohr mag/cell
     absolute magnetization    =    68.65 Bohr mag/cell

     iteration # 51     ecut=    50.00 Ry     beta= 0.70
     Davidson diagonalization with overlap
     ethr =  2.00E-11,  avg # of iterations =  1.6

     negative rho (up, down):  2.243E-03 1.150E-03

     total cpu time spent up to now is      920.0 secs

     total energy              =   -6056.52507299 Ry
     estimated scf accuracy    <       0.00000001 Ry

     total magnetization       =    61.23 Bohr mag/cell
     absolute magnetization    =    68.65 Bohr mag/cell

     iteration # 52     ecut=    50.00 Ry     beta= 0.70
     Davidson diagonalization with overlap
     c_bands:  1 eigenvalues not converged
     ethr =  4.12E-12,  avg # of iterations =  8.1

     negative rho (up, down):  2.244E-03 1.151E-03

     total cpu time spent up to now is      947.0 secs

     total energy              =   -6056.52507299 Ry
     estimated scf accuracy    <       0.00000005 Ry

     total magnetization       =    61.23 Bohr mag/cell
     absolute magnetization    =    68.65 Bohr mag/cell

     iteration # 53     ecut=    50.00 Ry     beta= 0.70
     Davidson diagonalization with overlap
     c_bands:  2 eigenvalues not converged
     ethr =  4.12E-12,  avg # of iterations =  2.5

     negative rho (up, down):  2.244E-03 1.150E-03

     total cpu time spent up to now is      966.1 secs

     total energy              =   -6056.52507299 Ry
     estimated scf accuracy    <       0.00000002 Ry

     total magnetization       =    61.23 Bohr mag/cell
     absolute magnetization    =    68.65 Bohr mag/cell

     iteration # 54     ecut=    50.00 Ry     beta= 0.70
     Davidson diagonalization with overlap
     ethr =  4.12E-12,  avg # of iterations =  1.2

     negative rho (up, down):  2.243E-03 1.150E-03

     total cpu time spent up to now is      981.2 secs

     total energy              =   -6056.52507299 Ry
     estimated scf accuracy    <       0.00000001 Ry

     total magnetization       =    61.23 Bohr mag/cell
     absolute magnetization    =    68.65 Bohr mag/cell

     iteration # 55     ecut=    50.00 Ry     beta= 0.70
     Davidson diagonalization with overlap
     ethr =  4.12E-12,  avg # of iterations =  1.0

     negative rho (up, down):  2.233E-03 1.140E-03

     Magnetic moment per site  (integrated on atomic sphere of radius R)
     atom   1 (R=0.095)  charge=  5.9078  magn=  1.7091
     atom   2 (R=0.095)  charge=  5.9079  magn=  1.7054
     atom   3 (R=0.095)  charge=  5.9077  magn=  1.7119
     atom   4 (R=0.095)  charge=  5.9076  magn=  1.7127
     atom   5 (R=0.095)  charge=  5.9078  magn=  1.7129
     atom   6 (R=0.095)  charge=  5.9073  magn=  1.7108
     atom   7 (R=0.095)  charge=  5.9083  magn=  1.7087
     atom   8 (R=0.095)  charge=  5.9086  magn=  1.7019
     atom   9 (R=0.095)  charge=  5.9076  magn=  1.7056
     atom  10 (R=0.095)  charge=  5.9062  magn=  1.6366
     atom  11 (R=0.095)  charge=  5.9075  magn=  1.6423
     atom  12 (R=0.095)  charge=  5.9072  magn=  1.6436
     atom  13 (R=0.095)  charge=  5.9068  magn=  1.6430
     atom  14 (R=0.095)  charge=  5.9076  magn=  1.6415
     atom  15 (R=0.095)  charge=  5.9068  magn=  1.6436
     atom  16 (R=0.095)  charge=  5.9073  magn=  1.6355
     atom  17 (R=0.095)  charge=  5.9069  magn=  1.6419
     atom  18 (R=0.095)  charge=  5.9079  magn=  1.6382
     atom  19 (R=0.095)  charge=  5.9052  magn=  1.6570
     atom  20 (R=0.095)  charge=  5.9056  magn=  1.6387
     atom  21 (R=0.095)  charge=  5.9059  magn=  1.6498
     atom  22 (R=0.095)  charge=  5.9064  magn=  1.6519
     atom  23 (R=0.095)  charge=  5.9066  magn=  1.6520
     atom  24 (R=0.095)  charge=  5.9064  magn=  1.6508
     atom  25 (R=0.095)  charge=  5.9044  magn=  1.6457
     atom  26 (R=0.095)  charge=  5.9030  magn=  1.6586
     atom  27 (R=0.095)  charge=  5.9050  magn=  1.6338
     atom  28 (R=0.095)  charge=  5.9225  magn=  1.4526
     atom  29 (R=0.095)  charge=  5.9296  magn=  1.1037
     atom  30 (R=0.095)  charge=  5.9092  magn=  1.6986
     atom  31 (R=0.095)  charge=  5.9137  magn=  1.6788
     atom  32 (R=0.095)  charge=  5.9080  magn=  1.7244
     atom  33 (R=0.095)  charge=  5.9076  magn=  1.7220
     atom  34 (R=0.095)  charge=  5.9080  magn=  1.7106
     atom  35 (R=0.095)  charge=  5.9130  magn=  1.7063
     atom  36 (R=0.095)  charge=  5.9088  magn=  1.7157
     atom  37 (R=0.067)  charge=  1.1018  magn= -0.0149
     atom  38 (R=0.067)  charge=  3.0257  magn= -0.0098
     atom  39 (R=0.068)  charge=  0.5453  magn=  0.0036

     total cpu time spent up to now is      998.5 secs

     End of self-consistent calculation

 ------ SPIN UP ------------


          k = 0.0000 0.0000 0.0000 ( 51087 PWs)   bands (ev):

   -21.8689 -10.6674  -7.5739  -6.8818  -6.3355  -5.7890  -5.3559  -4.7379
    -4.7028  -4.7002  -4.6997  -4.6886  -4.6848  -4.6451  -4.3443  -4.1719
    -4.1679  -4.1659  -4.1478  -4.1428  -4.1059  -3.6540  -3.6513  -3.6483
    -3.6406  -3.6322  -3.6064  -3.5304  -3.5209  -3.5173  -3.5153  -3.5114
    -3.4914  -3.4496  -3.4479  -3.1353  -3.1332  -3.1317  -3.1297  -3.1070
    -3.0702  -3.0670  -3.0634  -3.0614  -3.0565  -3.0542  -3.0500  -2.9031
    -2.9000  -2.8739  -2.8404  -2.8299  -2.8252  -2.8230  -2.8209  -2.8032
    -2.7913  -2.7902  -2.7882  -2.7052  -2.6943  -2.6919  -2.6835  -2.6747
    -2.6507  -2.4442  -2.1632  -2.1584  -2.1522  -2.1493  -2.1396  -2.0479
    -2.0458  -2.0217  -2.0118  -2.0004  -1.9856  -1.9766  -1.9756  -1.9721
    -1.9495  -1.9198  -1.9171  -1.8718  -1.8647  -1.8599  -1.8447  -1.8389
    -1.8377  -1.8312  -1.8274  -1.8233  -1.8201  -1.7953  -1.7913  -1.7907
    -1.7861  -1.7836  -1.7821  -1.7812  -1.7782  -1.7727  -1.7713  -1.7710
    -1.7665  -1.7502  -1.7304  -1.6965  -1.6901  -1.6190  -1.6156  -1.5421
    -1.4089  -1.3244  -1.3240  -1.3220  -1.3203  -1.3191  -1.3149  -1.2951
    -1.2882  -1.2852  -1.2647  -1.2425  -1.2332  -1.2212  -1.1151  -1.1130
    -1.0807  -1.0770  -0.9717  -0.9276  -0.9145  -0.9019  -0.9009  -0.8893
    -0.8447  -0.8340  -0.8295  -0.8236  -0.8189  -0.8082  -0.7173  -0.7119
    -0.6158  -0.5865  -0.5838  -0.5826  -0.5680  -0.5445  -0.5257  -0.5209
    -0.5161  -0.5149  -0.5111  -0.5067  -0.5013  -0.4984  -0.4967  -0.4937
    -0.4891  -0.4854  -0.4714  -0.4591  -0.4480  -0.4402  -0.4352  -0.4292
    -0.4195  -0.4117  -0.3970  -0.3930  -0.3878  -0.3834  -0.3641  -0.3625
    -0.3583  -0.3560  -0.3435  -0.3273  -0.3098  -0.2958  -0.2874  -0.2826
    -0.2782  -0.2739  -0.2693  -0.2674  -0.2510  -0.2469  -0.2041  -0.2008
    -0.1890  -0.1877  -0.1277  -0.1257  -0.1215  -0.1113  -0.1099  -0.0878
     0.3416   1.0470

          k = 0.0000 0.2309 0.0000 ( 51134 PWs)   bands (ev):

   -21.8689 -10.6658  -7.4278  -6.8745  -6.2491  -5.7765  -5.4403  -5.3279
    -4.9466  -4.9429  -4.5891  -4.4377  -4.3605  -4.3594  -4.2938  -4.2420
    -4.1983  -4.1873  -4.0882  -4.0411  -4.0364  -3.7735  -3.6616  -3.6569
    -3.5817  -3.5519  -3.5356  -3.5312  -3.5285  -3.5067  -3.5022  -3.4945
    -3.4560  -3.4119  -3.4091  -3.3765  -3.3746  -3.1915  -3.1507  -3.1465
    -3.0953  -3.0916  -3.0885  -3.0854  -3.0193  -2.9755  -2.9638  -2.9404
    -2.9236  -2.9216  -2.8947  -2.8821  -2.7943  -2.7862  -2.7630  -2.7310
    -2.7205  -2.6973  -2.6881  -2.6725  -2.6640  -2.6407  -2.6157  -2.6104
    -2.5547  -2.4532  -2.2728  -2.2606  -2.2473  -2.2359  -2.1923  -2.1279
    -2.1193  -2.1155  -2.1019  -2.0963  -2.0848  -2.0694  -2.0525  -2.0003
    -1.9776  -1.9704  -1.9569  -1.9336  -1.9142  -1.9124  -1.9056  -1.8866
    -1.8745  -1.8708  -1.8676  -1.8655  -1.8588  -1.8366  -1.8040  -1.7801
    -1.7622  -1.7451  -1.6921  -1.6910  -1.6790  -1.6676  -1.6639  -1.6560
    -1.6494  -1.6335  -1.6279  -1.6241  -1.6163  -1.6034  -1.5820  -1.5780
    -1.5600  -1.5545  -1.5392  -1.4709  -1.4499  -1.4228  -1.3519  -1.3492
    -1.3434  -1.3338  -1.3250  -1.3167  -1.3135  -1.3065  -1.2382  -1.1720
    -1.1602  -1.1370  -1.0636  -1.0586  -1.0362  -0.9916  -0.9712  -0.9602
    -0.9282  -0.8706  -0.8555  -0.8390  -0.8322  -0.8135  -0.7827  -0.7742
    -0.7576  -0.7497  -0.7322  -0.6921  -0.6864  -0.6779  -0.6673  -0.6550
    -0.6329  -0.5980  -0.5867  -0.5797  -0.5748  -0.5507  -0.5238  -0.5202
    -0.5114  -0.5057  -0.4982  -0.4883  -0.4724  -0.4638  -0.4469  -0.4388
    -0.3994  -0.3885  -0.3737  -0.3479  -0.3289  -0.3205  -0.2911  -0.2676
    -0.2648  -0.2610  -0.2487  -0.2418  -0.2245  -0.2174  -0.2070  -0.1762
    -0.1620  -0.1268  -0.1157  -0.1126  -0.0902  -0.0898  -0.0550  -0.0402
    -0.0082   0.0129   0.2485   0.2576   0.3543   0.4515   0.5061   0.5333
     0.5587   0.7986

          k = 0.0000 0.4619 0.0000 ( 51204 PWs)   bands (ev):

   -21.8689 -10.6633  -7.0252  -6.8429  -6.3204  -6.0479  -5.5973  -5.3048
    -5.0906  -5.0775  -4.9536  -4.2480  -4.1953  -4.1894  -4.1809  -4.1156
    -4.0034  -4.0021  -3.9609  -3.8754  -3.8685  -3.8627  -3.7662  -3.6932
    -3.6902  -3.6741  -3.6730  -3.6255  -3.5669  -3.5642  -3.5511  -3.4042
    -3.3967  -3.3929  -3.3857  -3.3548  -3.3520  -3.2548  -3.2404  -3.2378
    -3.2298  -3.2251  -3.1171  -3.0244  -3.0166  -2.9304  -2.9195  -2.8960
    -2.8828  -2.8582  -2.8401  -2.8364  -2.8241  -2.8093  -2.7552  -2.7446
    -2.7203  -2.6796  -2.6727  -2.5940  -2.5328  -2.5171  -2.5123  -2.4889
    -2.4483  -2.4131  -2.3877  -2.3809  -2.3588  -2.2937  -2.2529  -2.2436
    -2.2379  -2.2332  -2.2269  -2.2045  -2.1978  -2.1924  -2.1555  -2.1448
    -2.1098  -2.0877  -2.0731  -2.0447  -2.0224  -2.0074  -1.9449  -1.9286
    -1.9156  -1.9074  -1.8830  -1.8711  -1.8373  -1.8130  -1.8036  -1.7969
    -1.7882  -1.7757  -1.7633  -1.7375  -1.7251  -1.7156  -1.7085  -1.6971
    -1.6797  -1.6567  -1.6153  -1.6088  -1.5545  -1.5348  -1.5209  -1.5079
    -1.4787  -1.4561  -1.4400  -1.3981  -1.3928  -1.3727  -1.3659  -1.3639
    -1.3580  -1.3526  -1.3434  -1.3347  -1.3296  -1.3195  -1.3108  -1.2968
    -1.2915  -1.2585  -1.1962  -1.1640  -1.1347  -1.1277  -1.1078  -1.0973
    -1.0595  -1.0337  -1.0035  -0.9879  -0.9782  -0.9348  -0.9111  -0.8643
    -0.8550  -0.8262  -0.8158  -0.7872  -0.7725  -0.7566  -0.7278  -0.6925
    -0.6421  -0.6089  -0.6031  -0.5978  -0.5842  -0.5794  -0.5698  -0.5628
    -0.5540  -0.5418  -0.4620  -0.4369  -0.4220  -0.4154  -0.4094  -0.4058
    -0.3980  -0.3833  -0.3594  -0.3551  -0.3430  -0.3307  -0.2550  -0.2385
    -0.2346  -0.2229  -0.2026  -0.1625  -0.1365  -0.1176  -0.0993  -0.0644
    -0.0618  -0.0201  -0.0161   0.0009   0.0055   0.0129   0.0208   0.0605
     0.1208   0.1368   0.3042   0.8324   1.0708   1.2132   1.2461   1.3286
     1.5001   1.5803

          k = 0.2000-0.1155 0.0000 ( 51134 PWs)   bands (ev):

   -21.8689 -10.6658  -7.4294  -6.8775  -6.2424  -5.7578  -5.4438  -5.3494
    -4.9414  -4.9376  -4.5898  -4.4585  -4.3607  -4.3577  -4.2947  -4.2504
    -4.1985  -4.1643  -4.0996  -4.0403  -4.0266  -3.7775  -3.6630  -3.6541
    -3.5767  -3.5577  -3.5338  -3.5308  -3.5286  -3.5234  -3.5019  -3.4828
    -3.4592  -3.4134  -3.4073  -3.3778  -3.3735  -3.1883  -3.1497  -3.1473
    -3.1131  -3.0919  -3.0881  -3.0821  -3.0135  -2.9890  -2.9623  -2.9356
    -2.9224  -2.9174  -2.8967  -2.8853  -2.8020  -2.7865  -2.7696  -2.7291
    -2.7211  -2.6960  -2.6831  -2.6629  -2.6537  -2.6374  -2.6146  -2.6128
    -2.5599  -2.4521  -2.2765  -2.2674  -2.2376  -2.2224  -2.1895  -2.1288
    -2.1199  -2.1161  -2.1055  -2.0961  -2.0861  -2.0639  -2.0257  -2.0007
    -1.9813  -1.9730  -1.9581  -1.9344  -1.9133  -1.9104  -1.9088  -1.8821
    -1.8792  -1.8735  -1.8706  -1.8679  -1.8608  -1.8364  -1.7886  -1.7820
    -1.7652  -1.7338  -1.6992  -1.6882  -1.6795  -1.6732  -1.6627  -1.6569
    -1.6518  -1.6346  -1.6285  -1.6217  -1.6164  -1.6052  -1.5776  -1.5701
    -1.5645  -1.5498  -1.5371  -1.4875  -1.4567  -1.4286  -1.3503  -1.3480
    -1.3421  -1.3360  -1.3216  -1.3184  -1.3178  -1.3105  -1.1982  -1.1799
    -1.1596  -1.1370  -1.0651  -1.0596  -1.0361  -0.9999  -0.9717  -0.9633
    -0.8996  -0.8854  -0.8670  -0.8480  -0.8306  -0.8181  -0.7820  -0.7772
    -0.7651  -0.7427  -0.7287  -0.6913  -0.6882  -0.6779  -0.6692  -0.6589
    -0.6383  -0.5940  -0.5849  -0.5818  -0.5614  -0.5323  -0.5225  -0.5188
    -0.5122  -0.5053  -0.4995  -0.4891  -0.4729  -0.4595  -0.4547  -0.4453
    -0.3900  -0.3815  -0.3599  -0.3506  -0.3283  -0.3244  -0.2925  -0.2694
    -0.2655  -0.2584  -0.2514  -0.2388  -0.2214  -0.2179  -0.2064  -0.1689
    -0.1587  -0.1244  -0.1183  -0.1142  -0.0904  -0.0888  -0.0456  -0.0410
    -0.0273   0.0130   0.2235   0.2559   0.3243   0.4189   0.5030   0.5404
     0.5855   0.7626

          k = 0.2000 0.1155 0.0000 ( 51134 PWs)   bands (ev):

   -21.8689 -10.6658  -7.4288  -6.8765  -6.2439  -5.7617  -5.4586  -5.3268
    -4.9442  -4.9406  -4.5878  -4.4560  -4.3613  -4.3577  -4.2943  -4.2503
    -4.2010  -4.1643  -4.0989  -4.0414  -4.0265  -3.7776  -3.6613  -3.6555
    -3.5766  -3.5595  -3.5338  -3.5313  -3.5269  -3.5201  -3.5026  -3.4844
    -3.4577  -3.4121  -3.4085  -3.3766  -3.3742  -3.1832  -3.1499  -3.1483
    -3.1123  -3.0922  -3.0886  -3.0848  -3.0117  -2.9862  -2.9631  -2.9368
    -2.9221  -2.9166  -2.8984  -2.8847  -2.8026  -2.7880  -2.7693  -2.7344
    -2.7176  -2.6974  -2.6854  -2.6645  -2.6549  -2.6353  -2.6178  -2.6082
    -2.5607  -2.4530  -2.2762  -2.2677  -2.2431  -2.2204  -2.1901  -2.1260
    -2.1204  -2.1167  -2.1063  -2.0996  -2.0831  -2.0560  -2.0412  -1.9929
    -1.9912  -1.9745  -1.9559  -1.9332  -1.9133  -1.9108  -1.9056  -1.8847
    -1.8810  -1.8727  -1.8683  -1.8653  -1.8594  -1.8351  -1.7986  -1.7800
    -1.7615  -1.7413  -1.6936  -1.6892  -1.6790  -1.6745  -1.6613  -1.6540
    -1.6520  -1.6376  -1.6293  -1.6220  -1.6124  -1.5997  -1.5792  -1.5702
    -1.5619  -1.5543  -1.5318  -1.4859  -1.4519  -1.4341  -1.3527  -1.3463
    -1.3412  -1.3362  -1.3213  -1.3189  -1.3168  -1.3059  -1.2086  -1.1685
    -1.1628  -1.1356  -1.0648  -1.0596  -1.0353  -0.9962  -0.9708  -0.9610
    -0.9061  -0.8804  -0.8659  -0.8450  -0.8318  -0.8175  -0.7819  -0.7795
    -0.7569  -0.7460  -0.7303  -0.6893  -0.6853  -0.6827  -0.6719  -0.6587
    -0.6389  -0.5984  -0.5831  -0.5800  -0.5581  -0.5420  -0.5241  -0.5185
    -0.5097  -0.5060  -0.4960  -0.4888  -0.4735  -0.4601  -0.4544  -0.4471
    -0.3954  -0.3815  -0.3639  -0.3506  -0.3308  -0.3260  -0.2893  -0.2677
    -0.2634  -0.2598  -0.2530  -0.2419  -0.2222  -0.2185  -0.2072  -0.1745
    -0.1622  -0.1285  -0.1180  -0.1151  -0.0902  -0.0890  -0.0480  -0.0430
    -0.0072   0.0103   0.2309   0.2582   0.3199   0.4270   0.5041   0.5445
     0.5795   0.7628

          k = 0.2000 0.3464 0.0000 ( 51202 PWs)   bands (ev):

   -21.8689 -10.6638  -7.1494  -6.8621  -6.1363  -5.8200  -5.7715  -5.5667
    -5.3214  -4.6810  -4.5979  -4.3665  -4.3601  -4.3238  -4.1482  -4.1455
    -4.0603  -4.0498  -4.0299  -3.9131  -3.9046  -3.7752  -3.7687  -3.7086
    -3.6588  -3.5730  -3.5703  -3.5403  -3.5172  -3.5091  -3.5059  -3.4730
    -3.4640  -3.4483  -3.4307  -3.3949  -3.3522  -3.3142  -3.3087  -3.1878
    -3.1784  -3.0941  -3.0791  -3.0608  -3.0423  -3.0275  -2.9364  -2.8956
    -2.8849  -2.8710  -2.8527  -2.8479  -2.8033  -2.7906  -2.7764  -2.7653
    -2.7475  -2.6465  -2.6303  -2.5854  -2.5727  -2.5515  -2.5311  -2.5107
    -2.5039  -2.4346  -2.3855  -2.3083  -2.2993  -2.2595  -2.2460  -2.2225
    -2.2128  -2.2017  -2.1921  -2.1699  -2.1615  -2.1442  -2.1408  -2.1283
    -2.1152  -2.0972  -2.0309  -1.9964  -1.9528  -1.9456  -1.9210  -1.9118
    -1.9052  -1.8803  -1.8588  -1.8346  -1.8216  -1.7994  -1.7883  -1.7836
    -1.7784  -1.7629  -1.7539  -1.7401  -1.7326  -1.7277  -1.7089  -1.6892
    -1.6792  -1.6657  -1.6427  -1.6192  -1.5962  -1.5859  -1.5523  -1.5448
    -1.5341  -1.5210  -1.5154  -1.4719  -1.4502  -1.4411  -1.4190  -1.3856
    -1.3743  -1.3706  -1.3635  -1.3513  -1.3295  -1.3218  -1.3048  -1.2677
    -1.2269  -1.1988  -1.1911  -1.1551  -1.0832  -1.0695  -1.0575  -0.9669
    -0.9435  -0.9337  -0.9305  -0.9210  -0.9071  -0.8974  -0.8765  -0.8719
    -0.8480  -0.8409  -0.8175  -0.7815  -0.7691  -0.7624  -0.7397  -0.7251
    -0.7100  -0.6894  -0.6628  -0.6532  -0.6434  -0.6355  -0.5530  -0.4942
    -0.4846  -0.4564  -0.4481  -0.4419  -0.4334  -0.4136  -0.4008  -0.3959
    -0.3912  -0.3609  -0.3092  -0.3028  -0.2904  -0.2826  -0.2455  -0.2315
    -0.2156  -0.2099  -0.2077  -0.1850  -0.1788  -0.1698  -0.1655  -0.1419
    -0.1389  -0.0654  -0.0502  -0.0389  -0.0271   0.0103   0.0146   0.0364
     0.3206   0.3508   0.4208   0.5316   0.6065   0.7115   1.0970   1.2019
     1.2571   1.4324

          k = 0.2000-0.5774 0.0000 ( 51262 PWs)   bands (ev):

   -21.8689 -10.6625  -6.9163  -6.5628  -6.5478  -6.0379  -5.8436  -5.4970
    -5.1487  -5.1177  -4.7025  -4.3517  -4.1108  -4.0713  -3.9589  -3.9379
    -3.9309  -3.9107  -3.9026  -3.8803  -3.8308  -3.8199  -3.8174  -3.8132
    -3.7323  -3.7166  -3.6709  -3.6675  -3.6409  -3.6361  -3.5391  -3.4913
    -3.4823  -3.4670  -3.4580  -3.4201  -3.3292  -3.3184  -3.2110  -3.1910
    -3.1853  -3.1184  -3.1045  -3.0878  -3.0589  -2.9796  -2.9737  -2.9697
    -2.9047  -2.8994  -2.8301  -2.7940  -2.7574  -2.7481  -2.7083  -2.6933
    -2.6572  -2.6121  -2.6030  -2.5886  -2.5827  -2.5559  -2.5460  -2.4822
    -2.4483  -2.3988  -2.3803  -2.3762  -2.3609  -2.3152  -2.3049  -2.2516
    -2.2352  -2.2117  -2.2029  -2.1963  -2.1918  -2.1576  -2.1362  -2.1276
    -2.1138  -2.1055  -2.0825  -2.0669  -2.0589  -2.0499  -1.9873  -1.9686
    -1.9578  -1.9170  -1.9027  -1.8850  -1.8381  -1.8356  -1.8208  -1.8002
    -1.7759  -1.7709  -1.7665  -1.7590  -1.7497  -1.7349  -1.7100  -1.7063
    -1.6443  -1.6213  -1.6147  -1.6101  -1.5968  -1.5905  -1.5833  -1.5752
    -1.5675  -1.5614  -1.5432  -1.5119  -1.5022  -1.4618  -1.4560  -1.4259
    -1.3739  -1.3642  -1.3329  -1.3156  -1.3038  -1.2986  -1.2795  -1.2288
    -1.2143  -1.2044  -1.1956  -1.1321  -1.1196  -1.0708  -1.0541  -1.0449
    -1.0195  -1.0067  -1.0011  -0.9880  -0.9539  -0.9463  -0.9157  -0.9070
    -0.8698  -0.8526  -0.8425  -0.8280  -0.8125  -0.7796  -0.7493  -0.7300
    -0.7262  -0.7175  -0.7080  -0.6824  -0.6680  -0.6531  -0.6204  -0.5320
    -0.4567  -0.4446  -0.4381  -0.4298  -0.4231  -0.4148  -0.4048  -0.3890
    -0.3564  -0.3517  -0.3384  -0.3349  -0.2861  -0.2738  -0.2183  -0.2104
    -0.1965  -0.1857  -0.1659  -0.1578  -0.1209  -0.1071  -0.1026  -0.0911
    -0.0810  -0.0241  -0.0132  -0.0086   0.0096   0.0164   0.0409   0.0712
     0.2229   0.3664   0.5020   0.7139   1.2381   1.2891   1.4738   1.5711
     1.7686   1.8434

          k = 0.2000-0.3464 0.0000 ( 51202 PWs)   bands (ev):

   -21.8689 -10.6637  -7.1526  -6.8602  -6.1354  -5.8142  -5.7697  -5.5651
    -5.3305  -4.6783  -4.6022  -4.3673  -4.3601  -4.3212  -4.1478  -4.1464
    -4.0599  -4.0506  -4.0297  -3.9144  -3.9026  -3.7752  -3.7689  -3.7097
    -3.6585  -3.5713  -3.5690  -3.5405  -3.5155  -3.5102  -3.5084  -3.4746
    -3.4642  -3.4459  -3.4360  -3.3938  -3.3536  -3.3133  -3.3078  -3.1936
    -3.1814  -3.0913  -3.0818  -3.0540  -3.0454  -3.0281  -2.9388  -2.8950
    -2.8851  -2.8703  -2.8525  -2.8471  -2.8037  -2.7882  -2.7747  -2.7656
    -2.7449  -2.6485  -2.6278  -2.5885  -2.5685  -2.5531  -2.5261  -2.5125
    -2.5012  -2.4361  -2.3793  -2.3105  -2.2969  -2.2553  -2.2422  -2.2210
    -2.2099  -2.2064  -2.1942  -2.1682  -2.1555  -2.1479  -2.1419  -2.1261
    -2.1108  -2.1002  -2.0249  -2.0083  -1.9501  -1.9447  -1.9255  -1.9173
    -1.8991  -1.8832  -1.8594  -1.8331  -1.8274  -1.7960  -1.7897  -1.7863
    -1.7759  -1.7634  -1.7520  -1.7411  -1.7321  -1.7254  -1.7048  -1.6888
    -1.6820  -1.6632  -1.6371  -1.6192  -1.5982  -1.5893  -1.5549  -1.5483
    -1.5365  -1.5186  -1.5128  -1.4750  -1.4478  -1.4384  -1.4193  -1.3935
    -1.3744  -1.3700  -1.3637  -1.3454  -1.3321  -1.3245  -1.3057  -1.2670
    -1.2284  -1.2048  -1.1965  -1.1578  -1.0845  -1.0676  -1.0628  -0.9712
    -0.9464  -0.9344  -0.9292  -0.9142  -0.9081  -0.9012  -0.8764  -0.8655
    -0.8531  -0.8375  -0.8137  -0.7806  -0.7683  -0.7621  -0.7402  -0.7222
    -0.7073  -0.6862  -0.6664  -0.6521  -0.6435  -0.6352  -0.5486  -0.4935
    -0.4839  -0.4593  -0.4498  -0.4421  -0.4300  -0.4135  -0.4060  -0.3970
    -0.3862  -0.3611  -0.3094  -0.3017  -0.2900  -0.2837  -0.2445  -0.2324
    -0.2153  -0.2114  -0.2080  -0.1832  -0.1745  -0.1712  -0.1637  -0.1469
    -0.1374  -0.0630  -0.0446  -0.0375  -0.0282   0.0097   0.0135   0.0346
     0.3180   0.3529   0.4202   0.5275   0.6239   0.7086   1.0935   1.2118
     1.2371   1.4158

          k = 0.4000-0.2309 0.0000 ( 51204 PWs)   bands (ev):

   -21.8689 -10.6632  -7.0469  -6.8331  -6.2961  -6.0451  -5.5503  -5.3674
    -5.0877  -5.0597  -4.9826  -4.2644  -4.1975  -4.1908  -4.1503  -4.1241
    -4.0034  -4.0009  -3.9644  -3.8742  -3.8674  -3.8640  -3.7751  -3.6933
    -3.6867  -3.6747  -3.6712  -3.6273  -3.5745  -3.5666  -3.5591  -3.4063
    -3.4017  -3.3892  -3.3736  -3.3573  -3.3508  -3.2533  -3.2399  -3.2369
    -3.2328  -3.2262  -3.1151  -3.0492  -3.0151  -2.9494  -2.9203  -2.8985
    -2.8848  -2.8625  -2.8387  -2.8371  -2.8305  -2.8086  -2.7451  -2.7417
    -2.7187  -2.6826  -2.6748  -2.5668  -2.5304  -2.5222  -2.5163  -2.4695
    -2.4242  -2.4069  -2.3942  -2.3821  -2.3430  -2.2895  -2.2516  -2.2466
    -2.2381  -2.2354  -2.2109  -2.2012  -2.1979  -2.1864  -2.1729  -2.1193
    -2.0999  -2.0849  -2.0757  -2.0412  -2.0275  -2.0049  -1.9671  -1.9275
    -1.9146  -1.9062  -1.8855  -1.8793  -1.8334  -1.8134  -1.8036  -1.8006
    -1.7816  -1.7742  -1.7590  -1.7387  -1.7343  -1.7169  -1.6976  -1.6884
    -1.6779  -1.6554  -1.6148  -1.5851  -1.5487  -1.5384  -1.5082  -1.5030
    -1.4806  -1.4574  -1.4487  -1.3978  -1.3854  -1.3798  -1.3688  -1.3631
    -1.3588  -1.3537  -1.3461  -1.3390  -1.3290  -1.3249  -1.3132  -1.2942
    -1.2709  -1.2620  -1.2170  -1.1629  -1.1390  -1.1291  -1.1151  -1.0817
    -1.0707  -1.0359  -1.0108  -0.9881  -0.9805  -0.9328  -0.9167  -0.8748
    -0.8556  -0.8266  -0.8067  -0.7997  -0.7730  -0.7572  -0.7239  -0.6970
    -0.6660  -0.6109  -0.6007  -0.5834  -0.5793  -0.5730  -0.5655  -0.5635
    -0.5478  -0.5392  -0.4641  -0.4330  -0.4274  -0.4208  -0.4059  -0.4014
    -0.3926  -0.3690  -0.3644  -0.3560  -0.3389  -0.3212  -0.2563  -0.2371
    -0.2306  -0.2258  -0.1998  -0.1641  -0.1345  -0.1198  -0.0965  -0.0647
    -0.0520  -0.0180  -0.0142   0.0069   0.0091   0.0126   0.0293   0.0468
     0.1197   0.1364   0.2668   0.8758   0.9929   1.1204   1.2422   1.3011
     1.4378   1.6080

          k = 0.4000 0.0000 0.0000 ( 51202 PWs)   bands (ev):

   -21.8689 -10.6637  -7.1584  -6.8568  -6.1286  -5.7970  -5.7706  -5.5703
    -5.3463  -4.6599  -4.6183  -4.3773  -4.3647  -4.3169  -4.1494  -4.1445
    -4.0536  -4.0501  -4.0471  -3.9155  -3.8902  -3.7761  -3.7707  -3.7062
    -3.6583  -3.5706  -3.5621  -3.5386  -3.5168  -3.5128  -3.5041  -3.4859
    -3.4623  -3.4443  -3.4393  -3.3986  -3.3510  -3.3224  -3.3094  -3.1891
    -3.1773  -3.0916  -3.0781  -3.0528  -3.0422  -3.0326  -2.9461  -2.9300
    -2.8879  -2.8587  -2.8537  -2.8482  -2.7983  -2.7883  -2.7724  -2.7663
    -2.7466  -2.6548  -2.6342  -2.5716  -2.5676  -2.5517  -2.5356  -2.5068
    -2.5054  -2.3983  -2.3815  -2.3043  -2.2908  -2.2623  -2.2501  -2.2256
    -2.2133  -2.1969  -2.1926  -2.1718  -2.1577  -2.1516  -2.1404  -2.1220
    -2.1098  -2.0904  -2.0290  -1.9985  -1.9515  -1.9481  -1.9277  -1.9128
    -1.8949  -1.8800  -1.8584  -1.8366  -1.8270  -1.7956  -1.7865  -1.7804
    -1.7759  -1.7675  -1.7555  -1.7389  -1.7319  -1.7189  -1.7057  -1.6899
    -1.6749  -1.6456  -1.6364  -1.6103  -1.5980  -1.5911  -1.5580  -1.5488
    -1.5291  -1.5207  -1.5096  -1.4808  -1.4490  -1.4401  -1.4169  -1.3827
    -1.3773  -1.3721  -1.3639  -1.3480  -1.3308  -1.3243  -1.3059  -1.2753
    -1.2217  -1.2103  -1.2037  -1.1575  -1.0805  -1.0717  -1.0619  -0.9809
    -0.9463  -0.9347  -0.9280  -0.9128  -0.9096  -0.9013  -0.8837  -0.8707
    -0.8515  -0.8389  -0.8144  -0.7756  -0.7650  -0.7608  -0.7358  -0.7239
    -0.7076  -0.6932  -0.6635  -0.6559  -0.6471  -0.6368  -0.5556  -0.4882
    -0.4833  -0.4594  -0.4438  -0.4417  -0.4285  -0.4130  -0.4025  -0.3967
    -0.3891  -0.3552  -0.3191  -0.3020  -0.2913  -0.2808  -0.2413  -0.2358
    -0.2160  -0.2122  -0.2059  -0.1853  -0.1751  -0.1700  -0.1667  -0.1416
    -0.1384  -0.0576  -0.0438  -0.0394  -0.0301   0.0071   0.0105   0.0320
     0.3428   0.3527   0.4131   0.5165   0.6578   0.6936   0.9976   1.1803
     1.2516   1.3820

          k = 0.4000 0.2309 0.0000 ( 51204 PWs)   bands (ev):

   -21.8689 -10.6632  -7.0399  -6.8359  -6.3022  -6.0464  -5.5689  -5.3439
    -5.0872  -5.0680  -4.9747  -4.2636  -4.1974  -4.1947  -4.1493  -4.1241
    -4.0034  -4.0010  -3.9637  -3.8724  -3.8685  -3.8641  -3.7756  -3.6919
    -3.6869  -3.6745  -3.6720  -3.6266  -3.5740  -3.5661  -3.5596  -3.4043
    -3.4012  -3.3899  -3.3722  -3.3568  -3.3524  -3.2468  -3.2428  -3.2369
    -3.2304  -3.2273  -3.1127  -3.0417  -3.0187  -2.9451  -2.9219  -2.9029
    -2.8829  -2.8623  -2.8400  -2.8353  -2.8308  -2.8120  -2.7465  -2.7402
    -2.7212  -2.6826  -2.6718  -2.5704  -2.5272  -2.5227  -2.5162  -2.4739
    -2.4429  -2.4065  -2.3949  -2.3809  -2.3516  -2.2953  -2.2488  -2.2443
    -2.2387  -2.2340  -2.2152  -2.2020  -2.1953  -2.1917  -2.1662  -2.1291
    -2.1039  -2.0899  -2.0725  -2.0360  -2.0285  -2.0119  -1.9558  -1.9247
    -1.9139  -1.9106  -1.8854  -1.8714  -1.8284  -1.8095  -1.8045  -1.8013
    -1.7844  -1.7748  -1.7591  -1.7366  -1.7283  -1.7163  -1.6997  -1.6918
    -1.6831  -1.6570  -1.6145  -1.5811  -1.5519  -1.5356  -1.5204  -1.5042
    -1.4776  -1.4621  -1.4398  -1.3992  -1.3845  -1.3778  -1.3667  -1.3597
    -1.3576  -1.3511  -1.3436  -1.3348  -1.3340  -1.3216  -1.3093  -1.2938
    -1.2784  -1.2537  -1.2079  -1.1630  -1.1370  -1.1271  -1.1162  -1.0836
    -1.0592  -1.0347  -1.0103  -0.9869  -0.9809  -0.9326  -0.9186  -0.8714
    -0.8585  -0.8257  -0.8112  -0.8014  -0.7715  -0.7571  -0.7270  -0.7055
    -0.6612  -0.6127  -0.6042  -0.5842  -0.5788  -0.5729  -0.5650  -0.5627
    -0.5526  -0.5428  -0.4553  -0.4352  -0.4259  -0.4181  -0.4079  -0.4009
    -0.3936  -0.3720  -0.3606  -0.3567  -0.3426  -0.3274  -0.2543  -0.2370
    -0.2310  -0.2278  -0.2002  -0.1676  -0.1366  -0.1191  -0.0992  -0.0649
    -0.0582  -0.0182  -0.0157   0.0061   0.0066   0.0123   0.0256   0.0612
     0.1191   0.1341   0.2718   0.8479   1.0098   1.1447   1.2423   1.2875
     1.4618   1.6098

          k = 0.4000-0.6928 0.0000 ( 51262 PWs)   bands (ev):

   -21.8689 -10.6625  -6.9306  -6.5628  -6.5224  -6.0531  -5.8412  -5.4415
    -5.2193  -5.1199  -4.6818  -4.3504  -4.1127  -4.0722  -3.9709  -3.9362
    -3.9280  -3.9165  -3.9061  -3.8812  -3.8272  -3.8215  -3.8182  -3.8121
    -3.7358  -3.7172  -3.6698  -3.6652  -3.6398  -3.6380  -3.5201  -3.5005
    -3.4834  -3.4787  -3.4547  -3.4193  -3.3239  -3.3140  -3.2110  -3.1916
    -3.1890  -3.1212  -3.1032  -3.0890  -3.0599  -2.9912  -2.9762  -2.9676
    -2.9052  -2.8933  -2.8418  -2.7954  -2.7704  -2.7528  -2.7126  -2.6925
    -2.6386  -2.6130  -2.5995  -2.5911  -2.5853  -2.5479  -2.5340  -2.4776
    -2.4430  -2.3979  -2.3899  -2.3752  -2.3607  -2.3119  -2.2933  -2.2557
    -2.2338  -2.2095  -2.2020  -2.1939  -2.1851  -2.1692  -2.1296  -2.1252
    -2.1122  -2.1063  -2.0896  -2.0660  -2.0585  -2.0385  -1.9867  -1.9702
    -1.9591  -1.9417  -1.8897  -1.8857  -1.8431  -1.8223  -1.8077  -1.7974
    -1.7808  -1.7711  -1.7582  -1.7548  -1.7478  -1.7289  -1.7097  -1.7011
    -1.6354  -1.6240  -1.6173  -1.6120  -1.5964  -1.5882  -1.5846  -1.5771
    -1.5698  -1.5622  -1.5405  -1.5208  -1.4972  -1.4615  -1.4543  -1.4322
    -1.3745  -1.3631  -1.3362  -1.3147  -1.3015  -1.2974  -1.2799  -1.2422
    -1.2132  -1.2051  -1.1914  -1.1390  -1.1008  -1.0723  -1.0557  -1.0443
    -1.0251  -1.0070  -1.0024  -0.9871  -0.9572  -0.9442  -0.9131  -0.9016
    -0.8638  -0.8528  -0.8431  -0.8264  -0.8118  -0.7872  -0.7469  -0.7429
    -0.7293  -0.7189  -0.7055  -0.6850  -0.6767  -0.6473  -0.6196  -0.5359
    -0.4558  -0.4435  -0.4365  -0.4273  -0.4223  -0.4136  -0.4031  -0.3871
    -0.3591  -0.3506  -0.3431  -0.3335  -0.2817  -0.2719  -0.2158  -0.2115
    -0.2040  -0.1833  -0.1639  -0.1574  -0.1211  -0.1059  -0.1030  -0.0910
    -0.0879  -0.0174  -0.0127  -0.0061   0.0099   0.0170   0.0404   0.0697
     0.1894   0.3847   0.5249   0.7252   1.1329   1.2935   1.4070   1.6471
     1.7662   1.8131

          k = 0.4000-0.4619 0.0000 ( 51262 PWs)   bands (ev):

   -21.8689 -10.6624  -6.9374  -6.5614  -6.5132  -6.0568  -5.8442  -5.4069
    -5.2551  -5.1210  -4.6766  -4.3494  -4.1133  -4.0717  -3.9731  -3.9360
    -3.9286  -3.9149  -3.9074  -3.8808  -3.8278  -3.8223  -3.8178  -3.8108
    -3.7379  -3.7167  -3.6699  -3.6645  -3.6410  -3.6372  -3.5190  -3.5004
    -3.4835  -3.4779  -3.4578  -3.4190  -3.3231  -3.3130  -3.2201  -3.1929
    -3.1887  -3.1187  -3.1007  -3.0901  -3.0580  -2.9918  -2.9744  -2.9691
    -2.9056  -2.8983  -2.8415  -2.7965  -2.7656  -2.7519  -2.7121  -2.6965
    -2.6375  -2.6119  -2.6031  -2.5906  -2.5849  -2.5521  -2.5373  -2.4742
    -2.4255  -2.3986  -2.3848  -2.3753  -2.3521  -2.3150  -2.2903  -2.2543
    -2.2309  -2.2068  -2.2027  -2.1992  -2.1848  -2.1665  -2.1317  -2.1231
    -2.1144  -2.0991  -2.0872  -2.0661  -2.0591  -2.0292  -1.9902  -1.9836
    -1.9607  -1.9511  -1.8995  -1.8778  -1.8449  -1.8260  -1.8069  -1.7914
    -1.7816  -1.7680  -1.7657  -1.7574  -1.7515  -1.7239  -1.7033  -1.6966
    -1.6340  -1.6223  -1.6152  -1.6132  -1.5990  -1.5907  -1.5852  -1.5739
    -1.5632  -1.5618  -1.5414  -1.5163  -1.4988  -1.4686  -1.4550  -1.4361
    -1.3819  -1.3668  -1.3339  -1.3104  -1.3062  -1.2991  -1.2846  -1.2401
    -1.2151  -1.2071  -1.1935  -1.1375  -1.0962  -1.0747  -1.0598  -1.0423
    -1.0301  -1.0136  -0.9974  -0.9883  -0.9577  -0.9448  -0.9111  -0.9014
    -0.8613  -0.8513  -0.8409  -0.8300  -0.8087  -0.7889  -0.7504  -0.7436
    -0.7265  -0.7213  -0.6985  -0.6819  -0.6758  -0.6470  -0.6158  -0.5370
    -0.4527  -0.4399  -0.4349  -0.4309  -0.4198  -0.4161  -0.4084  -0.3841
    -0.3606  -0.3514  -0.3428  -0.3333  -0.2848  -0.2703  -0.2145  -0.2108
    -0.1976  -0.1858  -0.1682  -0.1536  -0.1236  -0.1082  -0.1024  -0.0936
    -0.0896  -0.0145  -0.0111  -0.0066   0.0107   0.0155   0.0429   0.0717
     0.1895   0.3886   0.5303   0.7279   1.1119   1.2918   1.4055   1.6775
     1.7467   1.8087

 ------ SPIN DOWN ----------


          k = 0.0000 0.0000 0.0000 ( 51087 PWs)   bands (ev):

   -21.8883 -10.6943  -7.7044  -6.8352  -6.4015  -5.7759  -5.3973  -4.5344
    -4.5066  -4.5021  -4.5007  -4.4874  -4.4820  -4.3845  -3.6343  -3.6284
    -3.6270  -3.6099  -3.5965  -3.5864  -3.4678  -2.6899  -2.6880  -2.6783
    -2.6687  -2.6611  -2.6043  -2.3190  -2.2302  -2.2205  -2.2160  -2.2094
    -2.2004  -2.0767  -2.0149  -2.0034  -1.9392  -1.9334  -1.9183  -1.9161
    -1.8352  -1.8301  -1.7801  -1.7756  -1.7238  -1.6901  -1.6857  -1.6678
    -1.6548  -1.5759  -1.4630  -1.4223  -1.4126  -1.3995  -1.3871  -1.3816
    -1.3769  -1.3749  -1.3542  -1.3333  -1.3204  -1.3007  -1.2973  -1.2947
    -1.2628  -1.1680  -0.8480  -0.7459  -0.7249  -0.7202  -0.7182  -0.5616
    -0.5271  -0.4634  -0.4256  -0.4105  -0.3983  -0.3939  -0.3858  -0.3761
    -0.3566  -0.3222  -0.3050  -0.3009  -0.2978  -0.2961  -0.2736  -0.2457
    -0.2181  -0.2072  -0.1966  -0.1952  -0.1658  -0.1505  -0.1428  -0.1406
    -0.1352  -0.1288  -0.1101  -0.1084  -0.1075  -0.1068  -0.0417  -0.0021
     0.0198   0.0365   0.0397   0.0614   0.1029   0.1110   0.1189   0.1196
     0.1209   0.1245   0.1258   0.1296   0.1981   0.1997   0.2550   0.2797
     0.2886   0.3011   0.3062   0.3212   0.4721   0.5074   0.5208   0.5589
     0.5861   0.5978   0.6070   0.6090   0.6591   0.8773   0.8995   0.9420
     0.9485   1.0402   1.0956   1.1229   1.1433   1.1642   1.1726   1.1760
     1.3067   1.3259   1.3303   1.3357   1.3392   1.3455   1.3559   1.3738
     1.3945   1.4144   1.4282   1.4346   1.4480   1.4537   1.4695   1.4856
     1.4951   1.4973   1.4997   1.5287   1.5511   1.5636   1.5741   1.5844
     1.5964   1.6077   1.6145   1.6222   1.6248   1.6274   1.6341   1.6679
     1.6729   1.6924   1.6956   1.7078   1.7118   1.7217   1.7229   1.7529
     1.7596   1.7600   1.7666   1.7728   1.7749   1.7771   1.7826   1.7864
     1.8009   1.8315   1.8474   1.8512   1.9945   2.0002   2.0025   2.0030
     2.0070   2.0078

          k = 0.0000 0.2309 0.0000 ( 51134 PWs)   bands (ev):

   -21.8883 -10.6926  -7.5563  -6.8276  -6.3049  -5.7888  -5.4681  -5.3547
    -4.8828  -4.8799  -4.3729  -4.2270  -3.9558  -3.9527  -3.8513  -3.8378
    -3.6598  -3.4118  -3.2803  -3.2715  -3.1673  -2.8961  -2.6944  -2.6855
    -2.6219  -2.5800  -2.5652  -2.3769  -2.2759  -2.2578  -2.2455  -2.2207
    -2.2069  -2.1768  -2.1562  -2.1485  -2.1223  -2.0599  -1.9787  -1.9615
    -1.8907  -1.8882  -1.8167  -1.7467  -1.7172  -1.6920  -1.6860  -1.5801
    -1.5529  -1.5233  -1.4887  -1.4613  -1.4318  -1.4154  -1.3977  -1.3878
    -1.3837  -1.3706  -1.2990  -1.2664  -1.2476  -1.2399  -1.2070  -1.1954
    -1.1305  -1.0590  -0.8755  -0.7933  -0.7772  -0.7667  -0.7280  -0.6600
    -0.6443  -0.6099  -0.5682  -0.5379  -0.4536  -0.4332  -0.4287  -0.4122
    -0.3693  -0.3633  -0.3547  -0.3450  -0.3400  -0.3280  -0.2827  -0.2663
    -0.2288  -0.2023  -0.1873  -0.1856  -0.1664  -0.1394  -0.1280  -0.1094
    -0.1073  -0.1017  -0.0901  -0.0858  -0.0821  -0.0784  -0.0616  -0.0386
    -0.0032   0.0064   0.0116   0.0158   0.0473   0.0636   0.0795   0.0835
     0.1195   0.1416   0.1549   0.1771   0.2206   0.2256   0.2339   0.2648
     0.3869   0.4171   0.4498   0.4714   0.4911   0.5028   0.5383   0.5479
     0.5638   0.5705   0.5822   0.5898   0.7414   0.8512   0.9027   0.9134
     0.9233   0.9344   0.9535   0.9590   1.0012   1.0250   1.0893   1.0952
     1.1176   1.1645   1.1894   1.2198   1.2303   1.2541   1.2778   1.3001
     1.3376   1.3736   1.3863   1.4064   1.4099   1.4256   1.4519   1.4618
     1.4949   1.5147   1.5446   1.5561   1.5687   1.5829   1.5947   1.6152
     1.6478   1.6550   1.6618   1.6691   1.6913   1.6952   1.7419   1.7465
     1.7542   1.7583   1.7997   1.8056   1.8138   1.8329   1.8394   1.8492
     1.8664   1.8995   1.9057   1.9140   1.9339   1.9381   1.9458   1.9671
     1.9722   1.9924   1.9955   2.0099   2.0901   2.1000   2.1094   2.1426
     2.1705   2.1954

          k = 0.0000 0.4619 0.0000 ( 51204 PWs)   bands (ev):

   -21.8883 -10.6900  -7.1274  -6.8178  -6.4167  -6.0737  -5.6428  -5.3410
    -5.1005  -5.0842  -4.9485  -4.0183  -3.9771  -3.9021  -3.4001  -3.3374
    -3.3314  -3.2183  -3.0758  -3.0069  -2.8922  -2.8818  -2.7397  -2.7342
    -2.6796  -2.6660  -2.6153  -2.6015  -2.4979  -2.4863  -2.4463  -2.4233
    -2.4051  -2.2312  -2.1992  -2.1456  -2.1203  -2.1052  -2.0045  -1.9980
    -1.9839  -1.9778  -1.8793  -1.7209  -1.6887  -1.6733  -1.6480  -1.6332
    -1.4819  -1.4647  -1.4561  -1.4453  -1.4363  -1.4062  -1.4004  -1.3885
    -1.3577  -1.2932  -1.2794  -1.2701  -1.2560  -1.2207  -1.1083  -1.0546
    -0.9739  -0.9190  -0.8475  -0.8341  -0.7932  -0.7663  -0.7407  -0.7234
    -0.7085  -0.6981  -0.6711  -0.6374  -0.6132  -0.5675  -0.5617  -0.5233
    -0.4924  -0.4639  -0.4455  -0.4357  -0.4228  -0.3892  -0.3292  -0.2962
    -0.2635  -0.2396  -0.2232  -0.1945  -0.1629  -0.1485  -0.1283  -0.0997
    -0.0791  -0.0659  -0.0527  -0.0347  -0.0302  -0.0253  -0.0172   0.0170
     0.0284   0.0585   0.0646   0.0705   0.0810   0.0848   0.1096   0.1157
     0.1309   0.1532   0.1843   0.2688   0.2782   0.2916   0.3167   0.3279
     0.3363   0.3574   0.3629   0.4202   0.4400   0.4532   0.4728   0.4875
     0.5097   0.5275   0.5465   0.5560   0.5917   0.6692   0.7335   0.7521
     0.7799   0.8286   0.8531   0.9567   0.9768   0.9862   1.0073   1.0188
     1.0303   1.0777   1.0920   1.1110   1.1212   1.1800   1.2303   1.3054
     1.3195   1.3585   1.3715   1.3994   1.4205   1.4367   1.4514   1.4815
     1.5032   1.5253   1.5346   1.5929   1.6104   1.6283   1.6347   1.6651
     1.6775   1.6835   1.7179   1.7341   1.7431   1.7535   1.7603   1.7903
     1.8054   1.8438   1.8643   1.9016   1.9149   1.9367   1.9411   1.9526
     1.9598   1.9750   1.9917   2.0034   2.0059   2.0288   2.0331   2.0376
     2.0424   2.0842   2.1742   2.2497   2.2570   2.3654   2.5321   2.7021
     2.7562   2.8145

          k = 0.2000-0.1155 0.0000 ( 51134 PWs)   bands (ev):

   -21.8883 -10.6926  -7.5574  -6.8328  -6.2971  -5.7654  -5.4677  -5.3890
    -4.8762  -4.8716  -4.3678  -4.2620  -3.9568  -3.9504  -3.8554  -3.8050
    -3.6653  -3.4138  -3.2809  -3.2567  -3.1782  -2.9143  -2.6975  -2.6618
    -2.6264  -2.5858  -2.5563  -2.3601  -2.3060  -2.2494  -2.2476  -2.2361
    -2.2124  -2.1618  -2.1579  -2.1452  -2.1227  -2.0641  -1.9795  -1.9679
    -1.8922  -1.8865  -1.8308  -1.7364  -1.7024  -1.6915  -1.6560  -1.5896
    -1.5566  -1.5176  -1.4809  -1.4664  -1.4314  -1.4094  -1.3925  -1.3867
    -1.3837  -1.3447  -1.3207  -1.2689  -1.2492  -1.2444  -1.2145  -1.1948
    -1.1240  -1.0522  -0.8830  -0.7878  -0.7799  -0.7680  -0.7395  -0.6635
    -0.6464  -0.6149  -0.5717  -0.5377  -0.4631  -0.4280  -0.4165  -0.4089
    -0.3670  -0.3664  -0.3570  -0.3438  -0.3306  -0.3116  -0.2947  -0.2692
    -0.2332  -0.1972  -0.1875  -0.1832  -0.1695  -0.1448  -0.1256  -0.1122
    -0.1065  -0.0974  -0.0913  -0.0862  -0.0833  -0.0784  -0.0652  -0.0377
    -0.0048   0.0025   0.0197   0.0216   0.0402   0.0530   0.0688   0.0873
     0.1254   0.1386   0.1557   0.1842   0.2124   0.2308   0.2355   0.2662
     0.3815   0.4108   0.4526   0.4655   0.4973   0.5163   0.5339   0.5382
     0.5544   0.5754   0.5859   0.5888   0.7259   0.8667   0.8899   0.9101
     0.9181   0.9325   0.9481   0.9556   0.9975   1.0121   1.0936   1.1078
     1.1213   1.1795   1.1897   1.2248   1.2402   1.2578   1.2804   1.3054
     1.3361   1.3754   1.3944   1.4003   1.4044   1.4205   1.4519   1.4670
     1.4801   1.5148   1.5368   1.5524   1.5704   1.5890   1.5951   1.6400
     1.6487   1.6604   1.6635   1.6680   1.6825   1.6905   1.7365   1.7460
     1.7511   1.7592   1.7982   1.8097   1.8139   1.8274   1.8396   1.8533
     1.8625   1.9014   1.9037   1.9180   1.9343   1.9384   1.9445   1.9650
     1.9694   1.9909   1.9951   2.0079   2.0876   2.0980   2.1079   2.1335
     2.1769   2.2039

          k = 0.2000 0.1155 0.0000 ( 51134 PWs)   bands (ev):

   -21.8883 -10.6926  -7.5570  -6.8311  -6.2991  -5.7704  -5.4829  -5.3649
    -4.8812  -4.8720  -4.3651  -4.2604  -3.9570  -3.9507  -3.8572  -3.8070
    -3.6635  -3.4136  -3.2812  -3.2567  -3.1775  -2.9124  -2.6975  -2.6620
    -2.6335  -2.5820  -2.5564  -2.3476  -2.3150  -2.2578  -2.2467  -2.2371
    -2.2103  -2.1618  -2.1567  -2.1491  -2.1223  -2.0519  -1.9774  -1.9670
    -1.8907  -1.8853  -1.8354  -1.7435  -1.6967  -1.6930  -1.6665  -1.5791
    -1.5630  -1.5215  -1.4896  -1.4603  -1.4346  -1.4055  -1.3988  -1.3872
    -1.3819  -1.3512  -1.3050  -1.2687  -1.2512  -1.2442  -1.2153  -1.1912
    -1.1370  -1.0473  -0.8859  -0.7862  -0.7756  -0.7552  -0.7422  -0.6659
    -0.6512  -0.6204  -0.5570  -0.5367  -0.4595  -0.4271  -0.4227  -0.4055
    -0.3713  -0.3619  -0.3575  -0.3513  -0.3295  -0.3171  -0.2940  -0.2741
    -0.2250  -0.2009  -0.1878  -0.1859  -0.1674  -0.1426  -0.1254  -0.1112
    -0.1061  -0.0987  -0.0927  -0.0863  -0.0837  -0.0771  -0.0620  -0.0380
    -0.0034   0.0060   0.0151   0.0188   0.0426   0.0609   0.0720   0.0825
     0.1240   0.1345   0.1667   0.1819   0.2122   0.2273   0.2361   0.2662
     0.3904   0.4017   0.4485   0.4684   0.4874   0.5162   0.5307   0.5446
     0.5593   0.5717   0.5863   0.5893   0.7407   0.8743   0.8921   0.9091
     0.9151   0.9277   0.9510   0.9591   0.9977   1.0181   1.0748   1.0974
     1.1098   1.1831   1.1913   1.2260   1.2358   1.2576   1.2790   1.2953
     1.3391   1.3731   1.3921   1.4023   1.4083   1.4259   1.4550   1.4626
     1.4935   1.5120   1.5417   1.5622   1.5680   1.5899   1.5984   1.6316
     1.6475   1.6510   1.6607   1.6696   1.6802   1.6897   1.7393   1.7436
     1.7528   1.7580   1.7992   1.8100   1.8144   1.8319   1.8375   1.8531
     1.8636   1.9020   1.9049   1.9150   1.9333   1.9385   1.9466   1.9629
     1.9680   1.9945   1.9989   2.0069   2.0904   2.0987   2.1056   2.1341
     2.1712   2.2016

          k = 0.2000 0.3464 0.0000 ( 51202 PWs)   bands (ev):

   -21.8883 -10.6905  -7.2674  -6.8236  -6.1631  -5.9018  -5.8485  -5.5860
    -5.3606  -4.6311  -4.5192  -4.1483  -4.1363  -4.0457  -3.3160  -3.3073
    -3.3026  -3.2980  -3.1905  -3.1091  -3.0281  -2.9955  -2.9535  -2.6336
    -2.5725  -2.5609  -2.5476  -2.4727  -2.4565  -2.4342  -2.3774  -2.3465
    -2.3397  -2.3329  -2.3208  -2.1895  -2.1549  -2.1022  -1.9754  -1.9567
    -1.9236  -1.8846  -1.8384  -1.8242  -1.7664  -1.6647  -1.6135  -1.5873
    -1.5531  -1.4739  -1.4485  -1.4392  -1.4232  -1.4110  -1.4006  -1.3732
    -1.3597  -1.3389  -1.2842  -1.2631  -1.2129  -1.1638  -1.1077  -1.0637
    -0.9862  -0.9663  -0.8641  -0.8400  -0.7639  -0.7436  -0.7200  -0.6963
    -0.6775  -0.6641  -0.6467  -0.6096  -0.5713  -0.5482  -0.5346  -0.5157
    -0.5044  -0.4762  -0.4670  -0.4611  -0.4156  -0.3324  -0.2956  -0.2841
    -0.2654  -0.2638  -0.2235  -0.1997  -0.1876  -0.1754  -0.1486  -0.1385
    -0.1188  -0.1098  -0.0940  -0.0719  -0.0640  -0.0560  -0.0185  -0.0058
     0.0013   0.0143   0.0243   0.0537   0.0624   0.0687   0.0837   0.0906
     0.1090   0.1803   0.1885   0.1943   0.3005   0.3213   0.3367   0.3631
     0.3794   0.4214   0.4304   0.4605   0.4925   0.5037   0.5093   0.5196
     0.5308   0.5398   0.5792   0.5937   0.6617   0.7317   0.7986   0.8171
     0.8878   0.9221   0.9485   0.9677   0.9768   0.9951   1.0070   1.0126
     1.0237   1.0476   1.0642   1.0805   1.1120   1.1383   1.2192   1.2382
     1.2443   1.2787   1.2993   1.3222   1.3317   1.3499   1.4014   1.4271
[...]
     atom    8 type  1   force =    -0.00190704    0.00012949   -0.10058035
     atom    9 type  1   force =     0.00354629    0.00016492   -0.10110794
     atom   10 type  1   force =    -0.00163135    0.00097738   -0.01069006
     atom   11 type  1   force =     0.00023184    0.00008954   -0.00780245
     atom   12 type  1   force =     0.00138446    0.00094525   -0.00973806
     atom   13 type  1   force =    -0.00101541   -0.00077376   -0.01053275
     atom   14 type  1   force =     0.00049105   -0.00020892   -0.01238922
     atom   15 type  1   force =     0.00039980   -0.00025055   -0.01134934
     atom   16 type  1   force =     0.00109161    0.00128475   -0.01101171
     atom   17 type  1   force =     0.00063657   -0.00119299   -0.01079158
     atom   18 type  1   force =    -0.00131476   -0.00068508   -0.01166572
     atom   19 type  1   force =     0.00325177    0.00362626    0.01119248
     atom   20 type  1   force =    -0.00203903    0.01381447   -0.00094759
     atom   21 type  1   force =    -0.00165612   -0.00181066    0.01825562
     atom   22 type  1   force =     0.00002641    0.00032444    0.01811505
     atom   23 type  1   force =    -0.00053711    0.00110428    0.01746935
     atom   24 type  1   force =    -0.00027870    0.00121332    0.01636543
     atom   25 type  1   force =    -0.00442662   -0.00250862    0.00952812
     atom   26 type  1   force =    -0.00840427   -0.00918021   -0.00441251
     atom   27 type  1   force =     0.01239105   -0.00570835   -0.00113568
     atom   28 type  1   force =     0.02086067    0.00724587    0.15209787
     atom   29 type  1   force =    -0.04547232   -0.00669438    0.20308106
     atom   30 type  1   force =     0.00060991   -0.00060269    0.12607219
     atom   31 type  1   force =    -0.00328845   -0.03447651    0.13865190
     atom   32 type  1   force =    -0.00262237   -0.00243530    0.11868129
     atom   33 type  1   force =     0.00259943   -0.00413180    0.11008449
     atom   34 type  1   force =     0.00163450    0.00277259    0.10790576
     atom   35 type  1   force =     0.00243947    0.03106284    0.13816132
     atom   36 type  1   force =    -0.00412075    0.00607812    0.12108905
     atom   37 type  2   force =    -0.02608582   -0.00800145    0.28654094
     atom   38 type  3   force =     1.57256914   -0.17523433   -2.20371482
     atom   39 type  4   force =    -0.04366242    0.00771270   -0.02048902
     The ionic contribution  to forces
     atom    1 type  1   force =    -0.00638544    0.00723397 -111.11831452
     atom    2 type  1   force =     0.00632170    0.00748888 -111.11844828
     atom    3 type  1   force =     0.00006376    0.00248749 -111.10574044
     atom    4 type  1   force =     0.00017902    0.00369052 -111.10560973
     atom    5 type  1   force =    -0.00110199   -0.00408087 -111.10740557
     atom    6 type  1   force =     0.00092297   -0.00425950 -111.10776667
     atom    7 type  1   force =    -0.00721843   -0.00317357 -111.11168743
     atom    8 type  1   force =    -0.00025409   -0.00627505 -111.12669615
     atom    9 type  1   force =     0.00747249   -0.00311189 -111.11218863
     atom   10 type  1   force =    -0.05844480   -0.00509806  -40.15901772
     atom   11 type  1   force =     0.05697030   -0.00398777  -40.16245004
     atom   12 type  1   force =     0.00147901   -0.00165654  -40.04672661
     atom   13 type  1   force =     0.00017859    0.07006710  -40.10259296
     atom   14 type  1   force =     0.02970016    0.02292744  -40.04222079
     atom   15 type  1   force =    -0.02988022    0.02118017  -40.04282504
     atom   16 type  1   force =    -0.02431812   -0.01730916  -40.03802506
     atom   17 type  1   force =    -0.00164545   -0.06800792  -40.09018702
     atom   18 type  1   force =     0.02596234   -0.01811571  -40.04104006
     atom   19 type  1   force =    -0.32799262    0.37649614   31.12026766
     atom   20 type  1   force =     0.32820400    0.39507477   31.11600806
     atom   21 type  1   force =     0.00022515    0.10730922   31.71239354
     atom   22 type  1   force =     0.00733922    0.16312759   31.71924326
     atom   23 type  1   force =    -0.05361541   -0.19052548   31.65059857
     atom   24 type  1   force =     0.04630256   -0.19619215   31.63651151
     atom   25 type  1   force =    -0.35129211   -0.14992013   31.44921916
     atom   26 type  1   force =    -0.01776393   -0.35806203   30.64164980
     atom   27 type  1   force =     0.36833769   -0.14995761   31.42510106
     atom   28 type  1   force =    -4.10762538   -0.39249301   98.59090844
     atom   29 type  1   force =     4.31034641   -0.25489825   97.82735183
     atom   30 type  1   force =     0.01903242   -0.04429522  104.03189902
     atom   31 type  1   force =     0.06108484    3.32544382  102.26047921
     atom   32 type  1   force =     0.93981847    0.79902052  104.16260472
     atom   33 type  1   force =    -1.00407339    0.80690241  104.01445994
     atom   34 type  1   force =    -0.77423730   -0.64976772  104.16482795
     atom   35 type  1   force =    -0.04123526   -2.97577619  102.78448400
     atom   36 type  1   force =     0.81283291   -0.66158843  104.17348605
     atom   37 type  2   force =     3.50724683   -0.25606997   52.59116658
     atom   38 type  3   force =    -5.77415397    0.65776427   88.66765086
     atom   39 type  4   force =     2.05121706   -0.35159207   14.99863152
     The local contribution  to forces
     atom    1 type  1   force =     0.00467957   -0.00783416  111.22452684
     atom    2 type  1   force =    -0.00420665   -0.00967888  111.22217324
     atom    3 type  1   force =    -0.00032207   -0.00035974  111.21048063
     atom    4 type  1   force =    -0.00196375   -0.00434111  111.21311100
     atom    5 type  1   force =     0.00300744    0.00239786  111.21562065
     atom    6 type  1   force =    -0.00113283    0.00422371  111.21437031
     atom    7 type  1   force =     0.00922522    0.00526384  111.22054926
     atom    8 type  1   force =     0.00234652    0.00682192  111.23020050
     atom    9 type  1   force =    -0.01146447    0.00376893  111.21603201
     atom   10 type  1   force =     0.05998977    0.00384450   40.14868696
     atom   11 type  1   force =    -0.05731207    0.00345604   40.14720884
     atom   12 type  1   force =    -0.00304650    0.00005776   40.03821646
     atom   13 type  1   force =     0.00141928   -0.06950219   40.09578800
     atom   14 type  1   force =    -0.03062864   -0.02289450   40.03480632
     atom   15 type  1   force =     0.02938166   -0.02113336   40.03337685
     atom   16 type  1   force =     0.02305814    0.01672614   40.02734080
     atom   17 type  1   force =     0.00055755    0.07000807   40.08364596
     atom   18 type  1   force =    -0.02352882    0.01981099   40.03313715
     atom   19 type  1   force =     0.32422584   -0.37836255  -31.11148358
     atom   20 type  1   force =    -0.32549653   -0.40732395  -31.09609985
     atom   21 type  1   force =     0.00178717   -0.10443853  -31.70810410
     atom   22 type  1   force =    -0.00796167   -0.16441873  -31.71183111
     atom   23 type  1   force =     0.05525786    0.18832557  -31.64477948
     atom   24 type  1   force =    -0.04637564    0.19361516  -31.63122487
     atom   25 type  1   force =     0.35461900    0.15258218  -31.43643408
     atom   26 type  1   force =     0.02617006    0.36578238  -30.62070520
     atom   27 type  1   force =    -0.37980698    0.15610942  -31.40443458
     atom   28 type  1   force =     4.06958582    0.38380955  -98.75088380
     atom   29 type  1   force =    -4.24471022    0.26011955  -98.01752854
     atom   30 type  1   force =    -0.01482469    0.04542742 -104.17041321
     atom   31 type  1   force =    -0.06181191   -3.27503275 -102.40811781
     atom   32 type  1   force =    -0.92961409   -0.78701234 -104.29279542
     atom   33 type  1   force =     0.99758859   -0.79902747 -104.13530903
     atom   34 type  1   force =     0.77073578    0.64413306 -104.27985048
     atom   35 type  1   force =     0.03280034    2.92549691 -102.93383484
     atom   36 type  1   force =    -0.80255396    0.64618692 -104.30429194
     atom   37 type  2   force =    -3.48715667    0.26586431  -52.88269889
     atom   38 type  3   force =     4.22258530   -0.48472261  -86.47705339
     atom   39 type  4   force =    -2.00484020    0.34576243  -14.99357260
     The core correction contribution to forces
     atom    1 type  1   force =    -0.00013007   -0.00009862    0.00981797
     atom    2 type  1   force =     0.00012689   -0.00016670    0.01012741
     atom    3 type  1   force =    -0.00001403    0.00008365    0.00963763
     atom    4 type  1   force =    -0.00009135   -0.00008239    0.01029908
     atom    5 type  1   force =     0.00024760   -0.00009273    0.00994632
     atom    6 type  1   force =    -0.00010280   -0.00002413    0.00985940
     atom    7 type  1   force =     0.00014408    0.00013752    0.01020730
     atom    8 type  1   force =     0.00033774    0.00021049    0.01006482
     atom    9 type  1   force =    -0.00043050    0.00012797    0.01017282
     atom   10 type  1   force =    -0.00026679    0.00019114   -0.00190210
     atom   11 type  1   force =    -0.00004945    0.00002287   -0.00166683
     atom   12 type  1   force =     0.00018782   -0.00004810   -0.00168650
     atom   13 type  1   force =    -0.00017959    0.00025122   -0.00193314
     atom   14 type  1   force =     0.00016854    0.00019304   -0.00186809
     atom   15 type  1   force =    -0.00002621   -0.00009845   -0.00155253
     atom   16 type  1   force =    -0.00017135   -0.00001272   -0.00192830
     atom   17 type  1   force =    -0.00015336   -0.00006275   -0.00169439
     atom   18 type  1   force =     0.00030507   -0.00021785   -0.00195790
     atom   19 type  1   force =    -0.00017580   -0.00023539    0.00122996
     atom   20 type  1   force =     0.00014281   -0.00049201    0.00047841
     atom   21 type  1   force =     0.00025476    0.00005843    0.00169488
     atom   22 type  1   force =     0.00022994    0.00022628    0.00223741
     atom   23 type  1   force =    -0.00004304   -0.00004612    0.00169694
     atom   24 type  1   force =     0.00019797   -0.00034613    0.00149524
     atom   25 type  1   force =     0.00035039   -0.00000551    0.00170305
     atom   26 type  1   force =     0.00030293    0.00057685    0.00158949
     atom   27 type  1   force =     0.00023044    0.00005582    0.00092430
     atom   28 type  1   force =     0.01132455    0.00118226    0.00053422
     atom   29 type  1   force =    -0.02001774    0.00016970    0.02258688
     atom   30 type  1   force =    -0.00260882   -0.00058588   -0.00806435
     atom   31 type  1   force =     0.00143619   -0.00697236   -0.00730953
     atom   32 type  1   force =    -0.00160783   -0.00264460   -0.00852872
     atom   33 type  1   force =     0.00020180   -0.00056442   -0.01017020
     atom   34 type  1   force =    -0.00001586    0.00054464   -0.00965291
     atom   35 type  1   force =     0.00122109    0.00619585   -0.00719321
     atom   36 type  1   force =    -0.00105596    0.00323211   -0.00852791
     atom   37 type  2   force =    -0.00168487    0.00034591   -0.00184058
     atom   38 type  3   force =    -0.01229336    0.00140690    0.01735428
     atom   39 type  4   force =     0.00000000    0.00000000    0.00000000
     The Hubbard contrib.    to forces
     atom    1 type  1   force =     0.00000000    0.00000000    0.00000000
     atom    2 type  1   force =     0.00000000    0.00000000    0.00000000
     atom    3 type  1   force =     0.00000000    0.00000000    0.00000000
     atom    4 type  1   force =     0.00000000    0.00000000    0.00000000
     atom    5 type  1   force =     0.00000000    0.00000000    0.00000000
     atom    6 type  1   force =     0.00000000    0.00000000    0.00000000
     atom    7 type  1   force =     0.00000000    0.00000000    0.00000000
     atom    8 type  1   force =     0.00000000    0.00000000    0.00000000
     atom    9 type  1   force =     0.00000000    0.00000000    0.00000000
     atom   10 type  1   force =     0.00000000    0.00000000    0.00000000
     atom   11 type  1   force =     0.00000000    0.00000000    0.00000000
     atom   12 type  1   force =     0.00000000    0.00000000    0.00000000
     atom   13 type  1   force =     0.00000000    0.00000000    0.00000000
     atom   14 type  1   force =     0.00000000    0.00000000    0.00000000
     atom   15 type  1   force =     0.00000000    0.00000000    0.00000000
     atom   16 type  1   force =     0.00000000    0.00000000    0.00000000
     atom   17 type  1   force =     0.00000000    0.00000000    0.00000000
     atom   18 type  1   force =     0.00000000    0.00000000    0.00000000
     atom   19 type  1   force =     0.00000000    0.00000000    0.00000000
     atom   20 type  1   force =     0.00000000    0.00000000    0.00000000
     atom   21 type  1   force =     0.00000000    0.00000000    0.00000000
     atom   22 type  1   force =     0.00000000    0.00000000    0.00000000
     atom   23 type  1   force =     0.00000000    0.00000000    0.00000000
     atom   24 type  1   force =     0.00000000    0.00000000    0.00000000
     atom   25 type  1   force =     0.00000000    0.00000000    0.00000000
     atom   26 type  1   force =     0.00000000    0.00000000    0.00000000
     atom   27 type  1   force =     0.00000000    0.00000000    0.00000000
     atom   28 type  1   force =     0.00000000    0.00000000    0.00000000
     atom   29 type  1   force =     0.00000000    0.00000000    0.00000000
     atom   30 type  1   force =     0.00000000    0.00000000    0.00000000
     atom   31 type  1   force =     0.00000000    0.00000000    0.00000000
     atom   32 type  1   force =     0.00000000    0.00000000    0.00000000
     atom   33 type  1   force =     0.00000000    0.00000000    0.00000000
     atom   34 type  1   force =     0.00000000    0.00000000    0.00000000
     atom   35 type  1   force =     0.00000000    0.00000000    0.00000000
     atom   36 type  1   force =     0.00000000    0.00000000    0.00000000
     atom   37 type  2   force =     0.00000000    0.00000000    0.00000000
     atom   38 type  3   force =     0.00000000    0.00000000    0.00000000
     atom   39 type  4   force =     0.00000000    0.00000000    0.00000000
     The SCF correction term to forces
     atom    1 type  1   force =     0.00000000   -0.00000000    0.00000000
     atom    2 type  1   force =    -0.00000000   -0.00000000    0.00000000
     atom    3 type  1   force =     0.00000000   -0.00000000   -0.00000000
     atom    4 type  1   force =    -0.00000000   -0.00000000   -0.00000000
     atom    5 type  1   force =     0.00000000   -0.00000000   -0.00000000
     atom    6 type  1   force =    -0.00000000   -0.00000000   -0.00000000
     atom    7 type  1   force =     0.00000000    0.00000000   -0.00000000
     atom    8 type  1   force =    -0.00000000    0.00000000    0.00000000
     atom    9 type  1   force =    -0.00000000    0.00000000   -0.00000000
     atom   10 type  1   force =     0.00000000    0.00000000    0.00000000
     atom   11 type  1   force =    -0.00000000    0.00000000    0.00000000
     atom   12 type  1   force =     0.00000000    0.00000000   -0.00000000
     atom   13 type  1   force =    -0.00000000   -0.00000000    0.00000000
     atom   14 type  1   force =    -0.00000000   -0.00000000   -0.00000000
     atom   15 type  1   force =     0.00000000   -0.00000000   -0.00000000
     atom   16 type  1   force =     0.00000000    0.00000000   -0.00000000
     atom   17 type  1   force =     0.00000000    0.00000000   -0.00000000
     atom   18 type  1   force =    -0.00000000   -0.00000000   -0.00000000
     atom   19 type  1   force =     0.00000000   -0.00000000    0.00000000
     atom   20 type  1   force =    -0.00000000   -0.00000000    0.00000000
     atom   21 type  1   force =     0.00000000   -0.00000000    0.00000000
     atom   22 type  1   force =    -0.00000000   -0.00000000   -0.00000000
     atom   23 type  1   force =     0.00000000    0.00000000    0.00000000
     atom   24 type  1   force =    -0.00000000   -0.00000000    0.00000000
     atom   25 type  1   force =     0.00000000    0.00000000    0.00000000
     atom   26 type  1   force =    -0.00000000    0.00000000    0.00000000
     atom   27 type  1   force =    -0.00000000    0.00000000    0.00000000
     atom   28 type  1   force =     0.00000000    0.00000000    0.00000000
     atom   29 type  1   force =    -0.00000000    0.00000000    0.00000000
     atom   30 type  1   force =     0.00000000    0.00000000    0.00000000
     atom   31 type  1   force =    -0.00000000   -0.00000000    0.00000000
     atom   32 type  1   force =     0.00000000   -0.00000000    0.00000000
     atom   33 type  1   force =    -0.00000000   -0.00000000    0.00000000
     atom   34 type  1   force =     0.00000000    0.00000000    0.00000000
     atom   35 type  1   force =    -0.00000000    0.00000000    0.00000000
     atom   36 type  1   force =    -0.00000000    0.00000000    0.00000000
     atom   37 type  2   force =    -0.00000266   -0.00000034   -0.00000210
     atom   38 type  3   force =     0.00000117   -0.00000003   -0.00000908
     atom   39 type  4   force =    -0.00000149    0.00000038   -0.00000140

     Total force =     0.021287     Total SCF correction =     0.000010

     Writing all to output data dir ./pwscf.save/

     init_run     :     11.67s CPU     12.15s WALL (       1 calls)
     electrons    :    965.57s CPU    986.20s WALL (       1 calls)
     forces       :      3.45s CPU      3.55s WALL (       1 calls)

     Called by init_run:
     wfcinit      :      8.63s CPU      8.97s WALL (       1 calls)
     potinit      :      1.94s CPU      2.04s WALL (       1 calls)
     hinit0       :      0.86s CPU      0.87s WALL (       1 calls)

     Called by electrons:
     c_bands      :    818.07s CPU    833.81s WALL (      55 calls)
     sum_band     :     97.62s CPU    100.64s WALL (      55 calls)
     v_of_rho     :      9.28s CPU      9.83s WALL (      56 calls)
     newd         :      3.24s CPU      3.39s WALL (      56 calls)
     PAW_pot      :     13.91s CPU     14.27s WALL (      56 calls)
     mix_rho      :     24.65s CPU     25.24s WALL (      55 calls)
     vdW_kernel   :      1.08s CPU      1.09s WALL (       1 calls)

     Called by c_bands:
     init_us_2    :      9.13s CPU      9.54s WALL (    2912 calls)
     init_us_2:cp :      9.11s CPU      9.53s WALL (    2912 calls)
     cegterg      :    791.86s CPU    806.63s WALL (    1430 calls)

     Called by *egterg:
     cdiaghg      :    214.66s CPU    217.44s WALL (    4762 calls)
     h_psi        :    377.51s CPU    385.85s WALL (    4788 calls)
     s_psi        :     39.13s CPU     40.03s WALL (    4788 calls)
     g_psi        :      0.97s CPU      1.01s WALL (    3332 calls)

     Called by h_psi:
     h_psi:calbec :     61.10s CPU     62.61s WALL (    4788 calls)
     vloc_psi     :    273.74s CPU    279.55s WALL (    4788 calls)
     add_vuspsi   :     40.34s CPU     41.29s WALL (    4788 calls)

     General routines
     calbec       :     87.49s CPU     89.81s WALL (    6322 calls)
     fft          :      9.10s CPU      9.65s WALL (    5061 calls)
     ffts         :     12.14s CPU     12.45s WALL (   25204 calls)
     fftw         :    310.18s CPU    317.04s WALL ( 1485470 calls)
     interpolate  :      0.42s CPU      0.45s WALL (     112 calls)

     Parallel routines

     PWSCF        :  16m26.47s CPU  16m53.15s WALL


   This run was terminated on:  15:41:51   9Dec2025            

=------------------------------------------------------------------------------=
   JOB DONE.
=------------------------------------------------------------------------------=
