
     Program PWSCF v.7.1 starts on 26Feb2025 at 15:56: 9 
        Git branch: heads/qe-7.1
        Last git commit: 48ba0178f8fede6d020eb786884699a9f063f55d-dirty
        Last git commit date: Fri Jan 27 14:22:33 2023 +0000
        Last git commit subject: Merge branch 'fix_hubbard' into 'develop'

     This program is part of the open-source Quantum ESPRESSO suite
     for quantum simulation of materials; please cite
         "P. Giannozzi et al., J. Phys.:Condens. Matter 21 395502 (2009);
         "P. Giannozzi et al., J. Phys.:Condens. Matter 29 465901 (2017);
         "P. Giannozzi et al., J. Chem. Phys. 152 154105 (2020);
          URL http://www.quantum-espresso.org", 
     in publications or presentations arising from this work. More details at
     http://www.quantum-espresso.org/quote

     Parallel version (MPI), running on    48 processors

     MPI processes distributed on     1 nodes
     108886 MiB available memory on the printing compute node when the environment starts

     Reading input from espresso.pwi
Warning: card &CELL ignored
Warning: card / ignored
Warning: card &FCP ignored
Warning: card / ignored
Warning: card &RISM ignored
Warning: card / ignored

     Current dimensions of program PWSCF are:
     Max number of different atomic species (ntypx) = 10
     Max number of k-points (npk) =  40000
     Max angular momentum in pseudopotentials (lmaxx) =  4
     file Pt.pbe-n-kjpaw_psl.1.0.0.UPF: wavefunction(s)  6S 5D renormalized
     file O.pbe-nl-kjpaw_psl.1.0.0.UPF: wavefunction(s)  2S 2P renormalized
     file H.pbe-kjpaw_psl.1.0.0.UPF: wavefunction(s)  1S renormalized

     **************************************************************************
     Initializing libbeef V0.1.2 with the BEEF-vdW functional.
     Citation: Wellendorff et al., PRB 85, 235149 (2012).
     **************************************************************************


     IMPORTANT: XC functional enforced from input :
     Exchange-correlation= BEEF-VDW
                           (   1   4  43  14   2   0   0)
     Any further DFT definition will be discarded
     Please, verify this is what you really want


     R & G space division:  proc/nbgrp/npool/nimage =      48
     Subspace diagonalization in iterative solution of the eigenvalue problem:
     one sub-group per band group will be used
     custom distributed-memory algorithm (size of sub-group:  2*  2 procs)


     Parallelization info
     --------------------
     sticks:   dense  smooth     PW     G-vecs:    dense   smooth      PW
     Min         151      59     16                29407     7165    1028
     Max         152      60     17                29420     7176    1042
     Sum        7267    2839    769              1411785   344073   49691

     Using Slab Decomposition



     bravais-lattice index     =            0
     lattice parameter (alat)  =      16.0349  a.u.
     unit-cell volume          =   10068.6169 (a.u.)^3
     number of atoms/cell      =           39
     number of atomic types    =            3
     number of electrons       =       368.00
     number of Kohn-Sham states=          221
     kinetic-energy cutoff     =      40.0000  Ry
     charge density cutoff     =     410.0000  Ry
     scf convergence threshold =      1.0E-06
     mixing beta               =       0.7000
     number of iterations used =            8  local-TF  mixing
     Exchange-correlation= BEEF-VDW
                           (   1   4  43  14   2   0   0)

     celldm(1)=  16.034858  celldm(2)=   0.000000  celldm(3)=   0.000000
     celldm(4)=   0.000000  celldm(5)=   0.000000  celldm(6)=   0.000000

     crystal axes: (cart. coord. in units of alat)
               a(1) = (   1.000000   0.000000   0.000000 )  
               a(2) = (   0.500000   0.866025   0.000000 )  
               a(3) = (   0.000000   0.000000   2.819966 )  

     reciprocal axes: (cart. coord. in units 2 pi/alat)
               b(1) = (  1.000000 -0.577350  0.000000 )  
               b(2) = (  0.000000  1.154701  0.000000 )  
               b(3) = (  0.000000  0.000000  0.354614 )  


     PseudoPot. # 1 for Pt read from file:
     /users/kbadger1/espresso/pseudo/pslibrary.1.0.0/pbe/PSEUDOPOTENTIALS/Pt.pbe-n-kjpaw_psl.1.0.0.UPF
     MD5 check sum: 2e24a0b5bf98a4ed1a57fa81bca8c143
     Pseudo is Projector augmented-wave + core cor, Zval = 10.0
     Generated using 'atomic' code by A. Dal Corso  v.7.0
     Shape of augmentation charge: PSQ
     Using radial grid of 1277 points,  6 beta functions with: 
                l(1) =   0
                l(2) =   0
                l(3) =   1
                l(4) =   1
                l(5) =   2
                l(6) =   2
     Q(r) pseudized with 0 coefficients 


     PseudoPot. # 2 for O  read from file:
     /users/kbadger1/espresso/pseudo/pslibrary.1.0.0/pbe/PSEUDOPOTENTIALS/O.pbe-nl-kjpaw_psl.1.0.0.UPF
     MD5 check sum: f0439fab3598ca4e468f064226030408
     Pseudo is Projector augmented-wave + core cor, Zval =  6.0
     Generated using 'atomic' code by A. Dal Corso  v.7.0
     Shape of augmentation charge: PSQ
     Using radial grid of 1095 points,  4 beta functions with: 
                l(1) =   0
                l(2) =   0
                l(3) =   1
                l(4) =   1
     Q(r) pseudized with 0 coefficients 


     PseudoPot. # 3 for H  read from file:
     /users/kbadger1/espresso/pseudo/pslibrary.1.0.0/pbe/PSEUDOPOTENTIALS/H.pbe-kjpaw_psl.1.0.0.UPF
     MD5 check sum: fe4c6fa958fa6d3815bf5d2419cbf1df
     Pseudo is Projector augmented-wave, Zval =  1.0
     Generated using 'atomic' code by A. Dal Corso  v.7.0
     Shape of augmentation charge: PSQ
     Using radial grid of  929 points,  2 beta functions with: 
                l(1) =   0
                l(2) =   0
     Q(r) pseudized with 0 coefficients 


     atomic species   valence    mass     pseudopotential
        Pt            10.00   195.08400     Pt( 1.00)
        O              6.00    15.99900     O ( 1.00)
        H              1.00     1.00800     H ( 1.00)

     No symmetry found



   Cartesian axes

     site n.     atom                  positions (alat units)
         1           Pt  tau(   1) = (   0.0000000   0.0000000   1.0017346  )
         2           Pt  tau(   2) = (   0.3333333   0.0000000   1.0017346  )
         3           Pt  tau(   3) = (   0.6666667   0.0000000   1.0017346  )
         4           Pt  tau(   4) = (   0.1666667   0.2886751   1.0017346  )
         5           Pt  tau(   5) = (   0.5000000   0.2886751   1.0017346  )
         6           Pt  tau(   6) = (   0.8333333   0.2886751   1.0017346  )
         7           Pt  tau(   7) = (   0.3333333   0.5773503   1.0017346  )
         8           Pt  tau(   8) = (   0.6666667   0.5773503   1.0017346  )
         9           Pt  tau(   9) = (   1.0000000   0.5773503   1.0017346  )
        10           Pt  tau(  10) = (   0.1666667   0.0962250   1.2739001  )
        11           Pt  tau(  11) = (   0.5000000   0.0962250   1.2739001  )
        12           Pt  tau(  12) = (   0.8333333   0.0962250   1.2739001  )
        13           Pt  tau(  13) = (   0.3333333   0.3849002   1.2739001  )
        14           Pt  tau(  14) = (   0.6666667   0.3849002   1.2739001  )
        15           Pt  tau(  15) = (   1.0000000   0.3849002   1.2739001  )
        16           Pt  tau(  16) = (   0.5000000   0.6735753   1.2739001  )
        17           Pt  tau(  17) = (   0.8333333   0.6735753   1.2739001  )
        18           Pt  tau(  18) = (   1.1666667   0.6735753   1.2739001  )
        19           Pt  tau(  19) = (  -0.0020031   0.1945299   1.5410780  )
        20           Pt  tau(  20) = (   0.3322136   0.1958861   1.5452658  )
        21           Pt  tau(  21) = (   0.6643697   0.1939128   1.5449498  )
        22           Pt  tau(  22) = (   0.1640691   0.4842650   1.5430774  )
        23           Pt  tau(  23) = (   0.4966383   0.4803421   1.5491917  )
        24           Pt  tau(  24) = (   0.8310327   0.4838600   1.5422676  )
        25           Pt  tau(  25) = (   0.3296051   0.7725434   1.5443569  )
        26           Pt  tau(  26) = (   0.6634521   0.7719442   1.5405626  )
        27           Pt  tau(  27) = (   0.9987624   0.7730495   1.5442312  )
        28           Pt  tau(  28) = (  -0.0067103   0.0063386   1.8168988  )
        29           Pt  tau(  29) = (   0.3245015   0.0036998   1.8133320  )
        30           Pt  tau(  30) = (   0.6602646   0.0065447   1.8303625  )
        31           Pt  tau(  31) = (   0.1593289   0.2953687   1.8150736  )
        32           Pt  tau(  32) = (   0.4941498   0.2991317   1.8287061  )
        33           Pt  tau(  33) = (   0.8304479   0.2954504   1.8135816  )
        34           Pt  tau(  34) = (   0.3256525   0.5871781   1.8186314  )
        35           Pt  tau(  35) = (   0.6616288   0.5858951   1.8164358  )
        36           Pt  tau(  36) = (   0.9944933   0.5842134   1.8178817  )
        37           O   tau(  37) = (   0.5108579   0.2431269   2.0686033  )
        38           H   tau(  38) = (   0.5950369   0.3083685   2.1113407  )
        39           H   tau(  39) = (   0.6064120   0.0851004   1.9964982  )

     number of k points=    13  Marzari-Vanderbilt smearing, width (Ry)=  0.0200
                       cart. coord. in units 2pi/alat
        k(    1) = (   0.0000000   0.0000000   0.0000000), wk =   0.0800000
        k(    2) = (   0.0000000   0.2309401   0.0000000), wk =   0.1600000
        k(    3) = (   0.0000000   0.4618802   0.0000000), wk =   0.1600000
        k(    4) = (   0.2000000  -0.1154701   0.0000000), wk =   0.1600000
        k(    5) = (   0.2000000   0.1154701   0.0000000), wk =   0.1600000
        k(    6) = (   0.2000000   0.3464102   0.0000000), wk =   0.1600000
        k(    7) = (   0.2000000  -0.5773503   0.0000000), wk =   0.1600000
        k(    8) = (   0.2000000  -0.3464102   0.0000000), wk =   0.1600000
        k(    9) = (   0.4000000  -0.2309401   0.0000000), wk =   0.1600000
        k(   10) = (   0.4000000  -0.0000000   0.0000000), wk =   0.1600000
        k(   11) = (   0.4000000   0.2309401   0.0000000), wk =   0.1600000
        k(   12) = (   0.4000000  -0.6928203   0.0000000), wk =   0.1600000
        k(   13) = (   0.4000000  -0.4618802   0.0000000), wk =   0.1600000

     Dense  grid:  1411785 G-vectors     FFT dimensions: ( 108, 108, 300)

     Smooth grid:   344073 G-vectors     FFT dimensions: (  72,  72, 192)

     Estimated max dynamical RAM per process >     207.10 MB

     Estimated total dynamical RAM >       9.71 GB

     Initial potential from superposition of free atoms

     starting charge     367.9939, renormalised to     368.0000

     negative rho (up, down):  3.187E-03 0.000E+00


     %%%%%%%%%%%%%%%%%%%%%%%%%%%%%%%%%%%%%%%%%%%%%%%%%%%%%%%%%%%%%%%%%%%%%%%%
     %                                                                      %
     % You are using vdW-DF, which was implemented by the Thonhauser group. %
     % Please cite the following two papers that made this development      %
     % possible and the two reviews that describe the various versions:     %
     %                                                                      %
     %   T. Thonhauser et al., PRL 115, 136402 (2015).                      %
     %   T. Thonhauser et al., PRB 76, 125112 (2007).                       %
     %   K. Berland et al., Rep. Prog. Phys. 78, 066501 (2015).             %
     %   D.C. Langreth et al., J. Phys.: Condens. Matter 21, 084203 (2009). %
     %                                                                      %
     % If you are calculating stress with vdW-DF, please also cite:         %
     %                                                                      %
     %   R. Sabatini et al., J. Phys.: Condens. Matter 24, 424209 (2012).   %
     %                                                                      %
     %%%%%%%%%%%%%%%%%%%%%%%%%%%%%%%%%%%%%%%%%%%%%%%%%%%%%%%%%%%%%%%%%%%%%%%%

     %%%%%%%%%%%%%%%%%%%%%%%%%%%%%%%%%%%%%%%%%%%%%%%%%%%%%%%%%%%%%%%%%%%%%%%%
     %                                                                      %
     %  vdW-DF NEWS:                                                        %
     %                                                                      %
     %  * vdW-DF3 is now available. DOI: 10.1021/acs.jctc.0c00471           %
     %    use with input_dft = 'vdW-DF3-opt1' or 'vdW-DF3-opt2'             %
     %                                                                      %
     %  * Unscreened and range-separated hybrid vdW-DF-cx functionals       %
     %    DOI: 10.1063/1.4986522 and 10.1088/1361-648X/ac2ad2               %
     %    use with input_dft = 'vdW-DF-cx0'    and 'vdW-DF-ahcx'            %
     %  * Unscreened and range-separated hybrid vdW-DF2-b86r functionals    %
     %    DOI: 10.1063/1.4986522 and DOI: 10.1103/PhysRevX.12.041003        %
     %    use with input_dft = 'vdW-DF2-br0' and 'vdW-DF2-ahbr'             %
     %                                                                      %
     %%%%%%%%%%%%%%%%%%%%%%%%%%%%%%%%%%%%%%%%%%%%%%%%%%%%%%%%%%%%%%%%%%%%%%%%


     Starting wfcs are  330 randomized atomic wfcs
     Checking if some PAW data can be deallocated... 

     total cpu time spent up to now is       22.4 secs

     per-process dynamical memory:   212.1 Mb

     Self-consistent Calculation

     iteration #  1     ecut=    40.00 Ry     beta= 0.70
     Davidson diagonalization with overlap
     ethr =  1.00E-02,  avg # of iterations =  2.0

     Threshold (ethr) on eigenvalues was too large:
     Diagonalizing with lowered threshold

     Davidson diagonalization with overlap
     ethr =  6.65E-04,  avg # of iterations =  3.1

     negative rho (up, down):  1.052E-02 0.000E+00

     total cpu time spent up to now is       62.2 secs

     total energy              =  -27798.79373589 Ry
     estimated scf accuracy    <       2.61001906 Ry

     iteration #  2     ecut=    40.00 Ry     beta= 0.70
     Davidson diagonalization with overlap
     ethr =  7.09E-04,  avg # of iterations =  2.8

     negative rho (up, down):  8.778E-03 0.000E+00

     total cpu time spent up to now is       86.3 secs

     total energy              =  -27799.01051607 Ry
     estimated scf accuracy    <       0.99290355 Ry

     iteration #  3     ecut=    40.00 Ry     beta= 0.70
     Davidson diagonalization with overlap
     ethr =  2.70E-04,  avg # of iterations =  2.0

     negative rho (up, down):  5.933E-03 0.000E+00

     total cpu time spent up to now is      110.2 secs

     total energy              =  -27799.08411629 Ry
     estimated scf accuracy    <       0.27202745 Ry

     iteration #  4     ecut=    40.00 Ry     beta= 0.70
     Davidson diagonalization with overlap
     c_bands:  1 eigenvalues not converged
     ethr =  7.39E-05,  avg # of iterations = 11.6

     negative rho (up, down):  4.034E-03 0.000E+00

     total cpu time spent up to now is      149.1 secs

     total energy              =  -27799.13095430 Ry
     estimated scf accuracy    <       0.15820796 Ry

     iteration #  5     ecut=    40.00 Ry     beta= 0.70
     Davidson diagonalization with overlap
     ethr =  4.30E-05,  avg # of iterations =  2.0

     negative rho (up, down):  2.276E-03 0.000E+00

     total cpu time spent up to now is      173.8 secs

     total energy              =  -27799.13831863 Ry
     estimated scf accuracy    <       0.03238431 Ry

     iteration #  6     ecut=    40.00 Ry     beta= 0.70
     Davidson diagonalization with overlap
     c_bands:  1 eigenvalues not converged
     c_bands:  1 eigenvalues not converged
     ethr =  8.80E-06,  avg # of iterations = 12.6

     negative rho (up, down):  1.207E-03 0.000E+00

     total cpu time spent up to now is      228.1 secs

     total energy              =  -27799.14432492 Ry
     estimated scf accuracy    <       0.00699899 Ry

     iteration #  7     ecut=    40.00 Ry     beta= 0.70
     Davidson diagonalization with overlap
     c_bands:  1 eigenvalues not converged
     ethr =  1.90E-06,  avg # of iterations = 11.0

     negative rho (up, down):  9.782E-04 0.000E+00

     total cpu time spent up to now is      265.6 secs

     total energy              =  -27799.14544383 Ry
     estimated scf accuracy    <       0.00213564 Ry

     iteration #  8     ecut=    40.00 Ry     beta= 0.70
     Davidson diagonalization with overlap
     ethr =  5.80E-07,  avg # of iterations =  4.1

     negative rho (up, down):  9.563E-04 0.000E+00

     total cpu time spent up to now is      292.3 secs

     total energy              =  -27799.14574477 Ry
     estimated scf accuracy    <       0.00056378 Ry

     iteration #  9     ecut=    40.00 Ry     beta= 0.70
     Davidson diagonalization with overlap
     ethr =  1.53E-07,  avg # of iterations =  4.2

     negative rho (up, down):  9.836E-04 0.000E+00

     total cpu time spent up to now is      323.9 secs

     total energy              =  -27799.14590287 Ry
     estimated scf accuracy    <       0.00017842 Ry

     iteration # 10     ecut=    40.00 Ry     beta= 0.70
     Davidson diagonalization with overlap
     c_bands:  1 eigenvalues not converged
     ethr =  4.85E-08,  avg # of iterations =  5.2

     negative rho (up, down):  1.051E-03 0.000E+00

     total cpu time spent up to now is      353.8 secs

     total energy              =  -27799.14594286 Ry
     estimated scf accuracy    <       0.00010968 Ry

     iteration # 11     ecut=    40.00 Ry     beta= 0.70
     Davidson diagonalization with overlap
     ethr =  2.98E-08,  avg # of iterations =  1.8

     negative rho (up, down):  1.135E-03 0.000E+00

     total cpu time spent up to now is      379.0 secs

     total energy              =  -27799.14595503 Ry
     estimated scf accuracy    <       0.00006617 Ry

     iteration # 12     ecut=    40.00 Ry     beta= 0.70
     Davidson diagonalization with overlap
     ethr =  1.80E-08,  avg # of iterations =  1.9

     negative rho (up, down):  1.397E-03 0.000E+00

     total cpu time spent up to now is      392.3 secs

     total energy              =  -27799.14596819 Ry
     estimated scf accuracy    <       0.00004577 Ry

     iteration # 13     ecut=    40.00 Ry     beta= 0.70
     Davidson diagonalization with overlap
     ethr =  1.24E-08,  avg # of iterations =  3.3

     negative rho (up, down):  1.727E-03 0.000E+00

     total cpu time spent up to now is      419.1 secs

     total energy              =  -27799.14597343 Ry
     estimated scf accuracy    <       0.00001610 Ry

     iteration # 14     ecut=    40.00 Ry     beta= 0.70
     Davidson diagonalization with overlap
     ethr =  4.37E-09,  avg # of iterations =  2.2

     negative rho (up, down):  1.925E-03 0.000E+00

     total cpu time spent up to now is      444.6 secs

     total energy              =  -27799.14597519 Ry
     estimated scf accuracy    <       0.00001366 Ry

     iteration # 15     ecut=    40.00 Ry     beta= 0.70
     Davidson diagonalization with overlap
     ethr =  3.71E-09,  avg # of iterations =  1.9

     negative rho (up, down):  2.512E-03 0.000E+00

     total cpu time spent up to now is      468.9 secs

     total energy              =  -27799.14597257 Ry
     estimated scf accuracy    <       0.00000857 Ry

     iteration # 16     ecut=    40.00 Ry     beta= 0.70
     Davidson diagonalization with overlap
     ethr =  2.33E-09,  avg # of iterations =  2.0

     negative rho (up, down):  2.702E-03 0.000E+00

     total cpu time spent up to now is      483.3 secs

     total energy              =  -27799.14597191 Ry
     estimated scf accuracy    <       0.00000443 Ry

     iteration # 17     ecut=    40.00 Ry     beta= 0.70
     Davidson diagonalization with overlap
     ethr =  1.20E-09,  avg # of iterations =  2.0

     negative rho (up, down):  2.798E-03 0.000E+00

     total cpu time spent up to now is      508.1 secs

     total energy              =  -27799.14597180 Ry
     estimated scf accuracy    <       0.00000125 Ry

     iteration # 18     ecut=    40.00 Ry     beta= 0.70
     Davidson diagonalization with overlap
     ethr =  3.38E-10,  avg # of iterations =  4.4

     negative rho (up, down):  3.086E-03 0.000E+00

     total cpu time spent up to now is      540.9 secs

     End of self-consistent calculation

          k = 0.0000 0.0000 0.0000 ( 42913 PWs)   bands (ev):

   -16.6256  -6.2267  -5.0021  -4.3440  -3.8643  -3.8261  -3.8142  -3.8092
    -3.7936  -3.7871  -3.7721  -3.7163  -3.3475  -3.2561  -3.2500  -3.2480
    -3.2373  -3.2208  -2.9899  -2.7921  -2.7866  -2.7803  -2.7692  -2.7629
    -2.6839  -2.5848  -2.5651  -2.5584  -2.5562  -2.5306  -2.4395  -2.3538
    -2.3464  -2.3417  -2.3341  -2.3279  -2.3239  -2.2998  -2.2977  -2.2861
    -2.2824  -2.2542  -2.1375  -1.7962  -1.7170  -1.7117  -1.7088  -1.6851
    -1.6688  -1.6445  -1.6293  -1.6177  -1.5683  -1.5047  -1.4636  -1.4448
    -1.3817  -1.1648  -0.9590  -0.9284  -0.9001  -0.8869  -0.8685  -0.8546
    -0.8243  -0.7357  -0.7233  -0.7143  -0.7136  -0.6970  -0.6877  -0.6768
    -0.6742  -0.6552  -0.6413  -0.6397  -0.6195  -0.6042  -0.6014  -0.5779
    -0.5223  -0.5133  -0.4898  -0.4786  -0.4363  -0.3276  -0.3166  -0.3018
    -0.2881  -0.2671  -0.2579  -0.2503  -0.2369  -0.2311  -0.1567  -0.1521
    -0.1440  -0.1332  -0.0512  -0.0503  -0.0270  -0.0090  -0.0062   0.0422
     0.0680   0.1187   0.1376   0.1635   0.1767   0.2551   0.3831   0.5432
     0.6054   0.6194   0.6269   0.6374   0.6439   0.6587   0.6854   0.7108
     0.7186   0.7716   0.7836   0.7996   0.8272   0.9165   0.9252   0.9323
     0.9766   1.0060   1.0262   1.0704   1.0824   1.1234   1.1340   1.1645
     1.1997   1.2882   1.3591   1.3761   1.3898   1.3939   1.4085   1.4315
     1.4515   1.5684   1.6198   1.6363   1.6453   1.6533   1.6804   1.7122
     1.7719   1.7912   1.8121   1.8189   1.8262   1.8391   1.8438   1.8537
     1.8603   1.8711   1.9104   1.9269   1.9453   1.9690   1.9774   1.9882
     2.0031   2.0151   2.0570   2.0607   2.0742   2.0841   2.0959   2.1061
     2.1287   2.1342   2.1370   2.1905   2.2000   2.2109   2.2232   2.2267
     2.2369   2.2650   2.3034   2.3180   2.3222   2.3469   2.3497   2.4825
     2.5361   2.6096   2.6123   2.6392   2.6564   2.6583   2.6640   2.7436
     3.1933   3.4793   3.5364   3.5471   3.5537   3.5893   4.1252   5.3240
     5.8160   5.8454   5.8690   5.9003   6.2583   7.1668   7.4048   7.4318
     7.4604   7.4699   7.4785   7.5142   7.6103

          k = 0.0000 0.2309 0.0000 ( 42996 PWs)   bands (ev):

   -16.6256  -6.0799  -4.8705  -4.3566  -4.2775  -3.9281  -3.8917  -3.7075
    -3.6657  -3.6040  -3.5731  -3.5364  -3.3987  -3.3383  -3.2442  -3.1812
    -3.1716  -3.1489  -2.9497  -2.8692  -2.7574  -2.7439  -2.7329  -2.7095
    -2.6591  -2.6403  -2.6001  -2.5767  -2.5588  -2.5283  -2.4900  -2.4634
    -2.4350  -2.3614  -2.3465  -2.3302  -2.3263  -2.2261  -2.1414  -2.1282
    -2.1098  -2.0866  -2.0608  -1.8828  -1.8349  -1.8144  -1.7779  -1.7564
    -1.7320  -1.6752  -1.5888  -1.5383  -1.4954  -1.4608  -1.4379  -1.4145
    -1.3799  -1.2631  -1.1408  -1.0824  -1.0578  -1.0356  -0.9884  -0.9727
    -0.9301  -0.8841  -0.8740  -0.8544  -0.8395  -0.8091  -0.7850  -0.7498
    -0.7184  -0.6989  -0.6820  -0.6120  -0.5905  -0.5703  -0.5311  -0.5142
    -0.5005  -0.4839  -0.4625  -0.4419  -0.3984  -0.3798  -0.3340  -0.3195
    -0.3049  -0.2898  -0.2684  -0.2437  -0.2262  -0.1983  -0.1666  -0.1466
    -0.1277  -0.1122  -0.0899  -0.0691  -0.0466  -0.0396  -0.0217   0.0593
     0.0918   0.1230   0.1445   0.1511   0.1707   0.1966   0.2118   0.2318
     0.2409   0.2580   0.2941   0.4273   0.5140   0.5602   0.5903   0.6164
     0.6522   0.6730   0.6912   0.6987   0.7420   0.8498   0.8741   0.9002
     0.9649   0.9995   1.0166   1.0417   1.0824   1.1006   1.1250   1.1515
     1.1920   1.2282   1.2428   1.2610   1.2718   1.2889   1.3633   1.4606
     1.4782   1.4942   1.5108   1.5235   1.5660   1.6131   1.6281   1.6532
     1.6665   1.6815   1.7215   1.7446   1.7563   1.7826   1.8112   1.8755
     1.8910   1.9441   1.9716   2.0036   2.0290   2.0481   2.0571   2.0640
     2.0911   2.1409   2.1753   2.1872   2.2297   2.2480   2.2597   2.2815
     2.2938   2.3018   2.3106   2.3215   2.3643   2.3799   2.4678   2.5095
     2.5425   2.5461   2.5584   2.5700   2.5929   2.6010   2.6374   2.6468
     2.6699   2.7610   2.7704   2.7885   2.8950   2.9402   2.9515   2.9676
     3.1935   3.3255   3.5389   4.0067   4.1553   4.2024   4.4142   5.1236
     5.4106   5.6802   6.1690   6.2856   6.3066   6.4954   6.7297   7.1269
     7.2690   7.3545   7.5506   7.6354   7.6563

          k = 0.0000 0.4619 0.0000 ( 43046 PWs)   bands (ev):

   -16.6256  -5.6578  -5.0245  -4.5572  -4.2333  -3.9585  -3.9290  -3.7974
    -3.5798  -3.4222  -3.3564  -3.2872  -3.2317  -3.2075  -3.1541  -3.0386
    -3.0121  -3.0010  -2.9882  -2.9155  -2.8512  -2.8332  -2.8198  -2.7785
    -2.7574  -2.7299  -2.6822  -2.6542  -2.6405  -2.5651  -2.3954  -2.3839
    -2.3756  -2.3671  -2.3584  -2.2838  -2.1411  -2.1316  -2.1092  -2.0982
    -2.0848  -2.0236  -1.9014  -1.8407  -1.8111  -1.7877  -1.7764  -1.7480
    -1.6961  -1.6805  -1.6500  -1.6274  -1.5991  -1.5461  -1.4560  -1.4397
    -1.4210  -1.3997  -1.3350  -1.2767  -1.2561  -1.2235  -1.1945  -1.1072
    -1.0559  -1.0045  -0.9847  -0.9609  -0.9462  -0.8954  -0.8800  -0.8284
    -0.7832  -0.7318  -0.7081  -0.6819  -0.6444  -0.6122  -0.6045  -0.5827
    -0.5657  -0.5473  -0.5174  -0.4953  -0.4889  -0.4783  -0.4568  -0.4502
    -0.4173  -0.4019  -0.3550  -0.3277  -0.3173  -0.3087  -0.2973  -0.2685
    -0.2015  -0.1435  -0.1221  -0.1019  -0.0594  -0.0378  -0.0192  -0.0034
     0.0376   0.0815   0.1249   0.1516   0.1820   0.2189   0.2366   0.2660
     0.3560   0.3861   0.4159   0.4719   0.5268   0.5409   0.5665   0.5821
     0.5895   0.6129   0.6248   0.6626   0.6862   0.7026   0.7228   0.7368
     0.7720   0.7980   0.8141   0.8431   0.9224   0.9497   0.9712   1.0005
     1.0286   1.1067   1.1478   1.1834   1.2467   1.2667   1.3415   1.3788
     1.4192   1.4490   1.4796   1.5058   1.5176   1.5356   1.5722   1.6056
     1.6104   1.6509   1.6878   1.6963   1.7714   1.7944   1.8027   1.8167
     1.8350   1.9030   1.9935   2.0246   2.0321   2.0731   2.0941   2.1073
     2.1710   2.1959   2.2141   2.2597   2.3136   2.3219   2.3596   2.3851
     2.4090   2.4166   2.4608   2.5150   2.5223   2.5462   2.5542   2.5602
     2.5811   2.5853   2.7345   2.7663   2.7746   2.7852   2.8219   2.9483
     2.9883   3.0315   3.2884   3.4568   3.5469   3.7786   3.8542   3.8621
     4.2220   4.2472   4.4211   4.5719   4.9335   5.0673   5.0736   5.1211
     5.3025   5.3712   5.4114   5.6062   5.7210   5.7733   6.2501   6.3795
     6.7611   6.9462   7.1685   7.4617   7.6351

          k = 0.2000-0.1155 0.0000 ( 42996 PWs)   bands (ev):

   -16.6256  -6.0803  -4.8702  -4.3699  -4.2728  -3.9143  -3.8923  -3.7144
    -3.6678  -3.6125  -3.5640  -3.5361  -3.4022  -3.3367  -3.2273  -3.1833
    -3.1779  -3.1587  -2.9765  -2.8307  -2.7559  -2.7404  -2.7378  -2.6974
    -2.6592  -2.6302  -2.6159  -2.5759  -2.5610  -2.5303  -2.5201  -2.4605
    -2.4241  -2.3754  -2.3667  -2.3349  -2.3131  -2.2380  -2.1374  -2.1226
    -2.1050  -2.0882  -2.0492  -1.8526  -1.8373  -1.8093  -1.7691  -1.7499
    -1.7116  -1.6983  -1.5865  -1.5312  -1.5032  -1.4658  -1.4345  -1.4170
    -1.3872  -1.2505  -1.1451  -1.0790  -1.0511  -1.0055  -0.9872  -0.9557
    -0.9193  -0.9040  -0.8847  -0.8609  -0.8524  -0.8075  -0.7870  -0.7302
    -0.6933  -0.6837  -0.6786  -0.6513  -0.6214  -0.6066  -0.5298  -0.5216
    -0.4985  -0.4547  -0.4318  -0.4185  -0.4110  -0.3557  -0.3386  -0.3233
    -0.3098  -0.3006  -0.2828  -0.2524  -0.2164  -0.1942  -0.1805  -0.1470
    -0.1289  -0.1123  -0.0964  -0.0883  -0.0498  -0.0368  -0.0113   0.0562
     0.0999   0.1162   0.1326   0.1508   0.1658   0.1849   0.2169   0.2341
     0.2488   0.2546   0.3228   0.4420   0.5081   0.5686   0.5824   0.5973
     0.6562   0.6672   0.6878   0.6952   0.7593   0.8486   0.8750   0.8955
     0.9457   0.9924   1.0039   1.0367   1.0717   1.0879   1.1226   1.1509
     1.1728   1.2064   1.2286   1.2564   1.2798   1.2937   1.3613   1.4410
     1.4775   1.4895   1.5072   1.5362   1.5684   1.5904   1.6315   1.6520
     1.6675   1.7016   1.7293   1.7496   1.7619   1.7825   1.8414   1.8786
     1.8952   1.9537   1.9805   2.0081   2.0207   2.0433   2.0534   2.0690
     2.0814   2.1510   2.1747   2.1975   2.2070   2.2413   2.2602   2.2818
     2.2970   2.3081   2.3149   2.3227   2.3587   2.3671   2.4558   2.4853
     2.5182   2.5551   2.5584   2.5848   2.6051   2.6216   2.6396   2.6729
     2.6832   2.7612   2.7703   2.7887   2.8824   2.9474   2.9577   2.9787
     3.1721   3.3676   3.5865   3.9840   4.1320   4.2069   4.4042   5.1189
     5.3994   5.6864   6.1933   6.2818   6.3110   6.5110   6.7014   7.1294
     7.2573   7.3424   7.5495   7.6464   7.6619

          k = 0.2000 0.1155 0.0000 ( 42996 PWs)   bands (ev):

   -16.6256  -6.0803  -4.8742  -4.3990  -4.2142  -3.9355  -3.9043  -3.7100
    -3.6664  -3.5909  -3.5687  -3.5525  -3.3816  -3.3369  -3.2589  -3.1860
    -3.1769  -3.1550  -2.9524  -2.8741  -2.7521  -2.7409  -2.7294  -2.6808
    -2.6612  -2.6376  -2.6011  -2.5813  -2.5652  -2.5412  -2.4819  -2.4634
    -2.4272  -2.3635  -2.3563  -2.3249  -2.3148  -2.2255  -2.1428  -2.1279
    -2.1079  -2.0895  -2.0668  -1.8979  -1.8400  -1.8161  -1.7701  -1.7548
    -1.7226  -1.6746  -1.5667  -1.5257  -1.5078  -1.4671  -1.4454  -1.4077
    -1.3720  -1.2625  -1.1547  -1.0745  -1.0454  -1.0329  -0.9920  -0.9640
    -0.9337  -0.8856  -0.8715  -0.8612  -0.8375  -0.8160  -0.7856  -0.7514
    -0.7232  -0.7072  -0.6766  -0.6114  -0.6039  -0.5843  -0.5339  -0.5156
    -0.4994  -0.4687  -0.4361  -0.4307  -0.3922  -0.3661  -0.3415  -0.3213
    -0.3059  -0.2927  -0.2763  -0.2580  -0.2149  -0.1980  -0.1698  -0.1483
    -0.1322  -0.1176  -0.1010  -0.0643  -0.0490  -0.0410  -0.0120   0.0383
     0.0955   0.1149   0.1362   0.1559   0.1742   0.1831   0.2149   0.2285
     0.2461   0.2577   0.3076   0.4056   0.5185   0.5674   0.5823   0.6442
     0.6632   0.6808   0.6912   0.7122   0.7180   0.8243   0.8419   0.9159
     0.9756   1.0040   1.0222   1.0518   1.0817   1.0966   1.1287   1.1400
     1.2138   1.2237   1.2421   1.2536   1.2797   1.2930   1.3399   1.4335
     1.4723   1.4853   1.5041   1.5347   1.5496   1.5902   1.6506   1.6585
     1.6723   1.6996   1.7309   1.7423   1.7711   1.7810   1.8220   1.8684
     1.8906   1.9321   1.9508   1.9939   2.0211   2.0436   2.0546   2.0784
     2.1032   2.1569   2.1731   2.1839   2.2238   2.2491   2.2598   2.2669
     2.2945   2.3078   2.3113   2.3164   2.3624   2.3839   2.4811   2.5099
     2.5260   2.5454   2.5629   2.5747   2.6000   2.6083   2.6326   2.6539
     2.6730   2.7541   2.7741   2.7856   2.9361   2.9478   2.9606   2.9925
     3.0678   3.3654   3.6285   3.9409   4.1476   4.2467   4.4253   4.9857
     5.4890   5.7517   6.1563   6.2800   6.3029   6.4992   6.7022   7.0863
     7.2665   7.3277   7.5182   7.6542   7.6684

          k = 0.2000 0.3464 0.0000 ( 43046 PWs)   bands (ev):

   -16.6256  -5.7954  -4.6870  -4.5648  -4.5449  -4.2178  -3.5646  -3.4870
    -3.4730  -3.4594  -3.4375  -3.4076  -3.4051  -3.3762  -3.2973  -3.2887
    -3.0535  -2.9108  -2.9008  -2.8883  -2.8615  -2.8093  -2.7558  -2.6783
    -2.6538  -2.6478  -2.6419  -2.5902  -2.5448  -2.5077  -2.4929  -2.4851
    -2.4430  -2.4095  -2.3811  -2.3567  -2.3235  -2.2442  -2.1674  -1.9897
    -1.9598  -1.9089  -1.8845  -1.8744  -1.8563  -1.8418  -1.8218  -1.7723
    -1.7580  -1.6289  -1.6144  -1.5717  -1.5269  -1.4764  -1.4706  -1.4232
    -1.4119  -1.3706  -1.3372  -1.2216  -1.1830  -1.1467  -1.1077  -1.0836
    -1.0561  -1.0227  -0.9982  -0.9476  -0.9395  -0.9358  -0.8107  -0.7918
    -0.7745  -0.7410  -0.7189  -0.7071  -0.6726  -0.6419  -0.6186  -0.5976
    -0.5229  -0.4909  -0.4787  -0.4560  -0.4491  -0.4307  -0.4159  -0.3860
    -0.3720  -0.3311  -0.3096  -0.2861  -0.2541  -0.2168  -0.2020  -0.1849
    -0.1321  -0.1183  -0.0945  -0.0817  -0.0695  -0.0498  -0.0222  -0.0158
    -0.0030   0.0121   0.0489   0.0730   0.0861   0.1247   0.1566   0.2044
     0.2247   0.2904   0.3078   0.3579   0.4040   0.4924   0.5127   0.5528
     0.6359   0.6509   0.6780   0.6941   0.7036   0.7368   0.7630   0.7852
     0.8087   0.8424   0.8627   0.9338   0.9911   1.0405   1.0797   1.0959
     1.1139   1.1455   1.2045   1.2172   1.2863   1.3119   1.3351   1.3645
     1.3841   1.4109   1.4583   1.4931   1.5444   1.5550   1.5841   1.6086
     1.6294   1.6347   1.6556   1.6617   1.6720   1.6835   1.7397   1.7819
     1.8821   1.9196   1.9748   2.0123   2.0768   2.1308   2.1850   2.2048
     2.2201   2.2789   2.3068   2.3274   2.3432   2.3631   2.3846   2.3991
     2.4060   2.4255   2.4354   2.4586   2.4763   2.5311   2.5746   2.5890
     2.6048   2.6208   2.6660   2.7145   2.7590   2.8156   2.8417   2.8893
     2.9302   2.9429   3.0596   3.0896   3.1809   3.5297   3.6184   3.6619
     4.0712   4.1393   4.1573   4.2981   4.6183   4.8684   5.0066   5.0799
     5.1183   5.2375   5.7634   6.1142   6.2698   6.4010   6.5096   6.6537
     6.9985   7.0690   7.0960   7.1285   7.2335

          k = 0.2000-0.5774 0.0000 ( 43014 PWs)   bands (ev):

   -16.6256  -5.2749  -5.2483  -4.6794  -4.4213  -4.0375  -3.9121  -3.5167
    -3.4751  -3.3418  -3.3147  -3.2267  -3.1976  -3.1483  -3.0826  -3.0538
    -2.9831  -2.9649  -2.9514  -2.9223  -2.9207  -2.9014  -2.8424  -2.7633
    -2.7531  -2.7425  -2.7138  -2.6481  -2.6120  -2.5455  -2.4966  -2.4338
    -2.3779  -2.3553  -2.3414  -2.3222  -2.2657  -2.2287  -2.1931  -2.1180
    -2.0892  -1.9428  -1.9185  -1.8860  -1.8173  -1.7616  -1.7365  -1.6785
    -1.6412  -1.5800  -1.5444  -1.5194  -1.5000  -1.4750  -1.4563  -1.4170
    -1.3666  -1.3191  -1.3057  -1.2909  -1.2815  -1.2710  -1.2421  -1.1948
    -1.1862  -1.1115  -1.0761  -1.0228  -0.9961  -0.9605  -0.8988  -0.8648
    -0.8352  -0.8180  -0.7872  -0.7610  -0.7236  -0.7045  -0.6833  -0.6509
    -0.6313  -0.5915  -0.5833  -0.5494  -0.5115  -0.4528  -0.4369  -0.4235
    -0.3918  -0.3503  -0.2887  -0.2484  -0.2390  -0.2159  -0.1943  -0.1660
    -0.1553  -0.1426  -0.1111  -0.0958  -0.0761  -0.0639  -0.0439  -0.0331
    -0.0079   0.0064   0.0166   0.0383   0.0531   0.0634   0.1026   0.1382
     0.1792   0.3371   0.3675   0.4023   0.4222   0.4614   0.5213   0.5264
     0.5578   0.5876   0.6125   0.6352   0.6538   0.6843   0.7216   0.7620
     0.7800   0.8261   0.8621   0.8941   0.9239   0.9745   1.0020   1.1014
     1.1389   1.1614   1.1946   1.2103   1.2547   1.2858   1.3103   1.3209
     1.3500   1.3715   1.3907   1.4227   1.4494   1.5068   1.5261   1.5561
     1.5757   1.5980   1.6191   1.6484   1.6717   1.7392   1.8054   1.8760
     1.9065   1.9732   1.9995   2.0243   2.0924   2.1188   2.1591   2.1916
     2.2422   2.3010   2.3283   2.3478   2.3708   2.3840   2.3989   2.4190
     2.4434   2.5011   2.5266   2.5402   2.5626   2.5832   2.5959   2.5999
     2.6634   2.7535   2.7642   2.7795   2.8054   2.8247   2.8645   2.8877
     2.9919   3.1248   3.2011   3.8848   3.9617   3.9710   4.2168   4.3112
     4.3446   4.3627   4.4535   4.7545   4.9656   4.9825   5.2912   5.4427
     5.5473   5.5649   5.5780   5.6832   5.7948   5.8737   6.0182   6.2574
     6.3978   6.4616   6.8090   7.0451   7.0882

          k = 0.2000-0.3464 0.0000 ( 43046 PWs)   bands (ev):

   -16.6256  -5.7952  -4.6664  -4.5694  -4.5528  -4.2352  -3.5655  -3.4869
    -3.4790  -3.4683  -3.4329  -3.4136  -3.4006  -3.3569  -3.2985  -3.2875
    -3.0347  -2.9142  -2.9050  -2.8915  -2.8453  -2.8169  -2.7612  -2.6731
    -2.6606  -2.6468  -2.6374  -2.6038  -2.5190  -2.5102  -2.4908  -2.4842
    -2.4506  -2.4093  -2.3925  -2.3624  -2.3410  -2.2735  -2.2194  -2.0037
    -1.9133  -1.9005  -1.8881  -1.8559  -1.8497  -1.8303  -1.8034  -1.7823
    -1.6890  -1.6700  -1.6172  -1.5861  -1.5102  -1.4843  -1.4649  -1.4269
    -1.3944  -1.3671  -1.3331  -1.2644  -1.1625  -1.1432  -1.1102  -1.0528
    -1.0372  -1.0160  -1.0062  -0.9559  -0.9400  -0.9298  -0.8137  -0.7803
    -0.7659  -0.7460  -0.7208  -0.6767  -0.6719  -0.6496  -0.6277  -0.5879
    -0.5448  -0.4861  -0.4751  -0.4554  -0.4367  -0.4276  -0.4103  -0.3952
    -0.3786  -0.3654  -0.3241  -0.2932  -0.2538  -0.2143  -0.1907  -0.1746
    -0.1536  -0.1197  -0.1013  -0.0933  -0.0569  -0.0413  -0.0270  -0.0191
    -0.0054   0.0316   0.0477   0.0630   0.0932   0.1474   0.1638   0.2083
     0.2127   0.2718   0.3015   0.3458   0.4099   0.4729   0.5048   0.5477
     0.6338   0.6390   0.6852   0.7014   0.7212   0.7341   0.7725   0.7774
     0.7934   0.8304   0.8752   0.8952   0.9769   1.0390   1.0748   1.0911
     1.1280   1.1436   1.1706   1.2101   1.2418   1.2915   1.3293   1.3707
     1.3987   1.4246   1.4815   1.5193   1.5381   1.5556   1.5867   1.6135
     1.6289   1.6431   1.6518   1.6617   1.6860   1.7083   1.7544   1.8193
     1.8852   1.9280   1.9788   2.0043   2.0522   2.1442   2.1862   2.2003
     2.2286   2.2662   2.3121   2.3230   2.3425   2.3498   2.3798   2.3929
     2.3982   2.4140   2.4378   2.4680   2.4793   2.5307   2.5514   2.5802
     2.6098   2.6268   2.6482   2.7151   2.8031   2.8373   2.8718   2.9147
     2.9344   2.9419   3.0429   3.0823   3.1163   3.5678   3.6126   3.6812
     4.0723   4.1440   4.1725   4.2141   4.6415   4.8663   4.9849   5.0806
     5.1406   5.3012   5.7472   6.0671   6.2692   6.3178   6.5165   6.8233
     6.9889   7.0414   7.0954   7.1272   7.2666

          k = 0.4000-0.2309 0.0000 ( 43046 PWs)   bands (ev):

   -16.6256  -5.6595  -5.0298  -4.5526  -4.2325  -3.9492  -3.9307  -3.8069
    -3.5900  -3.4323  -3.3631  -3.2869  -3.2362  -3.2051  -3.1352  -3.0541
    -3.0181  -3.0041  -2.9926  -2.9232  -2.8550  -2.8257  -2.8007  -2.7869
    -2.7639  -2.7366  -2.6551  -2.6515  -2.6377  -2.5893  -2.4049  -2.3764
    -2.3705  -2.3645  -2.3453  -2.3031  -2.1533  -2.1219  -2.0996  -2.0933
    -2.0841  -2.0303  -1.8751  -1.8262  -1.7985  -1.7781  -1.7591  -1.7199
    -1.7114  -1.6675  -1.6387  -1.6265  -1.5999  -1.5752  -1.4731  -1.4237
    -1.3927  -1.3836  -1.3204  -1.2626  -1.2241  -1.2072  -1.1689  -1.1497
    -1.0546  -1.0144  -0.9926  -0.9811  -0.9404  -0.8961  -0.8632  -0.8104
    -0.7785  -0.7714  -0.7472  -0.7031  -0.6408  -0.6167  -0.5916  -0.5812
    -0.5622  -0.5446  -0.5019  -0.4917  -0.4888  -0.4839  -0.4672  -0.4507
    -0.4241  -0.3989  -0.3661  -0.3283  -0.3096  -0.2995  -0.2794  -0.2327
    -0.1767  -0.1585  -0.1303  -0.1126  -0.0840  -0.0466  -0.0297  -0.0176
     0.0205   0.0354   0.1229   0.1591   0.1792   0.2059   0.2350   0.2615
     0.3287   0.3910   0.4159   0.4775   0.5041   0.5284   0.5564   0.5660
     0.6098   0.6365   0.6671   0.6871   0.6972   0.7120   0.7255   0.7411
     0.7585   0.7859   0.8048   0.8283   0.9163   0.9342   0.9426   0.9980
     1.0290   1.0655   1.1345   1.1705   1.2195   1.2761   1.3223   1.4035
     1.4194   1.4419   1.4517   1.4769   1.5328   1.5425   1.5746   1.5986
     1.6394   1.6515   1.6856   1.7287   1.7752   1.7966   1.8109   1.8157
     1.8582   1.9118   1.9800   2.0232   2.0466   2.0744   2.0878   2.0989
     2.1451   2.1979   2.2154   2.2405   2.2993   2.3170   2.3548   2.3699
     2.3819   2.4087   2.4713   2.5190   2.5326   2.5561   2.5580   2.5774
     2.6036   2.6064   2.7247   2.7686   2.8032   2.8204   2.8321   2.9475
     2.9900   3.0311   3.3429   3.4717   3.5238   3.7692   3.8554   3.8645
     4.2105   4.2451   4.4155   4.6022   4.9373   5.0686   5.0822   5.1507
     5.2561   5.3525   5.4404   5.6177   5.7217   5.7644   6.2503   6.4235
     6.7313   6.9222   7.1793   7.4592   7.6965

          k = 0.4000-0.0000 0.0000 ( 43046 PWs)   bands (ev):

   -16.6256  -5.7964  -4.6857  -4.5687  -4.5463  -4.2182  -3.5695  -3.4890
    -3.4853  -3.4628  -3.4185  -3.4083  -3.3966  -3.3814  -3.3063  -3.2825
    -3.0458  -2.9231  -2.9103  -2.8959  -2.8489  -2.8246  -2.7573  -2.6734
    -2.6526  -2.6484  -2.6354  -2.5747  -2.5229  -2.5007  -2.4933  -2.4848
    -2.4375  -2.4033  -2.3911  -2.3661  -2.3302  -2.2668  -2.2184  -2.0028
    -1.9451  -1.9000  -1.8937  -1.8622  -1.8513  -1.8351  -1.7839  -1.7713
    -1.7010  -1.6180  -1.6013  -1.5984  -1.5180  -1.4900  -1.4623  -1.4254
    -1.4145  -1.3722  -1.3219  -1.2597  -1.1613  -1.1445  -1.1166  -1.0533
    -1.0391  -1.0124  -0.9828  -0.9582  -0.9467  -0.9308  -0.8254  -0.7922
    -0.7650  -0.7412  -0.7272  -0.7092  -0.6631  -0.6304  -0.6212  -0.5863
    -0.5185  -0.4867  -0.4724  -0.4574  -0.4425  -0.4346  -0.4178  -0.3866
    -0.3728  -0.3540  -0.3301  -0.3066  -0.2737  -0.2160  -0.1996  -0.1696
    -0.1497  -0.1317  -0.1074  -0.0890  -0.0691  -0.0489  -0.0309  -0.0164
     0.0013   0.0204   0.0379   0.0624   0.0718   0.1636   0.1686   0.2048
     0.2433   0.2727   0.3008   0.3327   0.3991   0.4940   0.5164   0.5655
     0.6183   0.6437   0.6644   0.7029   0.7202   0.7339   0.7488   0.7858
     0.8072   0.8319   0.8845   0.9077   0.9739   1.0255   1.0780   1.1041
     1.1173   1.1448   1.1950   1.2041   1.2449   1.3117   1.3193   1.3537
     1.3888   1.4069   1.4450   1.5230   1.5435   1.5612   1.5901   1.6172
     1.6362   1.6407   1.6521   1.6675   1.6814   1.7004   1.7296   1.8368
     1.8777   1.9155   1.9852   2.0038   2.0807   2.1294   2.1856   2.1984
     2.2231   2.2646   2.3090   2.3281   2.3417   2.3566   2.3739   2.3926
     2.3988   2.4158   2.4377   2.4619   2.4689   2.5274   2.5607   2.5842
     2.6058   2.6243   2.6562   2.6820   2.8147   2.8476   2.8818   2.9153
     2.9275   2.9416   3.0682   3.0802   3.1867   3.5278   3.6188   3.6267
     4.0840   4.1559   4.1716   4.3256   4.6044   4.8621   5.0170   5.0827
     5.1080   5.2297   5.7597   6.1085   6.2707   6.4166   6.5071   6.6911
     6.9997   7.0433   7.0795   7.1140   7.2397

          k = 0.4000 0.2309 0.0000 ( 43046 PWs)   bands (ev):

   -16.6256  -5.6598  -5.0343  -4.5620  -4.2048  -3.9699  -3.9403  -3.7799
    -3.5542  -3.4419  -3.3861  -3.2876  -3.2316  -3.2197  -3.1575  -3.0526
    -3.0202  -3.0049  -2.9841  -2.9209  -2.8485  -2.8327  -2.8226  -2.7839
    -2.7620  -2.7282  -2.6652  -2.6445  -2.6362  -2.4946  -2.3933  -2.3862
    -2.3727  -2.3649  -2.3496  -2.2958  -2.1500  -2.1175  -2.1118  -2.1037
    -2.0773  -2.0314  -1.9377  -1.8240  -1.7976  -1.7905  -1.7774  -1.7302
    -1.7014  -1.6825  -1.6500  -1.6252  -1.5781  -1.5582  -1.4569  -1.4396
    -1.4068  -1.3789  -1.3439  -1.2769  -1.2392  -1.2152  -1.1975  -1.1022
    -1.0543  -0.9950  -0.9849  -0.9674  -0.9504  -0.8973  -0.8811  -0.8458
    -0.7926  -0.7521  -0.7216  -0.6980  -0.6438  -0.6222  -0.6119  -0.5960
    -0.5649  -0.5379  -0.5112  -0.4996  -0.4923  -0.4872  -0.4691  -0.4485
    -0.4261  -0.4097  -0.3429  -0.3229  -0.3143  -0.2994  -0.2889  -0.2648
    -0.2056  -0.1453  -0.1269  -0.0964  -0.0559  -0.0350  -0.0232  -0.0065
     0.0580   0.0788   0.1233   0.1537   0.1815   0.2166   0.2399   0.2457
     0.3750   0.3983   0.4204   0.4413   0.5045   0.5295   0.5791   0.5867
     0.6112   0.6294   0.6385   0.6642   0.6947   0.7101   0.7258   0.7418
     0.7669   0.7976   0.8100   0.8589   0.9051   0.9296   0.9581   0.9854
     1.0474   1.1224   1.1392   1.1646   1.2055   1.2626   1.3087   1.3693
     1.4263   1.4488   1.4830   1.4957   1.5106   1.5362   1.5845   1.5988
     1.6211   1.6419   1.6773   1.7314   1.7731   1.7911   1.8041   1.8253
     1.8345   1.8703   1.9549   2.0295   2.0581   2.0776   2.1065   2.1131
     2.1721   2.1972   2.2108   2.2543   2.3000   2.3132   2.3591   2.3807
     2.4003   2.4094   2.4681   2.5026   2.5361   2.5498   2.5555   2.5665
     2.5900   2.5949   2.7439   2.7687   2.7832   2.7949   2.8178   2.9638
     2.9892   3.0326   3.3204   3.4766   3.5329   3.8023   3.8572   3.8844
     4.2319   4.2543   4.3512   4.5846   4.9025   5.0663   5.0731   5.1278
     5.3067   5.3835   5.4389   5.6674   5.7118   5.7726   6.1825   6.3686
     6.7626   6.9531   7.1937   7.4774   7.6598

          k = 0.4000-0.6928 0.0000 ( 43014 PWs)   bands (ev):

   -16.6256  -5.2741  -5.2571  -4.6606  -4.4497  -4.0216  -3.8940  -3.5436
    -3.4503  -3.3555  -3.3205  -3.2472  -3.1948  -3.1495  -3.0855  -3.0654
    -2.9899  -2.9725  -2.9435  -2.9328  -2.9164  -2.9015  -2.8268  -2.7659
    -2.7566  -2.7319  -2.7035  -2.6726  -2.5802  -2.5191  -2.4872  -2.4171
    -2.3801  -2.3567  -2.3422  -2.3267  -2.2667  -2.2327  -2.1931  -2.1247
    -2.0916  -1.9552  -1.9132  -1.9007  -1.7766  -1.7555  -1.7309  -1.6981
    -1.6343  -1.5907  -1.5435  -1.5275  -1.4904  -1.4810  -1.4356  -1.4020
    -1.3615  -1.3294  -1.3019  -1.2870  -1.2814  -1.2527  -1.2430  -1.2157
    -1.1786  -1.1014  -1.0722  -1.0459  -1.0142  -0.9597  -0.9020  -0.8674
    -0.8444  -0.7999  -0.7853  -0.7617  -0.7467  -0.7245  -0.6813  -0.6532
    -0.6312  -0.5901  -0.5685  -0.5523  -0.5041  -0.4607  -0.4285  -0.4158
    -0.4068  -0.3621  -0.2927  -0.2655  -0.2389  -0.2205  -0.1977  -0.1637
    -0.1508  -0.1367  -0.1244  -0.0938  -0.0792  -0.0592  -0.0453  -0.0256
    -0.0046   0.0052   0.0188   0.0319   0.0432   0.0634   0.1083   0.1399
     0.2274   0.2851   0.3730   0.4158   0.4195   0.4909   0.5159   0.5433
     0.5696   0.5974   0.6150   0.6303   0.6664   0.6862   0.7390   0.7526
     0.7739   0.8151   0.8291   0.8968   0.9115   0.9444   1.0345   1.0895
     1.1228   1.1634   1.1964   1.2219   1.2580   1.2858   1.2952   1.3234
     1.3421   1.3540   1.3883   1.4081   1.4469   1.5005   1.5367   1.5553
     1.5640   1.5889   1.6187   1.6433   1.6992   1.7604   1.7926   1.8798
     1.9203   1.9440   2.0143   2.0337   2.1102   2.1375   2.1544   2.1703
     2.2352   2.2739   2.3239   2.3524   2.3665   2.3840   2.3929   2.4143
     2.4542   2.5028   2.5342   2.5425   2.5691   2.5791   2.5917   2.5978
     2.6639   2.7523   2.7760   2.7868   2.7964   2.8199   2.8657   2.8901
     2.9966   3.1029   3.2612   3.9321   3.9604   3.9979   4.1535   4.2901
     4.3438   4.3800   4.3920   4.8516   4.9625   4.9948   5.3026   5.4311
     5.4681   5.5604   5.5850   5.7608   5.7834   5.8813   5.9694   6.3250
     6.3837   6.4343   6.8513   7.0277   7.0717

          k = 0.4000-0.4619 0.0000 ( 43014 PWs)   bands (ev):

   -16.6256  -5.2751  -5.2534  -4.6741  -4.4174  -4.0460  -3.9142  -3.5105
    -3.4757  -3.3561  -3.3196  -3.2381  -3.1877  -3.1275  -3.0893  -3.0834
    -2.9931  -2.9684  -2.9426  -2.9241  -2.9148  -2.9019  -2.8177  -2.7665
    -2.7546  -2.7357  -2.7120  -2.6769  -2.5889  -2.5582  -2.4898  -2.4221
    -2.3754  -2.3618  -2.3417  -2.3232  -2.2882  -2.2265  -2.1764  -2.1096
    -2.0746  -1.9573  -1.9118  -1.8538  -1.8102  -1.7722  -1.7361  -1.6941
    -1.6312  -1.5906  -1.5524  -1.5300  -1.4957  -1.4453  -1.4274  -1.4053
    -1.3530  -1.3158  -1.2932  -1.2829  -1.2757  -1.2631  -1.2315  -1.1994
    -1.1873  -1.1781  -1.0662  -1.0089  -0.9978  -0.9547  -0.9080  -0.8532
    -0.8285  -0.8101  -0.7929  -0.7723  -0.7297  -0.7081  -0.6736  -0.6436
    -0.6369  -0.6115  -0.5858  -0.5487  -0.4934  -0.4631  -0.4313  -0.3974
    -0.3858  -0.3605  -0.3074  -0.2701  -0.2296  -0.2048  -0.1864  -0.1667
    -0.1630  -0.1482  -0.1286  -0.1167  -0.0945  -0.0881  -0.0603  -0.0210
     0.0027   0.0146   0.0224   0.0420   0.0507   0.0637   0.0974   0.1130
     0.2579   0.2869   0.3316   0.3771   0.4217   0.4538   0.5160   0.5262
     0.5637   0.5994   0.6195   0.6452   0.6536   0.7041   0.7184   0.7605
     0.7829   0.8147   0.8511   0.9019   0.9204   0.9630   1.0512   1.0817
     1.0923   1.1721   1.2010   1.2165   1.2353   1.2783   1.3117   1.3230
     1.3481   1.3690   1.3958   1.4251   1.4614   1.4933   1.5361   1.5554
     1.5661   1.5795   1.6077   1.6168   1.6932   1.7418   1.8472   1.8756
     1.8918   1.9664   2.0258   2.0344   2.0765   2.1345   2.1650   2.2083
     2.2191   2.3040   2.3151   2.3340   2.3518   2.3781   2.3949   2.4298
     2.4380   2.5192   2.5264   2.5365   2.5500   2.5708   2.5947   2.6053
     2.6622   2.7447   2.7681   2.8084   2.8258   2.8317   2.8714   2.9022
     2.9943   3.1158   3.2419   3.8828   3.9637   3.9677   4.2284   4.2954
     4.3356   4.3594   4.4374   4.7545   4.9721   4.9923   5.2904   5.4381
     5.5195   5.5661   5.5779   5.7358   5.8427   5.9171   6.0297   6.2163
     6.3924   6.4476   6.7813   7.0306   7.0476

     the Fermi energy is     2.5834 ev

!    total energy              =  -27799.14597010 Ry
     total all-electron energy =  -1326794.758277 Ry
     estimated scf accuracy    <       0.00000086 Ry
     smearing contrib. (-TS)   =       0.00189108 Ry
     internal energy E=F+TS    =  -27799.14786118 Ry

     The total energy is F=E-TS. E is the sum of the following terms:
     one-electron contribution =  -20704.01278533 Ry
     hartree contribution      =   10663.84790521 Ry
     xc contribution           =    -899.15100454 Ry
     ewald contribution        =    8624.28971082 Ry
     one-center paw contrib.   =  -25484.12168734 Ry

     convergence has been achieved in  18 iterations

     negative rho (up, down):  3.086E-03 0.000E+00

     Forces acting on atoms (cartesian axes, Ry/au):

     atom    1 type  1   force =    -0.00072993    0.00155776   -0.00763412
     atom    2 type  1   force =    -0.00016487   -0.00054302   -0.00305853
     atom    3 type  1   force =     0.00153117   -0.00028826   -0.00352924
     atom    4 type  1   force =    -0.00038897   -0.00095700   -0.00376317
     atom    5 type  1   force =     0.00077845   -0.00020593   -0.00391675
     atom    6 type  1   force =     0.00105428   -0.00124872   -0.00404765
     atom    7 type  1   force =     0.00106360    0.00018034   -0.00284884
     atom    8 type  1   force =     0.00081881   -0.00121136   -0.00441639
     atom    9 type  1   force =     0.00017042   -0.00049749   -0.00322973
     atom   10 type  1   force =     0.00001653    0.00054023    0.00029570
     atom   11 type  1   force =    -0.00102680    0.00175596    0.00871148
     atom   12 type  1   force =    -0.00086564   -0.00149914    0.00362270
     atom   13 type  1   force =     0.00197308    0.00119631    0.00983557
     atom   14 type  1   force =    -0.00378156    0.00193018    0.00572384
     atom   15 type  1   force =    -0.00062293    0.00157935    0.00150431
     atom   16 type  1   force =     0.00067971   -0.00317561    0.00096188
     atom   17 type  1   force =    -0.00124773   -0.00017142   -0.00068887
     atom   18 type  1   force =    -0.00005841    0.00124282    0.00708251
     atom   19 type  1   force =     0.00042946    0.00026409   -0.00006505
     atom   20 type  1   force =    -0.00023764   -0.00003631   -0.00000438
     atom   21 type  1   force =     0.00014391    0.00073412    0.00013094
     atom   22 type  1   force =    -0.00001877   -0.00060313   -0.00051320
     atom   23 type  1   force =     0.00010134   -0.00022407   -0.00052288
     atom   24 type  1   force =    -0.00014686    0.00041103   -0.00015669
     atom   25 type  1   force =     0.00002266    0.00031654   -0.00039399
     atom   26 type  1   force =     0.00027191   -0.00031189   -0.00012354
     atom   27 type  1   force =    -0.00044976    0.00001548   -0.00029493
     atom   28 type  1   force =     0.00055254   -0.00004070    0.00023585
     atom   29 type  1   force =     0.00026262    0.00025038    0.00005351
     atom   30 type  1   force =    -0.00078967    0.00152373    0.00103172
     atom   31 type  1   force =    -0.00026467   -0.00042112    0.00074217
     atom   32 type  1   force =     0.00054425   -0.00014323    0.00054214
     atom   33 type  1   force =    -0.00005467    0.00077743    0.00027815
     atom   34 type  1   force =     0.00064334   -0.00017799    0.00047421
     atom   35 type  1   force =     0.00022560   -0.00048238    0.00046404
     atom   36 type  1   force =    -0.00102241   -0.00046703    0.00025384
     atom   37 type  2   force =    -0.00067234    0.00037560   -0.00025417
     atom   38 type  3   force =    -0.00042296    0.00019991   -0.00104312
     atom   39 type  3   force =     0.00168290   -0.00214549   -0.00143929
     The non-local contrib.  to forces
     atom    1 type  1   force =     0.00140670   -0.00147468   -0.01526915
     atom    2 type  1   force =    -0.00017802   -0.00043903   -0.01848113
     atom    3 type  1   force =    -0.00066461    0.00007216   -0.01852320
     atom    4 type  1   force =    -0.00049715    0.00063547   -0.01872846
     atom    5 type  1   force =     0.00020468   -0.00024036   -0.01977273
     atom    6 type  1   force =    -0.00026554    0.00060342   -0.01764956
     atom    7 type  1   force =    -0.00086115    0.00013897   -0.01952439
     atom    8 type  1   force =    -0.00005964    0.00141960   -0.01908831
     atom    9 type  1   force =    -0.00007740   -0.00007435   -0.01955072
     atom   10 type  1   force =     0.00106819    0.00275378   -0.00151949
     atom   11 type  1   force =    -0.00128443    0.00124947    0.00125367
     atom   12 type  1   force =    -0.00248996    0.00176374   -0.00040950
     atom   13 type  1   force =    -0.00138359    0.00060559    0.00275599
     atom   14 type  1   force =    -0.00152505   -0.00158092    0.00288755
     atom   15 type  1   force =    -0.00048116    0.00126646   -0.00155167
     atom   16 type  1   force =    -0.00346650   -0.00041692    0.00034718
     atom   17 type  1   force =     0.00198876    0.00217405   -0.00099966
     atom   18 type  1   force =    -0.00170690    0.00078399   -0.00041940
     atom   19 type  1   force =     0.00135910    0.00291873    0.00575675
     atom   20 type  1   force =    -0.01075201   -0.00609927   -0.00539424
     atom   21 type  1   force =     0.00470354    0.00102683    0.00509046
     atom   22 type  1   force =    -0.00251617   -0.00138196    0.00294588
     atom   23 type  1   force =     0.00121180    0.01788600   -0.01316774
     atom   24 type  1   force =     0.00206715    0.00076766    0.00322429
     atom   25 type  1   force =     0.00720834   -0.00376540    0.00198067
     atom   26 type  1   force =     0.00257168    0.00072681    0.00980158
     atom   27 type  1   force =    -0.00709400   -0.00388030    0.00166872
     atom   28 type  1   force =     0.00257450   -0.00001490    0.01629004
     atom   29 type  1   force =     0.01947841    0.01857396    0.03340741
     atom   30 type  1   force =     0.00015291    0.00608748   -0.08463333
     atom   31 type  1   force =     0.01368600   -0.00158111    0.02331646
     atom   32 type  1   force =     0.00864616   -0.02577091   -0.04094002
     atom   33 type  1   force =    -0.01956674   -0.00458034    0.02525175
     atom   34 type  1   force =     0.00675255   -0.01342818    0.01953713
     atom   35 type  1   force =    -0.00408216   -0.01091810    0.01751075
     atom   36 type  1   force =     0.00012830   -0.00179183    0.01723108
     atom   37 type  2   force =     1.64307283    1.25337112   -0.32929880
     atom   38 type  3   force =    -0.08060011   -0.06280518   -0.04370852
     atom   39 type  3   force =     0.00942820   -0.01253448   -0.02990251
     The ionic contribution  to forces
     atom    1 type  1   force =    -0.00581710   -0.01711844  -94.32485954
     atom    2 type  1   force =     0.00695070    0.00400966  -94.31930582
     atom    3 type  1   force =    -0.00131037   -0.00048745  -94.31244066
     atom    4 type  1   force =     0.01819078    0.00782179  -94.32347575
     atom    5 type  1   force =    -0.00080201    0.01370058  -94.29046193
     atom    6 type  1   force =    -0.01738709    0.00312519  -94.32532193
     atom    7 type  1   force =     0.01445084   -0.00608993  -94.28891404
     atom    8 type  1   force =    -0.01920116   -0.01026286  -94.30034186
     atom    9 type  1   force =     0.00464675    0.00555273  -94.32340154
     atom   10 type  1   force =     0.10364909    0.04753743  -33.27954907
     atom   11 type  1   force =    -0.02020396    0.05737062  -33.19312283
     atom   12 type  1   force =    -0.09732614   -0.04295851  -33.25178586
     atom   13 type  1   force =     0.12518569    0.08773781  -33.12852033
     atom   14 type  1   force =    -0.17927948    0.05959230  -33.10405107
     atom   15 type  1   force =     0.01090590    0.06180101  -33.30861219
     atom   16 type  1   force =    -0.10716146   -0.21134790  -33.04127463
     atom   17 type  1   force =     0.01822047    0.01814507  -33.24240372
     atom   18 type  1   force =     0.05179361    0.01440253  -33.21729853
     atom   19 type  1   force =     0.05348066   -0.07672913   28.13660529
     atom   20 type  1   force =    -0.09865622   -0.06887181   28.64781253
     atom   21 type  1   force =     0.00644658   -0.10018365   28.66401483
     atom   22 type  1   force =    -0.00265792    0.08198978   28.49569686
     atom   23 type  1   force =     0.02712529    0.39018612   29.24141527
     atom   24 type  1   force =    -0.01157417    0.14822867   28.28978731
     atom   25 type  1   force =     0.08870683   -0.08274684   28.83021756
     atom   26 type  1   force =    -0.13409980   -0.11006652   27.99145034
     atom   27 type  1   force =     0.04225727   -0.09052344   28.73367906
     atom   28 type  1   force =     0.40709515   -0.06930235   90.44961159
     atom   29 type  1   force =    -1.16548800   -0.95764642   88.70481237
     atom   30 type  1   force =     1.41096785   -2.31516004   89.09128643
     atom   31 type  1   force =    -0.95670744    0.09720641   89.76971015
     atom   32 type  1   force =    -1.04332842    1.69395709   84.80925942
     atom   33 type  1   force =     1.60305773    0.47854323   88.74752146
     atom   34 type  1   force =    -0.32880769    0.46203021   90.23868063
     atom   35 type  1   force =     0.44254537    0.97553031   89.88348081
     atom   36 type  1   force =    -0.07990693   -0.43838011   90.63246946
     atom   37 type  2   force =    -3.05125858   -1.62927111   64.99760245
     atom   38 type  3   force =     2.62877250    2.11313705   11.63570848
     atom   39 type  3   force =     0.25652489   -0.59445908   11.58431900
     The local contribution  to forces
     atom    1 type  1   force =     0.00405760    0.01995477   94.31510531
     atom    2 type  1   force =    -0.00710968   -0.00435152   94.31767199
     atom    3 type  1   force =     0.00324084   -0.00004096   94.31010401
     atom    4 type  1   force =    -0.01797342   -0.00939636   94.32128382
     atom    5 type  1   force =     0.00124126   -0.01357152   94.28923385
     atom    6 type  1   force =     0.01880792   -0.00458860   94.32159894
     atom    7 type  1   force =    -0.01230514    0.00601429   94.28861139
     atom    8 type  1   force =     0.02021488    0.00778663   94.29779721
     atom    9 type  1   force =    -0.00458110   -0.00598067   94.32274849
     atom   10 type  1   force =    -0.10408778   -0.04994004   33.28029129
     atom   11 type  1   force =     0.01992181   -0.05699641   33.19993065
     atom   12 type  1   force =     0.09897975    0.03947526   33.25482381
     atom   13 type  1   force =    -0.12152959   -0.08683397   33.13513176
     atom   14 type  1   force =     0.17659503   -0.05500276   33.10655378
     atom   15 type  1   force =    -0.01111273   -0.06089396   33.31039922
     atom   16 type  1   force =     0.11155022    0.20758011   33.04210192
     atom   17 type  1   force =    -0.02170602   -0.02048852   33.24185262
     atom   18 type  1   force =    -0.05039163   -0.01409418   33.22401349
     atom   19 type  1   force =    -0.05414214    0.07377285  -28.14062682
     atom   20 type  1   force =     0.10943379    0.07445252  -28.64068187
     atom   21 type  1   force =    -0.01170278    0.10005306  -28.66619085
     atom   22 type  1   force =     0.00517384   -0.08098352  -28.49776155
     atom   23 type  1   force =    -0.02755524   -0.40712050  -29.22807095
     atom   24 type  1   force =     0.00878056   -0.14758706  -28.29154851
     atom   25 type  1   force =    -0.09571831    0.08677299  -28.83033854
     atom   26 type  1   force =     0.13158061    0.10830351  -27.99981467
     atom   27 type  1   force =    -0.03596075    0.09434640  -28.73344048
     atom   28 type  1   force =    -0.40876610    0.06925095  -90.44974535
     atom   29 type  1   force =     1.14688322    0.94030038  -88.72203679
     atom   30 type  1   force =    -1.40841275    2.30501881  -89.00017925
     atom   31 type  1   force =     0.94375842   -0.09622286  -89.77544613
     atom   32 type  1   force =     1.03236706   -1.66574946  -84.76599147
     atom   33 type  1   force =    -1.58430205   -0.47285970  -88.75666768
     atom   34 type  1   force =     0.32303734   -0.44952046  -90.24139701
     atom   35 type  1   force =    -0.43806665   -0.96533375  -89.88454184
     atom   36 type  1   force =     0.07829843    0.43985027  -90.63343641
     atom   37 type  2   force =     1.42263887    0.38833150  -64.67315502
     atom   38 type  3   force =    -2.54861382   -2.05013218  -11.59308940
     atom   39 type  3   force =    -0.26430070    0.60487147  -11.55587509
     The core correction contribution to forces
     atom    1 type  1   force =     0.00000260    0.00001782    0.01742128
     atom    2 type  1   force =     0.00000103    0.00002167    0.01719689
     atom    3 type  1   force =     0.00005087    0.00001465    0.01718146
     atom    4 type  1   force =    -0.00005611   -0.00000891    0.01718293
     atom    5 type  1   force =    -0.00000160    0.00005409    0.01706232
     atom    6 type  1   force =    -0.00001488   -0.00002051    0.01725033
     atom    7 type  1   force =    -0.00011784   -0.00002446    0.01706344
     atom    8 type  1   force =     0.00000446    0.00000651    0.01747636
     atom    9 type  1   force =    -0.00006067    0.00000320    0.01712325
     atom   10 type  1   force =    -0.00036187   -0.00024605    0.00135806
     atom   11 type  1   force =     0.00004602   -0.00008085    0.00090535
     atom   12 type  1   force =     0.00021179    0.00013466    0.00123341
     atom   13 type  1   force =    -0.00025548   -0.00017612    0.00070191
     atom   14 type  1   force =     0.00042885   -0.00034227    0.00067117
     atom   15 type  1   force =     0.00001999   -0.00017537    0.00147048
     atom   16 type  1   force =     0.00030916    0.00081611    0.00028919
     atom   17 type  1   force =    -0.00007429   -0.00005334    0.00133506
     atom   18 type  1   force =     0.00001688   -0.00016244    0.00111101
     atom   19 type  1   force =    -0.00007394    0.00017515   -0.00190384
     atom   20 type  1   force =    -0.00027937    0.00020587   -0.00192051
     atom   21 type  1   force =     0.00052625    0.00003130   -0.00271544
     atom   22 type  1   force =    -0.00009606    0.00001310   -0.00162486
     atom   23 type  1   force =    -0.00035533   -0.00071941   -0.00090922
     atom   24 type  1   force =     0.00032381   -0.00034083   -0.00184653
     atom   25 type  1   force =     0.00013054   -0.00030604   -0.00221348
     atom   26 type  1   force =     0.00041327    0.00026888   -0.00178094
     atom   27 type  1   force =    -0.00015984   -0.00023986   -0.00228730
     atom   28 type  1   force =    -0.00010093   -0.00033689   -0.01617864
     atom   29 type  1   force =    -0.00078085   -0.00137285   -0.01645789
     atom   30 type  1   force =    -0.00355109    0.00536965   -0.00582454
     atom   31 type  1   force =    -0.00096957    0.00011592   -0.01693587
     atom   32 type  1   force =     0.00294696   -0.00243741   -0.00181701
     atom   33 type  1   force =     0.00063944   -0.00003810   -0.01594244
     atom   34 type  1   force =    -0.00012388    0.00087852   -0.01661755
     atom   35 type  1   force =    -0.00007361    0.00046042   -0.01644573
     atom   36 type  1   force =     0.00013316    0.00005031   -0.01634217
     atom   37 type  2   force =    -0.01527914   -0.01209661    0.00431653
     atom   38 type  3   force =     0.00000000    0.00000000    0.00000000
     atom   39 type  3   force =     0.00000000    0.00000000    0.00000000
     The Hubbard contrib.    to forces
     atom    1 type  1   force =     0.00000000    0.00000000    0.00000000
     atom    2 type  1   force =     0.00000000    0.00000000    0.00000000
     atom    3 type  1   force =     0.00000000    0.00000000    0.00000000
     atom    4 type  1   force =     0.00000000    0.00000000    0.00000000
     atom    5 type  1   force =     0.00000000    0.00000000    0.00000000
     atom    6 type  1   force =     0.00000000    0.00000000    0.00000000
     atom    7 type  1   force =     0.00000000    0.00000000    0.00000000
     atom    8 type  1   force =     0.00000000    0.00000000    0.00000000
     atom    9 type  1   force =     0.00000000    0.00000000    0.00000000
     atom   10 type  1   force =     0.00000000    0.00000000    0.00000000
     atom   11 type  1   force =     0.00000000    0.00000000    0.00000000
     atom   12 type  1   force =     0.00000000    0.00000000    0.00000000
     atom   13 type  1   force =     0.00000000    0.00000000    0.00000000
     atom   14 type  1   force =     0.00000000    0.00000000    0.00000000
     atom   15 type  1   force =     0.00000000    0.00000000    0.00000000
     atom   16 type  1   force =     0.00000000    0.00000000    0.00000000
     atom   17 type  1   force =     0.00000000    0.00000000    0.00000000
     atom   18 type  1   force =     0.00000000    0.00000000    0.00000000
     atom   19 type  1   force =     0.00000000    0.00000000    0.00000000
     atom   20 type  1   force =     0.00000000    0.00000000    0.00000000
     atom   21 type  1   force =     0.00000000    0.00000000    0.00000000
     atom   22 type  1   force =     0.00000000    0.00000000    0.00000000
     atom   23 type  1   force =     0.00000000    0.00000000    0.00000000
     atom   24 type  1   force =     0.00000000    0.00000000    0.00000000
     atom   25 type  1   force =     0.00000000    0.00000000    0.00000000
     atom   26 type  1   force =     0.00000000    0.00000000    0.00000000
     atom   27 type  1   force =     0.00000000    0.00000000    0.00000000
     atom   28 type  1   force =     0.00000000    0.00000000    0.00000000
     atom   29 type  1   force =     0.00000000    0.00000000    0.00000000
     atom   30 type  1   force =     0.00000000    0.00000000    0.00000000
     atom   31 type  1   force =     0.00000000    0.00000000    0.00000000
     atom   32 type  1   force =     0.00000000    0.00000000    0.00000000
     atom   33 type  1   force =     0.00000000    0.00000000    0.00000000
     atom   34 type  1   force =     0.00000000    0.00000000    0.00000000
     atom   35 type  1   force =     0.00000000    0.00000000    0.00000000
     atom   36 type  1   force =     0.00000000    0.00000000    0.00000000
     atom   37 type  2   force =     0.00000000    0.00000000    0.00000000
     atom   38 type  3   force =     0.00000000    0.00000000    0.00000000
     atom   39 type  3   force =     0.00000000    0.00000000    0.00000000
     The SCF correction term to forces
     atom    1 type  1   force =    -0.00000000    0.00000000   -0.00000000
     atom    2 type  1   force =     0.00000000    0.00000000   -0.00000000
     atom    3 type  1   force =     0.00000000    0.00000000    0.00000000
     atom    4 type  1   force =    -0.00000000   -0.00000000   -0.00000000
     atom    5 type  1   force =     0.00000000   -0.00000000    0.00000000
     atom    6 type  1   force =    -0.00000000   -0.00000000    0.00000000
     atom    7 type  1   force =    -0.00000000    0.00000000   -0.00000000
     atom    8 type  1   force =    -0.00000000   -0.00000000   -0.00000000
     atom    9 type  1   force =     0.00000000    0.00000000   -0.00000000
     atom   10 type  1   force =    -0.00000000    0.00000000   -0.00000000
     atom   11 type  1   force =     0.00000000    0.00000000   -0.00000000
     atom   12 type  1   force =    -0.00000000    0.00000000   -0.00000000
     atom   13 type  1   force =    -0.00000000   -0.00000000   -0.00000000
     atom   14 type  1   force =    -0.00000000   -0.00000000   -0.00000000
     atom   15 type  1   force =     0.00000000   -0.00000000   -0.00000000
     atom   16 type  1   force =    -0.00000000    0.00000000   -0.00000000
     atom   17 type  1   force =     0.00000000    0.00000000   -0.00000000
     atom   18 type  1   force =     0.00000000    0.00000000   -0.00000000
     atom   19 type  1   force =    -0.00019458    0.00012646    0.00010385
     atom   20 type  1   force =     0.00001582    0.00027634    0.00017998
     atom   21 type  1   force =     0.00016997   -0.00019346   -0.00006779
     atom   22 type  1   force =     0.00007717   -0.00024057    0.00023076
     atom   23 type  1   force =    -0.00032553   -0.00045630    0.00021004
     atom   24 type  1   force =     0.00025544   -0.00065745    0.00022703
     atom   25 type  1   force =    -0.00030509    0.00036178   -0.00003992
     atom   26 type  1   force =    -0.00019421    0.00045541    0.00022043
     atom   27 type  1   force =     0.00050721    0.00031265    0.00008536
     atom   28 type  1   force =    -0.00025044    0.00036245    0.00025850
     atom   29 type  1   force =     0.00016947    0.00039528    0.00032870
     atom   30 type  1   force =     0.00005306    0.00020780    0.00038269
     atom   31 type  1   force =    -0.00003243    0.00006048    0.00009784
     atom   32 type  1   force =    -0.00008787   -0.00014258    0.00003150
     atom   33 type  1   force =     0.00011660   -0.00028771    0.00011533
     atom   34 type  1   force =    -0.00021533   -0.00013812    0.00027129
     atom   35 type  1   force =    -0.00009772   -0.00022129    0.00046032
     atom   36 type  1   force =     0.00032428   -0.00019570    0.00033216
     atom   37 type  2   force =     0.00015332    0.00004066    0.00028094
     atom   38 type  3   force =     0.00001811    0.00000019    0.00004660
     atom   39 type  3   force =     0.00003015   -0.00002343    0.00001960

     Total force =     0.004834     Total SCF correction =     0.001955
     SCF correction compared to forces is large: reduce conv_thr to get better values

     Writing all to output data dir ./pwscf.save/

     init_run     :     21.69s CPU     22.12s WALL (       1 calls)
     electrons    :    489.04s CPU    518.77s WALL (       1 calls)
     forces       :     14.05s CPU     15.16s WALL (       1 calls)

     Called by init_run:
     wfcinit      :      5.82s CPU      6.04s WALL (       1 calls)
     potinit      :      3.30s CPU      3.38s WALL (       1 calls)
     hinit0       :      1.05s CPU      1.07s WALL (       1 calls)

     Called by electrons:
     c_bands      :    424.86s CPU    443.48s WALL (      19 calls)
     sum_band     :     46.18s CPU     53.88s WALL (      19 calls)
     v_of_rho     :      8.82s CPU     10.83s WALL (      19 calls)
     newd         :     13.60s CPU     14.54s WALL (      19 calls)
     PAW_pot      :      4.18s CPU      4.30s WALL (      19 calls)
     mix_rho      :      4.49s CPU      4.72s WALL (      19 calls)
     vdW_kernel   :      1.75s CPU      1.76s WALL (       1 calls)

     Called by c_bands:
     init_us_2    :      2.81s CPU      3.20s WALL (     520 calls)
     init_us_2:cp :      2.81s CPU      3.20s WALL (     520 calls)
     cegterg      :    415.55s CPU    433.47s WALL (     247 calls)

     Called by *egterg:
     cdiaghg      :     88.72s CPU     93.46s WALL (    1275 calls)
     h_psi        :    205.53s CPU    213.04s WALL (    1301 calls)
     s_psi        :     15.55s CPU     15.93s WALL (    1301 calls)
     g_psi        :      0.44s CPU      0.45s WALL (    1041 calls)

     Called by h_psi:
     h_psi:calbec :     29.65s CPU     31.15s WALL (    1301 calls)
     vloc_psi     :    158.92s CPU    164.58s WALL (    1301 calls)
     add_vuspsi   :     15.84s CPU     16.18s WALL (    1301 calls)

     General routines
     calbec       :     39.02s CPU     41.59s WALL (    1600 calls)
     fft          :     18.55s CPU     20.83s WALL (    1257 calls)
     ffts         :      2.60s CPU      2.76s WALL (    5049 calls)
     fftw         :    169.24s CPU    178.17s WALL (  318553 calls)
     interpolate  :      0.60s CPU      0.67s WALL (      19 calls)

     Parallel routines

     PWSCF        :   8m47.32s CPU   9m21.48s WALL


   This run was terminated on:  16: 5:30  26Feb2025            

=------------------------------------------------------------------------------=
   JOB DONE.
=------------------------------------------------------------------------------=
