
     Program PWSCF v.7.1 starts on  6Dec2025 at 15:13:38 
        Git branch: heads/qe-7.1
        Last git commit: 48ba0178f8fede6d020eb786884699a9f063f55d-dirty
        Last git commit date: Fri Jan 27 14:22:33 2023 +0000
        Last git commit subject: Merge branch 'fix_hubbard' into 'develop'

     This program is part of the open-source Quantum ESPRESSO suite
     for quantum simulation of materials; please cite
         "P. Giannozzi et al., J. Phys.:Condens. Matter 21 395502 (2009);
         "P. Giannozzi et al., J. Phys.:Condens. Matter 29 465901 (2017);
         "P. Giannozzi et al., J. Chem. Phys. 152 154105 (2020);
          URL http://www.quantum-espresso.org", 
     in publications or presentations arising from this work. More details at
     http://www.quantum-espresso.org/quote

     Parallel version (MPI), running on    96 processors

     MPI processes distributed on     2 nodes
     82941 MiB available memory on the printing compute node when the environment starts

     Reading input from espresso.pwi
Warning: card &CELL ignored
Warning: card / ignored
Warning: card &FCP ignored
Warning: card / ignored
Warning: card &RISM ignored
Warning: card / ignored

     Current dimensions of program PWSCF are:
     Max number of different atomic species (ntypx) = 10
     Max number of k-points (npk) =  40000
     Max angular momentum in pseudopotentials (lmaxx) =  4
     file Co.pbe-n-kjpaw_psl.1.0.0.UPF: wavefunction(s)  4S 3D renormalized
     file C.pbe-n-kjpaw_psl.1.0.0.UPF: wavefunction(s)  2S 2P renormalized
     file O.pbe-nl-kjpaw_psl.1.0.0.UPF: wavefunction(s)  2S 2P renormalized
     file H.pbe-kjpaw_psl.1.0.0.UPF: wavefunction(s)  1S renormalized

     **************************************************************************
     Initializing libbeef V0.1.2 with the BEEF-vdW functional.
     Citation: Wellendorff et al., PRB 85, 235149 (2012).
     **************************************************************************


     IMPORTANT: XC functional enforced from input :
     Exchange-correlation= BEEF-VDW
                           (   1   4  43  14   2   0   0)
     Any further DFT definition will be discarded
     Please, verify this is what you really want


     R & G space division:  proc/nbgrp/npool/nimage =      96
     Subspace diagonalization in iterative solution of the eigenvalue problem:
     one sub-group per band group will be used
     custom distributed-memory algorithm (size of sub-group:  2*  2 procs)


     Parallelization info
     --------------------
     sticks:   dense  smooth     PW     G-vecs:    dense   smooth      PW
     Min          43      23      6                 7829     3049     440
     Max          44      24      7                 7845     3068     465
     Sum        4153    2221    613               752179   293251   42993

     Using Slab Decomposition



     bravais-lattice index     =            0
     lattice parameter (alat)  =      14.1729  a.u.
     unit-cell volume          =    8574.3059 (a.u.)^3
     number of atoms/cell      =           39
     number of atomic types    =            4
     number of electrons       =       335.00
     number of Kohn-Sham states=          202
     kinetic-energy cutoff     =      40.0000  Ry
     charge density cutoff     =     300.0000  Ry
     scf convergence threshold =      1.0E-06
     mixing beta               =       0.7000
     number of iterations used =            8  local-TF  mixing
     Exchange-correlation= BEEF-VDW
                           (   1   4  43  14   2   0   0)

     celldm(1)=  14.172946  celldm(2)=   0.000000  celldm(3)=   0.000000
     celldm(4)=   0.000000  celldm(5)=   0.000000  celldm(6)=   0.000000

     crystal axes: (cart. coord. in units of alat)
               a(1) = (   1.000000   0.000000   0.000000 )  
               a(2) = (   0.500000   0.866025   0.000000 )  
               a(3) = (   0.000000   0.000000   3.477667 )  

     reciprocal axes: (cart. coord. in units 2 pi/alat)
               b(1) = (  1.000000 -0.577350  0.000000 )  
               b(2) = (  0.000000  1.154701  0.000000 )  
               b(3) = (  0.000000  0.000000  0.287549 )  


     PseudoPot. # 1 for Co read from file:
     /users/kbadger1/espresso/pseudo/pslibrary.1.0.0/pbe/PSEUDOPOTENTIALS/Co.pbe-n-kjpaw_psl.1.0.0.UPF
     MD5 check sum: 88af6ec42553d4236c267fdfcb472151
     Pseudo is Projector augmented-wave + core cor, Zval =  9.0
     Generated using 'atomic' code by A. Dal Corso  v.7.0
     Shape of augmentation charge: PSQ
     Using radial grid of 1193 points,  6 beta functions with: 
                l(1) =   0
                l(2) =   0
                l(3) =   1
                l(4) =   1
                l(5) =   2
                l(6) =   2
     Q(r) pseudized with 0 coefficients 


     PseudoPot. # 2 for C  read from file:
     /users/kbadger1/espresso/pseudo/pslibrary.1.0.0/pbe/PSEUDOPOTENTIALS/C.pbe-n-kjpaw_psl.1.0.0.UPF
     MD5 check sum: 6408e75cdba28732cea38a4db8498ce4
     Pseudo is Projector augmented-wave + core cor, Zval =  4.0
     Generated using 'atomic' code by A. Dal Corso  v.7.0
     Shape of augmentation charge: PSQ
     Using radial grid of 1073 points,  4 beta functions with: 
                l(1) =   0
                l(2) =   0
                l(3) =   1
                l(4) =   1
     Q(r) pseudized with 0 coefficients 


     PseudoPot. # 3 for O  read from file:
     /users/kbadger1/espresso/pseudo/pslibrary.1.0.0/pbe/PSEUDOPOTENTIALS/O.pbe-nl-kjpaw_psl.1.0.0.UPF
     MD5 check sum: f0439fab3598ca4e468f064226030408
     Pseudo is Projector augmented-wave + core cor, Zval =  6.0
     Generated using 'atomic' code by A. Dal Corso  v.7.0
     Shape of augmentation charge: PSQ
     Using radial grid of 1095 points,  4 beta functions with: 
                l(1) =   0
                l(2) =   0
                l(3) =   1
                l(4) =   1
     Q(r) pseudized with 0 coefficients 


     PseudoPot. # 4 for H  read from file:
     /users/kbadger1/espresso/pseudo/pslibrary.1.0.0/pbe/PSEUDOPOTENTIALS/H.pbe-kjpaw_psl.1.0.0.UPF
     MD5 check sum: fe4c6fa958fa6d3815bf5d2419cbf1df
     Pseudo is Projector augmented-wave, Zval =  1.0
     Generated using 'atomic' code by A. Dal Corso  v.7.0
     Shape of augmentation charge: PSQ
     Using radial grid of  929 points,  2 beta functions with: 
                l(1) =   0
                l(2) =   0
     Q(r) pseudized with 0 coefficients 


     atomic species   valence    mass     pseudopotential
        Co             9.00    58.93319     Co( 1.00)
        C              4.00    12.01100     C ( 1.00)
        O              6.00    15.99900     O ( 1.00)
        H              1.00     1.00800     H ( 1.00)

     Starting magnetic structure 
     atomic species   magnetization
        Co           1.000
        C            1.000
        O            0.000
        H            0.000

     No symmetry found



   Cartesian axes

     site n.     atom                  positions (alat units)
         1           Co  tau(   1) = (   0.0000000   0.1924501   1.3333333  )
         2           Co  tau(   2) = (   0.3333333   0.1924501   1.3333333  )
         3           Co  tau(   3) = (   0.6666667   0.1924501   1.3333333  )
         4           Co  tau(   4) = (   0.1666667   0.4811252   1.3333333  )
         5           Co  tau(   5) = (   0.5000000   0.4811252   1.3333333  )
         6           Co  tau(   6) = (   0.8333333   0.4811252   1.3333333  )
         7           Co  tau(   7) = (   0.3333333   0.7698004   1.3333333  )
         8           Co  tau(   8) = (   0.6666667   0.7698004   1.3333333  )
         9           Co  tau(   9) = (   1.0000000   0.7698004   1.3333333  )
        10           Co  tau(  10) = (   0.0000000   0.0000000   1.6036667  )
        11           Co  tau(  11) = (   0.3333333   0.0000000   1.6036667  )
        12           Co  tau(  12) = (   0.6666667   0.0000000   1.6036667  )
        13           Co  tau(  13) = (   0.1666667   0.2886751   1.6036667  )
        14           Co  tau(  14) = (   0.5000000   0.2886751   1.6036667  )
        15           Co  tau(  15) = (   0.8333333   0.2886751   1.6036667  )
        16           Co  tau(  16) = (   0.3333333   0.5773503   1.6036667  )
        17           Co  tau(  17) = (   0.6666667   0.5773503   1.6036667  )
        18           Co  tau(  18) = (   1.0000000   0.5773503   1.6036667  )
        19           Co  tau(  19) = (   0.0000000   0.1924501   1.8740000  )
        20           Co  tau(  20) = (   0.3333333   0.1924501   1.8740000  )
        21           Co  tau(  21) = (   0.6666667   0.1924501   1.8740000  )
        22           Co  tau(  22) = (   0.1666667   0.4811252   1.8740000  )
        23           Co  tau(  23) = (   0.5000000   0.4811252   1.8740000  )
        24           Co  tau(  24) = (   0.8333333   0.4811252   1.8740000  )
        25           Co  tau(  25) = (   0.3333333   0.7698004   1.8740000  )
        26           Co  tau(  26) = (   0.6666667   0.7698004   1.8740000  )
        27           Co  tau(  27) = (   1.0000000   0.7698004   1.8740000  )
        28           Co  tau(  28) = (   0.0000000   0.0000000   2.1443333  )
        29           Co  tau(  29) = (   0.3333333   0.0000000   2.1443333  )
        30           Co  tau(  30) = (   0.6666667   0.0000000   2.1443333  )
        31           Co  tau(  31) = (   0.1666667   0.2886751   2.1443333  )
        32           Co  tau(  32) = (   0.5000000   0.2886751   2.1443333  )
        33           Co  tau(  33) = (   0.8333333   0.2886751   2.1443333  )
        34           Co  tau(  34) = (   0.3333333   0.5773503   2.1443333  )
        35           Co  tau(  35) = (   0.6666667   0.5773503   2.1443333  )
        36           Co  tau(  36) = (   1.0000000   0.5773503   2.1443333  )
        37           C   tau(  37) = (   0.1893542   0.0385712   2.3467497  )
        38           O   tau(  38) = (   0.0826366   0.0531892   2.4691762  )
        39           H   tau(  39) = (   0.3434121   0.0110015   2.3841276  )

     number of k points=    13  Marzari-Vanderbilt smearing, width (Ry)=  0.0010
                       cart. coord. in units 2pi/alat
        k(    1) = (   0.0000000   0.0000000   0.0000000), wk =   0.0400000
        k(    2) = (   0.0000000   0.2309401   0.0000000), wk =   0.0800000
        k(    3) = (   0.0000000   0.4618802   0.0000000), wk =   0.0800000
        k(    4) = (   0.2000000  -0.1154701   0.0000000), wk =   0.0800000
        k(    5) = (   0.2000000   0.1154701   0.0000000), wk =   0.0800000
        k(    6) = (   0.2000000   0.3464102   0.0000000), wk =   0.0800000
        k(    7) = (   0.2000000  -0.5773503   0.0000000), wk =   0.0800000
        k(    8) = (   0.2000000  -0.3464102   0.0000000), wk =   0.0800000
        k(    9) = (   0.4000000  -0.2309401   0.0000000), wk =   0.0800000
        k(   10) = (   0.4000000   0.0000000   0.0000000), wk =   0.0800000
        k(   11) = (   0.4000000   0.2309401   0.0000000), wk =   0.0800000
        k(   12) = (   0.4000000  -0.6928203   0.0000000), wk =   0.0800000
        k(   13) = (   0.4000000  -0.4618802   0.0000000), wk =   0.0800000

     Dense  grid:   752179 G-vectors     FFT dimensions: (  80,  80, 288)

     Smooth grid:   293251 G-vectors     FFT dimensions: (  60,  60, 200)

     Estimated max dynamical RAM per process >      84.82 MB

     Estimated total dynamical RAM >       7.95 GB
     Generating pointlists ...
     new r_m :   0.0991 (alat units)  1.4046 (a.u.) for type    1
     new r_m :   0.0664 (alat units)  0.9407 (a.u.) for type    2
     new r_m :   0.0673 (alat units)  0.9533 (a.u.) for type    3
     new r_m :   0.0664 (alat units)  0.9407 (a.u.) for type    4

     Initial potential from superposition of free atoms

     starting charge     334.9897, renormalised to     335.0000

     negative rho (up, down):  3.045E-03 4.685E-04


     %%%%%%%%%%%%%%%%%%%%%%%%%%%%%%%%%%%%%%%%%%%%%%%%%%%%%%%%%%%%%%%%%%%%%%%%
     %                                                                      %
     % You are using vdW-DF, which was implemented by the Thonhauser group. %
     % Please cite the following two papers that made this development      %
     % possible and the two reviews that describe the various versions:     %
     %                                                                      %
     %   T. Thonhauser et al., PRL 115, 136402 (2015).                      %
     %   T. Thonhauser et al., PRB 76, 125112 (2007).                       %
     %   K. Berland et al., Rep. Prog. Phys. 78, 066501 (2015).             %
     %   D.C. Langreth et al., J. Phys.: Condens. Matter 21, 084203 (2009). %
     %                                                                      %
     % If you are calculating stress with vdW-DF, please also cite:         %
     %                                                                      %
     %   R. Sabatini et al., J. Phys.: Condens. Matter 24, 424209 (2012).   %
     %   C.M. Frostenson et al., Electr. Struct. 4, 014001 (2022).          %
     %                                                                      %
     %%%%%%%%%%%%%%%%%%%%%%%%%%%%%%%%%%%%%%%%%%%%%%%%%%%%%%%%%%%%%%%%%%%%%%%%

     %%%%%%%%%%%%%%%%%%%%%%%%%%%%%%%%%%%%%%%%%%%%%%%%%%%%%%%%%%%%%%%%%%%%%%%%
     %                                                                      %
     %  vdW-DF NEWS:                                                        %
     %                                                                      %
     %  * vdW-DF3 is now available. DOI: 10.1021/acs.jctc.0c00471           %
     %    use with input_dft = 'vdW-DF3-opt1' or 'vdW-DF3-opt2'             %
     %                                                                      %
     %  * Unscreened and range-separated hybrid vdW-DF-cx functionals       %
     %    DOI: 10.1063/1.4986522 and 10.1088/1361-648X/ac2ad2               %
     %    use with input_dft = 'vdW-DF-cx0'    and 'vdW-DF-ahcx'            %
     %  * Unscreened and range-separated hybrid vdW-DF2-b86r functionals    %
     %    DOI: 10.1063/1.4986522 and DOI: 10.1103/PhysRevX.12.041003        %
     %    use with input_dft = 'vdW-DF2-br0' and 'vdW-DF2-ahbr'             %
     %                                                                      %
     %%%%%%%%%%%%%%%%%%%%%%%%%%%%%%%%%%%%%%%%%%%%%%%%%%%%%%%%%%%%%%%%%%%%%%%%


     Starting wfcs are  333 randomized atomic wfcs
     Checking if some PAW data can be deallocated... 

     total cpu time spent up to now is       19.1 secs

     per-process dynamical memory:   213.6 Mb

     Self-consistent Calculation

     iteration #  1     ecut=    40.00 Ry     beta= 0.70
     Davidson diagonalization with overlap
     ethr =  1.00E-02,  avg # of iterations =  2.0

     negative rho (up, down):  5.605E-05 1.173E-06

     total cpu time spent up to now is       41.9 secs

     total energy              =   -6052.96715443 Ry
     estimated scf accuracy    <      39.70452040 Ry

     total magnetization       =    69.00 Bohr mag/cell
     absolute magnetization    =    81.39 Bohr mag/cell

     iteration #  2     ecut=    40.00 Ry     beta= 0.70
     Davidson diagonalization with overlap
     ethr =  1.00E-02,  avg # of iterations =  1.0

     negative rho (up, down):  2.260E-05 6.961E-07

     total cpu time spent up to now is       53.6 secs

     total energy              =   -6052.44260493 Ry
     estimated scf accuracy    <      24.51210549 Ry

     total magnetization       =    68.52 Bohr mag/cell
     absolute magnetization    =    76.77 Bohr mag/cell

     iteration #  3     ecut=    40.00 Ry     beta= 0.70
     Davidson diagonalization with overlap
     ethr =  7.32E-03,  avg # of iterations =  1.0

     negative rho (up, down):  1.167E-06 1.962E-06

     total cpu time spent up to now is       74.2 secs

     total energy              =   -6055.00154021 Ry
     estimated scf accuracy    <      87.05747448 Ry

     total magnetization       =    65.57 Bohr mag/cell
     absolute magnetization    =    73.02 Bohr mag/cell

     iteration #  4     ecut=    40.00 Ry     beta= 0.70
     Davidson diagonalization with overlap
     ethr =  7.32E-03,  avg # of iterations =  1.0

     negative rho (up, down):  1.199E-06 5.736E-07

     total cpu time spent up to now is       86.1 secs

     total energy              =   -6056.21868686 Ry
     estimated scf accuracy    <       5.50780703 Ry

     total magnetization       =    60.37 Bohr mag/cell
     absolute magnetization    =    70.51 Bohr mag/cell

     iteration #  5     ecut=    40.00 Ry     beta= 0.70
     Davidson diagonalization with overlap
     ethr =  1.64E-03,  avg # of iterations =  1.5

     negative rho (up, down):  1.079E-06 4.187E-07

     total cpu time spent up to now is      107.5 secs

     total energy              =   -6056.24157788 Ry
     estimated scf accuracy    <       2.47604986 Ry

     total magnetization       =    60.22 Bohr mag/cell
     absolute magnetization    =    69.78 Bohr mag/cell

     iteration #  6     ecut=    40.00 Ry     beta= 0.70
     Davidson diagonalization with overlap
     ethr =  7.39E-04,  avg # of iterations =  1.5

     negative rho (up, down):  9.267E-07 4.198E-07

     total cpu time spent up to now is      119.5 secs

     total energy              =   -6056.36193398 Ry
     estimated scf accuracy    <       0.55511318 Ry

     total magnetization       =    60.20 Bohr mag/cell
     absolute magnetization    =    69.56 Bohr mag/cell

     iteration #  7     ecut=    40.00 Ry     beta= 0.70
     Davidson diagonalization with overlap
     ethr =  1.66E-04,  avg # of iterations =  6.2

     negative rho (up, down):  8.276E-07 3.901E-07

     total cpu time spent up to now is      145.6 secs

     total energy              =   -6056.40009021 Ry
     estimated scf accuracy    <       0.83534053 Ry

     total magnetization       =    60.30 Bohr mag/cell
     absolute magnetization    =    69.17 Bohr mag/cell

     iteration #  8     ecut=    40.00 Ry     beta= 0.70
     Davidson diagonalization with overlap
     ethr =  1.66E-04,  avg # of iterations =  1.7

     negative rho (up, down):  2.115E-07 9.034E-08

     total cpu time spent up to now is      166.8 secs

     total energy              =   -6056.41028082 Ry
     estimated scf accuracy    <       0.13959081 Ry

     total magnetization       =    60.57 Bohr mag/cell
     absolute magnetization    =    69.18 Bohr mag/cell

     iteration #  9     ecut=    40.00 Ry     beta= 0.70
     Davidson diagonalization with overlap
     c_bands:  3 eigenvalues not converged
     c_bands:  1 eigenvalues not converged
     c_bands:  1 eigenvalues not converged
     c_bands:  4 eigenvalues not converged
     c_bands:  3 eigenvalues not converged
     ethr =  4.17E-05,  avg # of iterations = 13.1

     negative rho (up, down):  1.395E-07 6.682E-08

     total cpu time spent up to now is      200.9 secs

     total energy              =   -6056.42210490 Ry
     estimated scf accuracy    <       0.22308449 Ry

     total magnetization       =    61.14 Bohr mag/cell
     absolute magnetization    =    69.16 Bohr mag/cell

     iteration # 10     ecut=    40.00 Ry     beta= 0.70
     Davidson diagonalization with overlap
     ethr =  4.17E-05,  avg # of iterations =  2.2

     negative rho (up, down):  1.906E-07 8.044E-08

     total cpu time spent up to now is      222.7 secs

     total energy              =   -6056.42886884 Ry
     estimated scf accuracy    <       0.21619689 Ry

     total magnetization       =    61.23 Bohr mag/cell
     absolute magnetization    =    69.07 Bohr mag/cell

     iteration # 11     ecut=    40.00 Ry     beta= 0.70
     Davidson diagonalization with overlap
     ethr =  4.17E-05,  avg # of iterations =  1.3

     negative rho (up, down):  9.342E-08 4.372E-08

     total cpu time spent up to now is      235.0 secs

     total energy              =   -6056.42033753 Ry
     estimated scf accuracy    <       0.12720836 Ry

     total magnetization       =    61.14 Bohr mag/cell
     absolute magnetization    =    68.91 Bohr mag/cell

     iteration # 12     ecut=    40.00 Ry     beta= 0.70
     Davidson diagonalization with overlap
     ethr =  3.80E-05,  avg # of iterations =  1.8

     negative rho (up, down):  8.081E-08 5.063E-08

     total cpu time spent up to now is      256.3 secs

     total energy              =   -6056.42388508 Ry
     estimated scf accuracy    <       0.08093731 Ry

     total magnetization       =    61.09 Bohr mag/cell
     absolute magnetization    =    68.68 Bohr mag/cell

     iteration # 13     ecut=    40.00 Ry     beta= 0.70
     Davidson diagonalization with overlap
     c_bands:  2 eigenvalues not converged
     ethr =  2.42E-05,  avg # of iterations =  2.1

     negative rho (up, down):  2.543E-08 1.095E-08

     total cpu time spent up to now is      268.7 secs

     total energy              =   -6056.42270341 Ry
     estimated scf accuracy    <       0.08501394 Ry

     total magnetization       =    61.09 Bohr mag/cell
     absolute magnetization    =    68.60 Bohr mag/cell

     iteration # 14     ecut=    40.00 Ry     beta= 0.70
     Davidson diagonalization with overlap
     ethr =  2.42E-05,  avg # of iterations =  1.5

     negative rho (up, down):  5.508E-07 3.468E-08

     total cpu time spent up to now is      289.4 secs

     total energy              =   -6056.42036676 Ry
     estimated scf accuracy    <       0.08188374 Ry

     total magnetization       =    61.14 Bohr mag/cell
     absolute magnetization    =    68.64 Bohr mag/cell

     iteration # 15     ecut=    40.00 Ry     beta= 0.70
     Davidson diagonalization with overlap
     ethr =  2.42E-05,  avg # of iterations =  1.3

     negative rho (up, down):  1.262E-03 5.590E-04

     total cpu time spent up to now is      310.8 secs

     total energy              =   -6056.41755623 Ry
     estimated scf accuracy    <       0.11066797 Ry

     total magnetization       =    61.10 Bohr mag/cell
     absolute magnetization    =    68.59 Bohr mag/cell

     iteration # 16     ecut=    40.00 Ry     beta= 0.70
     Davidson diagonalization with overlap
     ethr =  2.42E-05,  avg # of iterations =  1.3

     negative rho (up, down):  1.257E-02 1.061E-02

     total cpu time spent up to now is      322.4 secs

     total energy              =   -6056.41486582 Ry
     estimated scf accuracy    <       0.08638984 Ry

     total magnetization       =    61.12 Bohr mag/cell
     absolute magnetization    =    68.57 Bohr mag/cell

     iteration # 17     ecut=    40.00 Ry     beta= 0.70
     Davidson diagonalization with overlap
     ethr =  2.42E-05,  avg # of iterations =  2.0

     negative rho (up, down):  1.777E-02 1.571E-02

     total cpu time spent up to now is      343.6 secs

     total energy              =   -6056.41565125 Ry
     estimated scf accuracy    <       0.03602104 Ry

     total magnetization       =    61.16 Bohr mag/cell
     absolute magnetization    =    68.59 Bohr mag/cell

     iteration # 18     ecut=    40.00 Ry     beta= 0.70
     Davidson diagonalization with overlap
     c_bands:  3 eigenvalues not converged
     ethr =  1.08E-05,  avg # of iterations =  5.5

     negative rho (up, down):  6.771E-03 5.574E-03

     total cpu time spent up to now is      359.8 secs

     total energy              =   -6056.41540291 Ry
     estimated scf accuracy    <       0.04901156 Ry

     total magnetization       =    61.19 Bohr mag/cell
     absolute magnetization    =    68.56 Bohr mag/cell

     iteration # 19     ecut=    40.00 Ry     beta= 0.70
     Davidson diagonalization with overlap
     ethr =  1.08E-05,  avg # of iterations =  1.1

     negative rho (up, down):  1.193E-02 1.065E-02

     total cpu time spent up to now is      379.9 secs

     total energy              =   -6056.41593025 Ry
     estimated scf accuracy    <       0.01998304 Ry

     total magnetization       =    61.16 Bohr mag/cell
     absolute magnetization    =    68.58 Bohr mag/cell

     iteration # 20     ecut=    40.00 Ry     beta= 0.70
     Davidson diagonalization with overlap
     ethr =  5.97E-06,  avg # of iterations =  2.2

     negative rho (up, down):  1.084E-02 9.786E-03

     total cpu time spent up to now is      401.3 secs

     total energy              =   -6056.41529225 Ry
     estimated scf accuracy    <       0.01758211 Ry

     total magnetization       =    61.18 Bohr mag/cell
     absolute magnetization    =    68.58 Bohr mag/cell

     iteration # 21     ecut=    40.00 Ry     beta= 0.70
     Davidson diagonalization with overlap
     ethr =  5.25E-06,  avg # of iterations =  1.3

     negative rho (up, down):  6.720E-03 5.854E-03

     total cpu time spent up to now is      412.9 secs

     total energy              =   -6056.41520056 Ry
     estimated scf accuracy    <       0.01558360 Ry

     total magnetization       =    61.13 Bohr mag/cell
     absolute magnetization    =    68.55 Bohr mag/cell

     iteration # 22     ecut=    40.00 Ry     beta= 0.70
     Davidson diagonalization with overlap
     ethr =  4.65E-06,  avg # of iterations =  1.2

     negative rho (up, down):  1.007E-02 9.413E-03

     total cpu time spent up to now is      434.4 secs

     total energy              =   -6056.41520659 Ry
     estimated scf accuracy    <       0.01199346 Ry

     total magnetization       =    61.18 Bohr mag/cell
     absolute magnetization    =    68.59 Bohr mag/cell

     iteration # 23     ecut=    40.00 Ry     beta= 0.70
     Davidson diagonalization with overlap
     ethr =  3.58E-06,  avg # of iterations =  1.5

     negative rho (up, down):  1.394E-02 1.340E-02

     total cpu time spent up to now is      446.3 secs

     total energy              =   -6056.41553599 Ry
     estimated scf accuracy    <       0.00836936 Ry

     total magnetization       =    61.19 Bohr mag/cell
     absolute magnetization    =    68.60 Bohr mag/cell

     iteration # 24     ecut=    40.00 Ry     beta= 0.70
     Davidson diagonalization with overlap
     ethr =  2.50E-06,  avg # of iterations =  1.6

     negative rho (up, down):  7.915E-03 7.204E-03

     total cpu time spent up to now is      467.2 secs

     total energy              =   -6056.41533736 Ry
     estimated scf accuracy    <       0.00532514 Ry

     total magnetization       =    61.15 Bohr mag/cell
     absolute magnetization    =    68.59 Bohr mag/cell

     iteration # 25     ecut=    40.00 Ry     beta= 0.70
     Davidson diagonalization with overlap
     c_bands:  1 eigenvalues not converged
     ethr =  1.59E-06,  avg # of iterations =  2.6

     negative rho (up, down):  4.080E-03 3.367E-03

     total cpu time spent up to now is      488.5 secs

     total energy              =   -6056.41504416 Ry
     estimated scf accuracy    <       0.00563755 Ry

     total magnetization       =    61.18 Bohr mag/cell
     absolute magnetization    =    68.60 Bohr mag/cell

     iteration # 26     ecut=    40.00 Ry     beta= 0.70
     Davidson diagonalization with overlap
     ethr =  1.59E-06,  avg # of iterations =  1.2

     negative rho (up, down):  5.393E-03 4.758E-03

     total cpu time spent up to now is      500.9 secs

     total energy              =   -6056.41579584 Ry
     estimated scf accuracy    <       0.00495529 Ry

     total magnetization       =    61.18 Bohr mag/cell
     absolute magnetization    =    68.60 Bohr mag/cell

     iteration # 27     ecut=    40.00 Ry     beta= 0.70
     Davidson diagonalization with overlap
     ethr =  1.48E-06,  avg # of iterations =  1.5

     negative rho (up, down):  4.691E-03 3.973E-03

     total cpu time spent up to now is      521.9 secs

     total energy              =   -6056.41594022 Ry
     estimated scf accuracy    <       0.00145631 Ry

     total magnetization       =    61.19 Bohr mag/cell
     absolute magnetization    =    68.61 Bohr mag/cell

     iteration # 28     ecut=    40.00 Ry     beta= 0.70
     Davidson diagonalization with overlap
     ethr =  4.35E-07,  avg # of iterations =  2.4

     negative rho (up, down):  5.057E-03 4.315E-03

     total cpu time spent up to now is      534.5 secs

     total energy              =   -6056.41603138 Ry
     estimated scf accuracy    <       0.00079170 Ry

     total magnetization       =    61.18 Bohr mag/cell
     absolute magnetization    =    68.61 Bohr mag/cell

     iteration # 29     ecut=    40.00 Ry     beta= 0.70
     Davidson diagonalization with overlap
     ethr =  2.36E-07,  avg # of iterations =  1.7

     negative rho (up, down):  4.692E-03 3.878E-03

     total cpu time spent up to now is      556.3 secs

     total energy              =   -6056.41605668 Ry
     estimated scf accuracy    <       0.00023631 Ry

     total magnetization       =    61.19 Bohr mag/cell
     absolute magnetization    =    68.62 Bohr mag/cell

     iteration # 30     ecut=    40.00 Ry     beta= 0.70
     Davidson diagonalization with overlap
     ethr =  7.05E-08,  avg # of iterations =  3.6

     negative rho (up, down):  3.530E-03 2.561E-03

     total cpu time spent up to now is      570.0 secs

     total energy              =   -6056.41605258 Ry
     estimated scf accuracy    <       0.00010823 Ry

     total magnetization       =    61.19 Bohr mag/cell
     absolute magnetization    =    68.62 Bohr mag/cell

     iteration # 31     ecut=    40.00 Ry     beta= 0.70
     Davidson diagonalization with overlap
     ethr =  3.23E-08,  avg # of iterations =  2.7

     negative rho (up, down):  3.085E-03 2.089E-03

     total cpu time spent up to now is      592.0 secs

     total energy              =   -6056.41604696 Ry
     estimated scf accuracy    <       0.00003650 Ry

     total magnetization       =    61.18 Bohr mag/cell
     absolute magnetization    =    68.61 Bohr mag/cell

     iteration # 32     ecut=    40.00 Ry     beta= 0.70
     Davidson diagonalization with overlap
     c_bands:  2 eigenvalues not converged
     ethr =  1.09E-08,  avg # of iterations =  6.7

     negative rho (up, down):  2.794E-03 1.742E-03

     total cpu time spent up to now is      618.4 secs

     total energy              =   -6056.41605558 Ry
     estimated scf accuracy    <       0.00002785 Ry

     total magnetization       =    61.18 Bohr mag/cell
     absolute magnetization    =    68.61 Bohr mag/cell

     iteration # 33     ecut=    40.00 Ry     beta= 0.70
     Davidson diagonalization with overlap
     ethr =  8.31E-09,  avg # of iterations =  1.8

     negative rho (up, down):  2.589E-03 1.465E-03

     total cpu time spent up to now is      635.5 secs

     total energy              =   -6056.41607318 Ry
     estimated scf accuracy    <       0.00002244 Ry

     total magnetization       =    61.19 Bohr mag/cell
     absolute magnetization    =    68.61 Bohr mag/cell

     iteration # 34     ecut=    40.00 Ry     beta= 0.70
     Davidson diagonalization with overlap
     ethr =  6.70E-09,  avg # of iterations =  2.0

     negative rho (up, down):  2.285E-03 1.166E-03

     total cpu time spent up to now is      651.9 secs

     total energy              =   -6056.41607255 Ry
     estimated scf accuracy    <       0.00001480 Ry

     total magnetization       =    61.18 Bohr mag/cell
     absolute magnetization    =    68.61 Bohr mag/cell

     iteration # 35     ecut=    40.00 Ry     beta= 0.70
     Davidson diagonalization with overlap
     ethr =  4.42E-09,  avg # of iterations =  1.8

     negative rho (up, down):  2.150E-03 1.049E-03

     total cpu time spent up to now is      673.7 secs

     total energy              =   -6056.41607470 Ry
     estimated scf accuracy    <       0.00001690 Ry

     total magnetization       =    61.18 Bohr mag/cell
     absolute magnetization    =    68.61 Bohr mag/cell

     iteration # 36     ecut=    40.00 Ry     beta= 0.70
     Davidson diagonalization with overlap
     ethr =  4.42E-09,  avg # of iterations =  1.8

     negative rho (up, down):  2.255E-03 1.160E-03

     total cpu time spent up to now is      685.9 secs

     total energy              =   -6056.41607608 Ry
     estimated scf accuracy    <       0.00000275 Ry

     total magnetization       =    61.18 Bohr mag/cell
     absolute magnetization    =    68.61 Bohr mag/cell

     iteration # 37     ecut=    40.00 Ry     beta= 0.70
     Davidson diagonalization with overlap
     ethr =  8.20E-10,  avg # of iterations =  6.6

     negative rho (up, down):  2.296E-03 1.195E-03

     total cpu time spent up to now is      712.4 secs

     total energy              =   -6056.41607632 Ry
     estimated scf accuracy    <       0.00000380 Ry

     total magnetization       =    61.18 Bohr mag/cell
     absolute magnetization    =    68.61 Bohr mag/cell

     iteration # 38     ecut=    40.00 Ry     beta= 0.70
     Davidson diagonalization with overlap
     ethr =  8.20E-10,  avg # of iterations =  1.5

     negative rho (up, down):  2.251E-03 1.167E-03

     total cpu time spent up to now is      733.6 secs

     total energy              =   -6056.41607628 Ry
     estimated scf accuracy    <       0.00000239 Ry

     total magnetization       =    61.18 Bohr mag/cell
     absolute magnetization    =    68.61 Bohr mag/cell

     iteration # 39     ecut=    40.00 Ry     beta= 0.70
     Davidson diagonalization with overlap
     ethr =  7.13E-10,  avg # of iterations =  1.7

     negative rho (up, down):  2.260E-03 1.179E-03

     total cpu time spent up to now is      745.6 secs

     total energy              =   -6056.41607626 Ry
     estimated scf accuracy    <       0.00000179 Ry

     total magnetization       =    61.18 Bohr mag/cell
     absolute magnetization    =    68.61 Bohr mag/cell

     iteration # 40     ecut=    40.00 Ry     beta= 0.70
     Davidson diagonalization with overlap
     ethr =  5.36E-10,  avg # of iterations =  1.5

     negative rho (up, down):  2.341E-03 1.244E-03

     total cpu time spent up to now is      767.0 secs

     total energy              =   -6056.41607653 Ry
     estimated scf accuracy    <       0.00000224 Ry

     total magnetization       =    61.18 Bohr mag/cell
     absolute magnetization    =    68.61 Bohr mag/cell

     iteration # 41     ecut=    40.00 Ry     beta= 0.70
     Davidson diagonalization with overlap
     ethr =  5.36E-10,  avg # of iterations =  1.5

     negative rho (up, down):  2.336E-03 1.245E-03

     total cpu time spent up to now is      778.8 secs

     total energy              =   -6056.41607662 Ry
     estimated scf accuracy    <       0.00000161 Ry

     total magnetization       =    61.18 Bohr mag/cell
     absolute magnetization    =    68.61 Bohr mag/cell

     iteration # 42     ecut=    40.00 Ry     beta= 0.70
     Davidson diagonalization with overlap
     ethr =  4.82E-10,  avg # of iterations =  1.1

     negative rho (up, down):  2.236E-03 1.139E-03

     Magnetic moment per site  (integrated on atomic sphere of radius R)
     atom   1 (R=0.099)  charge=  6.0730  magn=  1.7390
     atom   2 (R=0.099)  charge=  6.0736  magn=  1.7348
     atom   3 (R=0.099)  charge=  6.0731  magn=  1.7420
     atom   4 (R=0.099)  charge=  6.0737  magn=  1.7413
     atom   5 (R=0.099)  charge=  6.0733  magn=  1.7424
     atom   6 (R=0.099)  charge=  6.0733  magn=  1.7405
     atom   7 (R=0.099)  charge=  6.0735  magn=  1.7380
     atom   8 (R=0.099)  charge=  6.0738  magn=  1.7334
     atom   9 (R=0.099)  charge=  6.0737  magn=  1.7358
     atom  10 (R=0.099)  charge=  6.0781  magn=  1.6638
     atom  11 (R=0.099)  charge=  6.0774  magn=  1.6675
     atom  12 (R=0.099)  charge=  6.0771  magn=  1.6677
     atom  13 (R=0.099)  charge=  6.0769  magn=  1.6671
     atom  14 (R=0.099)  charge=  6.0761  magn=  1.6663
     atom  15 (R=0.099)  charge=  6.0768  magn=  1.6698
     atom  16 (R=0.099)  charge=  6.0772  magn=  1.6613
     atom  17 (R=0.099)  charge=  6.0768  magn=  1.6658
     atom  18 (R=0.099)  charge=  6.0763  magn=  1.6633
     atom  19 (R=0.099)  charge=  6.0758  magn=  1.6864
     atom  20 (R=0.099)  charge=  6.0748  magn=  1.6711
     atom  21 (R=0.099)  charge=  6.0751  magn=  1.6725
     atom  22 (R=0.099)  charge=  6.0749  magn=  1.6780
     atom  23 (R=0.099)  charge=  6.0756  magn=  1.6792
     atom  24 (R=0.099)  charge=  6.0754  magn=  1.6781
     atom  25 (R=0.099)  charge=  6.0750  magn=  1.6734
     atom  26 (R=0.099)  charge=  6.0738  magn=  1.6820
     atom  27 (R=0.099)  charge=  6.0740  magn=  1.6585
     atom  28 (R=0.099)  charge=  6.0894  magn=  1.5169
     atom  29 (R=0.099)  charge=  6.1008  magn=  1.1709
     atom  30 (R=0.099)  charge=  6.0750  magn=  1.7275
     atom  31 (R=0.099)  charge=  6.0824  magn=  1.6588
     atom  32 (R=0.099)  charge=  6.0755  magn=  1.7507
     atom  33 (R=0.099)  charge=  6.0740  magn=  1.7529
     atom  34 (R=0.099)  charge=  6.0734  magn=  1.7368
     atom  35 (R=0.099)  charge=  6.0770  magn=  1.7463
     atom  36 (R=0.099)  charge=  6.0745  magn=  1.7387
     atom  37 (R=0.066)  charge=  1.0791  magn= -0.0158
     atom  38 (R=0.067)  charge=  3.0462  magn= -0.0064
     atom  39 (R=0.066)  charge=  0.5311  magn=  0.0057

     total cpu time spent up to now is      799.5 secs

     End of self-consistent calculation

 ------ SPIN UP ------------


          k = 0.0000 0.0000 0.0000 ( 36693 PWs)   bands (ev):

   -21.8045 -10.7120  -7.5694  -6.8918  -6.3241  -5.7757  -5.3542  -4.7201
    -4.6867  -4.6836  -4.6830  -4.6720  -4.6684  -4.6253  -4.3208  -4.1517
    -4.1483  -4.1459  -4.1274  -4.1215  -4.0864  -3.6315  -3.6280  -3.6257
    -3.6169  -3.6055  -3.5896  -3.5067  -3.4946  -3.4932  -3.4881  -3.4825
    -3.4731  -3.4238  -3.4227  -3.1092  -3.1065  -3.1056  -3.1042  -3.0787
    -3.0440  -3.0406  -3.0359  -3.0355  -3.0305  -3.0294  -3.0257  -2.8794
    -2.8759  -2.8367  -2.8127  -2.8027  -2.7993  -2.7975  -2.7939  -2.7763
    -2.7681  -2.7623  -2.7605  -2.6764  -2.6682  -2.6639  -2.6573  -2.6478
    -2.6280  -2.3998  -2.1352  -2.1324  -2.1272  -2.1214  -2.1136  -2.0396
    -2.0171  -1.9916  -1.9807  -1.9746  -1.9607  -1.9468  -1.9459  -1.9427
    -1.9233  -1.8896  -1.8880  -1.8446  -1.8345  -1.8301  -1.8189  -1.8135
    -1.8108  -1.8034  -1.8025  -1.7953  -1.7928  -1.7692  -1.7628  -1.7607
    -1.7579  -1.7557  -1.7540  -1.7534  -1.7497  -1.7449  -1.7436  -1.7426
    -1.7390  -1.7189  -1.7060  -1.6690  -1.6647  -1.5901  -1.5879  -1.5173
    -1.3768  -1.3008  -1.2942  -1.2930  -1.2911  -1.2886  -1.2873  -1.2696
    -1.2592  -1.2567  -1.2401  -1.2169  -1.2081  -1.1888  -1.0850  -1.0833
    -1.0513  -1.0493  -0.9399  -0.9065  -0.8909  -0.8768  -0.8746  -0.8663
    -0.8135  -0.8032  -0.7992  -0.7918  -0.7900  -0.7821  -0.6871  -0.6817
    -0.5834  -0.5575  -0.5535  -0.5518  -0.5403  -0.5157  -0.4982  -0.4910
    -0.4870  -0.4861  -0.4845  -0.4791  -0.4715  -0.4701  -0.4681  -0.4634
    -0.4601  -0.4567  -0.4434  -0.4317  -0.4180  -0.4109  -0.4053  -0.3990
    -0.3926  -0.3843  -0.3682  -0.3677  -0.3584  -0.3530  -0.3338  -0.3327
    -0.3286  -0.3273  -0.3145  -0.3013  -0.2848  -0.2705  -0.2573  -0.2522
    -0.2482  -0.2458  -0.2420  -0.2396  -0.2343  -0.2250  -0.1755  -0.1718
    -0.1589  -0.1569  -0.0983  -0.0968  -0.0917  -0.0837  -0.0813  -0.0624
     0.3356   1.0673

          k = 0.0000 0.2309 0.0000 ( 36641 PWs)   bands (ev):

   -21.8045 -10.7106  -7.4240  -6.8818  -6.2401  -5.7632  -5.4373  -5.3131
    -4.9324  -4.9287  -4.5689  -4.4217  -4.3415  -4.3403  -4.2730  -4.2214
    -4.1818  -4.1633  -4.0661  -4.0190  -4.0139  -3.7502  -3.6374  -3.6332
    -3.5582  -3.5319  -3.5120  -3.5071  -3.5037  -3.4825  -3.4782  -3.4740
    -3.4321  -3.3858  -3.3836  -3.3515  -3.3494  -3.1611  -3.1249  -3.1213
    -3.0695  -3.0676  -3.0626  -3.0605  -2.9861  -2.9507  -2.9393  -2.9121
    -2.8984  -2.8958  -2.8664  -2.8552  -2.7683  -2.7619  -2.7408  -2.7016
    -2.6912  -2.6688  -2.6620  -2.6433  -2.6389  -2.6133  -2.5890  -2.5850
    -2.5269  -2.4199  -2.2470  -2.2343  -2.2198  -2.2033  -2.1626  -2.1047
    -2.0953  -2.0876  -2.0739  -2.0715  -2.0561  -2.0386  -2.0213  -1.9717
    -1.9516  -1.9398  -1.9289  -1.9163  -1.8851  -1.8822  -1.8761  -1.8584
    -1.8480  -1.8427  -1.8392  -1.8388  -1.8303  -1.8108  -1.7804  -1.7466
    -1.7357  -1.7151  -1.6645  -1.6626  -1.6510  -1.6432  -1.6348  -1.6284
    -1.6231  -1.6073  -1.6034  -1.5977  -1.5899  -1.5736  -1.5557  -1.5495
    -1.5339  -1.5276  -1.5118  -1.4468  -1.4226  -1.4018  -1.3216  -1.3183
    -1.3142  -1.3071  -1.2949  -1.2888  -1.2842  -1.2775  -1.2041  -1.1451
    -1.1308  -1.1077  -1.0333  -1.0307  -1.0060  -0.9613  -0.9402  -0.9310
    -0.8956  -0.8433  -0.8263  -0.8120  -0.8055  -0.7861  -0.7529  -0.7462
    -0.7259  -0.7201  -0.7023  -0.6627  -0.6579  -0.6495  -0.6375  -0.6247
    -0.6008  -0.5684  -0.5554  -0.5489  -0.5437  -0.5196  -0.4939  -0.4911
    -0.4823  -0.4768  -0.4694  -0.4591  -0.4439  -0.4328  -0.4184  -0.4088
    -0.3699  -0.3569  -0.3444  -0.3227  -0.2996  -0.2926  -0.2619  -0.2377
    -0.2356  -0.2332  -0.2231  -0.2123  -0.2004  -0.1876  -0.1772  -0.1594
    -0.1376  -0.0989  -0.0884  -0.0838  -0.0603  -0.0599  -0.0259  -0.0161
     0.0123   0.0383   0.2756   0.2846   0.3735   0.4656   0.5288   0.5542
     0.5843   0.8100

          k = 0.0000 0.4619 0.0000 ( 36606 PWs)   bands (ev):

   -21.8045 -10.7083  -7.0326  -6.8374  -6.3089  -6.0417  -5.5868  -5.2962
    -5.0755  -5.0654  -4.9378  -4.2325  -4.1807  -4.1724  -4.1525  -4.0919
    -3.9815  -3.9803  -3.9373  -3.8519  -3.8448  -3.8373  -3.7487  -3.6675
    -3.6661  -3.6501  -3.6490  -3.6008  -3.5427  -3.5404  -3.5341  -3.3822
    -3.3738  -3.3697  -3.3627  -3.3297  -3.3283  -3.2273  -3.2139  -3.2112
    -3.2029  -3.2006  -3.0865  -2.9987  -2.9922  -2.9039  -2.8934  -2.8672
    -2.8558  -2.8321  -2.8127  -2.8084  -2.8018  -2.7862  -2.7228  -2.7172
    -2.6933  -2.6554  -2.6455  -2.5616  -2.5068  -2.4929  -2.4872  -2.4610
    -2.4210  -2.3838  -2.3606  -2.3537  -2.3339  -2.2649  -2.2254  -2.2152
    -2.2102  -2.2060  -2.1992  -2.1787  -2.1724  -2.1680  -2.1252  -2.1147
    -2.0811  -2.0634  -2.0445  -2.0132  -1.9947  -1.9859  -1.9135  -1.9007
    -1.8876  -1.8761  -1.8578  -1.8427  -1.8037  -1.7867  -1.7749  -1.7702
    -1.7604  -1.7489  -1.7355  -1.7075  -1.6971  -1.6872  -1.6820  -1.6681
    -1.6541  -1.6305  -1.5874  -1.5812  -1.5221  -1.5065  -1.4945  -1.4781
    -1.4508  -1.4293  -1.4133  -1.3692  -1.3647  -1.3456  -1.3370  -1.3346
    -1.3286  -1.3229  -1.3141  -1.3056  -1.3021  -1.2901  -1.2821  -1.2664
    -1.2614  -1.2326  -1.1658  -1.1348  -1.1054  -1.1008  -1.0758  -1.0697
    -1.0330  -1.0009  -0.9780  -0.9563  -0.9495  -0.9039  -0.8858  -0.8344
    -0.8282  -0.7964  -0.7859  -0.7573  -0.7406  -0.7267  -0.6958  -0.6613
    -0.6138  -0.5802  -0.5724  -0.5603  -0.5535  -0.5487  -0.5391  -0.5329
    -0.5269  -0.5109  -0.4402  -0.4067  -0.3912  -0.3880  -0.3814  -0.3752
    -0.3693  -0.3530  -0.3299  -0.3269  -0.3184  -0.3057  -0.2248  -0.2082
    -0.2044  -0.1946  -0.1726  -0.1384  -0.1066  -0.0917  -0.0694  -0.0435
    -0.0332   0.0099   0.0139   0.0299   0.0358   0.0445   0.0501   0.0865
     0.1479   0.1613   0.2912   0.8584   1.0990   1.2191   1.2697   1.3234
     1.4913   1.6025

          k = 0.2000-0.1155 0.0000 ( 36641 PWs)   bands (ev):

   -21.8045 -10.7107  -7.4254  -6.8843  -6.2332  -5.7443  -5.4319  -5.3466
    -4.9265  -4.9215  -4.5720  -4.4421  -4.3411  -4.3393  -4.2735  -4.2277
    -4.1795  -4.1437  -4.0767  -4.0178  -4.0056  -3.7525  -3.6393  -3.6315
    -3.5538  -3.5364  -3.5098  -3.5066  -3.5029  -3.4998  -3.4759  -3.4635
    -3.4336  -3.3879  -3.3822  -3.3521  -3.3491  -3.1616  -3.1236  -3.1209
    -3.0874  -3.0677  -3.0621  -3.0569  -2.9866  -2.9587  -2.9368  -2.9090
    -2.8967  -2.8933  -2.8666  -2.8580  -2.7730  -2.7623  -2.7409  -2.7023
    -2.6958  -2.6685  -2.6574  -2.6378  -2.6270  -2.6091  -2.5897  -2.5868
    -2.5320  -2.4199  -2.2499  -2.2411  -2.2111  -2.1919  -2.1606  -2.1076
    -2.0926  -2.0892  -2.0774  -2.0698  -2.0570  -2.0340  -1.9984  -1.9722
    -1.9518  -1.9428  -1.9319  -1.9142  -1.8834  -1.8814  -1.8803  -1.8547
    -1.8529  -1.8458  -1.8427  -1.8390  -1.8312  -1.8059  -1.7620  -1.7542
    -1.7374  -1.7043  -1.6718  -1.6603  -1.6506  -1.6445  -1.6351  -1.6291
    -1.6243  -1.6088  -1.6021  -1.5953  -1.5906  -1.5800  -1.5538  -1.5404
    -1.5363  -1.5240  -1.5037  -1.4666  -1.4277  -1.4049  -1.3200  -1.3180
    -1.3136  -1.3088  -1.2925  -1.2896  -1.2871  -1.2844  -1.1685  -1.1521
    -1.1329  -1.1078  -1.0349  -1.0310  -1.0067  -0.9701  -0.9402  -0.9340
    -0.8721  -0.8558  -0.8358  -0.8196  -0.8010  -0.7902  -0.7501  -0.7479
    -0.7361  -0.7163  -0.6990  -0.6625  -0.6587  -0.6474  -0.6402  -0.6293
    -0.6067  -0.5629  -0.5544  -0.5510  -0.5345  -0.5013  -0.4921  -0.4877
    -0.4834  -0.4768  -0.4700  -0.4599  -0.4444  -0.4284  -0.4261  -0.4174
    -0.3593  -0.3522  -0.3300  -0.3261  -0.2994  -0.2960  -0.2643  -0.2429
    -0.2355  -0.2288  -0.2260  -0.2075  -0.1957  -0.1875  -0.1766  -0.1525
    -0.1377  -0.0962  -0.0931  -0.0833  -0.0602  -0.0586  -0.0182  -0.0139
    -0.0068   0.0400   0.2512   0.2809   0.3462   0.4401   0.5254   0.5604
     0.6157   0.7589

          k = 0.2000 0.1155 0.0000 ( 36641 PWs)   bands (ev):

   -21.8045 -10.7107  -7.4247  -6.8833  -6.2354  -5.7494  -5.4478  -5.3209
    -4.9310  -4.9235  -4.5703  -4.4368  -4.3421  -4.3388  -4.2733  -4.2268
    -4.1819  -4.1470  -4.0749  -4.0192  -4.0059  -3.7531  -3.6367  -3.6331
    -3.5556  -3.5373  -3.5097  -3.5060  -3.5022  -3.4962  -3.4766  -3.4651
    -3.4336  -3.3870  -3.3825  -3.3516  -3.3494  -3.1593  -3.1233  -3.1219
    -3.0854  -3.0669  -3.0628  -3.0575  -2.9835  -2.9573  -2.9359  -2.9102
    -2.8975  -2.8932  -2.8688  -2.8581  -2.7730  -2.7620  -2.7423  -2.7078
    -2.6917  -2.6682  -2.6584  -2.6354  -2.6293  -2.6091  -2.5930  -2.5846
    -2.5322  -2.4200  -2.2483  -2.2407  -2.2158  -2.1912  -2.1614  -2.1019
    -2.0962  -2.0884  -2.0787  -2.0715  -2.0553  -2.0294  -2.0106  -1.9645
    -1.9583  -1.9480  -1.9276  -1.9116  -1.8848  -1.8810  -1.8754  -1.8576
    -1.8522  -1.8452  -1.8400  -1.8364  -1.8313  -1.8094  -1.7735  -1.7521
    -1.7334  -1.7140  -1.6654  -1.6621  -1.6499  -1.6460  -1.6341  -1.6274
    -1.6249  -1.6096  -1.6033  -1.5968  -1.5875  -1.5725  -1.5543  -1.5419
    -1.5343  -1.5272  -1.5014  -1.4590  -1.4219  -1.4142  -1.3221  -1.3166
    -1.3123  -1.3076  -1.2928  -1.2902  -1.2872  -1.2803  -1.1854  -1.1430
    -1.1327  -1.1066  -1.0350  -1.0307  -1.0050  -0.9651  -0.9399  -0.9335
    -0.8814  -0.8524  -0.8374  -0.8154  -0.8034  -0.7879  -0.7531  -0.7495
    -0.7292  -0.7159  -0.7003  -0.6604  -0.6557  -0.6524  -0.6416  -0.6271
    -0.6047  -0.5715  -0.5528  -0.5492  -0.5310  -0.5146  -0.4934  -0.4888
    -0.4810  -0.4763  -0.4664  -0.4576  -0.4445  -0.4299  -0.4262  -0.4154
    -0.3651  -0.3527  -0.3361  -0.3247  -0.3030  -0.2963  -0.2597  -0.2409
    -0.2362  -0.2329  -0.2255  -0.2106  -0.1960  -0.1878  -0.1779  -0.1575
    -0.1365  -0.0995  -0.0908  -0.0838  -0.0598  -0.0586  -0.0207  -0.0166
     0.0071   0.0376   0.2582   0.2838   0.3498   0.4479   0.5268   0.5726
     0.6012   0.7663

          k = 0.2000 0.3464 0.0000 ( 36608 PWs)   bands (ev):

   -21.8045 -10.7089  -7.1492  -6.8631  -6.1297  -5.8115  -5.7603  -5.5520
    -5.3125  -4.6672  -4.5817  -4.3497  -4.3439  -4.3041  -4.1255  -4.1226
    -4.0367  -4.0248  -4.0061  -3.8924  -3.8849  -3.7506  -3.7443  -3.6839
    -3.6341  -3.5545  -3.5457  -3.5181  -3.4949  -3.4850  -3.4832  -3.4536
    -3.4402  -3.4241  -3.4093  -3.3691  -3.3296  -3.2867  -3.2823  -3.1591
    -3.1523  -3.0694  -3.0543  -3.0328  -3.0129  -2.9995  -2.9097  -2.8688
    -2.8591  -2.8425  -2.8254  -2.8218  -2.7752  -2.7645  -2.7507  -2.7401
    -2.7242  -2.6193  -2.6048  -2.5581  -2.5426  -2.5212  -2.5011  -2.4840
    -2.4767  -2.4043  -2.3585  -2.2799  -2.2726  -2.2310  -2.2193  -2.1945
    -2.1837  -2.1772  -2.1645  -2.1434  -2.1352  -2.1179  -2.1129  -2.1016
    -2.0824  -2.0722  -2.0016  -1.9664  -1.9241  -1.9188  -1.8973  -1.8839
    -1.8767  -1.8541  -1.8263  -1.8068  -1.7956  -1.7741  -1.7590  -1.7543
    -1.7503  -1.7347  -1.7292  -1.7125  -1.7063  -1.7003  -1.6811  -1.6630
    -1.6513  -1.6366  -1.6107  -1.5925  -1.5680  -1.5588  -1.5245  -1.5151
    -1.5066  -1.4959  -1.4897  -1.4458  -1.4252  -1.4125  -1.3896  -1.3583
    -1.3458  -1.3402  -1.3346  -1.3240  -1.2992  -1.2938  -1.2767  -1.2387
    -1.2011  -1.1681  -1.1621  -1.1256  -1.0512  -1.0409  -1.0278  -0.9378
    -0.9149  -0.9038  -0.9001  -0.8918  -0.8786  -0.8667  -0.8491  -0.8392
    -0.8167  -0.8126  -0.7906  -0.7523  -0.7396  -0.7333  -0.7118  -0.6945
    -0.6785  -0.6594  -0.6330  -0.6233  -0.6117  -0.6029  -0.5260  -0.4681
    -0.4543  -0.4256  -0.4189  -0.4128  -0.4012  -0.3834  -0.3720  -0.3663
    -0.3617  -0.3387  -0.2821  -0.2763  -0.2604  -0.2538  -0.2165  -0.2024
    -0.1853  -0.1791  -0.1773  -0.1569  -0.1499  -0.1409  -0.1358  -0.1136
    -0.1110  -0.0541  -0.0212  -0.0098  -0.0043   0.0399   0.0426   0.0573
     0.3489   0.3778   0.4543   0.5351   0.6264   0.7283   1.0978   1.2312
     1.2698   1.4470

          k = 0.2000-0.5774 0.0000 ( 36660 PWs)   bands (ev):

   -21.8045 -10.7078  -6.9312  -6.5522  -6.5326  -6.0309  -5.8332  -5.4907
    -5.1349  -5.1033  -4.6879  -4.3363  -4.0873  -4.0464  -3.9417  -3.9137
    -3.9064  -3.8867  -3.8781  -3.8590  -3.8105  -3.7984  -3.7969  -3.7926
    -3.7093  -3.6933  -3.6472  -3.6447  -3.6152  -3.6106  -3.5178  -3.4709
    -3.4592  -3.4478  -3.4354  -3.3956  -3.3054  -3.2960  -3.1791  -3.1642
    -3.1596  -3.0918  -3.0782  -3.0608  -3.0325  -2.9536  -2.9465  -2.9415
    -2.8775  -2.8698  -2.8024  -2.7710  -2.7339  -2.7240  -2.6779  -2.6668
    -2.6235  -2.5858  -2.5777  -2.5620  -2.5566  -2.5285  -2.5175  -2.4564
    -2.4249  -2.3687  -2.3522  -2.3475  -2.3339  -2.2876  -2.2766  -2.2237
    -2.2045  -2.1920  -2.1766  -2.1688  -2.1650  -2.1289  -2.1073  -2.0996
    -2.0849  -2.0797  -2.0573  -2.0401  -2.0317  -2.0243  -1.9591  -1.9390
    -1.9332  -1.8879  -1.8744  -1.8562  -1.8118  -1.8032  -1.7905  -1.7730
    -1.7523  -1.7416  -1.7383  -1.7294  -1.7203  -1.7082  -1.6818  -1.6763
    -1.6162  -1.5929  -1.5880  -1.5799  -1.5680  -1.5602  -1.5543  -1.5493
    -1.5404  -1.5367  -1.5134  -1.4864  -1.4706  -1.4314  -1.4266  -1.3970
    -1.3456  -1.3348  -1.3044  -1.2856  -1.2734  -1.2679  -1.2498  -1.2000
    -1.1852  -1.1763  -1.1671  -1.0977  -1.0904  -1.0424  -1.0259  -1.0171
    -0.9899  -0.9773  -0.9714  -0.9592  -0.9260  -0.9164  -0.8861  -0.8762
    -0.8409  -0.8250  -0.8109  -0.7972  -0.7838  -0.7469  -0.7203  -0.7047
    -0.6985  -0.6878  -0.6814  -0.6502  -0.6379  -0.6230  -0.5901  -0.5101
    -0.4282  -0.4142  -0.4059  -0.3987  -0.3940  -0.3858  -0.3760  -0.3626
    -0.3257  -0.3238  -0.3091  -0.3035  -0.2624  -0.2517  -0.1892  -0.1809
    -0.1708  -0.1548  -0.1352  -0.1301  -0.0897  -0.0769  -0.0731  -0.0630
    -0.0519   0.0026   0.0176   0.0213   0.0397   0.0453   0.0698   0.0971
     0.2302   0.3919   0.4948   0.7290   1.2527   1.3142   1.4911   1.5815
     1.7878   1.8701

          k = 0.2000-0.3464 0.0000 ( 36608 PWs)   bands (ev):

   -21.8045 -10.7088  -7.1532  -6.8605  -6.1279  -5.8044  -5.7586  -5.5513
    -5.3229  -4.6637  -4.5866  -4.3508  -4.3457  -4.3008  -4.1245  -4.1236
    -4.0355  -4.0266  -4.0074  -3.8940  -3.8807  -3.7494  -3.7450  -3.6843
    -3.6338  -3.5521  -3.5451  -3.5182  -3.4930  -3.4869  -3.4847  -3.4541
    -3.4399  -3.4214  -3.4127  -3.3696  -3.3301  -3.2853  -3.2846  -3.1621
    -3.1548  -3.0668  -3.0578  -3.0275  -3.0165  -3.0005  -2.9109  -2.8738
    -2.8616  -2.8396  -2.8249  -2.8230  -2.7735  -2.7613  -2.7491  -2.7411
    -2.7206  -2.6242  -2.6042  -2.5585  -2.5407  -2.5241  -2.4984  -2.4849
    -2.4761  -2.4031  -2.3535  -2.2804  -2.2711  -2.2289  -2.2147  -2.1956
    -2.1865  -2.1782  -2.1651  -2.1416  -2.1276  -2.1194  -2.1153  -2.0991
    -2.0849  -2.0708  -1.9957  -1.9724  -1.9218  -1.9164  -1.9075  -1.8872
    -1.8716  -1.8542  -1.8274  -1.8067  -1.7994  -1.7696  -1.7602  -1.7572
    -1.7489  -1.7352  -1.7249  -1.7115  -1.7051  -1.6983  -1.6747  -1.6634
    -1.6553  -1.6336  -1.6054  -1.5918  -1.5696  -1.5629  -1.5270  -1.5184
    -1.5086  -1.4936  -1.4876  -1.4494  -1.4222  -1.4105  -1.3900  -1.3613
    -1.3443  -1.3403  -1.3335  -1.3210  -1.3023  -1.2955  -1.2763  -1.2378
    -1.2018  -1.1752  -1.1672  -1.1268  -1.0526  -1.0399  -1.0315  -0.9383
    -0.9124  -0.9060  -0.8995  -0.8862  -0.8814  -0.8718  -0.8446  -0.8356
    -0.8245  -0.8082  -0.7866  -0.7541  -0.7378  -0.7322  -0.7113  -0.6932
    -0.6774  -0.6571  -0.6353  -0.6221  -0.6142  -0.6018  -0.5217  -0.4637
    -0.4536  -0.4304  -0.4185  -0.4101  -0.4009  -0.3844  -0.3759  -0.3669
    -0.3578  -0.3391  -0.2843  -0.2745  -0.2615  -0.2535  -0.2143  -0.2044
    -0.1849  -0.1803  -0.1782  -0.1540  -0.1459  -0.1408  -0.1370  -0.1173
    -0.1105  -0.0496  -0.0216  -0.0098  -0.0062   0.0394   0.0408   0.0584
     0.3489   0.3802   0.4527   0.5320   0.6430   0.7270   1.0864   1.2260
     1.2567   1.4226

          k = 0.4000-0.2309 0.0000 ( 36606 PWs)   bands (ev):

   -21.8045 -10.7085  -7.0522  -6.8277  -6.2835  -6.0387  -5.5379  -5.3646
    -5.0748  -5.0437  -4.9690  -4.2478  -4.1780  -4.1693  -4.1311  -4.1000
    -3.9817  -3.9793  -3.9409  -3.8498  -3.8433  -3.8396  -3.7561  -3.6686
    -3.6627  -3.6498  -3.6480  -3.6028  -3.5493  -3.5429  -3.5369  -3.3829
    -3.3796  -3.3637  -3.3520  -3.3321  -3.3282  -3.2265  -3.2160  -3.2123
    -3.2052  -3.2007  -3.0882  -3.0230  -2.9903  -2.9218  -2.8958  -2.8682
    -2.8582  -2.8337  -2.8112  -2.8097  -2.8065  -2.7816  -2.7194  -2.7139
    -2.6924  -2.6584  -2.6512  -2.5407  -2.5071  -2.4958  -2.4905  -2.4408
    -2.3977  -2.3788  -2.3659  -2.3564  -2.3155  -2.2620  -2.2261  -2.2195
    -2.2093  -2.2075  -2.1829  -2.1763  -2.1717  -2.1571  -2.1438  -2.0923
    -2.0749  -2.0561  -2.0472  -2.0129  -2.0031  -1.9729  -1.9296  -1.9059
    -1.8861  -1.8757  -1.8587  -1.8535  -1.8054  -1.7890  -1.7746  -1.7719
    -1.7519  -1.7464  -1.7293  -1.7091  -1.7051  -1.6877  -1.6683  -1.6600
    -1.6522  -1.6250  -1.5857  -1.5467  -1.5185  -1.5111  -1.4812  -1.4754
    -1.4529  -1.4276  -1.4221  -1.3677  -1.3567  -1.3507  -1.3401  -1.3350
    -1.3304  -1.3263  -1.3185  -1.3100  -1.2996  -1.2962  -1.2878  -1.2653
    -1.2441  -1.2375  -1.1877  -1.1345  -1.1085  -1.1018  -1.0837  -1.0539
    -1.0441  -1.0106  -0.9832  -0.9582  -0.9514  -0.9013  -0.8872  -0.8437
    -0.8260  -0.7968  -0.7770  -0.7676  -0.7444  -0.7279  -0.6947  -0.6640
    -0.6361  -0.5803  -0.5681  -0.5530  -0.5488  -0.5426  -0.5363  -0.5333
    -0.5198  -0.5069  -0.4449  -0.4035  -0.3991  -0.3896  -0.3770  -0.3719
    -0.3641  -0.3398  -0.3348  -0.3274  -0.3140  -0.2985  -0.2271  -0.2062
    -0.2001  -0.1977  -0.1696  -0.1417  -0.1044  -0.0939  -0.0664  -0.0356
    -0.0327   0.0120   0.0158   0.0373   0.0397   0.0443   0.0578   0.0702
     0.1474   0.1622   0.2506   0.9135   1.0010   1.1304   1.2643   1.3123
     1.4587   1.6254

          k = 0.4000 0.0000 0.0000 ( 36608 PWs)   bands (ev):

   -21.8045 -10.7090  -7.1574  -6.8577  -6.1216  -5.7863  -5.7606  -5.5556
    -5.3397  -4.6463  -4.6040  -4.3576  -4.3482  -4.2982  -4.1260  -4.1221
    -4.0315  -4.0273  -4.0198  -3.8951  -3.8705  -3.7505  -3.7459  -3.6814
    -3.6338  -3.5463  -3.5434  -3.5185  -3.4929  -3.4897  -3.4783  -3.4646
    -3.4383  -3.4190  -3.4173  -3.3732  -3.3282  -3.2961  -3.2817  -3.1632
    -3.1534  -3.0655  -3.0554  -3.0236  -3.0171  -3.0055  -2.9164  -2.9020
    -2.8594  -2.8318  -2.8261  -2.8221  -2.7687  -2.7599  -2.7477  -2.7412
    -2.7203  -2.6287  -2.6096  -2.5437  -2.5418  -2.5293  -2.5084  -2.4796
    -2.4768  -2.3707  -2.3545  -2.2785  -2.2621  -2.2335  -2.2234  -2.1965
    -2.1852  -2.1701  -2.1633  -2.1442  -2.1321  -2.1238  -2.1131  -2.0971
    -2.0845  -2.0556  -1.9963  -1.9663  -1.9268  -1.9196  -1.9009  -1.8858
    -1.8678  -1.8521  -1.8267  -1.8127  -1.7991  -1.7686  -1.7581  -1.7557
    -1.7457  -1.7374  -1.7276  -1.7130  -1.7044  -1.6940  -1.6765  -1.6641
    -1.6502  -1.6280  -1.5972  -1.5775  -1.5700  -1.5634  -1.5286  -1.5208
    -1.5026  -1.4944  -1.4834  -1.4528  -1.4236  -1.4121  -1.3886  -1.3563
    -1.3469  -1.3425  -1.3354  -1.3198  -1.2994  -1.2970  -1.2778  -1.2442
    -1.1957  -1.1812  -1.1725  -1.1321  -1.0513  -1.0426  -1.0320  -0.9487
    -0.9175  -0.9044  -0.8983  -0.8841  -0.8813  -0.8723  -0.8530  -0.8401
    -0.8256  -0.8090  -0.7866  -0.7474  -0.7352  -0.7321  -0.7086  -0.6932
    -0.6741  -0.6631  -0.6329  -0.6244  -0.6165  -0.6054  -0.5274  -0.4582
    -0.4537  -0.4296  -0.4158  -0.4103  -0.3987  -0.3831  -0.3738  -0.3671
    -0.3595  -0.3344  -0.2905  -0.2752  -0.2634  -0.2523  -0.2125  -0.2086
    -0.1858  -0.1808  -0.1763  -0.1557  -0.1464  -0.1402  -0.1375  -0.1155
    -0.1082  -0.0487  -0.0189  -0.0105  -0.0070   0.0381   0.0399   0.0557
     0.3662   0.3801   0.4366   0.5366   0.6783   0.7082   1.0003   1.2023
     1.2737   1.4021

          k = 0.4000 0.2309 0.0000 ( 36606 PWs)   bands (ev):

   -21.8045 -10.7086  -7.0432  -6.8320  -6.2935  -6.0387  -5.5589  -5.3369
    -5.0747  -5.0519  -4.9588  -4.2445  -4.1799  -4.1716  -4.1346  -4.0987
    -3.9815  -3.9797  -3.9402  -3.8490  -3.8445  -3.8396  -3.7556  -3.6675
    -3.6630  -3.6502  -3.6484  -3.6025  -3.5508  -3.5430  -3.5359  -3.3817
    -3.3780  -3.3651  -3.3516  -3.3337  -3.3279  -3.2214  -3.2170  -3.2131
    -3.2038  -3.2006  -3.0843  -3.0159  -2.9918  -2.9169  -2.8964  -2.8734
    -2.8565  -2.8344  -2.8128  -2.8078  -2.8030  -2.7870  -2.7200  -2.7127
    -2.6936  -2.6595  -2.6462  -2.5430  -2.4995  -2.4971  -2.4903  -2.4464
    -2.4133  -2.3801  -2.3662  -2.3540  -2.3215  -2.2665  -2.2230  -2.2144
    -2.2109  -2.2050  -2.1864  -2.1750  -2.1685  -2.1648  -2.1418  -2.1038
    -2.0735  -2.0615  -2.0462  -2.0119  -1.9990  -1.9770  -1.9274  -1.8981
    -1.8863  -1.8772  -1.8592  -1.8426  -1.7996  -1.7801  -1.7758  -1.7716
    -1.7581  -1.7471  -1.7325  -1.7070  -1.6994  -1.6876  -1.6741  -1.6639
    -1.6573  -1.6260  -1.5862  -1.5583  -1.5286  -1.5040  -1.4943  -1.4750
    -1.4508  -1.4312  -1.4133  -1.3708  -1.3593  -1.3493  -1.3384  -1.3313
    -1.3285  -1.3244  -1.3161  -1.3065  -1.3029  -1.2939  -1.2841  -1.2642
    -1.2561  -1.2276  -1.1775  -1.1345  -1.1085  -1.0972  -1.0831  -1.0609
    -1.0334  -1.0098  -0.9830  -0.9589  -0.9516  -0.9004  -0.8899  -0.8412
    -0.8286  -0.7955  -0.7804  -0.7687  -0.7398  -0.7265  -0.6955  -0.6714
    -0.6325  -0.5819  -0.5726  -0.5533  -0.5484  -0.5446  -0.5378  -0.5335
    -0.5230  -0.5143  -0.4334  -0.4042  -0.3958  -0.3882  -0.3762  -0.3759
    -0.3662  -0.3437  -0.3309  -0.3291  -0.3165  -0.3023  -0.2235  -0.2063
    -0.2012  -0.1988  -0.1712  -0.1418  -0.1072  -0.0935  -0.0704  -0.0379
    -0.0320   0.0119   0.0143   0.0367   0.0373   0.0442   0.0530   0.0826
     0.1470   0.1604   0.2628   0.8764   1.0213   1.1565   1.2667   1.3041
     1.4868   1.6231

          k = 0.4000-0.6928 0.0000 ( 36660 PWs)   bands (ev):

   -21.8045 -10.7079  -6.9413  -6.5527  -6.5115  -6.0431  -5.8328  -5.4369
    -5.2078  -5.1005  -4.6684  -4.3348  -4.0886  -4.0477  -3.9540  -3.9133
    -3.9044  -3.8897  -3.8815  -3.8597  -3.8072  -3.7985  -3.7970  -3.7922
    -3.7124  -3.6930  -3.6468  -3.6429  -3.6147  -3.6126  -3.5045  -3.4759
    -3.4598  -3.4559  -3.4320  -3.3949  -3.3014  -3.2917  -3.1880  -3.1643
    -3.1615  -3.0929  -3.0757  -3.0612  -3.0317  -2.9628  -2.9480  -2.9401
    -2.8782  -2.8690  -2.8090  -2.7694  -2.7463  -2.7262  -2.6868  -2.6670
    -2.6104  -2.5869  -2.5737  -2.5643  -2.5576  -2.5229  -2.5127  -2.4491
    -2.4094  -2.3717  -2.3609  -2.3467  -2.3304  -2.2833  -2.2653  -2.2282
    -2.2043  -2.1837  -2.1748  -2.1679  -2.1573  -2.1424  -2.1018  -2.0977
    -2.0857  -2.0783  -2.0603  -2.0374  -2.0317  -2.0133  -1.9578  -1.9404
    -1.9331  -1.9118  -1.8651  -1.8571  -1.8151  -1.7961  -1.7775  -1.7681
    -1.7549  -1.7429  -1.7345  -1.7277  -1.7220  -1.7019  -1.6812  -1.6710
    -1.6095  -1.5958  -1.5889  -1.5826  -1.5691  -1.5592  -1.5546  -1.5488
    -1.5409  -1.5345  -1.5108  -1.4924  -1.4673  -1.4331  -1.4259  -1.4024
    -1.3470  -1.3372  -1.3035  -1.2842  -1.2718  -1.2687  -1.2524  -1.2103
    -1.1847  -1.1770  -1.1626  -1.1082  -1.0769  -1.0436  -1.0270  -1.0178
    -0.9946  -0.9771  -0.9734  -0.9608  -0.9260  -0.9154  -0.8855  -0.8708
    -0.8373  -0.8241  -0.8106  -0.7963  -0.7822  -0.7564  -0.7184  -0.7123
    -0.6999  -0.6890  -0.6810  -0.6544  -0.6445  -0.6172  -0.5884  -0.5131
    -0.4262  -0.4138  -0.4061  -0.3983  -0.3924  -0.3852  -0.3744  -0.3583
    -0.3286  -0.3220  -0.3135  -0.3023  -0.2605  -0.2516  -0.1868  -0.1820
    -0.1730  -0.1537  -0.1360  -0.1290  -0.0911  -0.0764  -0.0744  -0.0625
    -0.0601   0.0167   0.0179   0.0266   0.0399   0.0467   0.0695   0.0964
     0.1930   0.4102   0.5072   0.7363   1.1712   1.3178   1.4406   1.6539
     1.7779   1.8382

          k = 0.4000-0.4619 0.0000 ( 36660 PWs)   bands (ev):

   -21.8045 -10.7079  -6.9495  -6.5498  -6.5000  -6.0512  -5.8331  -5.3973
    -5.2484  -5.1058  -4.6601  -4.3336  -4.0891  -4.0474  -3.9567  -3.9131
    -3.9055  -3.8891  -3.8824  -3.8610  -3.8070  -3.7986  -3.7965  -3.7897
    -3.7144  -3.6927  -3.6470  -3.6415  -3.6155  -3.6127  -3.5023  -3.4736
    -3.4601  -3.4559  -3.4336  -3.3944  -3.3002  -3.2933  -3.1948  -3.1656
    -3.1625  -3.0910  -3.0738  -3.0634  -3.0303  -2.9637  -2.9462  -2.9409
    -2.8781  -2.8712  -2.8114  -2.7705  -2.7431  -2.7265  -2.6861  -2.6722
    -2.6066  -2.5860  -2.5771  -2.5664  -2.5582  -2.5267  -2.5118  -2.4505
    -2.3963  -2.3703  -2.3569  -2.3469  -2.3220  -2.2872  -2.2640  -2.2263
    -2.2070  -2.1795  -2.1749  -2.1726  -2.1577  -2.1380  -2.1010  -2.0969
    -2.0889  -2.0725  -2.0595  -2.0395  -2.0320  -2.0017  -1.9607  -1.9532
    -1.9345  -1.9191  -1.8730  -1.8499  -1.8180  -1.7989  -1.7789  -1.7636
    -1.7520  -1.7404  -1.7373  -1.7291  -1.7241  -1.6985  -1.6763  -1.6631
    -1.6055  -1.5928  -1.5868  -1.5849  -1.5720  -1.5615  -1.5556  -1.5448
    -1.5355  -1.5340  -1.5116  -1.4851  -1.4706  -1.4374  -1.4267  -1.4058
    -1.3546  -1.3387  -1.3025  -1.2812  -1.2758  -1.2686  -1.2567  -1.2071
    -1.1862  -1.1802  -1.1651  -1.1091  -1.0698  -1.0454  -1.0319  -1.0156
    -1.0015  -0.9831  -0.9671  -0.9594  -0.9271  -0.9163  -0.8826  -0.8724
    -0.8320  -0.8209  -0.8077  -0.7995  -0.7785  -0.7614  -0.7253  -0.7147
    -0.6969  -0.6931  -0.6732  -0.6519  -0.6419  -0.6173  -0.5835  -0.5146
    -0.4231  -0.4096  -0.4045  -0.4011  -0.3891  -0.3863  -0.3792  -0.3580
    -0.3308  -0.3218  -0.3138  -0.3033  -0.2589  -0.2534  -0.1847  -0.1817
    -0.1694  -0.1561  -0.1391  -0.1259  -0.0933  -0.0787  -0.0735  -0.0658
    -0.0606   0.0167   0.0195   0.0251   0.0413   0.0442   0.0721   0.0980
     0.1858   0.4150   0.5191   0.7458   1.1433   1.3152   1.4321   1.6774
     1.7617   1.8259

 ------ SPIN DOWN ----------


          k = 0.0000 0.0000 0.0000 ( 36693 PWs)   bands (ev):

   -21.8180 -10.7380  -7.6920  -6.8416  -6.3832  -5.7591  -5.3914  -4.5136
    -4.4860  -4.4821  -4.4815  -4.4666  -4.4635  -4.3626  -3.6124  -3.6079
    -3.6061  -3.5856  -3.5748  -3.5687  -3.4468  -2.6681  -2.6640  -2.6552
    -2.6447  -2.6337  -2.5901  -2.2734  -2.2057  -2.1952  -2.1893  -2.1840
    -2.1725  -2.0201  -1.9888  -1.9745  -1.9132  -1.9080  -1.8941  -1.8919
    -1.8113  -1.8062  -1.7551  -1.7507  -1.6811  -1.6673  -1.6582  -1.6429
    -1.6315  -1.5420  -1.4332  -1.3970  -1.3866  -1.3744  -1.3622  -1.3558
    -1.3511  -1.3495  -1.3341  -1.3058  -1.2961  -1.2752  -1.2728  -1.2668
    -1.2490  -1.1297  -0.8372  -0.7240  -0.7054  -0.6947  -0.6943  -0.5392
    -0.4979  -0.4304  -0.4018  -0.3847  -0.3773  -0.3679  -0.3590  -0.3517
    -0.3336  -0.2916  -0.2794  -0.2759  -0.2730  -0.2712  -0.2488  -0.2259
    -0.1856  -0.1826  -0.1700  -0.1689  -0.1400  -0.1248  -0.1181  -0.1143
    -0.1098  -0.1045  -0.0833  -0.0830  -0.0821  -0.0803  -0.0164   0.0218
     0.0417   0.0623   0.0713   0.0934   0.1249   0.1347   0.1438   0.1461
     0.1481   0.1501   0.1518   0.1562   0.2243   0.2252   0.2774   0.3028
     0.3139   0.3259   0.3306   0.3480   0.5135   0.5327   0.5488   0.5861
     0.6071   0.6264   0.6336   0.6355   0.6792   0.9116   0.9270   0.9698
     0.9749   1.0754   1.1262   1.1511   1.1661   1.1919   1.1991   1.2020
     1.3263   1.3566   1.3613   1.3643   1.3696   1.3707   1.3801   1.3981
     1.4187   1.4431   1.4558   1.4662   1.4742   1.4836   1.4959   1.5089
     1.5214   1.5235   1.5260   1.5596   1.5715   1.5917   1.6016   1.6092
     1.6246   1.6313   1.6375   1.6482   1.6496   1.6532   1.6602   1.6952
     1.6988   1.7182   1.7215   1.7326   1.7364   1.7458   1.7499   1.7608
     1.7837   1.7866   1.7902   1.7959   1.8001   1.8024   1.8052   1.8117
     1.8267   1.8360   1.8732   1.8758   2.0212   2.0254   2.0289   2.0303
     2.0335   2.0354

          k = 0.0000 0.2309 0.0000 ( 36641 PWs)   bands (ev):

   -21.8180 -10.7365  -7.5443  -6.8311  -6.2900  -5.7718  -5.4595  -5.3363
    -4.8648  -4.8602  -4.3495  -4.2089  -3.9352  -3.9327  -3.8330  -3.8149
    -3.6388  -3.3879  -3.2565  -3.2497  -3.1461  -2.8763  -2.6674  -2.6623
    -2.6038  -2.5529  -2.5454  -2.3441  -2.2435  -2.2320  -2.2224  -2.1971
    -2.1811  -2.1385  -2.1310  -2.1217  -2.0979  -2.0150  -1.9531  -1.9323
    -1.8652  -1.8617  -1.7953  -1.7110  -1.6811  -1.6668  -1.6585  -1.5562
    -1.5264  -1.4944  -1.4647  -1.4347  -1.4081  -1.3850  -1.3755  -1.3628
    -1.3595  -1.3447  -1.2757  -1.2407  -1.2219  -1.2136  -1.1815  -1.1713
    -1.0977  -1.0376  -0.8577  -0.7669  -0.7522  -0.7403  -0.7085  -0.6390
    -0.6158  -0.5914  -0.5431  -0.5134  -0.4282  -0.4050  -0.4006  -0.3849
    -0.3434  -0.3389  -0.3299  -0.3226  -0.3128  -0.3026  -0.2569  -0.2423
    -0.1999  -0.1739  -0.1626  -0.1596  -0.1400  -0.1136  -0.1005  -0.0836
    -0.0806  -0.0761  -0.0643  -0.0609  -0.0565  -0.0517  -0.0376  -0.0125
     0.0229   0.0338   0.0380   0.0409   0.0716   0.0880   0.1055   0.1093
     0.1458   0.1690   0.1819   0.2019   0.2479   0.2510   0.2599   0.2909
     0.4110   0.4412   0.4854   0.4984   0.5206   0.5255   0.5567   0.5731
     0.5890   0.5976   0.6099   0.6163   0.7781   0.8898   0.9298   0.9404
     0.9492   0.9594   0.9811   0.9876   1.0236   1.0474   1.1110   1.1188
     1.1407   1.2005   1.2150   1.2532   1.2561   1.2816   1.3041   1.3162
     1.3655   1.4007   1.4110   1.4322   1.4363   1.4554   1.4786   1.4868
     1.5197   1.5428   1.5674   1.5835   1.5895   1.6070   1.6185   1.6471
     1.6708   1.6766   1.6866   1.6944   1.7055   1.7192   1.7680   1.7706
     1.7792   1.7843   1.8261   1.8312   1.8404   1.8589   1.8649   1.8767
     1.8936   1.9239   1.9312   1.9354   1.9609   1.9646   1.9700   1.9905
     1.9960   2.0198   2.0230   2.0363   2.1156   2.1263   2.1351   2.1647
     2.1934   2.2207

          k = 0.0000 0.4619 0.0000 ( 36606 PWs)   bands (ev):

   -21.8180 -10.7342  -7.1195  -6.8156  -6.3982  -6.0637  -5.6278  -5.3279
    -5.0800  -5.0670  -4.9276  -3.9997  -3.9599  -3.8781  -3.3798  -3.3150
    -3.3107  -3.1945  -3.0507  -2.9834  -2.8675  -2.8589  -2.7162  -2.7117
    -2.6531  -2.6454  -2.5936  -2.5782  -2.4712  -2.4618  -2.4230  -2.3953
    -2.3825  -2.1979  -2.1740  -2.1223  -2.0931  -2.0537  -1.9755  -1.9745
    -1.9585  -1.9513  -1.8531  -1.6778  -1.6637  -1.6417  -1.6221  -1.6042
    -1.4568  -1.4422  -1.4324  -1.4139  -1.4109  -1.3786  -1.3746  -1.3646
    -1.3298  -1.2669  -1.2553  -1.2449  -1.2279  -1.1971  -1.0846  -1.0299
    -0.9502  -0.8978  -0.8361  -0.8112  -0.7639  -0.7399  -0.7157  -0.6971
    -0.6830  -0.6716  -0.6465  -0.6076  -0.5848  -0.5421  -0.5365  -0.4955
    -0.4664  -0.4384  -0.4200  -0.4095  -0.4008  -0.3600  -0.3012  -0.2720
    -0.2382  -0.2120  -0.2013  -0.1705  -0.1328  -0.1215  -0.1044  -0.0726
    -0.0534  -0.0383  -0.0247  -0.0127  -0.0026   0.0018   0.0110   0.0419
     0.0555   0.0864   0.0909   0.0973   0.1059   0.1122   0.1334   0.1417
     0.1569   0.1771   0.2114   0.2941   0.3028   0.3185   0.3447   0.3548
     0.3588   0.3831   0.3883   0.4496   0.4657   0.4790   0.5049   0.5137
     0.5368   0.5576   0.5724   0.5804   0.6187   0.7010   0.7593   0.7841
     0.8048   0.8481   0.8833   0.9860   0.9988   1.0078   1.0318   1.0446
     1.0553   1.1055   1.1291   1.1392   1.1486   1.2027   1.2453   1.3304
     1.3471   1.3855   1.3942   1.4243   1.4446   1.4599   1.4761   1.5081
     1.5325   1.5491   1.5621   1.6203   1.6346   1.6507   1.6565   1.6903
     1.7028   1.7109   1.7411   1.7597   1.7679   1.7811   1.7864   1.8088
     1.8321   1.8655   1.8934   1.9206   1.9411   1.9628   1.9676   1.9767
     1.9851   1.9926   2.0195   2.0282   2.0302   2.0543   2.0576   2.0642
     2.0669   2.1113   2.2011   2.2760   2.2927   2.3930   2.5163   2.7132
     2.7832   2.8413

          k = 0.2000-0.1155 0.0000 ( 36641 PWs)   bands (ev):

   -21.8180 -10.7366  -7.5452  -6.8356  -6.2821  -5.7479  -5.4514  -5.3812
    -4.8559  -4.8519  -4.3484  -4.2405  -3.9362  -3.9306  -3.8343  -3.7847
    -3.6441  -3.3895  -3.2588  -3.2360  -3.1554  -2.8915  -2.6739  -2.6383
    -2.6028  -2.5609  -2.5393  -2.3289  -2.2640  -2.2267  -2.2225  -2.2100
    -2.1895  -2.1350  -2.1320  -2.1155  -2.0984  -2.0191  -1.9556  -1.9458
    -1.8673  -1.8608  -1.7914  -1.7107  -1.6751  -1.6670  -1.6269  -1.5548
    -1.5339  -1.4890  -1.4503  -1.4444  -1.4052  -1.3867  -1.3675  -1.3604
    -1.3594  -1.3182  -1.2975  -1.2439  -1.2237  -1.2193  -1.1880  -1.1703
    -1.0954  -1.0232  -0.8648  -0.7604  -0.7521  -0.7417  -0.7218  -0.6411
    -0.6210  -0.5833  -0.5549  -0.5138  -0.4366  -0.3995  -0.3908  -0.3839
    -0.3435  -0.3399  -0.3303  -0.3171  -0.3047  -0.2854  -0.2730  -0.2368
    -0.2146  -0.1694  -0.1629  -0.1550  -0.1429  -0.1185  -0.0995  -0.0848
    -0.0827  -0.0723  -0.0660  -0.0609  -0.0578  -0.0526  -0.0360  -0.0120
     0.0204   0.0269   0.0459   0.0470   0.0680   0.0760   0.0949   0.1130
     0.1523   0.1627   0.1801   0.2095   0.2403   0.2575   0.2608   0.2920
     0.4057   0.4358   0.4851   0.4932   0.5261   0.5486   0.5563   0.5630
     0.5740   0.6032   0.6127   0.6152   0.7636   0.9007   0.9120   0.9367
     0.9460   0.9584   0.9747   0.9805   1.0230   1.0413   1.1194   1.1357
     1.1465   1.2083   1.2144   1.2467   1.2690   1.2845   1.3062   1.3309
     1.3619   1.4037   1.4196   1.4277   1.4312   1.4467   1.4784   1.4926
     1.5056   1.5417   1.5612   1.5805   1.5925   1.6119   1.6212   1.6681
     1.6726   1.6831   1.6897   1.6918   1.6986   1.7121   1.7625   1.7716
     1.7780   1.7853   1.8250   1.8350   1.8394   1.8521   1.8645   1.8774
     1.8891   1.9259   1.9289   1.9405   1.9610   1.9647   1.9702   1.9882
     1.9938   2.0173   2.0216   2.0339   2.1120   2.1214   2.1330   2.1553
     2.2007   2.2257

          k = 0.2000 0.1155 0.0000 ( 36641 PWs)   bands (ev):

   -21.8180 -10.7366  -7.5447  -6.8338  -6.2847  -5.7546  -5.4677  -5.3532
    -4.8620  -4.8523  -4.3474  -4.2338  -3.9364  -3.9306  -3.8359  -3.7906
    -3.6424  -3.3894  -3.2583  -3.2381  -3.1536  -2.8890  -2.6723  -2.6424
    -2.6085  -2.5560  -2.5399  -2.3299  -2.2639  -2.2329  -2.2214  -2.2108
    -2.1830  -2.1349  -2.1314  -2.1179  -2.0954  -2.0135  -1.9540  -1.9423
    -1.8653  -1.8605  -1.7971  -1.7109  -1.6724  -1.6683  -1.6376  -1.5485
    -1.5314  -1.4931  -1.4657  -1.4352  -1.4093  -1.3798  -1.3747  -1.3608
    -1.3584  -1.3220  -1.2831  -1.2458  -1.2250  -1.2201  -1.1893  -1.1692
    -1.1062  -1.0210  -0.8572  -0.7627  -0.7519  -0.7305  -0.7254  -0.6433
    -0.6194  -0.6004  -0.5356  -0.5119  -0.4341  -0.4001  -0.3950  -0.3822
    -0.3450  -0.3372  -0.3312  -0.3253  -0.3071  -0.2929  -0.2653  -0.2493
    -0.1961  -0.1745  -0.1631  -0.1601  -0.1403  -0.1171  -0.0994  -0.0856
    -0.0820  -0.0742  -0.0658  -0.0609  -0.0576  -0.0515  -0.0378  -0.0119
     0.0208   0.0305   0.0406   0.0453   0.0711   0.0828   0.0993   0.1102
     0.1482   0.1635   0.1864   0.2073   0.2414   0.2537   0.2617   0.2918
     0.4123   0.4340   0.4790   0.4976   0.5157   0.5419   0.5571   0.5670
     0.5855   0.5976   0.6131   0.6161   0.7718   0.9041   0.9216   0.9358
     0.9420   0.9546   0.9755   0.9840   1.0274   1.0410   1.1093   1.1230
     1.1377   1.2096   1.2144   1.2502   1.2641   1.2808   1.3052   1.3203
     1.3666   1.3952   1.4170   1.4285   1.4343   1.4534   1.4801   1.4903
     1.5212   1.5408   1.5675   1.5851   1.5932   1.6143   1.6218   1.6587
     1.6702   1.6755   1.6869   1.6941   1.6966   1.7151   1.7664   1.7698
     1.7787   1.7843   1.8247   1.8358   1.8389   1.8554   1.8644   1.8788
     1.8910   1.9267   1.9302   1.9392   1.9605   1.9647   1.9735   1.9878
     1.9944   2.0199   2.0239   2.0338   2.1143   2.1253   2.1310   2.1553
     2.1968   2.2241

          k = 0.2000 0.3464 0.0000 ( 36608 PWs)   bands (ev):

   -21.8180 -10.7347  -7.2567  -6.8225  -6.1525  -5.8867  -5.8313  -5.5666
    -5.3480  -4.6128  -4.4990  -4.1285  -4.1167  -4.0233  -3.2951  -3.2851
    -3.2812  -3.2767  -3.1673  -3.0883  -3.0031  -2.9710  -2.9320  -2.6113
    -2.5466  -2.5373  -2.5266  -2.4459  -2.4347  -2.4087  -2.3488  -2.3235
    -2.3162  -2.3099  -2.2904  -2.1628  -2.1172  -2.0624  -1.9448  -1.9319
    -1.8973  -1.8571  -1.8096  -1.7997  -1.7253  -1.6405  -1.5848  -1.5603
    -1.5081  -1.4515  -1.4312  -1.4140  -1.3991  -1.3861  -1.3737  -1.3490
    -1.3351  -1.3125  -1.2582  -1.2361  -1.1833  -1.1377  -1.0843  -1.0390
    -0.9650  -0.9400  -0.8421  -0.8153  -0.7356  -0.7209  -0.6974  -0.6690
    -0.6528  -0.6407  -0.6205  -0.5891  -0.5481  -0.5217  -0.5097  -0.4888
    -0.4774  -0.4550  -0.4392  -0.4346  -0.3890  -0.3079  -0.2692  -0.2568
    -0.2383  -0.2358  -0.2012  -0.1731  -0.1610  -0.1522  -0.1207  -0.1124
    -0.0916  -0.0847  -0.0681  -0.0448  -0.0403  -0.0293   0.0085   0.0196
     0.0262   0.0402   0.0493   0.0797   0.0886   0.0984   0.1089   0.1164
     0.1338   0.2049   0.2133   0.2209   0.3229   0.3503   0.3631   0.3921
     0.4041   0.4484   0.4556   0.4934   0.5124   0.5322   0.5373   0.5475
     0.5597   0.5715   0.6019   0.6183   0.6891   0.7556   0.8335   0.8413
     0.9183   0.9507   0.9791   0.9870   0.9987   1.0214   1.0298   1.0432
     1.0498   1.0745   1.0867   1.1100   1.1375   1.1625   1.2453   1.2603
     1.2713   1.3055   1.3226   1.3486   1.3591   1.3706   1.4283   1.4514
     1.5044   1.5527   1.6294   1.6461   1.6617   1.6829   1.6962   1.7017
     1.7113   1.7327   1.7351   1.7549   1.7600   1.8240   1.8317   1.8390
     1.8409   1.8755   1.8898   1.8918   1.9136   1.9361   1.9404   1.9654
     1.9753   1.9786   1.9840   2.0070   2.0112   2.0395   2.0590   2.0749
     2.1072   2.1119   2.1937   2.2348   2.2985   2.3559   2.3943   2.5246
     2.6212   2.7024

          k = 0.2000-0.5774 0.0000 ( 36660 PWs)   bands (ev):

   -21.8180 -10.7336  -6.8946  -6.6662  -6.6180  -6.0555  -5.8904  -5.5420
    -5.1724  -5.1161  -4.6489  -4.1841  -3.6499  -3.5280  -3.3185  -3.3140
    -3.2873  -3.1024  -3.0602  -2.9046  -2.8980  -2.8940  -2.7629  -2.7553
    -2.7463  -2.7242  -2.7125  -2.6996  -2.5291  -2.3824  -2.3684  -2.3580
    -2.3374  -2.3308  -2.2847  -2.2666  -2.1928  -2.1545  -2.0379  -1.8975
    -1.8244  -1.8140  -1.8052  -1.7342  -1.7178  -1.6211  -1.5792  -1.5715
    -1.5229  -1.5160  -1.4937  -1.4281  -1.3910  -1.3546  -1.3398  -1.3281
    -1.2780  -1.2313  -1.1856  -1.1789  -1.1295  -1.0925  -1.0883  -0.9954
    -0.9720  -0.9203  -0.8247  -0.7900  -0.7811  -0.7647  -0.7204  -0.7096
    -0.6620  -0.6462  -0.6270  -0.5912  -0.5596  -0.5459  -0.5142  -0.4945
    -0.4855  -0.4497  -0.4451  -0.4328  -0.4289  -0.4160  -0.3838  -0.3568
    -0.3490  -0.3317  -0.3070  -0.2673  -0.2222  -0.1955  -0.1739  -0.1571
    -0.1118  -0.0926  -0.0600  -0.0362  -0.0225  -0.0056   0.0080   0.0308
     0.0498   0.0780   0.1047   0.1216   0.1333   0.1455   0.2222   0.2322
     0.2624   0.2721   0.2852   0.2942   0.3035   0.3490   0.3810   0.3865
     0.3931   0.4308   0.4618   0.4786   0.5049   0.5145   0.5481   0.5604
     0.5798   0.5923   0.6169   0.6298   0.6445   0.6635   0.6741   0.7082
     0.7623   0.8208   0.9184   0.9349   0.9535   0.9667   0.9883   1.0064
     1.0109   1.0335   1.0479   1.0871   1.1695   1.1908   1.1982   1.2166
     1.2576   1.2681   1.2795   1.3262   1.3507   1.3731   1.4244   1.4433
     1.4764   1.5832   1.6070   1.6345   1.6901   1.7028   1.7287   1.7438
     1.7536   1.7652   1.7707   1.7829   1.8236   1.8364   1.8502   1.8559
     1.8781   1.9067   1.9297   1.9366   1.9436   1.9490   1.9549   1.9584
     1.9678   2.0051   2.0153   2.0438   2.0518   2.0648   2.0751   2.0831
     2.1003   2.1609   2.2521   2.4119   2.6125   2.6991   2.8347   2.9482
     2.9507   2.9941

          k = 0.2000-0.3464 0.0000 ( 36608 PWs)   bands (ev):

   -21.8180 -10.7347  -7.2590  -6.8222  -6.1504  -5.8792  -5.8299  -5.5657
    -5.3593  -4.6094  -4.5034  -4.1293  -4.1181  -4.0207  -3.2954  -3.2854
    -3.2801  -3.2768  -3.1674  -3.0885  -3.0014  -2.9715  -2.9345  -2.6130
    -2.5410  -2.5341  -2.5230  -2.4453  -2.4372  -2.4078  -2.3479  -2.3246
    -2.3135  -2.3100  -2.2947  -2.1614  -2.1242  -2.0710  -1.9493  -1.9313
    -1.9021  -1.8536  -1.8060  -1.7981  -1.7218  -1.6370  -1.5803  -1.5665
    -1.5194  -1.4380  -1.4199  -1.4127  -1.4040  -1.3866  -1.3670  -1.3513
    -1.3355  -1.3123  -1.2624  -1.2399  -1.1850  -1.1345  -1.0744  -1.0272
    -0.9719  -0.9403  -0.8517  -0.8179  -0.7386  -0.7065  -0.6983  -0.6877
    -0.6550  -0.6370  -0.6182  -0.5786  -0.5549  -0.5244  -0.5072  -0.4882
    -0.4798  -0.4556  -0.4425  -0.4279  -0.3926  -0.3148  -0.2713  -0.2620
    -0.2458  -0.2387  -0.1940  -0.1756  -0.1583  -0.1489  -0.1248  -0.1034
    -0.0919  -0.0809  -0.0643  -0.0495  -0.0341  -0.0182   0.0107   0.0165
     0.0310   0.0408   0.0476   0.0746   0.0907   0.1007   0.1051   0.1147
     0.1351   0.2008   0.2138   0.2268   0.3291   0.3540   0.3569   0.3940
     0.4047   0.4363   0.4512   0.4915   0.5050   0.5238   0.5358   0.5454
     0.5503   0.5633   0.6056   0.6447   0.6937   0.7335   0.8388   0.8530
     0.9116   0.9434   0.9772   0.9977   1.0087   1.0163   1.0280   1.0412
     1.0567   1.0764   1.0907   1.1227   1.1400   1.1735   1.2311   1.2585
     1.2809   1.2947   1.3317   1.3484   1.3597   1.3728   1.4274   1.4443
     1.4977   1.5428   1.6252   1.6533   1.6619   1.6831   1.6946   1.7047
     1.7198   1.7323   1.7411   1.7547   1.7602   1.8214   1.8323   1.8346
     1.8433   1.8779   1.8869   1.8921   1.9126   1.9337   1.9415   1.9614
     1.9738   1.9790   1.9829   2.0051   2.0112   2.0390   2.0583   2.0752
     2.1040   2.1152   2.1969   2.2365   2.2964   2.3604   2.3910   2.5078
     2.6225   2.7058

          k = 0.4000-0.2309 0.0000 ( 36606 PWs)   bands (ev):

   -21.8180 -10.7344  -7.1306  -6.8196  -6.3719  -6.0547  -5.5768  -5.4059
    -5.0840  -5.0432  -4.9539  -4.0081  -3.9575  -3.8570  -3.3944  -3.3136
    -3.3074  -3.1991  -3.0506  -2.9938  -2.8652  -2.8572  -2.7133  -2.7107
    -2.6539  -2.6291  -2.5820  -2.5721  -2.4656  -2.4609  -2.4222  -2.4003
    -2.3866  -2.2100  -2.1818  -2.1638  -2.0998  -2.0587  -1.9814  -1.9685
    -1.9620  -1.9583  -1.8424  -1.6739  -1.6624  -1.6374  -1.6242  -1.5292
    -1.4569  -1.4348  -1.4325  -1.4186  -1.3939  -1.3854  -1.3753  -1.3678
    -1.2957  -1.2803  -1.2493  -1.2453  -1.2120  -1.1684  -1.0949  -1.0517
    -0.9201  -0.8983  -0.8819  -0.8077  -0.7730  -0.7551  -0.7135  -0.7025
    -0.6807  -0.6675  -0.6512  -0.6012  -0.5980  -0.5385  -0.5341  -0.4970
    -0.4711  -0.4397  -0.4138  -0.4098  -0.3962  -0.3577  -0.3283  -0.2786
    -0.2266  -0.2083  -0.1907  -0.1558  -0.1324  -0.1211  -0.0887  -0.0776
    -0.0522  -0.0437  -0.0318  -0.0083  -0.0053   0.0055   0.0126   0.0358
     0.0488   0.0801   0.0885   0.0991   0.1034   0.1069   0.1272   0.1387
     0.1592   0.1795   0.2031   0.2903   0.3072   0.3158   0.3429   0.3599
     0.3638   0.3780   0.3895   0.4478   0.4630   0.4703   0.4985   0.5122
     0.5362   0.5703   0.5756   0.5832   0.6170   0.6388   0.7586   0.7827
     0.8054   0.8332   0.8868   0.9851   1.0079   1.0157   1.0339   1.0564
[...]
     atom    8 type  1   force =    -0.00121599    0.00034142   -0.10025313
     atom    9 type  1   force =     0.00224445   -0.00024867   -0.10109392
     atom   10 type  1   force =    -0.00165486    0.00094051   -0.01033264
     atom   11 type  1   force =     0.00053491    0.00037494   -0.00856298
     atom   12 type  1   force =     0.00109613    0.00099773   -0.01010081
     atom   13 type  1   force =    -0.00101715   -0.00037082   -0.00998593
     atom   14 type  1   force =     0.00026480   -0.00025205   -0.01166609
     atom   15 type  1   force =     0.00051000   -0.00026567   -0.01101735
     atom   16 type  1   force =     0.00103031    0.00075370   -0.01011061
     atom   17 type  1   force =     0.00020378   -0.00084953   -0.01111194
     atom   18 type  1   force =    -0.00112888   -0.00088480   -0.01075046
     atom   19 type  1   force =     0.00241272    0.00317935    0.01035156
     atom   20 type  1   force =    -0.00194046    0.01090994    0.00167843
     atom   21 type  1   force =    -0.00095459   -0.00153361    0.01771278
     atom   22 type  1   force =     0.00009207    0.00026361    0.01622882
     atom   23 type  1   force =    -0.00070395    0.00098700    0.01744045
     atom   24 type  1   force =     0.00032270    0.00124554    0.01727106
     atom   25 type  1   force =    -0.00415189   -0.00205618    0.00945003
     atom   26 type  1   force =    -0.00622649   -0.00808796   -0.00310881
     atom   27 type  1   force =     0.00950413   -0.00473354    0.00146987
     atom   28 type  1   force =     0.02435381    0.01872704    0.16197416
     atom   29 type  1   force =    -0.03016183    0.02123077    0.20671585
     atom   30 type  1   force =    -0.00149751    0.00140121    0.12524223
     atom   31 type  1   force =    -0.00665372   -0.03656193    0.13799855
     atom   32 type  1   force =    -0.00712767   -0.00810153    0.12172115
     atom   33 type  1   force =     0.00594367   -0.00662749    0.11513077
     atom   34 type  1   force =     0.00117080    0.00196820    0.10558006
     atom   35 type  1   force =    -0.00018367    0.02209530    0.13025025
     atom   36 type  1   force =    -0.00183670    0.00245076    0.11592016
     atom   37 type  2   force =    -0.06669150    0.02212270    0.26361638
     atom   38 type  3   force =     1.71837514   -0.25319839   -2.06385054
     atom   39 type  4   force =    -0.04842226    0.00796244   -0.02195168
     The ionic contribution  to forces
     atom    1 type  1   force =    -0.00683081    0.00667538 -111.13515801
     atom    2 type  1   force =     0.00692919    0.00684989 -111.13496796
     atom    3 type  1   force =    -0.00009835    0.00254160 -111.12136385
     atom    4 type  1   force =     0.00019131    0.00499602 -111.12156773
     atom    5 type  1   force =    -0.00028358   -0.00298453 -111.12171062
     atom    6 type  1   force =     0.00009226   -0.00298186 -111.12209609
     atom    7 type  1   force =    -0.00698057   -0.00380779 -111.12625230
     atom    8 type  1   force =    -0.00010234   -0.00764322 -111.14047243
     atom    9 type  1   force =     0.00708289   -0.00364550 -111.12645028
     atom   10 type  1   force =    -0.05760008   -0.01626969  -40.17404537
     atom   11 type  1   force =     0.05737961   -0.01489837  -40.17493873
     atom   12 type  1   force =     0.00022603   -0.00629891  -40.06095161
     atom   13 type  1   force =     0.00106464    0.07173927  -40.13284552
     atom   14 type  1   force =     0.03434392    0.02679422  -40.06124703
     atom   15 type  1   force =    -0.03541078    0.02594569  -40.06361166
     atom   16 type  1   force =    -0.01932154   -0.01168965  -40.04995677
     atom   17 type  1   force =    -0.00127961   -0.06409975  -40.09138562
     atom   18 type  1   force =     0.02059989   -0.01122506  -40.05228404
     atom   19 type  1   force =    -0.35659092    0.35213815   31.01365591
     atom   20 type  1   force =     0.36487226    0.36697757   31.02421644
     atom   21 type  1   force =    -0.00761986    0.10931599   31.67859724
     atom   22 type  1   force =     0.00848762    0.22496096   31.67108577
     atom   23 type  1   force =    -0.01656766   -0.13723503   31.67177616
     atom   24 type  1   force =     0.00809738   -0.13361601   31.65553321
     atom   25 type  1   force =    -0.33666342   -0.18015849   31.45915827
     atom   26 type  1   force =    -0.00929002   -0.42913499   30.71107586
     atom   27 type  1   force =     0.34516245   -0.17496223   31.45102684
     atom   28 type  1   force =    -3.96689281   -1.18327854   98.63462268
     atom   29 type  1   force =     4.26089125   -1.15510011   98.06582236
     atom   30 type  1   force =    -0.03481720   -0.18225404  104.03985432
     atom   31 type  1   force =     0.10633562    3.76391810  101.56336905
     atom   32 type  1   force =     1.13275424    0.94948510  104.06196349
     atom   33 type  1   force =    -1.24822340    0.99098610  103.83393824
     atom   34 type  1   force =    -0.59201710   -0.46737547  104.25397640
     atom   35 type  1   force =    -0.02611986   -2.57246107  103.25301234
     atom   36 type  1   force =     0.61527048   -0.41202690  104.26240962
     atom   37 type  2   force =     3.95165360   -0.33826553   53.01069406
     atom   38 type  3   force =    -6.29839480    0.94655448   88.69683789
     atom   39 type  4   force =     2.09967006   -0.33846579   14.99867947
     The local contribution  to forces
     atom    1 type  1   force =     0.00563829   -0.00773315  111.24037884
     atom    2 type  1   force =    -0.00513303   -0.00918159  111.23866892
     atom    3 type  1   force =    -0.00013302   -0.00080841  111.22558394
     atom    4 type  1   force =    -0.00172645   -0.00523165  111.22935875
     atom    5 type  1   force =     0.00283864    0.00141017  111.22985647
     atom    6 type  1   force =    -0.00121943    0.00269452  111.22832542
     atom    7 type  1   force =     0.00823540    0.00574721  111.23409269
     atom    8 type  1   force =     0.00169444    0.00796104  111.24333087
     atom    9 type  1   force =    -0.00987559    0.00457819  111.23017094
     atom   10 type  1   force =     0.05948751    0.01547005   40.16384676
     atom   11 type  1   force =    -0.05807216    0.01450365   40.16016875
     atom   12 type  1   force =    -0.00163031    0.00449336   40.05272903
     atom   13 type  1   force =     0.00026344   -0.07178210   40.12479798
     atom   14 type  1   force =    -0.03507316   -0.02673096   40.05329267
     atom   15 type  1   force =     0.03471242   -0.02588595   40.05398046
     atom   16 type  1   force =     0.01807647    0.01160909   40.03824186
     atom   17 type  1   force =     0.00057265    0.06611813   40.08463352
     atom   18 type  1   force =    -0.01857512    0.01322205   40.04346332
     atom   19 type  1   force =     0.35339107   -0.35437806  -31.00375250
     atom   20 type  1   force =    -0.36235380   -0.37612842  -31.00634072
     atom   21 type  1   force =     0.00914212   -0.10673020  -31.67401842
     atom   22 type  1   force =    -0.00912630   -0.22616381  -31.66179243
     atom   23 type  1   force =     0.01873232    0.13478793  -31.66570585
     atom   24 type  1   force =    -0.00880657    0.13048002  -31.65033577
     atom   25 type  1   force =     0.34055395    0.18289334  -31.44471058
     atom   26 type  1   force =     0.01514013    0.43543327  -30.68962736
     atom   27 type  1   force =    -0.35376695    0.17966721  -31.43169869
     atom   28 type  1   force =     3.92558303    1.16088826  -98.80509313
     atom   29 type  1   force =    -4.21133810    1.13013749  -98.26170699
     atom   30 type  1   force =     0.04088867    0.18093359 -104.17731981
     atom   31 type  1   force =    -0.10308275   -3.71129874 -101.70797375
     atom   32 type  1   force =    -1.11684766   -0.92955065 -104.19574763
     atom   33 type  1   force =     1.23734332   -0.97956626 -103.96045735
     atom   34 type  1   force =     0.58916694    0.46245303 -104.36579181
     atom   35 type  1   force =     0.02208797    2.53298822 -103.39414963
     atom   36 type  1   force =    -0.60863950    0.40163079 -104.38756012
     atom   37 type  2   force =    -3.89141077    0.31696515  -53.28018060
     atom   38 type  3   force =     4.60205781   -0.69550662  -86.64372331
     atom   39 type  4   force =    -2.05143495    0.32756529  -14.99075521
     The core correction contribution to forces
     atom    1 type  1   force =    -0.00015144   -0.00007486    0.01004922
     atom    2 type  1   force =     0.00015289   -0.00017548    0.01025072
     atom    3 type  1   force =    -0.00000254    0.00007513    0.00992446
     atom    4 type  1   force =    -0.00009240   -0.00006639    0.01055773
     atom    5 type  1   force =     0.00027800   -0.00009525    0.01018417
     atom    6 type  1   force =    -0.00015222   -0.00002629    0.01008504
     atom    7 type  1   force =     0.00013737    0.00012723    0.01044190
     atom    8 type  1   force =     0.00021167    0.00006721    0.01030768
     atom    9 type  1   force =    -0.00035345    0.00015980    0.01034757
     atom   10 type  1   force =    -0.00021563    0.00017277   -0.00187506
     atom   11 type  1   force =    -0.00003550    0.00005011   -0.00173548
     atom   12 type  1   force =     0.00017929   -0.00007053   -0.00173547
     atom   13 type  1   force =    -0.00014988    0.00016317   -0.00193248
     atom   14 type  1   force =     0.00015749    0.00017978   -0.00180547
     atom   15 type  1   force =    -0.00003832   -0.00005508   -0.00157384
     atom   16 type  1   force =    -0.00015834    0.00004638   -0.00196334
     atom   17 type  1   force =    -0.00012625   -0.00006038   -0.00171235
     atom   18 type  1   force =     0.00030361   -0.00013096   -0.00191379
     atom   19 type  1   force =    -0.00020296   -0.00030451    0.00117988
     atom   20 type  1   force =     0.00011529   -0.00057318    0.00063859
     atom   21 type  1   force =     0.00029039    0.00003580    0.00161010
     atom   22 type  1   force =     0.00019069    0.00004665    0.00228436
     atom   23 type  1   force =    -0.00009049   -0.00014547    0.00161003
     atom   24 type  1   force =     0.00012536   -0.00035428    0.00157890
     atom   25 type  1   force =     0.00019276   -0.00008950    0.00167813
     atom   26 type  1   force =     0.00029535    0.00053235    0.00167265
     atom   27 type  1   force =     0.00014636   -0.00013637    0.00113114
     atom   28 type  1   force =     0.01195028    0.00297180    0.00091428
     atom   29 type  1   force =    -0.01836246    0.00637244    0.02074211
     atom   30 type  1   force =    -0.00224432   -0.00063528   -0.00838447
     atom   31 type  1   force =     0.00139529   -0.00761263   -0.00693782
     atom   32 type  1   force =    -0.00204827   -0.00287989   -0.00866042
     atom   33 type  1   force =     0.00044509   -0.00055185   -0.01007217
     atom   34 type  1   force =    -0.00024320    0.00053240   -0.00996425
     atom   35 type  1   force =     0.00110428    0.00534444   -0.00793384
     atom   36 type  1   force =    -0.00065682    0.00266927   -0.00896809
     atom   37 type  2   force =    -0.00118853   -0.00022418   -0.00227746
     atom   38 type  3   force =    -0.01359224    0.00205262    0.01650681
     atom   39 type  4   force =     0.00000000    0.00000000    0.00000000
     The Hubbard contrib.    to forces
     atom    1 type  1   force =     0.00000000    0.00000000    0.00000000
     atom    2 type  1   force =     0.00000000    0.00000000    0.00000000
     atom    3 type  1   force =     0.00000000    0.00000000    0.00000000
     atom    4 type  1   force =     0.00000000    0.00000000    0.00000000
     atom    5 type  1   force =     0.00000000    0.00000000    0.00000000
     atom    6 type  1   force =     0.00000000    0.00000000    0.00000000
     atom    7 type  1   force =     0.00000000    0.00000000    0.00000000
     atom    8 type  1   force =     0.00000000    0.00000000    0.00000000
     atom    9 type  1   force =     0.00000000    0.00000000    0.00000000
     atom   10 type  1   force =     0.00000000    0.00000000    0.00000000
     atom   11 type  1   force =     0.00000000    0.00000000    0.00000000
     atom   12 type  1   force =     0.00000000    0.00000000    0.00000000
     atom   13 type  1   force =     0.00000000    0.00000000    0.00000000
     atom   14 type  1   force =     0.00000000    0.00000000    0.00000000
     atom   15 type  1   force =     0.00000000    0.00000000    0.00000000
     atom   16 type  1   force =     0.00000000    0.00000000    0.00000000
     atom   17 type  1   force =     0.00000000    0.00000000    0.00000000
     atom   18 type  1   force =     0.00000000    0.00000000    0.00000000
     atom   19 type  1   force =     0.00000000    0.00000000    0.00000000
     atom   20 type  1   force =     0.00000000    0.00000000    0.00000000
     atom   21 type  1   force =     0.00000000    0.00000000    0.00000000
     atom   22 type  1   force =     0.00000000    0.00000000    0.00000000
     atom   23 type  1   force =     0.00000000    0.00000000    0.00000000
     atom   24 type  1   force =     0.00000000    0.00000000    0.00000000
     atom   25 type  1   force =     0.00000000    0.00000000    0.00000000
     atom   26 type  1   force =     0.00000000    0.00000000    0.00000000
     atom   27 type  1   force =     0.00000000    0.00000000    0.00000000
     atom   28 type  1   force =     0.00000000    0.00000000    0.00000000
     atom   29 type  1   force =     0.00000000    0.00000000    0.00000000
     atom   30 type  1   force =     0.00000000    0.00000000    0.00000000
     atom   31 type  1   force =     0.00000000    0.00000000    0.00000000
     atom   32 type  1   force =     0.00000000    0.00000000    0.00000000
     atom   33 type  1   force =     0.00000000    0.00000000    0.00000000
     atom   34 type  1   force =     0.00000000    0.00000000    0.00000000
     atom   35 type  1   force =     0.00000000    0.00000000    0.00000000
     atom   36 type  1   force =     0.00000000    0.00000000    0.00000000
     atom   37 type  2   force =     0.00000000    0.00000000    0.00000000
     atom   38 type  3   force =     0.00000000    0.00000000    0.00000000
     atom   39 type  4   force =     0.00000000    0.00000000    0.00000000
     The SCF correction term to forces
     atom    1 type  1   force =    -0.00000000    0.00000000   -0.00000000
     atom    2 type  1   force =    -0.00000000    0.00000000   -0.00000000
     atom    3 type  1   force =     0.00000000    0.00000000   -0.00000000
     atom    4 type  1   force =     0.00000000   -0.00000000    0.00000000
     atom    5 type  1   force =     0.00000000    0.00000000    0.00000000
     atom    6 type  1   force =    -0.00000000   -0.00000000   -0.00000000
     atom    7 type  1   force =     0.00000000   -0.00000000    0.00000000
     atom    8 type  1   force =    -0.00000000   -0.00000000   -0.00000000
     atom    9 type  1   force =     0.00000000   -0.00000000   -0.00000000
     atom   10 type  1   force =    -0.00000000   -0.00000000   -0.00000000
     atom   11 type  1   force =    -0.00000000   -0.00000000   -0.00000000
     atom   12 type  1   force =     0.00000000   -0.00000000   -0.00000000
     atom   13 type  1   force =    -0.00000000    0.00000000   -0.00000000
     atom   14 type  1   force =     0.00000000    0.00000000   -0.00000000
     atom   15 type  1   force =    -0.00000000    0.00000000   -0.00000000
     atom   16 type  1   force =     0.00000000   -0.00000000    0.00000000
     atom   17 type  1   force =    -0.00000000   -0.00000000   -0.00000000
     atom   18 type  1   force =     0.00000000   -0.00000000   -0.00000000
     atom   19 type  1   force =    -0.00000000    0.00000000   -0.00000000
     atom   20 type  1   force =     0.00000000    0.00000000   -0.00000000
     atom   21 type  1   force =    -0.00000000    0.00000000   -0.00000000
     atom   22 type  1   force =     0.00000000    0.00000000   -0.00000000
     atom   23 type  1   force =    -0.00000000    0.00000000   -0.00000000
     atom   24 type  1   force =    -0.00000000   -0.00000000   -0.00000000
     atom   25 type  1   force =    -0.00000000   -0.00000000   -0.00000000
     atom   26 type  1   force =    -0.00000000   -0.00000000   -0.00000000
     atom   27 type  1   force =     0.00000000   -0.00000000   -0.00000000
     atom   28 type  1   force =    -0.00000000   -0.00000000   -0.00000000
     atom   29 type  1   force =     0.00000000    0.00000000   -0.00000000
     atom   30 type  1   force =    -0.00000000   -0.00000000   -0.00000000
     atom   31 type  1   force =     0.00000000    0.00000000   -0.00000000
     atom   32 type  1   force =     0.00000000    0.00000000   -0.00000000
     atom   33 type  1   force =    -0.00000000    0.00000000   -0.00000000
     atom   34 type  1   force =    -0.00000000   -0.00000000   -0.00000000
     atom   35 type  1   force =    -0.00000000   -0.00000000   -0.00000000
     atom   36 type  1   force =     0.00000000    0.00000000   -0.00000000
     atom   37 type  2   force =     0.00002804    0.00003663   -0.00003951
     atom   38 type  3   force =    -0.00000993    0.00002309   -0.00004202
     atom   39 type  4   force =     0.00001184    0.00000553   -0.00001681

     Total force =     0.020763     Total SCF correction =     0.000081

     Writing all to output data dir ./pwscf.save/

     init_run     :     14.48s CPU     15.21s WALL (       1 calls)
     electrons    :    759.23s CPU    780.55s WALL (       1 calls)
     forces       :      2.95s CPU      3.01s WALL (       1 calls)

     Called by init_run:
     wfcinit      :      7.17s CPU      7.42s WALL (       1 calls)
     potinit      :      2.13s CPU      2.23s WALL (       1 calls)
     hinit0       :      4.73s CPU      5.08s WALL (       1 calls)

     Called by electrons:
     c_bands      :    646.86s CPU    666.31s WALL (      42 calls)
     sum_band     :     72.36s CPU     73.35s WALL (      42 calls)
     v_of_rho     :     15.28s CPU     15.66s WALL (      43 calls)
     newd         :      3.66s CPU      3.71s WALL (      43 calls)
     PAW_pot      :     14.01s CPU     14.16s WALL (      43 calls)
     mix_rho      :      8.23s CPU      8.39s WALL (      42 calls)
     vdW_kernel   :      1.09s CPU      1.10s WALL (       1 calls)

     Called by c_bands:
     init_us_2    :      5.35s CPU      5.46s WALL (    2236 calls)
     init_us_2:cp :      5.33s CPU      5.45s WALL (    2236 calls)
     cegterg      :    626.67s CPU    645.59s WALL (    1092 calls)

     Called by *egterg:
     cdiaghg      :    169.36s CPU    173.02s WALL (    3714 calls)
     h_psi        :    312.97s CPU    324.47s WALL (    3740 calls)
     s_psi        :     23.55s CPU     24.64s WALL (    3740 calls)
     g_psi        :      0.47s CPU      0.48s WALL (    2622 calls)

     Called by h_psi:
     h_psi:calbec :     45.97s CPU     47.39s WALL (    3740 calls)
     vloc_psi     :    241.12s CPU    250.18s WALL (    3740 calls)
     add_vuspsi   :     24.69s CPU     25.69s WALL (    3740 calls)

     General routines
     calbec       :     64.24s CPU     65.86s WALL (    4936 calls)
     fft          :     15.25s CPU     15.88s WALL (    3904 calls)
     ffts         :      5.50s CPU      5.62s WALL (   14939 calls)
     fftw         :    272.38s CPU    281.13s WALL ( 1135950 calls)
     interpolate  :      0.70s CPU      0.71s WALL (      86 calls)

     Parallel routines

     PWSCF        :  13m 8.86s CPU  13m39.67s WALL


   This run was terminated on:  15:27:18   6Dec2025            

=------------------------------------------------------------------------------=
   JOB DONE.
=------------------------------------------------------------------------------=
