
     Program PWSCF v.7.1 starts on 17Dec2025 at 11:10:17 
        Git branch: heads/qe-7.1
        Last git commit: 48ba0178f8fede6d020eb786884699a9f063f55d-dirty
        Last git commit date: Fri Jan 27 14:22:33 2023 +0000
        Last git commit subject: Merge branch 'fix_hubbard' into 'develop'

     This program is part of the open-source Quantum ESPRESSO suite
     for quantum simulation of materials; please cite
         "P. Giannozzi et al., J. Phys.:Condens. Matter 21 395502 (2009);
         "P. Giannozzi et al., J. Phys.:Condens. Matter 29 465901 (2017);
         "P. Giannozzi et al., J. Chem. Phys. 152 154105 (2020);
          URL http://www.quantum-espresso.org", 
     in publications or presentations arising from this work. More details at
     http://www.quantum-espresso.org/quote

     Parallel version (MPI), running on    96 processors

     MPI processes distributed on     2 nodes
     159038 MiB available memory on the printing compute node when the environment starts

     Reading input from espresso.pwi
Warning: card &CELL ignored
Warning: card / ignored
Warning: card &FCP ignored
Warning: card / ignored
Warning: card &RISM ignored
Warning: card / ignored

     Current dimensions of program PWSCF are:
     Max number of different atomic species (ntypx) = 10
     Max number of k-points (npk) =  40000
     Max angular momentum in pseudopotentials (lmaxx) =  4
     file Co.pbe-n-kjpaw_psl.1.0.0.UPF: wavefunction(s)  4S 3D renormalized
     file C.pbe-n-kjpaw_psl.1.0.0.UPF: wavefunction(s)  2S 2P renormalized
     file O.pbe-nl-kjpaw_psl.1.0.0.UPF: wavefunction(s)  2S 2P renormalized
     file H.pbe-kjpaw_psl.1.0.0.UPF: wavefunction(s)  1S renormalized

     **************************************************************************
     Initializing libbeef V0.1.2 with the BEEF-vdW functional.
     Citation: Wellendorff et al., PRB 85, 235149 (2012).
     **************************************************************************


     IMPORTANT: XC functional enforced from input :
     Exchange-correlation= BEEF-VDW
                           (   1   4  43  14   2   0   0)
     Any further DFT definition will be discarded
     Please, verify this is what you really want


     R & G space division:  proc/nbgrp/npool/nimage =      96
     Subspace diagonalization in iterative solution of the eigenvalue problem:
     one sub-group per band group will be used
     custom distributed-memory algorithm (size of sub-group:  2*  2 procs)


     Parallelization info
     --------------------
     sticks:   dense  smooth     PW     G-vecs:    dense   smooth      PW
     Min          43      28      7                 7829     4248     595
     Max          44      29      8                 7845     4281     630
     Sum        4153    2773    757               752179   409445   59217

     Using Slab Decomposition



     bravais-lattice index     =            0
     lattice parameter (alat)  =      14.1729  a.u.
     unit-cell volume          =    8574.3059 (a.u.)^3
     number of atoms/cell      =           39
     number of atomic types    =            4
     number of electrons       =       335.00
     number of Kohn-Sham states=          202
     kinetic-energy cutoff     =      50.0000  Ry
     charge density cutoff     =     300.0000  Ry
     scf convergence threshold =      1.0E-08
     mixing beta               =       0.7000
     number of iterations used =            8  local-TF  mixing
     Exchange-correlation= BEEF-VDW
                           (   1   4  43  14   2   0   0)

     celldm(1)=  14.172946  celldm(2)=   0.000000  celldm(3)=   0.000000
     celldm(4)=   0.000000  celldm(5)=   0.000000  celldm(6)=   0.000000

     crystal axes: (cart. coord. in units of alat)
               a(1) = (   1.000000   0.000000   0.000000 )  
               a(2) = (   0.500000   0.866025   0.000000 )  
               a(3) = (   0.000000   0.000000   3.477667 )  

     reciprocal axes: (cart. coord. in units 2 pi/alat)
               b(1) = (  1.000000 -0.577350  0.000000 )  
               b(2) = (  0.000000  1.154701  0.000000 )  
               b(3) = (  0.000000  0.000000  0.287549 )  


     PseudoPot. # 1 for Co read from file:
     /users/kbadger1/espresso/pseudo/pslibrary.1.0.0/pbe/PSEUDOPOTENTIALS/Co.pbe-n-kjpaw_psl.1.0.0.UPF
     MD5 check sum: 88af6ec42553d4236c267fdfcb472151
     Pseudo is Projector augmented-wave + core cor, Zval =  9.0
     Generated using 'atomic' code by A. Dal Corso  v.7.0
     Shape of augmentation charge: PSQ
     Using radial grid of 1193 points,  6 beta functions with: 
                l(1) =   0
                l(2) =   0
                l(3) =   1
                l(4) =   1
                l(5) =   2
                l(6) =   2
     Q(r) pseudized with 0 coefficients 


     PseudoPot. # 2 for C  read from file:
     /users/kbadger1/espresso/pseudo/pslibrary.1.0.0/pbe/PSEUDOPOTENTIALS/C.pbe-n-kjpaw_psl.1.0.0.UPF
     MD5 check sum: 6408e75cdba28732cea38a4db8498ce4
     Pseudo is Projector augmented-wave + core cor, Zval =  4.0
     Generated using 'atomic' code by A. Dal Corso  v.7.0
     Shape of augmentation charge: PSQ
     Using radial grid of 1073 points,  4 beta functions with: 
                l(1) =   0
                l(2) =   0
                l(3) =   1
                l(4) =   1
     Q(r) pseudized with 0 coefficients 


     PseudoPot. # 3 for O  read from file:
     /users/kbadger1/espresso/pseudo/pslibrary.1.0.0/pbe/PSEUDOPOTENTIALS/O.pbe-nl-kjpaw_psl.1.0.0.UPF
     MD5 check sum: f0439fab3598ca4e468f064226030408
     Pseudo is Projector augmented-wave + core cor, Zval =  6.0
     Generated using 'atomic' code by A. Dal Corso  v.7.0
     Shape of augmentation charge: PSQ
     Using radial grid of 1095 points,  4 beta functions with: 
                l(1) =   0
                l(2) =   0
                l(3) =   1
                l(4) =   1
     Q(r) pseudized with 0 coefficients 


     PseudoPot. # 4 for H  read from file:
     /users/kbadger1/espresso/pseudo/pslibrary.1.0.0/pbe/PSEUDOPOTENTIALS/H.pbe-kjpaw_psl.1.0.0.UPF
     MD5 check sum: fe4c6fa958fa6d3815bf5d2419cbf1df
     Pseudo is Projector augmented-wave, Zval =  1.0
     Generated using 'atomic' code by A. Dal Corso  v.7.0
     Shape of augmentation charge: PSQ
     Using radial grid of  929 points,  2 beta functions with: 
                l(1) =   0
                l(2) =   0
     Q(r) pseudized with 0 coefficients 


     atomic species   valence    mass     pseudopotential
        Co             9.00    58.93319     Co( 1.00)
        C              4.00    12.00000     C ( 1.00)
        O              6.00    15.99491     O ( 1.00)
        H              1.00     1.00783     H ( 1.00)

     Starting magnetic structure 
     atomic species   magnetization
        Co           1.000
        C            1.000
        O            0.000
        H            0.000

     No symmetry found



   Cartesian axes

     site n.     atom                  positions (alat units)
         1           Co  tau(   1) = (   0.0000000   0.1924501   1.3333333  )
         2           Co  tau(   2) = (   0.3333333   0.1924501   1.3333333  )
         3           Co  tau(   3) = (   0.6666667   0.1924501   1.3333333  )
         4           Co  tau(   4) = (   0.1666667   0.4811252   1.3333333  )
         5           Co  tau(   5) = (   0.5000000   0.4811252   1.3333333  )
         6           Co  tau(   6) = (   0.8333333   0.4811252   1.3333333  )
         7           Co  tau(   7) = (   0.3333333   0.7698004   1.3333333  )
         8           Co  tau(   8) = (   0.6666667   0.7698004   1.3333333  )
         9           Co  tau(   9) = (   1.0000000   0.7698004   1.3333333  )
        10           Co  tau(  10) = (   0.0000000   0.0000000   1.6036667  )
        11           Co  tau(  11) = (   0.3333333   0.0000000   1.6036667  )
        12           Co  tau(  12) = (   0.6666667   0.0000000   1.6036667  )
        13           Co  tau(  13) = (   0.1666667   0.2886751   1.6036667  )
        14           Co  tau(  14) = (   0.5000000   0.2886751   1.6036667  )
        15           Co  tau(  15) = (   0.8333333   0.2886751   1.6036667  )
        16           Co  tau(  16) = (   0.3333333   0.5773503   1.6036667  )
        17           Co  tau(  17) = (   0.6666667   0.5773503   1.6036667  )
        18           Co  tau(  18) = (   1.0000000   0.5773503   1.6036667  )
        19           Co  tau(  19) = (   0.0000000   0.1924501   1.8740000  )
        20           Co  tau(  20) = (   0.3333333   0.1924501   1.8740000  )
        21           Co  tau(  21) = (   0.6666667   0.1924501   1.8740000  )
        22           Co  tau(  22) = (   0.1666667   0.4811252   1.8740000  )
        23           Co  tau(  23) = (   0.5000000   0.4811252   1.8740000  )
        24           Co  tau(  24) = (   0.8333333   0.4811252   1.8740000  )
        25           Co  tau(  25) = (   0.3333333   0.7698004   1.8740000  )
        26           Co  tau(  26) = (   0.6666667   0.7698004   1.8740000  )
        27           Co  tau(  27) = (   1.0000000   0.7698004   1.8740000  )
        28           Co  tau(  28) = (   0.0000000   0.0000000   2.1443333  )
        29           Co  tau(  29) = (   0.3333333   0.0000000   2.1443333  )
        30           Co  tau(  30) = (   0.6666667   0.0000000   2.1443333  )
        31           Co  tau(  31) = (   0.1666667   0.2886751   2.1443333  )
        32           Co  tau(  32) = (   0.5000000   0.2886751   2.1443333  )
        33           Co  tau(  33) = (   0.8333333   0.2886751   2.1443333  )
        34           Co  tau(  34) = (   0.3333333   0.5773503   2.1443333  )
        35           Co  tau(  35) = (   0.6666667   0.5773503   2.1443333  )
        36           Co  tau(  36) = (   1.0000000   0.5773503   2.1443333  )
        37           C   tau(  37) = (   0.3374181   0.1956929   2.3225431  )
        38           O   tau(  38) = (   0.3086287   0.1799466   2.4787566  )
        39           H   tau(  39) = (   0.5951808   0.3396963   2.3169653  )

     number of k points=    13  Marzari-Vanderbilt smearing, width (Ry)=  0.0010
                       cart. coord. in units 2pi/alat
        k(    1) = (   0.0000000   0.0000000   0.0000000), wk =   0.0400000
        k(    2) = (   0.0000000   0.2309401   0.0000000), wk =   0.0800000
        k(    3) = (   0.0000000   0.4618802   0.0000000), wk =   0.0800000
        k(    4) = (   0.2000000  -0.1154701   0.0000000), wk =   0.0800000
        k(    5) = (   0.2000000   0.1154701   0.0000000), wk =   0.0800000
        k(    6) = (   0.2000000   0.3464102   0.0000000), wk =   0.0800000
        k(    7) = (   0.2000000  -0.5773503   0.0000000), wk =   0.0800000
        k(    8) = (   0.2000000  -0.3464102   0.0000000), wk =   0.0800000
        k(    9) = (   0.4000000  -0.2309401   0.0000000), wk =   0.0800000
        k(   10) = (   0.4000000   0.0000000   0.0000000), wk =   0.0800000
        k(   11) = (   0.4000000   0.2309401   0.0000000), wk =   0.0800000
        k(   12) = (   0.4000000  -0.6928203   0.0000000), wk =   0.0800000
        k(   13) = (   0.4000000  -0.4618802   0.0000000), wk =   0.0800000

     Dense  grid:   752179 G-vectors     FFT dimensions: (  80,  80, 288)

     Smooth grid:   409445 G-vectors     FFT dimensions: (  64,  64, 225)

     Estimated max dynamical RAM per process >      99.02 MB

     Estimated total dynamical RAM >       9.28 GB
     Generating pointlists ...
     new r_m :   0.0840 (alat units)  1.1905 (a.u.) for type    1
     new r_m :   0.0658 (alat units)  0.9332 (a.u.) for type    2
     new r_m :   0.0658 (alat units)  0.9332 (a.u.) for type    3
     new r_m :   0.0840 (alat units)  1.1905 (a.u.) for type    4

     Initial potential from superposition of free atoms

     starting charge     334.9897, renormalised to     335.0000

     negative rho (up, down):  3.063E-03 4.588E-04


     %%%%%%%%%%%%%%%%%%%%%%%%%%%%%%%%%%%%%%%%%%%%%%%%%%%%%%%%%%%%%%%%%%%%%%%%
     %                                                                      %
     % You are using vdW-DF, which was implemented by the Thonhauser group. %
     % Please cite the following two papers that made this development      %
     % possible and the two reviews that describe the various versions:     %
     %                                                                      %
     %   T. Thonhauser et al., PRL 115, 136402 (2015).                      %
     %   T. Thonhauser et al., PRB 76, 125112 (2007).                       %
     %   K. Berland et al., Rep. Prog. Phys. 78, 066501 (2015).             %
     %   D.C. Langreth et al., J. Phys.: Condens. Matter 21, 084203 (2009). %
     %                                                                      %
     % If you are calculating stress with vdW-DF, please also cite:         %
     %                                                                      %
     %   R. Sabatini et al., J. Phys.: Condens. Matter 24, 424209 (2012).   %
     %   C.M. Frostenson et al., Electr. Struct. 4, 014001 (2022).          %
     %                                                                      %
     %%%%%%%%%%%%%%%%%%%%%%%%%%%%%%%%%%%%%%%%%%%%%%%%%%%%%%%%%%%%%%%%%%%%%%%%

     %%%%%%%%%%%%%%%%%%%%%%%%%%%%%%%%%%%%%%%%%%%%%%%%%%%%%%%%%%%%%%%%%%%%%%%%
     %                                                                      %
     %  vdW-DF NEWS:                                                        %
     %                                                                      %
     %  * vdW-DF3 is now available. DOI: 10.1021/acs.jctc.0c00471           %
     %    use with input_dft = 'vdW-DF3-opt1' or 'vdW-DF3-opt2'             %
     %                                                                      %
     %  * Unscreened and range-separated hybrid vdW-DF-cx functionals       %
     %    DOI: 10.1063/1.4986522 and 10.1088/1361-648X/ac2ad2               %
     %    use with input_dft = 'vdW-DF-cx0'    and 'vdW-DF-ahcx'            %
     %  * Unscreened and range-separated hybrid vdW-DF2-b86r functionals    %
     %    DOI: 10.1063/1.4986522 and DOI: 10.1103/PhysRevX.12.041003        %
     %    use with input_dft = 'vdW-DF2-br0' and 'vdW-DF2-ahbr'             %
     %                                                                      %
     %%%%%%%%%%%%%%%%%%%%%%%%%%%%%%%%%%%%%%%%%%%%%%%%%%%%%%%%%%%%%%%%%%%%%%%%


     Starting wfcs are  333 randomized atomic wfcs
     Checking if some PAW data can be deallocated... 

     total cpu time spent up to now is       16.9 secs

     per-process dynamical memory:   233.7 Mb

     Self-consistent Calculation

     iteration #  1     ecut=    50.00 Ry     beta= 0.70
     Davidson diagonalization with overlap
     ethr =  1.00E-02,  avg # of iterations =  2.0

     negative rho (up, down):  3.354E-05 1.104E-07

     total cpu time spent up to now is       34.6 secs

     total energy              =   -6053.07645741 Ry
     estimated scf accuracy    <      39.17278205 Ry

     total magnetization       =    69.00 Bohr mag/cell
     absolute magnetization    =    81.27 Bohr mag/cell

     iteration #  2     ecut=    50.00 Ry     beta= 0.70
     Davidson diagonalization with overlap
     ethr =  1.00E-02,  avg # of iterations =  1.0

     negative rho (up, down):  5.205E-06 5.508E-08

     total cpu time spent up to now is       53.4 secs

     total energy              =   -6052.53828530 Ry
     estimated scf accuracy    <      25.14472595 Ry

     total magnetization       =    68.84 Bohr mag/cell
     absolute magnetization    =    76.74 Bohr mag/cell

     iteration #  3     ecut=    50.00 Ry     beta= 0.70
     Davidson diagonalization with overlap
     ethr =  7.51E-03,  avg # of iterations =  1.0

     negative rho (up, down):  5.440E-08 1.039E-09

     total cpu time spent up to now is       71.7 secs

     total energy              =   -6055.15321299 Ry
     estimated scf accuracy    <      82.74879650 Ry

     total magnetization       =    66.12 Bohr mag/cell
     absolute magnetization    =    73.45 Bohr mag/cell

     iteration #  4     ecut=    50.00 Ry     beta= 0.70
     Davidson diagonalization with overlap
     ethr =  7.51E-03,  avg # of iterations =  1.0

     negative rho (up, down):  1.148E-08 0.000E+00

     total cpu time spent up to now is       85.7 secs

     total energy              =   -6056.39358051 Ry
     estimated scf accuracy    <       5.24322664 Ry

     total magnetization       =    60.21 Bohr mag/cell
     absolute magnetization    =    70.02 Bohr mag/cell

     iteration #  5     ecut=    50.00 Ry     beta= 0.70
     Davidson diagonalization with overlap
     ethr =  1.57E-03,  avg # of iterations =  1.2

     total cpu time spent up to now is      104.2 secs

     total energy              =   -6056.41132450 Ry
     estimated scf accuracy    <       2.50289387 Ry

     total magnetization       =    59.89 Bohr mag/cell
     absolute magnetization    =    69.36 Bohr mag/cell

     iteration #  6     ecut=    50.00 Ry     beta= 0.70
     Davidson diagonalization with overlap
     ethr =  7.47E-04,  avg # of iterations =  1.7

     total cpu time spent up to now is      118.6 secs

     total energy              =   -6056.52157532 Ry
     estimated scf accuracy    <       0.62238301 Ry

     total magnetization       =    59.56 Bohr mag/cell
     absolute magnetization    =    68.73 Bohr mag/cell

     iteration #  7     ecut=    50.00 Ry     beta= 0.70
     Davidson diagonalization with overlap
     ethr =  1.86E-04,  avg # of iterations =  5.3

     total cpu time spent up to now is      141.5 secs

     total energy              =   -6056.56674206 Ry
     estimated scf accuracy    <       0.67122170 Ry

     total magnetization       =    59.64 Bohr mag/cell
     absolute magnetization    =    68.51 Bohr mag/cell

     iteration #  8     ecut=    50.00 Ry     beta= 0.70
     Davidson diagonalization with overlap
     ethr =  1.86E-04,  avg # of iterations =  1.6

     total cpu time spent up to now is      155.5 secs

     total energy              =   -6056.58165827 Ry
     estimated scf accuracy    <       0.14854082 Ry

     total magnetization       =    59.66 Bohr mag/cell
     absolute magnetization    =    68.36 Bohr mag/cell

     iteration #  9     ecut=    50.00 Ry     beta= 0.70
     Davidson diagonalization with overlap
     c_bands:  3 eigenvalues not converged
     c_bands:  1 eigenvalues not converged
     c_bands:  3 eigenvalues not converged
     ethr =  4.43E-05,  avg # of iterations = 10.3

     total cpu time spent up to now is      185.1 secs

     total energy              =   -6056.58572039 Ry
     estimated scf accuracy    <       0.16538835 Ry

     total magnetization       =    60.13 Bohr mag/cell
     absolute magnetization    =    68.37 Bohr mag/cell

     iteration # 10     ecut=    50.00 Ry     beta= 0.70
     Davidson diagonalization with overlap
     ethr =  4.43E-05,  avg # of iterations =  2.7

     total cpu time spent up to now is      205.0 secs

     total energy              =   -6056.58964195 Ry
     estimated scf accuracy    <       0.16263818 Ry

     total magnetization       =    60.14 Bohr mag/cell
     absolute magnetization    =    68.24 Bohr mag/cell

     iteration # 11     ecut=    50.00 Ry     beta= 0.70
     Davidson diagonalization with overlap
     ethr =  4.43E-05,  avg # of iterations =  1.3

     total cpu time spent up to now is      223.0 secs

     total energy              =   -6056.58708508 Ry
     estimated scf accuracy    <       0.12227967 Ry

     total magnetization       =    60.12 Bohr mag/cell
     absolute magnetization    =    68.07 Bohr mag/cell

     iteration # 12     ecut=    50.00 Ry     beta= 0.70
     Davidson diagonalization with overlap
     ethr =  3.65E-05,  avg # of iterations =  1.8

     negative rho (up, down):  2.234E-08 0.000E+00

     total cpu time spent up to now is      238.4 secs

     total energy              =   -6056.59048800 Ry
     estimated scf accuracy    <       0.07255131 Ry

     total magnetization       =    60.12 Bohr mag/cell
     absolute magnetization    =    67.95 Bohr mag/cell

     iteration # 13     ecut=    50.00 Ry     beta= 0.70
     Davidson diagonalization with overlap
     ethr =  2.17E-05,  avg # of iterations =  1.5

     total cpu time spent up to now is      256.5 secs

     total energy              =   -6056.58904029 Ry
     estimated scf accuracy    <       0.08433715 Ry

     total magnetization       =    60.12 Bohr mag/cell
     absolute magnetization    =    67.92 Bohr mag/cell

     iteration # 14     ecut=    50.00 Ry     beta= 0.70
     Davidson diagonalization with overlap
     ethr =  2.17E-05,  avg # of iterations =  2.1

     total cpu time spent up to now is      270.9 secs

     total energy              =   -6056.58426001 Ry
     estimated scf accuracy    <       0.08674507 Ry

     total magnetization       =    60.12 Bohr mag/cell
     absolute magnetization    =    67.94 Bohr mag/cell

     iteration # 15     ecut=    50.00 Ry     beta= 0.70
     Davidson diagonalization with overlap
     ethr =  2.17E-05,  avg # of iterations =  2.2

     negative rho (up, down):  6.236E-03 5.070E-03

     total cpu time spent up to now is      290.4 secs

     total energy              =   -6056.58005464 Ry
     estimated scf accuracy    <       0.14269565 Ry

     total magnetization       =    60.12 Bohr mag/cell
     absolute magnetization    =    67.90 Bohr mag/cell

     iteration # 16     ecut=    50.00 Ry     beta= 0.70
     Davidson diagonalization with overlap
     ethr =  2.17E-05,  avg # of iterations =  1.5

     negative rho (up, down):  1.669E-02 1.517E-02

     total cpu time spent up to now is      305.3 secs

     total energy              =   -6056.58087274 Ry
     estimated scf accuracy    <       0.02776277 Ry

     total magnetization       =    60.12 Bohr mag/cell
     absolute magnetization    =    67.85 Bohr mag/cell

     iteration # 17     ecut=    50.00 Ry     beta= 0.70
     Davidson diagonalization with overlap
     c_bands:  2 eigenvalues not converged
     c_bands:  3 eigenvalues not converged
     c_bands:  4 eigenvalues not converged
     c_bands:  2 eigenvalues not converged
     c_bands:  1 eigenvalues not converged
     c_bands:  2 eigenvalues not converged
     c_bands:  2 eigenvalues not converged
     ethr =  8.29E-06,  avg # of iterations =  9.3

     negative rho (up, down):  2.155E-02 2.002E-02

     total cpu time spent up to now is      331.6 secs

     total energy              =   -6056.57943314 Ry
     estimated scf accuracy    <       0.04578406 Ry

     total magnetization       =    60.12 Bohr mag/cell
     absolute magnetization    =    67.81 Bohr mag/cell

     iteration # 18     ecut=    50.00 Ry     beta= 0.70
     Davidson diagonalization with overlap
     ethr =  8.29E-06,  avg # of iterations =  2.1

     negative rho (up, down):  1.578E-02 1.434E-02

     total cpu time spent up to now is      351.1 secs

     total energy              =   -6056.58048245 Ry
     estimated scf accuracy    <       0.08361993 Ry

     total magnetization       =    60.12 Bohr mag/cell
     absolute magnetization    =    67.77 Bohr mag/cell

     iteration # 19     ecut=    50.00 Ry     beta= 0.70
     Davidson diagonalization with overlap
     ethr =  8.29E-06,  avg # of iterations =  1.2

     negative rho (up, down):  2.267E-02 2.099E-02

     total cpu time spent up to now is      365.6 secs

     total energy              =   -6056.58031241 Ry
     estimated scf accuracy    <       0.01144116 Ry

     total magnetization       =    60.12 Bohr mag/cell
     absolute magnetization    =    67.77 Bohr mag/cell

     iteration # 20     ecut=    50.00 Ry     beta= 0.70
     Davidson diagonalization with overlap
     c_bands:  1 eigenvalues not converged
     ethr =  3.42E-06,  avg # of iterations =  4.2

     negative rho (up, down):  2.638E-02 2.461E-02

     total cpu time spent up to now is      386.6 secs

     total energy              =   -6056.57948514 Ry
     estimated scf accuracy    <       0.00970382 Ry

     total magnetization       =    60.12 Bohr mag/cell
     absolute magnetization    =    67.76 Bohr mag/cell

     iteration # 21     ecut=    50.00 Ry     beta= 0.70
     Davidson diagonalization with overlap
     ethr =  2.90E-06,  avg # of iterations =  1.7

     negative rho (up, down):  1.963E-02 1.814E-02

     total cpu time spent up to now is      405.6 secs

     total energy              =   -6056.57908020 Ry
     estimated scf accuracy    <       0.00786034 Ry

     total magnetization       =    60.12 Bohr mag/cell
     absolute magnetization    =    67.75 Bohr mag/cell

     iteration # 22     ecut=    50.00 Ry     beta= 0.70
     Davidson diagonalization with overlap
     ethr =  2.35E-06,  avg # of iterations =  1.7

     negative rho (up, down):  2.243E-02 2.098E-02

     total cpu time spent up to now is      420.9 secs

     total energy              =   -6056.57868919 Ry
     estimated scf accuracy    <       0.01311812 Ry

     total magnetization       =    60.12 Bohr mag/cell
     absolute magnetization    =    67.75 Bohr mag/cell

     iteration # 23     ecut=    50.00 Ry     beta= 0.70
     Davidson diagonalization with overlap
     ethr =  2.35E-06,  avg # of iterations =  1.4

     negative rho (up, down):  1.691E-02 1.571E-02

     total cpu time spent up to now is      439.2 secs

     total energy              =   -6056.57881889 Ry
     estimated scf accuracy    <       0.00132842 Ry

     total magnetization       =    60.12 Bohr mag/cell
     absolute magnetization    =    67.75 Bohr mag/cell

     iteration # 24     ecut=    50.00 Ry     beta= 0.70
     Davidson diagonalization with overlap
     c_bands:  1 eigenvalues not converged
     ethr =  3.97E-07,  avg # of iterations =  5.3

     negative rho (up, down):  8.503E-03 7.726E-03

     total cpu time spent up to now is      463.0 secs

     total energy              =   -6056.57888472 Ry
     estimated scf accuracy    <       0.00306558 Ry

     total magnetization       =    60.12 Bohr mag/cell
     absolute magnetization    =    67.75 Bohr mag/cell

     iteration # 25     ecut=    50.00 Ry     beta= 0.70
     Davidson diagonalization with overlap
     ethr =  3.97E-07,  avg # of iterations =  2.3

     negative rho (up, down):  9.925E-03 9.154E-03

     total cpu time spent up to now is      478.4 secs

     total energy              =   -6056.57904777 Ry
     estimated scf accuracy    <       0.00087871 Ry

     total magnetization       =    60.12 Bohr mag/cell
     absolute magnetization    =    67.76 Bohr mag/cell

     iteration # 26     ecut=    50.00 Ry     beta= 0.70
     Davidson diagonalization with overlap
     ethr =  2.62E-07,  avg # of iterations =  1.8

     negative rho (up, down):  4.333E-03 3.458E-03

     total cpu time spent up to now is      498.8 secs

     total energy              =   -6056.57902170 Ry
     estimated scf accuracy    <       0.00092592 Ry

     total magnetization       =    60.12 Bohr mag/cell
     absolute magnetization    =    67.76 Bohr mag/cell

     iteration # 27     ecut=    50.00 Ry     beta= 0.70
     Davidson diagonalization with overlap
     ethr =  2.62E-07,  avg # of iterations =  1.3

     negative rho (up, down):  5.071E-03 4.237E-03

     total cpu time spent up to now is      512.3 secs

     total energy              =   -6056.57905134 Ry
     estimated scf accuracy    <       0.00061753 Ry

     total magnetization       =    60.12 Bohr mag/cell
     absolute magnetization    =    67.75 Bohr mag/cell

     iteration # 28     ecut=    50.00 Ry     beta= 0.70
     Davidson diagonalization with overlap
     ethr =  1.84E-07,  avg # of iterations =  1.4

     negative rho (up, down):  2.129E-03 1.119E-03

     total cpu time spent up to now is      531.2 secs

     total energy              =   -6056.57902438 Ry
     estimated scf accuracy    <       0.00053678 Ry

     total magnetization       =    60.12 Bohr mag/cell
     absolute magnetization    =    67.76 Bohr mag/cell

     iteration # 29     ecut=    50.00 Ry     beta= 0.70
     Davidson diagonalization with overlap
     ethr =  1.60E-07,  avg # of iterations =  1.4

     negative rho (up, down):  2.975E-03 1.850E-03

     total cpu time spent up to now is      550.7 secs

     total energy              =   -6056.57908965 Ry
     estimated scf accuracy    <       0.00030844 Ry

     total magnetization       =    60.12 Bohr mag/cell
     absolute magnetization    =    67.76 Bohr mag/cell

     iteration # 30     ecut=    50.00 Ry     beta= 0.70
     Davidson diagonalization with overlap
     ethr =  9.21E-08,  avg # of iterations =  1.6

     negative rho (up, down):  2.476E-03 1.366E-03

     total cpu time spent up to now is      565.0 secs

     total energy              =   -6056.57910668 Ry
     estimated scf accuracy    <       0.00021862 Ry

     total magnetization       =    60.12 Bohr mag/cell
     absolute magnetization    =    67.75 Bohr mag/cell

     iteration # 31     ecut=    50.00 Ry     beta= 0.70
     Davidson diagonalization with overlap
     ethr =  6.53E-08,  avg # of iterations =  1.6

     negative rho (up, down):  2.295E-03 1.173E-03

     total cpu time spent up to now is      583.7 secs

     total energy              =   -6056.57909706 Ry
     estimated scf accuracy    <       0.00011805 Ry

     total magnetization       =    60.12 Bohr mag/cell
     absolute magnetization    =    67.75 Bohr mag/cell

     iteration # 32     ecut=    50.00 Ry     beta= 0.70
     Davidson diagonalization with overlap
     ethr =  3.52E-08,  avg # of iterations =  4.2

     negative rho (up, down):  2.164E-03 1.130E-03

     total cpu time spent up to now is      600.8 secs

     total energy              =   -6056.57910726 Ry
     estimated scf accuracy    <       0.00018484 Ry

     total magnetization       =    60.12 Bohr mag/cell
     absolute magnetization    =    67.75 Bohr mag/cell

     iteration # 33     ecut=    50.00 Ry     beta= 0.70
     Davidson diagonalization with overlap
     ethr =  3.52E-08,  avg # of iterations =  1.7

     negative rho (up, down):  2.297E-03 1.319E-03

     total cpu time spent up to now is      620.6 secs

     total energy              =   -6056.57911299 Ry
     estimated scf accuracy    <       0.00002390 Ry

     total magnetization       =    60.12 Bohr mag/cell
     absolute magnetization    =    67.75 Bohr mag/cell

     iteration # 34     ecut=    50.00 Ry     beta= 0.70
     Davidson diagonalization with overlap
     ethr =  7.13E-09,  avg # of iterations =  5.8

     negative rho (up, down):  2.215E-03 1.126E-03

     total cpu time spent up to now is      645.2 secs

     total energy              =   -6056.57911754 Ry
     estimated scf accuracy    <       0.00004752 Ry

     total magnetization       =    60.12 Bohr mag/cell
     absolute magnetization    =    67.75 Bohr mag/cell

     iteration # 35     ecut=    50.00 Ry     beta= 0.70
     Davidson diagonalization with overlap
     ethr =  7.13E-09,  avg # of iterations =  2.2

     negative rho (up, down):  2.152E-03 1.106E-03

     total cpu time spent up to now is      660.2 secs

     total energy              =   -6056.57911812 Ry
     estimated scf accuracy    <       0.00002459 Ry

     total magnetization       =    60.12 Bohr mag/cell
     absolute magnetization    =    67.75 Bohr mag/cell

     iteration # 36     ecut=    50.00 Ry     beta= 0.70
     Davidson diagonalization with overlap
     ethr =  7.13E-09,  avg # of iterations =  1.5

     negative rho (up, down):  2.178E-03 1.113E-03

     total cpu time spent up to now is      679.8 secs

     total energy              =   -6056.57911985 Ry
     estimated scf accuracy    <       0.00000233 Ry

     total magnetization       =    60.12 Bohr mag/cell
     absolute magnetization    =    67.75 Bohr mag/cell

     iteration # 37     ecut=    50.00 Ry     beta= 0.70
     Davidson diagonalization with overlap
     ethr =  6.95E-10,  avg # of iterations =  5.9

     negative rho (up, down):  2.181E-03 1.117E-03

     total cpu time spent up to now is      706.9 secs

     total energy              =   -6056.57912027 Ry
     estimated scf accuracy    <       0.00000570 Ry

     total magnetization       =    60.12 Bohr mag/cell
     absolute magnetization    =    67.75 Bohr mag/cell

     iteration # 38     ecut=    50.00 Ry     beta= 0.70
     Davidson diagonalization with overlap
     ethr =  6.95E-10,  avg # of iterations =  1.7

     negative rho (up, down):  2.218E-03 1.140E-03

     total cpu time spent up to now is      721.7 secs

     total energy              =   -6056.57912093 Ry
     estimated scf accuracy    <       0.00000067 Ry

     total magnetization       =    60.12 Bohr mag/cell
     absolute magnetization    =    67.74 Bohr mag/cell

     iteration # 39     ecut=    50.00 Ry     beta= 0.70
     Davidson diagonalization with overlap
     ethr =  1.99E-10,  avg # of iterations =  4.1

     negative rho (up, down):  2.215E-03 1.137E-03

     total cpu time spent up to now is      744.0 secs

     total energy              =   -6056.57912095 Ry
     estimated scf accuracy    <       0.00000045 Ry

     total magnetization       =    60.12 Bohr mag/cell
     absolute magnetization    =    67.74 Bohr mag/cell

     iteration # 40     ecut=    50.00 Ry     beta= 0.70
     Davidson diagonalization with overlap
     ethr =  1.33E-10,  avg # of iterations =  2.1

     negative rho (up, down):  2.236E-03 1.153E-03

     total cpu time spent up to now is      763.6 secs

     total energy              =   -6056.57912106 Ry
     estimated scf accuracy    <       0.00000052 Ry

     total magnetization       =    60.12 Bohr mag/cell
     absolute magnetization    =    67.74 Bohr mag/cell

     iteration # 41     ecut=    50.00 Ry     beta= 0.70
     Davidson diagonalization with overlap
     ethr =  1.33E-10,  avg # of iterations =  1.9

     negative rho (up, down):  2.228E-03 1.146E-03

     total cpu time spent up to now is      778.2 secs

     total energy              =   -6056.57912104 Ry
     estimated scf accuracy    <       0.00000031 Ry

     total magnetization       =    60.12 Bohr mag/cell
     absolute magnetization    =    67.74 Bohr mag/cell

     iteration # 42     ecut=    50.00 Ry     beta= 0.70
     Davidson diagonalization with overlap
     ethr =  9.23E-11,  avg # of iterations =  1.7

     negative rho (up, down):  2.248E-03 1.160E-03

     total cpu time spent up to now is      797.9 secs

     total energy              =   -6056.57912108 Ry
     estimated scf accuracy    <       0.00000032 Ry

     total magnetization       =    60.12 Bohr mag/cell
     absolute magnetization    =    67.74 Bohr mag/cell

     iteration # 43     ecut=    50.00 Ry     beta= 0.70
     Davidson diagonalization with overlap
     ethr =  9.23E-11,  avg # of iterations =  2.0

     negative rho (up, down):  2.240E-03 1.155E-03

     total cpu time spent up to now is      813.0 secs

     total energy              =   -6056.57912110 Ry
     estimated scf accuracy    <       0.00000017 Ry

     total magnetization       =    60.12 Bohr mag/cell
     absolute magnetization    =    67.74 Bohr mag/cell

     iteration # 44     ecut=    50.00 Ry     beta= 0.70
     Davidson diagonalization with overlap
     ethr =  5.00E-11,  avg # of iterations =  3.0

     negative rho (up, down):  2.251E-03 1.163E-03

     total cpu time spent up to now is      833.3 secs

     total energy              =   -6056.57912112 Ry
     estimated scf accuracy    <       0.00000008 Ry

     total magnetization       =    60.12 Bohr mag/cell
     absolute magnetization    =    67.74 Bohr mag/cell

     iteration # 45     ecut=    50.00 Ry     beta= 0.70
     Davidson diagonalization with overlap
     ethr =  2.49E-11,  avg # of iterations =  3.2

     negative rho (up, down):  2.249E-03 1.162E-03

     total cpu time spent up to now is      854.8 secs

     total energy              =   -6056.57912112 Ry
     estimated scf accuracy    <       0.00000002 Ry

     total magnetization       =    60.12 Bohr mag/cell
     absolute magnetization    =    67.74 Bohr mag/cell

     iteration # 46     ecut=    50.00 Ry     beta= 0.70
     Davidson diagonalization with overlap
     ethr =  6.29E-12,  avg # of iterations =  6.8

     negative rho (up, down):  2.249E-03 1.162E-03

     total cpu time spent up to now is      882.8 secs

     total energy              =   -6056.57912113 Ry
     estimated scf accuracy    <       0.00000002 Ry

     total magnetization       =    60.12 Bohr mag/cell
     absolute magnetization    =    67.74 Bohr mag/cell

     iteration # 47     ecut=    50.00 Ry     beta= 0.70
     Davidson diagonalization with overlap
     ethr =  5.52E-12,  avg # of iterations =  1.9

     negative rho (up, down):  2.249E-03 1.162E-03

     total cpu time spent up to now is      897.5 secs

     total energy              =   -6056.57912113 Ry
     estimated scf accuracy    <       0.00000002 Ry

     total magnetization       =    60.12 Bohr mag/cell
     absolute magnetization    =    67.74 Bohr mag/cell

     iteration # 48     ecut=    50.00 Ry     beta= 0.70
     Davidson diagonalization with overlap
     ethr =  4.99E-12,  avg # of iterations =  1.1

     negative rho (up, down):  2.253E-03 1.166E-03

     Magnetic moment per site  (integrated on atomic sphere of radius R)
     atom   1 (R=0.084)  charge=  5.3395  magn=  1.5791
     atom   2 (R=0.084)  charge=  5.3437  magn=  1.5550
     atom   3 (R=0.084)  charge=  5.3417  magn=  1.5741
     atom   4 (R=0.084)  charge=  5.3421  magn=  1.5762
     atom   5 (R=0.084)  charge=  5.3417  magn=  1.5740
     atom   6 (R=0.084)  charge=  5.3420  magn=  1.5781
     atom   7 (R=0.084)  charge=  5.3394  magn=  1.5830
     atom   8 (R=0.084)  charge=  5.3395  magn=  1.5792
     atom   9 (R=0.084)  charge=  5.3421  magn=  1.5760
     atom  10 (R=0.084)  charge=  5.3319  magn=  1.5150
     atom  11 (R=0.084)  charge=  5.3345  magn=  1.5162
     atom  12 (R=0.084)  charge=  5.3341  magn=  1.5227
     atom  13 (R=0.084)  charge=  5.3345  magn=  1.5163
     atom  14 (R=0.084)  charge=  5.3354  magn=  1.5101
     atom  15 (R=0.084)  charge=  5.3343  magn=  1.5258
     atom  16 (R=0.084)  charge=  5.3340  magn=  1.5226
     atom  17 (R=0.084)  charge=  5.3343  magn=  1.5258
     atom  18 (R=0.084)  charge=  5.3351  magn=  1.5204
     atom  19 (R=0.084)  charge=  5.3332  magn=  1.4945
     atom  20 (R=0.084)  charge=  5.3334  magn=  1.5058
     atom  21 (R=0.084)  charge=  5.3342  magn=  1.5073
     atom  22 (R=0.084)  charge=  5.3348  magn=  1.5102
     atom  23 (R=0.084)  charge=  5.3342  magn=  1.5064
     atom  24 (R=0.084)  charge=  5.3338  magn=  1.5383
     atom  25 (R=0.084)  charge=  5.3328  magn=  1.5162
     atom  26 (R=0.084)  charge=  5.3332  magn=  1.4951
     atom  27 (R=0.084)  charge=  5.3348  magn=  1.5104
     atom  28 (R=0.084)  charge=  5.3391  magn=  1.6059
     atom  29 (R=0.084)  charge=  5.3484  magn=  1.3065
     atom  30 (R=0.084)  charge=  5.3416  magn=  1.6093
     atom  31 (R=0.084)  charge=  5.3485  magn=  1.3004
     atom  32 (R=0.084)  charge=  5.3425  magn=  0.7922
     atom  33 (R=0.084)  charge=  5.3405  magn=  1.5657
     atom  34 (R=0.084)  charge=  5.3415  magn=  1.6094
     atom  35 (R=0.084)  charge=  5.3406  magn=  1.5684
     atom  36 (R=0.084)  charge=  5.3407  magn=  1.5837
     atom  37 (R=0.066)  charge=  1.0606  magn= -0.0230
     atom  38 (R=0.066)  charge=  2.9482  magn= -0.0381
     atom  39 (R=0.084)  charge=  0.7106  magn= -0.0166

     total cpu time spent up to now is      915.6 secs

     End of self-consistent calculation

 ------ SPIN UP ------------


          k = 0.0000 0.0000 0.0000 ( 51087 PWs)   bands (ev):

   -21.7821  -9.3221  -7.6454  -6.4058  -5.7799  -5.6452  -5.4171  -4.8591
    -4.8250  -4.8203  -4.8155  -4.7846  -4.7731  -4.7625  -4.4728  -4.2930
    -4.2856  -4.2832  -4.2606  -4.2317  -4.2276  -3.9082  -3.7674  -3.7639
    -3.7598  -3.7375  -3.7100  -3.6812  -3.6359  -3.6354  -3.6287  -3.6203
    -3.5917  -3.5543  -3.5473  -3.4242  -3.2517  -3.2468  -3.2437  -3.2376
    -3.1839  -3.1814  -3.1717  -3.1679  -3.1622  -3.1538  -3.1502  -3.1106
    -3.0162  -3.0139  -2.9471  -2.9406  -2.9348  -2.9273  -2.9253  -2.9190
    -2.9100  -2.9008  -2.8939  -2.8736  -2.8098  -2.7961  -2.7948  -2.7897
    -2.7147  -2.6207  -2.3050  -2.2649  -2.2633  -2.2601  -2.2556  -2.1654
    -2.1352  -2.1300  -2.1135  -2.1014  -2.0933  -2.0906  -2.0830  -2.0757
    -2.0357  -2.0356  -1.9844  -1.9811  -1.9779  -1.9761  -1.9612  -1.9572
    -1.9467  -1.9419  -1.9402  -1.9370  -1.9267  -1.9111  -1.9058  -1.8981
    -1.8952  -1.8951  -1.8906  -1.8880  -1.8858  -1.8849  -1.8830  -1.8697
    -1.8546  -1.8318  -1.8271  -1.8080  -1.8015  -1.7336  -1.7312  -1.6238
    -1.5450  -1.4493  -1.4406  -1.4398  -1.4376  -1.4143  -1.4027  -1.3964
    -1.3946  -1.3818  -1.3796  -1.3458  -1.3390  -1.2174  -1.2106  -1.2028
    -1.1814  -1.1746  -1.0942  -1.0478  -1.0270  -1.0065  -0.9704  -0.9605
    -0.9566  -0.9432  -0.9391  -0.9365  -0.9327  -0.8839  -0.8191  -0.8016
    -0.7106  -0.7048  -0.6995  -0.6911  -0.6724  -0.6573  -0.6466  -0.6363
    -0.6350  -0.6313  -0.6290  -0.6260  -0.6210  -0.6085  -0.6079  -0.5990
    -0.5968  -0.5900  -0.5777  -0.5621  -0.5610  -0.5505  -0.5457  -0.5383
    -0.5268  -0.5205  -0.5134  -0.4997  -0.4954  -0.4948  -0.4884  -0.4828
    -0.4729  -0.4675  -0.4501  -0.4295  -0.4128  -0.4003  -0.3966  -0.3900
    -0.3808  -0.3744  -0.3581  -0.3550  -0.3443  -0.3141  -0.3099  -0.3097
    -0.2910  -0.2899  -0.2336  -0.2314  -0.2295  -0.2121  -0.1760  -0.1548
     0.4802   0.8201

          k = 0.0000 0.2309 0.0000 ( 51134 PWs)   bands (ev):

   -21.7821  -9.3124  -7.5032  -6.3027  -5.8119  -5.6630  -5.5425  -5.3590
    -5.0537  -5.0297  -4.7208  -4.5744  -4.4782  -4.4698  -4.4087  -4.3813
    -4.3088  -4.2801  -4.2083  -4.1522  -4.1422  -3.9170  -3.8626  -3.7656
    -3.7549  -3.6906  -3.6496  -3.6399  -3.6343  -3.6284  -3.6171  -3.5951
    -3.5764  -3.5291  -3.5088  -3.4857  -3.4780  -3.3930  -3.2750  -3.2597
    -3.2524  -3.2056  -3.2015  -3.1877  -3.1671  -3.1049  -3.0706  -3.0601
    -3.0338  -3.0295  -3.0216  -2.9927  -2.9644  -2.8996  -2.8913  -2.8622
    -2.8215  -2.8198  -2.7964  -2.7919  -2.7608  -2.7299  -2.7271  -2.7057
    -2.6845  -2.6001  -2.3827  -2.3768  -2.3518  -2.3442  -2.3208  -2.2400
    -2.2298  -2.2138  -2.2082  -2.1978  -2.1916  -2.1788  -2.1566  -2.1038
    -2.0974  -2.0801  -2.0612  -2.0266  -2.0253  -2.0150  -2.0052  -1.9953
    -1.9891  -1.9857  -1.9752  -1.9664  -1.9548  -1.9378  -1.9114  -1.8814
    -1.8709  -1.8544  -1.8024  -1.7952  -1.7874  -1.7809  -1.7722  -1.7646
    -1.7572  -1.7511  -1.7426  -1.7381  -1.7224  -1.7051  -1.6927  -1.6851
    -1.6678  -1.6518  -1.6295  -1.5736  -1.5581  -1.4911  -1.4661  -1.4618
    -1.4495  -1.4387  -1.4288  -1.4270  -1.3977  -1.3805  -1.3358  -1.2661
    -1.2391  -1.2175  -1.1745  -1.1646  -1.1459  -1.1043  -1.0831  -1.0634
    -1.0357  -0.9800  -0.9709  -0.9617  -0.9323  -0.9262  -0.8917  -0.8804
    -0.8569  -0.8475  -0.8314  -0.8078  -0.7979  -0.7862  -0.7779  -0.7659
    -0.7163  -0.7070  -0.6999  -0.6950  -0.6723  -0.6604  -0.6357  -0.6256
    -0.6222  -0.6155  -0.6082  -0.5973  -0.5745  -0.5678  -0.5528  -0.5461
    -0.5096  -0.4869  -0.4765  -0.4457  -0.4360  -0.4152  -0.3998  -0.3811
    -0.3688  -0.3575  -0.3550  -0.3448  -0.3313  -0.3210  -0.3134  -0.2718
    -0.2411  -0.2337  -0.2301  -0.2079  -0.1977  -0.1739  -0.1619  -0.1433
    -0.0779   0.0006   0.1299   0.1492   0.2231   0.2976   0.4116   0.4333
     0.4626   0.8015

          k = 0.0000 0.4619 0.0000 ( 51204 PWs)   bands (ev):

   -21.7821  -9.2969  -7.0843  -6.4292  -6.0546  -5.7657  -5.5902  -5.3710
    -5.1896  -5.1418  -5.0357  -4.4486  -4.3159  -4.3026  -4.2693  -4.2342
    -4.1448  -4.1140  -4.0982  -4.0030  -3.9803  -3.9759  -3.9462  -3.8082
    -3.8003  -3.7905  -3.7825  -3.7628  -3.7075  -3.6764  -3.6617  -3.5597
    -3.5128  -3.4999  -3.4846  -3.4663  -3.4500  -3.4088  -3.3561  -3.3476
    -3.3369  -3.3254  -3.2752  -3.2174  -3.1232  -3.1034  -3.0303  -3.0223
    -2.9979  -2.9754  -2.9557  -2.9429  -2.9287  -2.9128  -2.8990  -2.8458
    -2.8410  -2.8124  -2.7755  -2.7610  -2.6447  -2.6319  -2.6064  -2.5818
    -2.5461  -2.5250  -2.4969  -2.4876  -2.4636  -2.4123  -2.3578  -2.3545
    -2.3487  -2.3378  -2.3281  -2.3096  -2.2918  -2.2854  -2.2693  -2.2412
    -2.2220  -2.1866  -2.1699  -2.1555  -2.1199  -2.1111  -2.0683  -2.0308
    -2.0190  -2.0078  -1.9882  -1.9752  -1.9606  -1.9223  -1.9074  -1.9031
    -1.8931  -1.8765  -1.8692  -1.8500  -1.8329  -1.8269  -1.8206  -1.7935
    -1.7822  -1.7555  -1.7206  -1.7090  -1.6465  -1.6323  -1.6178  -1.5957
    -1.5921  -1.5706  -1.5486  -1.5181  -1.5059  -1.4845  -1.4804  -1.4715
    -1.4686  -1.4612  -1.4483  -1.4429  -1.4368  -1.4235  -1.4080  -1.4013
    -1.3899  -1.3583  -1.2925  -1.2702  -1.2582  -1.2397  -1.2171  -1.2029
    -1.1741  -1.1183  -1.0994  -1.0915  -1.0613  -1.0445  -1.0155  -0.9656
    -0.9628  -0.9323  -0.9265  -0.9049  -0.8873  -0.8554  -0.8343  -0.7722
    -0.7572  -0.7248  -0.7172  -0.7021  -0.6983  -0.6914  -0.6781  -0.6748
    -0.6527  -0.6379  -0.5528  -0.5424  -0.5359  -0.5302  -0.5206  -0.4978
    -0.4873  -0.4795  -0.4628  -0.4582  -0.4294  -0.4130  -0.3668  -0.3517
    -0.3381  -0.3207  -0.2966  -0.2540  -0.2475  -0.2205  -0.2109  -0.1761
    -0.1342  -0.1298  -0.1256  -0.1098  -0.1042  -0.1001  -0.0879  -0.0252
     0.0024   0.0568   0.4785   0.6267   0.9377   1.1012   1.1327   1.3152
     1.4762   1.5275

          k = 0.2000-0.1155 0.0000 ( 51134 PWs)   bands (ev):

   -21.7821  -9.3123  -7.5032  -6.3029  -5.8135  -5.6625  -5.5400  -5.3605
    -5.0538  -5.0294  -4.7212  -4.5724  -4.4785  -4.4697  -4.4091  -4.3809
    -4.3103  -4.2803  -4.2071  -4.1541  -4.1422  -3.9119  -3.8666  -3.7647
    -3.7536  -3.6905  -3.6500  -3.6401  -3.6344  -3.6285  -3.6180  -3.5954
    -3.5750  -3.5300  -3.5088  -3.4858  -3.4780  -3.3939  -3.2754  -3.2598
    -3.2528  -3.2056  -3.2015  -3.1875  -3.1668  -3.1055  -3.0707  -3.0598
    -3.0338  -3.0293  -3.0216  -2.9927  -2.9635  -2.8997  -2.8914  -2.8626
    -2.8214  -2.8192  -2.7964  -2.7920  -2.7606  -2.7302  -2.7271  -2.7054
    -2.6836  -2.6007  -2.3828  -2.3769  -2.3520  -2.3438  -2.3206  -2.2399
    -2.2299  -2.2138  -2.2082  -2.1982  -2.1913  -2.1786  -2.1555  -2.1038
    -2.0975  -2.0802  -2.0613  -2.0265  -2.0256  -2.0156  -2.0048  -1.9954
    -1.9892  -1.9857  -1.9751  -1.9663  -1.9544  -1.9383  -1.9108  -1.8815
    -1.8709  -1.8540  -1.8026  -1.7953  -1.7874  -1.7808  -1.7723  -1.7646
    -1.7571  -1.7513  -1.7426  -1.7381  -1.7225  -1.7054  -1.6926  -1.6851
    -1.6681  -1.6520  -1.6295  -1.5742  -1.5589  -1.4917  -1.4661  -1.4617
    -1.4492  -1.4390  -1.4288  -1.4269  -1.3989  -1.3791  -1.3339  -1.2664
    -1.2385  -1.2175  -1.1745  -1.1645  -1.1457  -1.1048  -1.0833  -1.0639
    -1.0342  -0.9807  -0.9715  -0.9621  -0.9327  -0.9264  -0.8919  -0.8807
    -0.8569  -0.8474  -0.8305  -0.8076  -0.7981  -0.7868  -0.7780  -0.7652
    -0.7165  -0.7070  -0.6999  -0.6949  -0.6719  -0.6597  -0.6357  -0.6255
    -0.6222  -0.6153  -0.6080  -0.5973  -0.5746  -0.5679  -0.5527  -0.5465
    -0.5094  -0.4865  -0.4761  -0.4456  -0.4361  -0.4162  -0.3993  -0.3812
    -0.3689  -0.3574  -0.3541  -0.3450  -0.3312  -0.3210  -0.3134  -0.2711
    -0.2410  -0.2332  -0.2301  -0.2078  -0.1976  -0.1746  -0.1619  -0.1432
    -0.0785   0.0005   0.1298   0.1494   0.2207   0.2970   0.4111   0.4332
     0.4632   0.8001

          k = 0.2000 0.1155 0.0000 ( 51134 PWs)   bands (ev):

   -21.7821  -9.3116  -7.5040  -6.3068  -5.8438  -5.6468  -5.4592  -5.4303
    -5.0514  -5.0262  -4.7269  -4.5490  -4.4793  -4.4681  -4.4200  -4.3667
    -4.3148  -4.2985  -4.2057  -4.1596  -4.1424  -3.9008  -3.8641  -3.7695
    -3.7488  -3.6852  -3.6436  -3.6411  -3.6360  -3.6333  -3.6139  -3.6092
    -3.5480  -3.5361  -3.5246  -3.4839  -3.4825  -3.4039  -3.2789  -3.2611
    -3.2513  -3.2064  -3.2039  -3.1879  -3.1672  -3.0962  -3.0725  -3.0545
    -3.0309  -3.0282  -3.0204  -3.0012  -2.9649  -2.9026  -2.8920  -2.8609
    -2.8298  -2.8047  -2.7951  -2.7880  -2.7678  -2.7278  -2.7251  -2.7194
    -2.6537  -2.6090  -2.3838  -2.3765  -2.3478  -2.3417  -2.3232  -2.2395
    -2.2315  -2.2238  -2.2036  -2.1978  -2.1954  -2.1800  -2.1364  -2.1047
    -2.0989  -2.0835  -2.0457  -2.0256  -2.0220  -2.0208  -2.0079  -1.9947
    -1.9876  -1.9854  -1.9785  -1.9652  -1.9469  -1.9359  -1.9223  -1.8788
    -1.8779  -1.8423  -1.8069  -1.7957  -1.7908  -1.7810  -1.7742  -1.7720
    -1.7538  -1.7503  -1.7445  -1.7385  -1.7307  -1.7132  -1.6890  -1.6851
    -1.6673  -1.6647  -1.6193  -1.5750  -1.5647  -1.5060  -1.4685  -1.4556
    -1.4487  -1.4403  -1.4270  -1.4262  -1.4019  -1.3581  -1.2865  -1.2835
    -1.2440  -1.2318  -1.1717  -1.1705  -1.1380  -1.1225  -1.0864  -1.0828
    -1.0123  -0.9843  -0.9792  -0.9509  -0.9388  -0.9324  -0.8937  -0.8852
    -0.8682  -0.8461  -0.8258  -0.8047  -0.8033  -0.7904  -0.7851  -0.7621
    -0.7089  -0.7037  -0.6989  -0.6881  -0.6760  -0.6508  -0.6352  -0.6264
    -0.6229  -0.6098  -0.6085  -0.5943  -0.5801  -0.5670  -0.5651  -0.5513
    -0.5007  -0.4774  -0.4607  -0.4578  -0.4335  -0.4297  -0.3955  -0.3822
    -0.3755  -0.3592  -0.3521  -0.3337  -0.3299  -0.3202  -0.3134  -0.2645
    -0.2315  -0.2291  -0.2274  -0.2053  -0.1990  -0.1505  -0.1433  -0.1417
    -0.0776  -0.0299   0.1233   0.1499   0.1919   0.2911   0.4134   0.4253
     0.4543   0.7595

          k = 0.2000 0.3464 0.0000 ( 51202 PWs)   bands (ev):

   -21.7821  -9.2989  -7.2235  -6.1419  -6.0152  -5.9223  -5.6526  -5.5013
    -5.3735  -4.7798  -4.7032  -4.4873  -4.4785  -4.4638  -4.2768  -4.2591
    -4.1895  -4.1604  -4.1552  -4.0389  -4.0230  -3.9077  -3.8821  -3.8414
    -3.8129  -3.7624  -3.6779  -3.6632  -3.6319  -3.6247  -3.6076  -3.5980
    -3.5749  -3.5687  -3.5281  -3.5046  -3.4614  -3.4353  -3.4234  -3.3644
    -3.2847  -3.2382  -3.2044  -3.1728  -3.1567  -3.1438  -3.0801  -3.0427
    -3.0080  -2.9779  -2.9679  -2.9584  -2.9324  -2.9067  -2.8915  -2.8747
    -2.8519  -2.8233  -2.7508  -2.6936  -2.6759  -2.6588  -2.6477  -2.6166
    -2.5949  -2.5486  -2.4937  -2.4254  -2.4022  -2.3813  -2.3599  -2.3341
    -2.3172  -2.3097  -2.3052  -2.2837  -2.2590  -2.2509  -2.2419  -2.2339
    -2.2188  -2.1780  -2.1564  -2.1017  -2.0590  -2.0492  -2.0318  -2.0123
    -1.9942  -1.9810  -1.9536  -1.9478  -1.9359  -1.9065  -1.8998  -1.8898
    -1.8800  -1.8770  -1.8667  -1.8452  -1.8413  -1.8305  -1.8131  -1.8086
    -1.7830  -1.7593  -1.7358  -1.7121  -1.7070  -1.6731  -1.6609  -1.6579
    -1.6440  -1.6255  -1.6017  -1.5732  -1.5562  -1.5489  -1.5231  -1.4993
    -1.4938  -1.4792  -1.4654  -1.4440  -1.4354  -1.4257  -1.4113  -1.3691
    -1.3393  -1.3263  -1.3060  -1.2354  -1.1986  -1.1755  -1.1606  -1.0904
    -1.0582  -1.0452  -1.0348  -1.0268  -1.0201  -1.0101  -0.9878  -0.9840
    -0.9606  -0.9422  -0.9249  -0.8833  -0.8687  -0.8554  -0.8425  -0.8342
    -0.8108  -0.7877  -0.7681  -0.7650  -0.7509  -0.7429  -0.6268  -0.6029
    -0.5833  -0.5655  -0.5558  -0.5518  -0.5318  -0.5223  -0.5112  -0.5023
    -0.4754  -0.4457  -0.4246  -0.4127  -0.3955  -0.3837  -0.3415  -0.3350
    -0.3258  -0.3236  -0.3143  -0.2933  -0.2804  -0.2736  -0.2625  -0.2454
    -0.2346  -0.1665  -0.1527  -0.1491  -0.1048  -0.0967  -0.0579   0.0536
     0.2154   0.2404   0.2886   0.4295   0.5530   0.6499   0.9885   1.1317
     1.2494   1.4256

          k = 0.2000-0.5774 0.0000 ( 51262 PWs)   bands (ev):

   -21.7821  -9.2919  -6.7012  -6.6600  -6.0906  -5.9316  -5.7108  -5.5143
    -5.2231  -5.1578  -4.7751  -4.4634  -4.2851  -4.2139  -4.1789  -4.0601
    -4.0426  -4.0294  -4.0163  -4.0032  -3.9446  -3.9371  -3.9293  -3.9258
    -3.8894  -3.8416  -3.7838  -3.7721  -3.7555  -3.7455  -3.6792  -3.6056
    -3.5957  -3.5817  -3.5650  -3.5137  -3.4591  -3.4202  -3.3445  -3.3054
    -3.3008  -3.2667  -3.2135  -3.2010  -3.1743  -3.1339  -3.0903  -3.0840
    -3.0455  -3.0187  -2.9733  -2.9231  -2.8894  -2.8616  -2.8507  -2.8031
    -2.7880  -2.7252  -2.7170  -2.7043  -2.6944  -2.6760  -2.6572  -2.6143
    -2.5456  -2.5066  -2.4964  -2.4828  -2.4584  -2.4217  -2.4059  -2.3590
    -2.3542  -2.3138  -2.3005  -2.2981  -2.2863  -2.2663  -2.2473  -2.2370
    -2.2203  -2.2087  -2.1956  -2.1724  -2.1657  -2.1291  -2.0941  -2.0817
    -2.0684  -2.0415  -1.9929  -1.9725  -1.9547  -1.9342  -1.9185  -1.9123
    -1.8900  -1.8794  -1.8680  -1.8630  -1.8450  -1.8235  -1.8195  -1.7911
    -1.7615  -1.7373  -1.7295  -1.7187  -1.7067  -1.6986  -1.6876  -1.6761
    -1.6720  -1.6659  -1.6417  -1.6130  -1.5812  -1.5699  -1.5613  -1.5267
    -1.4798  -1.4725  -1.4470  -1.4239  -1.4116  -1.4015  -1.3936  -1.3588
    -1.3293  -1.3178  -1.2877  -1.2415  -1.1972  -1.1814  -1.1694  -1.1499
    -1.1274  -1.1243  -1.1124  -1.0849  -1.0632  -1.0502  -1.0337  -1.0152
    -0.9712  -0.9587  -0.9466  -0.9300  -0.9170  -0.8785  -0.8594  -0.8475
    -0.8405  -0.8126  -0.8067  -0.7894  -0.7760  -0.7595  -0.7207  -0.5844
    -0.5639  -0.5527  -0.5407  -0.5367  -0.5248  -0.5195  -0.4991  -0.4863
    -0.4666  -0.4568  -0.4461  -0.4338  -0.3896  -0.3434  -0.3221  -0.3123
    -0.2942  -0.2925  -0.2680  -0.2597  -0.2329  -0.2190  -0.2135  -0.1979
    -0.1859  -0.1306  -0.1257  -0.1149  -0.1042  -0.0855  -0.0708  -0.0188
     0.1625   0.2697   0.5244   0.9005   1.0626   1.1779   1.2834   1.5398
     1.6842   1.7332

          k = 0.2000-0.3464 0.0000 ( 51202 PWs)   bands (ev):

   -21.7821  -9.3001  -7.2213  -6.1429  -5.9706  -5.9385  -5.6539  -5.5580
    -5.3448  -4.7760  -4.6916  -4.5121  -4.4785  -4.4633  -4.2647  -4.2601
    -4.1994  -4.1594  -4.1558  -4.0295  -4.0028  -3.9304  -3.8860  -3.8613
    -3.8156  -3.7565  -3.6769  -3.6536  -3.6437  -3.6250  -3.6114  -3.5900
    -3.5753  -3.5691  -3.5177  -3.4976  -3.4655  -3.4329  -3.4132  -3.3623
    -3.2856  -3.2340  -3.2028  -3.1800  -3.1547  -3.1378  -3.0862  -3.0450
    -3.0013  -2.9872  -2.9671  -2.9491  -2.9379  -2.9097  -2.8811  -2.8655
    -2.8618  -2.8260  -2.7391  -2.7226  -2.6787  -2.6667  -2.6342  -2.6243
    -2.5982  -2.5507  -2.4898  -2.4244  -2.4004  -2.3810  -2.3596  -2.3309
    -2.3163  -2.3096  -2.3043  -2.2829  -2.2558  -2.2549  -2.2408  -2.2251
    -2.2221  -2.1809  -2.1588  -2.1356  -2.0611  -2.0469  -2.0287  -2.0079
    -1.9990  -1.9782  -1.9711  -1.9462  -1.9219  -1.9105  -1.9010  -1.8950
    -1.8817  -1.8769  -1.8683  -1.8493  -1.8353  -1.8325  -1.8140  -1.7979
    -1.7820  -1.7707  -1.7501  -1.7103  -1.7085  -1.6800  -1.6636  -1.6524
    -1.6440  -1.6199  -1.5898  -1.5740  -1.5570  -1.5337  -1.5132  -1.5041
    -1.4791  -1.4768  -1.4715  -1.4506  -1.4377  -1.4195  -1.4109  -1.3608
    -1.3428  -1.3070  -1.2901  -1.2362  -1.1910  -1.1725  -1.1642  -1.0749
    -1.0656  -1.0513  -1.0318  -1.0278  -1.0199  -1.0110  -0.9942  -0.9686
    -0.9636  -0.9522  -0.9276  -0.8812  -0.8737  -0.8568  -0.8372  -0.8319
    -0.8092  -0.7869  -0.7787  -0.7634  -0.7541  -0.7418  -0.6214  -0.6110
    -0.5958  -0.5671  -0.5609  -0.5433  -0.5299  -0.5184  -0.5160  -0.4975
    -0.4759  -0.4493  -0.4206  -0.4057  -0.3968  -0.3866  -0.3490  -0.3330
    -0.3272  -0.3226  -0.3170  -0.2914  -0.2790  -0.2704  -0.2652  -0.2492
    -0.2444  -0.1706  -0.1518  -0.1482  -0.1061  -0.0996  -0.0780   0.0699
     0.1902   0.2368   0.2681   0.4894   0.5174   0.6591   1.0346   1.1394
     1.2541   1.4040

          k = 0.4000-0.2309 0.0000 ( 51204 PWs)   bands (ev):

   -21.7821  -9.2968  -7.0844  -6.4296  -6.0551  -5.7698  -5.5844  -5.3725
    -5.1896  -5.1409  -5.0357  -4.4484  -4.3180  -4.3027  -4.2693  -4.2334
    -4.1446  -4.1139  -4.0991  -4.0024  -3.9800  -3.9754  -3.9423  -3.8086
    -3.8004  -3.7901  -3.7824  -3.7622  -3.7061  -3.6765  -3.6612  -3.5645
    -3.5130  -3.5006  -3.4846  -3.4664  -3.4498  -3.4102  -3.3561  -3.3476
    -3.3370  -3.3257  -3.2775  -3.2175  -3.1231  -3.1030  -3.0301  -3.0218
    -2.9978  -2.9747  -2.9556  -2.9428  -2.9289  -2.9129  -2.8989  -2.8459
    -2.8413  -2.8130  -2.7744  -2.7597  -2.6449  -2.6314  -2.6057  -2.5817
    -2.5462  -2.5249  -2.4970  -2.4876  -2.4635  -2.4124  -2.3577  -2.3545
    -2.3487  -2.3375  -2.3280  -2.3095  -2.2916  -2.2852  -2.2698  -2.2406
    -2.2216  -2.1867  -2.1702  -2.1554  -2.1194  -2.1114  -2.0692  -2.0312
    -2.0190  -2.0081  -1.9886  -1.9739  -1.9605  -1.9223  -1.9068  -1.9033
    -1.8932  -1.8761  -1.8694  -1.8500  -1.8332  -1.8271  -1.8213  -1.7931
    -1.7818  -1.7556  -1.7206  -1.7094  -1.6470  -1.6325  -1.6177  -1.5946
    -1.5924  -1.5704  -1.5488  -1.5179  -1.5058  -1.4845  -1.4806  -1.4716
    -1.4681  -1.4610  -1.4482  -1.4430  -1.4366  -1.4238  -1.4078  -1.4005
    -1.3898  -1.3587  -1.2936  -1.2697  -1.2581  -1.2401  -1.2174  -1.2025
    -1.1737  -1.1189  -1.0995  -1.0921  -1.0606  -1.0442  -1.0159  -0.9669
    -0.9637  -0.9324  -0.9272  -0.9050  -0.8874  -0.8544  -0.8334  -0.7740
    -0.7577  -0.7245  -0.7164  -0.7018  -0.6982  -0.6911  -0.6780  -0.6742
    -0.6525  -0.6380  -0.5527  -0.5421  -0.5360  -0.5305  -0.5206  -0.4975
    -0.4869  -0.4786  -0.4625  -0.4584  -0.4297  -0.4128  -0.3665  -0.3517
    -0.3381  -0.3208  -0.2953  -0.2539  -0.2475  -0.2203  -0.2108  -0.1761
    -0.1339  -0.1299  -0.1255  -0.1096  -0.1043  -0.1002  -0.0876  -0.0251
     0.0024   0.0562   0.4764   0.6266   0.9377   1.1001   1.1324   1.3103
     1.4767   1.5262

          k = 0.4000 0.0000 0.0000 ( 51202 PWs)   bands (ev):

   -21.7821  -9.2988  -7.2236  -6.1419  -6.0169  -5.9219  -5.6528  -5.4981
    -5.3756  -4.7783  -4.7042  -4.4867  -4.4783  -4.4647  -4.2770  -4.2592
    -4.1892  -4.1599  -4.1554  -4.0412  -4.0236  -3.9036  -3.8828  -3.8393
    -3.8126  -3.7628  -3.6780  -3.6642  -3.6311  -3.6249  -3.6081  -3.5976
    -3.5750  -3.5684  -3.5288  -3.5057  -3.4611  -3.4356  -3.4247  -3.3653
    -3.2849  -3.2395  -3.2043  -3.1720  -3.1568  -3.1438  -3.0804  -3.0428
    -3.0081  -2.9774  -2.9675  -2.9587  -2.9324  -2.9071  -2.8902  -2.8752
    -2.8528  -2.8224  -2.7510  -2.6921  -2.6759  -2.6583  -2.6472  -2.6167
    -2.5954  -2.5485  -2.4937  -2.4255  -2.4015  -2.3813  -2.3601  -2.3344
    -2.3170  -2.3097  -2.3052  -2.2839  -2.2591  -2.2510  -2.2423  -2.2341
    -2.2173  -2.1779  -2.1569  -2.1018  -2.0591  -2.0491  -2.0322  -2.0122
    -1.9945  -1.9817  -1.9525  -1.9477  -1.9361  -1.9065  -1.8999  -1.8897
    -1.8794  -1.8767  -1.8672  -1.8452  -1.8414  -1.8305  -1.8136  -1.8089
    -1.7825  -1.7589  -1.7345  -1.7125  -1.7068  -1.6735  -1.6607  -1.6574
    -1.6440  -1.6249  -1.6022  -1.5738  -1.5561  -1.5490  -1.5228  -1.4995
    -1.4938  -1.4793  -1.4653  -1.4441  -1.4357  -1.4259  -1.4122  -1.3695
    -1.3391  -1.3266  -1.3071  -1.2340  -1.1985  -1.1752  -1.1610  -1.0910
    -1.0580  -1.0452  -1.0351  -1.0271  -1.0201  -1.0100  -0.9880  -0.9846
    -0.9604  -0.9417  -0.9249  -0.8832  -0.8683  -0.8550  -0.8421  -0.8341
    -0.8102  -0.7879  -0.7684  -0.7658  -0.7517  -0.7425  -0.6269  -0.6029
    -0.5829  -0.5655  -0.5560  -0.5518  -0.5314  -0.5222  -0.5111  -0.5023
    -0.4758  -0.4451  -0.4251  -0.4126  -0.3955  -0.3833  -0.3411  -0.3346
    -0.3258  -0.3237  -0.3143  -0.2934  -0.2805  -0.2737  -0.2623  -0.2452
    -0.2345  -0.1663  -0.1528  -0.1490  -0.1049  -0.0967  -0.0579   0.0533
     0.2170   0.2405   0.2893   0.4273   0.5545   0.6499   0.9836   1.1323
     1.2484   1.4246

          k = 0.4000 0.2309 0.0000 ( 51204 PWs)   bands (ev):

   -21.7821  -9.2949  -7.0879  -6.4367  -6.0655  -5.8132  -5.4573  -5.4419
    -5.1894  -5.1324  -5.0303  -4.4608  -4.3371  -4.2917  -4.2813  -4.2330
    -4.1356  -4.1111  -4.1093  -3.9944  -3.9787  -3.9772  -3.8797  -3.8143
    -3.7991  -3.7845  -3.7821  -3.7603  -3.6780  -3.6743  -3.6658  -3.6265
    -3.5156  -3.5104  -3.4946  -3.4646  -3.4619  -3.4147  -3.3583  -3.3498
    -3.3395  -3.3246  -3.2823  -3.1983  -3.1244  -3.0868  -3.0306  -3.0067
    -3.0015  -2.9723  -2.9583  -2.9542  -2.9419  -2.9159  -2.8779  -2.8497
    -2.8425  -2.8176  -2.7814  -2.7348  -2.6353  -2.6194  -2.6178  -2.5810
    -2.5493  -2.5154  -2.4993  -2.4917  -2.4821  -2.4108  -2.3646  -2.3548
    -2.3494  -2.3380  -2.3255  -2.3085  -2.2909  -2.2869  -2.2679  -2.2253
    -2.2080  -2.1891  -2.1800  -2.1633  -2.1149  -2.1038  -2.0524  -2.0441
    -2.0188  -2.0142  -1.9909  -1.9791  -1.9510  -1.9179  -1.9069  -1.9056
    -1.8846  -1.8732  -1.8647  -1.8458  -1.8413  -1.8293  -1.8274  -1.7959
    -1.7782  -1.7498  -1.7201  -1.7192  -1.6570  -1.6379  -1.6170  -1.5940
    -1.5727  -1.5668  -1.5423  -1.5076  -1.5064  -1.4915  -1.4779  -1.4758
    -1.4677  -1.4638  -1.4462  -1.4442  -1.4330  -1.4293  -1.4231  -1.3935
    -1.3726  -1.3580  -1.3274  -1.2669  -1.2519  -1.2426  -1.2200  -1.1997
    -1.1754  -1.1203  -1.1187  -1.0978  -1.0874  -1.0350  -1.0322  -0.9953
    -0.9673  -0.9329  -0.9182  -0.9148  -0.8840  -0.8486  -0.8150  -0.7887
    -0.7302  -0.7244  -0.7177  -0.7055  -0.6956  -0.6857  -0.6820  -0.6610
    -0.6504  -0.6458  -0.5495  -0.5445  -0.5284  -0.5259  -0.5152  -0.5030
    -0.4846  -0.4751  -0.4663  -0.4489  -0.4400  -0.4068  -0.3626  -0.3441
    -0.3426  -0.3222  -0.2791  -0.2506  -0.2453  -0.2135  -0.2088  -0.1750
    -0.1335  -0.1267  -0.1222  -0.1067  -0.0991  -0.0966  -0.0719  -0.0442
     0.0024   0.0560   0.4245   0.7731   0.8613   1.0373   1.1367   1.2026
     1.4912   1.5401

          k = 0.4000-0.6928 0.0000 ( 51262 PWs)   bands (ev):

   -21.7821  -9.2906  -6.7148  -6.6548  -6.0861  -5.9003  -5.8104  -5.4200
    -5.2040  -5.1866  -4.7937  -4.4645  -4.3168  -4.1975  -4.1758  -4.0478
    -4.0427  -4.0212  -4.0114  -3.9851  -3.9563  -3.9362  -3.9282  -3.9202
    -3.8898  -3.7956  -3.7830  -3.7773  -3.7564  -3.7469  -3.7009  -3.6040
    -3.5922  -3.5858  -3.5719  -3.5501  -3.4846  -3.4192  -3.3362  -3.3065
    -3.2986  -3.2602  -3.2106  -3.1965  -3.1739  -3.1105  -3.0889  -3.0826
    -3.0770  -3.0119  -2.9887  -2.9218  -2.8839  -2.8542  -2.8491  -2.7963
    -2.7819  -2.7247  -2.7167  -2.7085  -2.6949  -2.6847  -2.6350  -2.6247
    -2.5409  -2.5062  -2.4966  -2.4794  -2.4670  -2.4293  -2.4154  -2.3592
    -2.3511  -2.3168  -2.3077  -2.2892  -2.2828  -2.2625  -2.2458  -2.2234
    -2.2164  -2.2052  -2.1789  -2.1747  -2.1614  -2.1519  -2.0965  -2.0836
    -2.0691  -2.0460  -1.9998  -1.9677  -1.9480  -1.9323  -1.9199  -1.9161
    -1.8882  -1.8796  -1.8741  -1.8526  -1.8400  -1.8325  -1.8106  -1.7614
    -1.7512  -1.7385  -1.7253  -1.7176  -1.7016  -1.7013  -1.6962  -1.6812
    -1.6744  -1.6710  -1.6484  -1.6262  -1.5746  -1.5703  -1.5569  -1.5350
    -1.4884  -1.4775  -1.4503  -1.4214  -1.4111  -1.4003  -1.3897  -1.3775
    -1.3268  -1.3209  -1.2873  -1.2519  -1.1887  -1.1859  -1.1756  -1.1470
    -1.1315  -1.1165  -1.1054  -1.1015  -1.0778  -1.0551  -1.0225  -0.9976
    -0.9722  -0.9653  -0.9469  -0.9264  -0.9167  -0.8892  -0.8675  -0.8587
    -0.8314  -0.8168  -0.8051  -0.7769  -0.7694  -0.7569  -0.7258  -0.5896
    -0.5611  -0.5542  -0.5447  -0.5296  -0.5260  -0.5145  -0.4977  -0.4725
    -0.4696  -0.4557  -0.4494  -0.4425  -0.3812  -0.3258  -0.3236  -0.3095
    -0.2972  -0.2875  -0.2739  -0.2424  -0.2305  -0.2197  -0.2101  -0.1973
    -0.1944  -0.1538  -0.1250  -0.1145  -0.1033  -0.0882  -0.0716  -0.0162
     0.1750   0.2772   0.5849   0.9076   0.9501   1.1771   1.2480   1.5873
     1.6860   1.7270

          k = 0.4000-0.4619 0.0000 ( 51262 PWs)   bands (ev):

   -21.7821  -9.2918  -6.7021  -6.6595  -6.0906  -5.9306  -5.7169  -5.5076
    -5.2237  -5.1583  -4.7754  -4.4636  -4.2869  -4.2125  -4.1793  -4.0589
    -4.0426  -4.0291  -4.0164  -4.0028  -3.9447  -3.9370  -3.9291  -3.9253
    -3.8894  -3.8398  -3.7838  -3.7721  -3.7559  -3.7451  -3.6795  -3.6058
    -3.5952  -3.5817  -3.5651  -3.5155  -3.4621  -3.4209  -3.3437  -3.3054
    -3.3007  -3.2673  -3.2135  -3.2009  -3.1743  -3.1338  -3.0906  -3.0838
    -3.0461  -3.0188  -2.9722  -2.9231  -2.8891  -2.8618  -2.8507  -2.8027
    -2.7873  -2.7251  -2.7172  -2.7047  -2.6945  -2.6760  -2.6571  -2.6125
    -2.5455  -2.5063  -2.4963  -2.4831  -2.4585  -2.4220  -2.4058  -2.3593
    -2.3540  -2.3138  -2.3004  -2.2978  -2.2861  -2.2665  -2.2477  -2.2362
    -2.2201  -2.2087  -2.1957  -2.1725  -2.1658  -2.1285  -2.0943  -2.0817
    -2.0685  -2.0440  -1.9930  -1.9726  -1.9539  -1.9340  -1.9186  -1.9122
    -1.8901  -1.8793  -1.8677  -1.8632  -1.8448  -1.8232  -1.8195  -1.7894
    -1.7616  -1.7372  -1.7293  -1.7188  -1.7067  -1.6987  -1.6876  -1.6758
    -1.6723  -1.6657  -1.6417  -1.6139  -1.5818  -1.5688  -1.5620  -1.5267
    -1.4800  -1.4726  -1.4482  -1.4236  -1.4117  -1.4012  -1.3935  -1.3590
    -1.3291  -1.3179  -1.2888  -1.2401  -1.1969  -1.1813  -1.1697  -1.1503
    -1.1272  -1.1242  -1.1127  -1.0845  -1.0631  -1.0506  -1.0336  -1.0148
    -0.9709  -0.9596  -0.9467  -0.9301  -0.9166  -0.8781  -0.8590  -0.8478
    -0.8409  -0.8126  -0.8061  -0.7894  -0.7768  -0.7590  -0.7214  -0.5843
    -0.5637  -0.5527  -0.5405  -0.5368  -0.5246  -0.5195  -0.4993  -0.4859
    -0.4667  -0.4569  -0.4468  -0.4336  -0.3889  -0.3429  -0.3222  -0.3122
    -0.2947  -0.2923  -0.2678  -0.2592  -0.2329  -0.2190  -0.2133  -0.1979
    -0.1859  -0.1311  -0.1257  -0.1148  -0.1042  -0.0854  -0.0708  -0.0192
     0.1622   0.2703   0.5259   0.9020   1.0561   1.1787   1.2813   1.5428
     1.6838   1.7324

 ------ SPIN DOWN ----------


          k = 0.0000 0.0000 0.0000 ( 51087 PWs)   bands (ev):

   -21.8659  -9.4115  -7.7824  -6.4930  -5.7722  -5.6811  -5.4471  -4.6869
    -4.6329  -4.6281  -4.6256  -4.5829  -4.5777  -4.5391  -3.9274  -3.7591
    -3.7519  -3.7422  -3.7154  -3.7056  -3.6480  -3.2415  -2.8145  -2.8126
    -2.8030  -2.7902  -2.7225  -2.5863  -2.3463  -2.3436  -2.3329  -2.3325
    -2.3111  -2.2491  -2.1442  -2.1430  -2.0748  -2.0454  -2.0452  -2.0440
    -1.9585  -1.9581  -1.9095  -1.9076  -1.8352  -1.8177  -1.8132  -1.7951
    -1.7667  -1.7451  -1.5611  -1.5420  -1.5411  -1.5339  -1.5166  -1.5127
    -1.5039  -1.5031  -1.4739  -1.4699  -1.4371  -1.4264  -1.4241  -1.4201
    -1.3458  -1.2715  -0.8983  -0.8716  -0.8562  -0.8521  -0.8317  -0.7806
    -0.6607  -0.6286  -0.5496  -0.5404  -0.5295  -0.5212  -0.5107  -0.4983
    -0.4688  -0.4636  -0.4436  -0.4398  -0.4284  -0.4283  -0.3737  -0.3653
    -0.3453  -0.3299  -0.3211  -0.3063  -0.2946  -0.2832  -0.2805  -0.2675
    -0.2647  -0.2586  -0.2506  -0.2453  -0.2408  -0.2406  -0.1849  -0.1655
    -0.1560  -0.1127  -0.0908  -0.0544  -0.0310  -0.0266  -0.0157  -0.0129
    -0.0103  -0.0051  -0.0045   0.0399   0.0711   0.0715   0.1218   0.1485
     0.1572   0.1599   0.1749   0.2009   0.2977   0.3531   0.3965   0.4004
     0.4468   0.4680   0.4763   0.4763   0.5853   0.6972   0.7060   0.7926
     0.8077   0.8848   0.9259   0.9714   1.0142   1.0363   1.0413   1.0437
     1.1366   1.1404   1.1953   1.2052   1.2164   1.2202   1.2223   1.2489
     1.2666   1.2694   1.2897   1.3025   1.3150   1.3249   1.3328   1.3522
     1.3648   1.3680   1.3726   1.3730   1.3929   1.4286   1.4368   1.4474
     1.4477   1.4679   1.4713   1.4875   1.4949   1.5034   1.5071   1.5384
     1.5422   1.5616   1.5655   1.5669   1.5806   1.5860   1.5913   1.6251
     1.6316   1.6327   1.6374   1.6411   1.6494   1.6553   1.6651   1.6701
     1.6757   1.7150   1.7156   1.8619   1.8621   1.8671   1.8704   1.8711
     1.8773   2.0082

          k = 0.0000 0.2309 0.0000 ( 51134 PWs)   bands (ev):

   -21.8659  -9.4018  -7.6396  -6.3851  -5.8395  -5.6881  -5.5646  -5.3888
    -4.9937  -4.9720  -4.5332  -4.4053  -4.0842  -4.0736  -4.0031  -3.9306
    -3.7957  -3.6898  -3.4487  -3.3934  -3.3401  -3.2316  -2.9449  -2.7937
    -2.7742  -2.7349  -2.6782  -2.5977  -2.4424  -2.3751  -2.3685  -2.3557
    -2.3279  -2.2981  -2.2860  -2.2809  -2.2329  -2.2092  -2.1056  -2.1008
    -2.0157  -2.0122  -1.9708  -1.8575  -1.8445  -1.8204  -1.8064  -1.7116
    -1.6778  -1.6618  -1.6070  -1.5772  -1.5594  -1.5430  -1.5217  -1.5181
    -1.5043  -1.4920  -1.4164  -1.3961  -1.3840  -1.3656  -1.3338  -1.2840
    -1.2523  -1.1574  -0.9771  -0.9449  -0.9051  -0.9025  -0.8430  -0.7927
    -0.7548  -0.7230  -0.6875  -0.6595  -0.6393  -0.5802  -0.5541  -0.5471
    -0.5050  -0.4990  -0.4836  -0.4803  -0.4672  -0.4434  -0.4314  -0.3893
    -0.3466  -0.3260  -0.3170  -0.3139  -0.3038  -0.2800  -0.2618  -0.2474
    -0.2373  -0.2287  -0.2235  -0.2172  -0.2158  -0.2141  -0.1935  -0.1665
    -0.1426  -0.1306  -0.1187  -0.1082  -0.0975  -0.0791  -0.0558  -0.0367
    -0.0221  -0.0005   0.0276   0.0583   0.0883   0.1015   0.1076   0.1385
     0.2507   0.2724   0.2776   0.3294   0.3655   0.3674   0.4005   0.4213
     0.4249   0.4362   0.4520   0.4571   0.5997   0.6758   0.7222   0.7761
     0.7846   0.8004   0.8129   0.8235   0.8758   0.8892   0.9281   0.9616
     1.0092   1.0220   1.0343   1.0829   1.0974   1.1174   1.1419   1.1785
     1.2025   1.2221   1.2507   1.2620   1.2717   1.2878   1.3233   1.3323
     1.3492   1.3752   1.4046   1.4189   1.4396   1.4497   1.4716   1.4820
     1.5147   1.5282   1.5320   1.5344   1.5570   1.6068   1.6137   1.6188
     1.6297   1.6510   1.6546   1.6868   1.6906   1.7066   1.7092   1.7153
     1.7306   1.7770   1.7827   1.7968   1.8006   1.8094   1.8217   1.8337
     1.8545   1.8585   1.8676   1.8963   1.9524   1.9698   1.9742   2.0299
     2.0531   2.1034

          k = 0.0000 0.4619 0.0000 ( 51204 PWs)   bands (ev):

   -21.8659  -9.3865  -7.2158  -6.5381  -6.1135  -5.8024  -5.6377  -5.4006
    -5.2033  -5.1489  -5.0311  -4.2688  -4.1021  -4.0183  -3.7161  -3.4625
    -3.4535  -3.3667  -3.3192  -3.1587  -3.0663  -3.0122  -2.9769  -2.8604
    -2.8537  -2.7868  -2.7463  -2.7131  -2.6461  -2.6173  -2.5989  -2.5569
    -2.5325  -2.4220  -2.3309  -2.3154  -2.2427  -2.2230  -2.1247  -2.1197
    -2.1072  -2.0923  -2.0649  -1.8400  -1.8119  -1.8029  -1.7689  -1.7430
    -1.6072  -1.5930  -1.5815  -1.5645  -1.5577  -1.5300  -1.5275  -1.5074
    -1.4914  -1.4205  -1.4124  -1.3918  -1.3702  -1.3580  -1.2077  -1.1818
    -1.0818  -1.0404  -0.9605  -0.9421  -0.9315  -0.8941  -0.8700  -0.8607
    -0.8463  -0.8203  -0.8057  -0.7714  -0.7279  -0.6964  -0.6790  -0.6504
    -0.6205  -0.6120  -0.5798  -0.5694  -0.5324  -0.5120  -0.4707  -0.4054
    -0.3968  -0.3805  -0.3560  -0.3333  -0.3020  -0.2875  -0.2631  -0.2478
    -0.2108  -0.2083  -0.1931  -0.1726  -0.1626  -0.1585  -0.1400  -0.1204
    -0.1021  -0.0836  -0.0750  -0.0612  -0.0527  -0.0467  -0.0332  -0.0136
     0.0008   0.0283   0.0679   0.1158   0.1413   0.1486   0.1631   0.2039
     0.2120   0.2221   0.2367   0.2821   0.2986   0.3165   0.3359   0.3407
     0.3927   0.3973   0.4068   0.4271   0.4627   0.5375   0.5926   0.6025
     0.6575   0.6848   0.7019   0.7676   0.8067   0.8515   0.8741   0.8875
     0.9108   0.9303   0.9502   0.9700   0.9892   1.0724   1.1409   1.1719
     1.1827   1.1948   1.2403   1.2564   1.2906   1.3075   1.3250   1.3458
     1.3741   1.3908   1.3945   1.4565   1.4774   1.4869   1.5291   1.5374
     1.5485   1.5538   1.5805   1.5888   1.6115   1.6255   1.6350   1.6622
     1.6706   1.7202   1.7553   1.7673   1.7817   1.7982   1.8058   1.8319
     1.8358   1.8577   1.8646   1.8760   1.8966   1.9004   1.9090   1.9146
     1.9561   2.0131   2.0327   2.1229   2.1374   2.2161   2.5509   2.6090
     2.6542   2.6878

          k = 0.2000-0.1155 0.0000 ( 51134 PWs)   bands (ev):

   -21.8659  -9.4018  -7.6396  -6.3853  -5.8415  -5.6865  -5.5630  -5.3902
    -4.9935  -4.9720  -4.5343  -4.4018  -4.0852  -4.0736  -4.0060  -3.9307
    -3.7945  -3.6897  -3.4501  -3.3935  -3.3354  -3.2313  -2.9484  -2.7936
    -2.7722  -2.7368  -2.6783  -2.5958  -2.4435  -2.3751  -2.3685  -2.3565
    -2.3277  -2.2987  -2.2860  -2.2808  -2.2329  -2.2086  -2.1054  -2.1009
    -2.0157  -2.0124  -1.9708  -1.8580  -1.8442  -1.8204  -1.8051  -1.7113
    -1.6781  -1.6622  -1.6070  -1.5772  -1.5592  -1.5428  -1.5221  -1.5181
    -1.5038  -1.4918  -1.4168  -1.3961  -1.3838  -1.3652  -1.3341  -1.2848
    -1.2520  -1.1577  -0.9770  -0.9447  -0.9053  -0.9026  -0.8427  -0.7925
    -0.7561  -0.7227  -0.6877  -0.6593  -0.6392  -0.5806  -0.5538  -0.5467
    -0.5049  -0.4992  -0.4834  -0.4798  -0.4672  -0.4438  -0.4328  -0.3896
    -0.3445  -0.3263  -0.3169  -0.3143  -0.3037  -0.2792  -0.2620  -0.2477
    -0.2375  -0.2285  -0.2234  -0.2171  -0.2159  -0.2140  -0.1936  -0.1666
    -0.1423  -0.1303  -0.1187  -0.1080  -0.0980  -0.0798  -0.0557  -0.0369
    -0.0215  -0.0004   0.0280   0.0587   0.0881   0.1018   0.1075   0.1385
     0.2507   0.2723   0.2778   0.3291   0.3650   0.3674   0.4001   0.4211
     0.4245   0.4363   0.4523   0.4570   0.5992   0.6774   0.7214   0.7759
     0.7844   0.8005   0.8130   0.8233   0.8748   0.8888   0.9278   0.9617
     1.0087   1.0231   1.0342   1.0833   1.0979   1.1180   1.1419   1.1777
     1.2025   1.2214   1.2511   1.2620   1.2716   1.2882   1.3233   1.3325
     1.3493   1.3747   1.4042   1.4191   1.4400   1.4497   1.4721   1.4823
     1.5149   1.5281   1.5323   1.5344   1.5567   1.6065   1.6136   1.6187
     1.6295   1.6510   1.6546   1.6869   1.6906   1.7065   1.7093   1.7155
     1.7305   1.7770   1.7827   1.7969   1.8006   1.8095   1.8221   1.8337
     1.8543   1.8585   1.8675   1.8960   1.9523   1.9698   1.9744   2.0300
     2.0530   2.1026

          k = 0.2000 0.1155 0.0000 ( 51134 PWs)   bands (ev):

   -21.8659  -9.4011  -7.6404  -6.3896  -5.8761  -5.6574  -5.4849  -5.4628
    -4.9890  -4.9742  -4.5560  -4.3494  -4.0873  -4.0745  -4.0179  -3.9609
    -3.7869  -3.6866  -3.4584  -3.3986  -3.3066  -3.2065  -2.9776  -2.8186
    -2.7608  -2.7131  -2.7103  -2.5652  -2.4582  -2.3760  -2.3686  -2.3511
    -2.3347  -2.3049  -2.2858  -2.2803  -2.2433  -2.1930  -2.1057  -2.1002
    -2.0185  -2.0134  -1.9565  -1.8598  -1.8392  -1.8161  -1.8143  -1.6967
    -1.6780  -1.6715  -1.5982  -1.5884  -1.5689  -1.5372  -1.5191  -1.5157
    -1.5146  -1.4475  -1.4387  -1.4031  -1.3783  -1.3678  -1.3313  -1.2991
    -1.2423  -1.1605  -0.9804  -0.9483  -0.9055  -0.8933  -0.8277  -0.8106
    -0.7812  -0.6977  -0.6770  -0.6747  -0.6501  -0.5818  -0.5625  -0.5357
    -0.5105  -0.4966  -0.4888  -0.4718  -0.4714  -0.4433  -0.4421  -0.3846
    -0.3345  -0.3291  -0.3184  -0.3121  -0.3062  -0.2729  -0.2616  -0.2432
    -0.2395  -0.2274  -0.2258  -0.2214  -0.2170  -0.2151  -0.1792  -0.1692
    -0.1457  -0.1326  -0.1148  -0.1138  -0.0984  -0.0742  -0.0548  -0.0472
    -0.0171  -0.0047   0.0490   0.0668   0.0799   0.0846   0.1062   0.1387
     0.2201   0.2889   0.2996   0.3256   0.3570   0.3762   0.3837   0.4126
     0.4259   0.4419   0.4545   0.4560   0.6379   0.6757   0.6988   0.7699
     0.7889   0.7925   0.8203   0.8314   0.8652   0.8953   0.9095   0.9529
     0.9718   1.0367   1.0559   1.0837   1.0931   1.1303   1.1453   1.1563
     1.1948   1.2411   1.2559   1.2688   1.2759   1.2906   1.3246   1.3302
     1.3473   1.3812   1.4052   1.4326   1.4373   1.4524   1.4723   1.4837
     1.4999   1.5268   1.5329   1.5430   1.5490   1.6011   1.6054   1.6174
     1.6324   1.6487   1.6608   1.6895   1.6966   1.7026   1.7108   1.7149
     1.7318   1.7768   1.7845   1.7976   1.7983   1.8108   1.8183   1.8320
     1.8567   1.8633   1.8656   1.8743   1.9507   1.9676   1.9759   2.0207
     2.0582   2.1018

          k = 0.2000 0.3464 0.0000 ( 51202 PWs)   bands (ev):

   -21.8659  -9.3885  -7.3574  -6.2103  -6.0889  -6.0048  -5.6736  -5.5367
    -5.4103  -4.7429  -4.6241  -4.2857  -4.2530  -4.2340  -3.7077  -3.4393
    -3.4244  -3.4230  -3.3981  -3.2651  -3.1633  -3.1299  -3.1023  -2.8883
    -2.7567  -2.6798  -2.6753  -2.6599  -2.5885  -2.5633  -2.5432  -2.4744
    -2.4660  -2.4539  -2.4240  -2.3374  -2.3109  -2.2499  -2.0892  -2.0769
    -2.0456  -1.9992  -1.9729  -1.9474  -1.9358  -1.7948  -1.7435  -1.7260
    -1.6381  -1.6100  -1.5640  -1.5601  -1.5479  -1.5378  -1.5198  -1.5037
    -1.4810  -1.4745  -1.4179  -1.3831  -1.3400  -1.3000  -1.2061  -1.1669
    -1.1055  -1.0727  -0.9894  -0.9645  -0.9014  -0.8736  -0.8577  -0.8311
    -0.8071  -0.7778  -0.7657  -0.7312  -0.7048  -0.6879  -0.6751  -0.6480
    -0.6320  -0.6099  -0.5953  -0.5675  -0.5599  -0.4784  -0.4304  -0.4154
    -0.4055  -0.3861  -0.3590  -0.3465  -0.3229  -0.2990  -0.2851  -0.2714
    -0.2577  -0.2377  -0.2310  -0.2101  -0.1998  -0.1794  -0.1642  -0.1340
    -0.1247  -0.1111  -0.0990  -0.0881  -0.0773  -0.0698  -0.0539  -0.0406
     0.0113   0.0412   0.0493   0.0655   0.1579   0.1764   0.1983   0.2257
     0.2479   0.2765   0.2931   0.3018   0.3361   0.3685   0.3776   0.3858
     0.3946   0.4213   0.4613   0.4717   0.5326   0.5975   0.6347   0.6798
     0.7343   0.7637   0.8032   0.8297   0.8392   0.8504   0.8602   0.8831
     0.8966   0.9130   0.9231   0.9430   0.9801   1.0338   1.0674   1.1016
     1.1191   1.1416   1.1669   1.1848   1.1934   1.2481   1.2544   1.2999
     1.3427   1.4080   1.4387   1.4856   1.5066   1.5195   1.5378   1.5501
     1.5606   1.5694   1.5937   1.6016   1.6526   1.6699   1.6758   1.6812
     1.6965   1.7271   1.7343   1.7469   1.7527   1.7757   1.7851   1.8082
     1.8127   1.8216   1.8299   1.8437   1.8566   1.8734   1.9082   1.9397
     1.9537   1.9732   2.0454   2.0794   2.1834   2.2223   2.3171   2.4910
     2.5317   2.5453

          k = 0.2000-0.5774 0.0000 ( 51262 PWs)   bands (ev):

   -21.8659  -9.3816  -6.8230  -6.7815  -6.1768  -5.9741  -5.7611  -5.5628
    -5.2499  -5.1856  -4.7395  -4.3212  -4.0449  -3.7511  -3.4849  -3.4595
    -3.4483  -3.3371  -3.2120  -3.1213  -3.0477  -3.0384  -3.0192  -2.9071
    -2.9005  -2.8832  -2.8653  -2.8535  -2.7306  -2.6324  -2.5248  -2.5071
    -2.4908  -2.4542  -2.4406  -2.4204  -2.3753  -2.3081  -2.2292  -2.0756
    -1.9781  -1.9630  -1.9527  -1.9369  -1.8771  -1.8005  -1.7280  -1.7183
    -1.6817  -1.6649  -1.6614  -1.5624  -1.5141  -1.4983  -1.4920  -1.4748
    -1.4409  -1.3777  -1.3458  -1.3297  -1.2790  -1.2615  -1.2428  -1.1416
    -1.0970  -1.0218  -0.9657  -0.9477  -0.9421  -0.8841  -0.8703  -0.8316
    -0.8214  -0.8108  -0.7829  -0.7527  -0.7374  -0.6933  -0.6723  -0.6560
    -0.6446  -0.6212  -0.6068  -0.5951  -0.5800  -0.5788  -0.5406  -0.5134
    -0.5090  -0.4709  -0.4484  -0.4279  -0.3955  -0.3732  -0.3406  -0.2939
    -0.2676  -0.2359  -0.2249  -0.2085  -0.1759  -0.1676  -0.1560  -0.1343
    -0.0981  -0.0739  -0.0622  -0.0456  -0.0255  -0.0152   0.0319   0.0742
     0.1000   0.1197   0.1286   0.1361   0.1596   0.1733   0.2045   0.2225
     0.2421   0.2474   0.3020   0.3196   0.3430   0.3561   0.3810   0.4050
     0.4156   0.4321   0.4508   0.4736   0.4861   0.5027   0.5185   0.5628
     0.6041   0.6563   0.7104   0.7359   0.7753   0.7993   0.8302   0.8403
     0.8580   0.8747   0.8885   0.9484   0.9822   1.0335   1.0471   1.0688
     1.0937   1.1011   1.1530   1.1760   1.1963   1.2161   1.2431   1.2886
     1.3658   1.4135   1.4557   1.4586   1.5107   1.5458   1.5753   1.5860
     1.6000   1.6085   1.6200   1.6302   1.6579   1.6784   1.6875   1.6983
     1.7390   1.7599   1.7682   1.7794   1.7852   1.7878   1.7987   1.8024
     1.8195   1.8559   1.8650   1.8886   1.8965   1.9141   1.9208   1.9429
     2.0024   2.0751   2.2044   2.3190   2.4373   2.6450   2.7300   2.8010
     2.8364   2.9161

          k = 0.2000-0.3464 0.0000 ( 51202 PWs)   bands (ev):

   -21.8659  -9.3897  -7.3550  -6.2084  -6.0486  -6.0235  -5.6680  -5.5989
    -5.3807  -4.7380  -4.6104  -4.3248  -4.2566  -4.2212  -3.6858  -3.4409
    -3.4297  -3.4221  -3.4009  -3.2945  -3.1490  -3.1362  -3.1009  -2.8750
    -2.7547  -2.6918  -2.6759  -2.6287  -2.5856  -2.5704  -2.5584  -2.4779
    -2.4686  -2.4553  -2.4233  -2.3252  -2.2923  -2.2493  -2.0837  -2.0813
    -2.0619  -2.0108  -1.9800  -1.9485  -1.9276  -1.7905  -1.7458  -1.7272
    -1.6503  -1.5920  -1.5694  -1.5650  -1.5493  -1.5332  -1.5262  -1.5058
    -1.4974  -1.4664  -1.4253  -1.3954  -1.3468  -1.2885  -1.1931  -1.1687
    -1.1095  -1.0735  -0.9945  -0.9335  -0.8921  -0.8717  -0.8610  -0.8225
    -0.8073  -0.7850  -0.7520  -0.7353  -0.7106  -0.6837  -0.6719  -0.6547
    -0.6294  -0.6202  -0.5958  -0.5853  -0.5343  -0.4813  -0.4363  -0.4204
[...]
     atom    8 type  1   force =    -0.00006763   -0.00144529   -0.10488965
     atom    9 type  1   force =    -0.00103006    0.00065312   -0.10559976
     atom   10 type  1   force =    -0.00029138   -0.00011041   -0.01533225
     atom   11 type  1   force =     0.00122182   -0.00204101   -0.00838553
     atom   12 type  1   force =    -0.00098030    0.00048304   -0.01026185
     atom   13 type  1   force =    -0.00117618    0.00204822   -0.00834959
     atom   14 type  1   force =     0.00098193    0.00056500   -0.00569564
     atom   15 type  1   force =    -0.00015306    0.00096132   -0.00977988
     atom   16 type  1   force =    -0.00007754   -0.00110417   -0.01033523
     atom   17 type  1   force =     0.00073642   -0.00066758   -0.00981972
     atom   18 type  1   force =    -0.00085337   -0.00048528   -0.01180258
     atom   19 type  1   force =    -0.00380832   -0.00379845    0.00485431
     atom   20 type  1   force =    -0.00726625   -0.00431544   -0.00198409
     atom   21 type  1   force =     0.01311012   -0.00829778   -0.00347317
     atom   22 type  1   force =     0.00053673    0.00423106    0.00746332
     atom   23 type  1   force =    -0.00054985    0.01553501   -0.00352671
     atom   24 type  1   force =    -0.00028395   -0.00006001    0.01309087
     atom   25 type  1   force =    -0.00023454   -0.00012725    0.01705665
     atom   26 type  1   force =    -0.00518472   -0.00150363    0.00519155
     atom   27 type  1   force =     0.00389376   -0.00166686    0.00736637
     atom   28 type  1   force =     0.00486516    0.00276521    0.12407684
     atom   29 type  1   force =    -0.00244904    0.04524291    0.11767189
     atom   30 type  1   force =    -0.00224358    0.00900008    0.13350916
     atom   31 type  1   force =     0.03838250   -0.02493599    0.11814569
     atom   32 type  1   force =    -0.06873804   -0.03953372    0.03833048
     atom   33 type  1   force =    -0.01179969    0.00574762    0.12393169
     atom   34 type  1   force =     0.00568930   -0.00614347    0.13272032
     atom   35 type  1   force =    -0.00034000   -0.01381558    0.12505780
     atom   36 type  1   force =    -0.00050415   -0.00024972    0.10748571
     atom   37 type  2   force =    -0.07149087   -0.04119129    0.38014001
     atom   38 type  3   force =     0.48839231    0.26617376   -2.62372023
     atom   39 type  4   force =    -0.00840145   -0.00454542   -0.02597336
     The ionic contribution  to forces
     atom    1 type  1   force =    -0.00810093   -0.00039064 -111.16694938
     atom    2 type  1   force =    -0.00119959   -0.00074738 -111.18566327
     atom    3 type  1   force =     0.00930055   -0.00134286 -111.16935276
     atom    4 type  1   force =    -0.00494621    0.00817322 -111.16651581
     atom    5 type  1   force =     0.00353435    0.00876271 -111.16933550
     atom    6 type  1   force =     0.00141182    0.00087849 -111.15952783
     atom    7 type  1   force =    -0.00020800   -0.00012971 -111.15782885
     atom    8 type  1   force =    -0.00434179   -0.00685654 -111.16683987
     atom    9 type  1   force =     0.00454979   -0.00834729 -111.16642111
     atom   10 type  1   force =    -0.04595419   -0.02688732  -40.10349973
     atom   11 type  1   force =    -0.00210119   -0.07306986  -40.20129108
     atom   12 type  1   force =     0.04805638   -0.03719372  -40.10759342
     atom   13 type  1   force =    -0.06403782    0.03442310  -40.20212319
     atom   14 type  1   force =     0.05355193    0.03081991  -40.22313824
     atom   15 type  1   force =     0.01047797    0.00917822  -40.09703496
     atom   16 type  1   force =    -0.00785385    0.06050318  -40.10776038
     atom   17 type  1   force =     0.01325876    0.00488131  -40.09641468
     atom   18 type  1   force =    -0.00540062   -0.00265611  -40.08079687
     atom   19 type  1   force =    -0.40166918   -0.01525516   31.39251365
     atom   20 type  1   force =    -0.05887819   -0.03741344   30.32845398
     atom   21 type  1   force =     0.46144970   -0.07852057   31.27092377
     atom   22 type  1   force =    -0.23870102    0.39677111   31.41355471
     atom   23 type  1   force =     0.16526579    0.44075281   31.27301736
     atom   24 type  1   force =     0.07220059    0.04462901   31.69837968
     atom   25 type  1   force =    -0.00969577   -0.00612005   31.77570834
     atom   26 type  1   force =    -0.21162050   -0.34171433   31.39735487
     atom   27 type  1   force =     0.22135294   -0.40348194   31.41848383
     atom   28 type  1   force =    -1.60799468   -0.93946849  103.93653884
     atom   29 type  1   force =     0.00630633   -4.89487818   99.84849158
     atom   30 type  1   force =     1.60424401   -1.23165924  103.97976373
     atom   31 type  1   force =    -4.25587934    2.44490384   99.77965498
     atom   32 type  1   force =     3.28505940    1.90912959   98.40309158
     atom   33 type  1   force =     0.59174239    0.14658726  104.09928735
     atom   34 type  1   force =    -0.24614549    2.01782317  103.97388745
     atom   35 type  1   force =     0.41382754    0.43736382  104.12375542
     atom   36 type  1   force =    -0.12701412   -0.05732513  104.50323503
     atom   37 type  2   force =     1.25866163    0.67208470   51.47272904
     atom   38 type  3   force =    -1.90102481   -1.04440588   90.30904194
     atom   39 type  4   force =     0.97851540    0.54019838   15.33021978
     The local contribution  to forces
     atom    1 type  1   force =     0.00900405    0.00109595  111.27482131
     atom    2 type  1   force =     0.00392750    0.00229338  111.29879854
     atom    3 type  1   force =    -0.01256222    0.00231646  111.27874163
     atom    4 type  1   force =     0.00432548   -0.00753671  111.27381754
     atom    5 type  1   force =    -0.00430705   -0.01203844  111.27867564
     atom    6 type  1   force =     0.00049264    0.00024744  111.26464173
     atom    7 type  1   force =    -0.00061039   -0.00039239  111.26336015
     atom    8 type  1   force =     0.00543196    0.00726724  111.27461236
     atom    9 type  1   force =    -0.00437411    0.00751631  111.27382299
     atom   10 type  1   force =     0.04635904    0.02710870   40.10118387
     atom   11 type  1   force =     0.00023410    0.07315470   40.19159996
     atom   12 type  1   force =    -0.04632266    0.03659729   40.10153452
     atom   13 type  1   force =     0.06318145   -0.03605684   40.19234139
     atom   14 type  1   force =    -0.05368230   -0.03088495   40.20953892
     atom   15 type  1   force =    -0.00967195   -0.01052599   40.08660629
     atom   16 type  1   force =     0.00815470   -0.05870910   40.10178240
     atom   17 type  1   force =    -0.01402248   -0.00347926   40.08603920
     atom   18 type  1   force =     0.00653872    0.00329098   40.07141283
     atom   19 type  1   force =     0.40242333    0.01687230  -31.38007095
     atom   20 type  1   force =     0.06647799    0.04193113  -30.31665822
     atom   21 type  1   force =    -0.47338957    0.08399832  -31.25389460
     atom   22 type  1   force =     0.23957638   -0.39835329  -31.40436080
     atom   23 type  1   force =    -0.16657870   -0.45387282  -31.25587015
     atom   24 type  1   force =    -0.07106801   -0.04405237  -31.68774986
     atom   25 type  1   force =     0.00922460    0.00584771  -31.76691154
     atom   26 type  1   force =     0.21344248    0.34164162  -31.38508763
     atom   27 type  1   force =    -0.22233544    0.40502238  -31.40915868
     atom   28 type  1   force =     1.59850002    0.93393332 -104.06951952
     atom   29 type  1   force =    -0.00508571    4.82700369  -99.97107006
     atom   30 type  1   force =    -1.59521147    1.21299503 -104.12211648
     atom   31 type  1   force =     4.19665250   -2.40932415  -99.90366658
     atom   32 type  1   force =    -3.21711240   -1.86988746  -98.41695293
     atom   33 type  1   force =    -0.57954531   -0.15322063 -104.22664896
     atom   34 type  1   force =     0.23562870   -2.00096894 -104.11551373
     atom   35 type  1   force =    -0.41390129   -0.42239047 -104.25273482
     atom   36 type  1   force =     0.12890515    0.05842291 -104.62090718
     atom   37 type  2   force =    -1.18794082   -0.63132783  -51.85067123
     atom   38 type  3   force =     1.42308878    0.78358621  -87.70337720
     atom   39 type  4   force =    -0.94596770   -0.52225183  -15.31427128
     The core correction contribution to forces
     atom    1 type  1   force =    -0.00012328   -0.00001659    0.01005329
     atom    2 type  1   force =     0.00038084    0.00021924    0.00906577
     atom    3 type  1   force =    -0.00021226    0.00002393    0.01030673
     atom    4 type  1   force =     0.00002349    0.00008522    0.00996249
     atom    5 type  1   force =    -0.00007855   -0.00019354    0.01031757
     atom    6 type  1   force =     0.00022483    0.00012914    0.00984806
     atom    7 type  1   force =     0.00012486    0.00006962    0.01043759
     atom    8 type  1   force =    -0.00006426   -0.00009731    0.01005296
     atom    9 type  1   force =     0.00007711   -0.00002292    0.00996642
     atom   10 type  1   force =    -0.00021539   -0.00012359   -0.00186302
     atom   11 type  1   force =    -0.00004827   -0.00033110   -0.00193573
     atom   12 type  1   force =     0.00019502   -0.00022837   -0.00181318
     atom   13 type  1   force =    -0.00031504    0.00013311   -0.00193824
     atom   14 type  1   force =     0.00034074    0.00020058   -0.00165080
     atom   15 type  1   force =     0.00006249    0.00009509   -0.00189652
     atom   16 type  1   force =    -0.00011008    0.00028367   -0.00181504
     atom   17 type  1   force =     0.00011611    0.00001245   -0.00189787
     atom   18 type  1   force =     0.00011637    0.00006030   -0.00169987
     atom   19 type  1   force =     0.00012048   -0.00048545    0.00164564
     atom   20 type  1   force =    -0.00115811   -0.00064819    0.00046351
     atom   21 type  1   force =     0.00106430   -0.00071478    0.00055598
     atom   22 type  1   force =     0.00007768    0.00070707    0.00135850
     atom   23 type  1   force =    -0.00009995    0.00130615    0.00052605
     atom   24 type  1   force =     0.00032061    0.00018100    0.00214006
     atom   25 type  1   force =     0.00018540    0.00010439    0.00198046
     atom   26 type  1   force =    -0.00036572    0.00032536    0.00166443
     atom   27 type  1   force =     0.00065131   -0.00030328    0.00134734
     atom   28 type  1   force =     0.00187973    0.00110088   -0.00921976
     atom   29 type  1   force =     0.00080203    0.00945314   -0.00466357
     atom   30 type  1   force =    -0.00294448    0.00407052   -0.00768770
     atom   31 type  1   force =     0.00864762   -0.00404257   -0.00455693
     atom   32 type  1   force =    -0.00684215   -0.00415140   -0.00018936
     atom   33 type  1   force =    -0.00633796    0.00138065   -0.00655634
     atom   34 type  1   force =     0.00190456   -0.00456024   -0.00778709
     atom   35 type  1   force =    -0.00182746   -0.00603053   -0.00667733
     atom   36 type  1   force =    -0.00049597   -0.00030838   -0.01076296
     atom   37 type  2   force =     0.00036400    0.00032206   -0.00129452
     atom   38 type  3   force =    -0.00368125   -0.00200147    0.01938310
     atom   39 type  4   force =     0.00000000    0.00000000    0.00000000
     The Hubbard contrib.    to forces
     atom    1 type  1   force =     0.00000000    0.00000000    0.00000000
     atom    2 type  1   force =     0.00000000    0.00000000    0.00000000
     atom    3 type  1   force =     0.00000000    0.00000000    0.00000000
     atom    4 type  1   force =     0.00000000    0.00000000    0.00000000
     atom    5 type  1   force =     0.00000000    0.00000000    0.00000000
     atom    6 type  1   force =     0.00000000    0.00000000    0.00000000
     atom    7 type  1   force =     0.00000000    0.00000000    0.00000000
     atom    8 type  1   force =     0.00000000    0.00000000    0.00000000
     atom    9 type  1   force =     0.00000000    0.00000000    0.00000000
     atom   10 type  1   force =     0.00000000    0.00000000    0.00000000
     atom   11 type  1   force =     0.00000000    0.00000000    0.00000000
     atom   12 type  1   force =     0.00000000    0.00000000    0.00000000
     atom   13 type  1   force =     0.00000000    0.00000000    0.00000000
     atom   14 type  1   force =     0.00000000    0.00000000    0.00000000
     atom   15 type  1   force =     0.00000000    0.00000000    0.00000000
     atom   16 type  1   force =     0.00000000    0.00000000    0.00000000
     atom   17 type  1   force =     0.00000000    0.00000000    0.00000000
     atom   18 type  1   force =     0.00000000    0.00000000    0.00000000
     atom   19 type  1   force =     0.00000000    0.00000000    0.00000000
     atom   20 type  1   force =     0.00000000    0.00000000    0.00000000
     atom   21 type  1   force =     0.00000000    0.00000000    0.00000000
     atom   22 type  1   force =     0.00000000    0.00000000    0.00000000
     atom   23 type  1   force =     0.00000000    0.00000000    0.00000000
     atom   24 type  1   force =     0.00000000    0.00000000    0.00000000
     atom   25 type  1   force =     0.00000000    0.00000000    0.00000000
     atom   26 type  1   force =     0.00000000    0.00000000    0.00000000
     atom   27 type  1   force =     0.00000000    0.00000000    0.00000000
     atom   28 type  1   force =     0.00000000    0.00000000    0.00000000
     atom   29 type  1   force =     0.00000000    0.00000000    0.00000000
     atom   30 type  1   force =     0.00000000    0.00000000    0.00000000
     atom   31 type  1   force =     0.00000000    0.00000000    0.00000000
     atom   32 type  1   force =     0.00000000    0.00000000    0.00000000
     atom   33 type  1   force =     0.00000000    0.00000000    0.00000000
     atom   34 type  1   force =     0.00000000    0.00000000    0.00000000
     atom   35 type  1   force =     0.00000000    0.00000000    0.00000000
     atom   36 type  1   force =     0.00000000    0.00000000    0.00000000
     atom   37 type  2   force =     0.00000000    0.00000000    0.00000000
     atom   38 type  3   force =     0.00000000    0.00000000    0.00000000
     atom   39 type  4   force =     0.00000000    0.00000000    0.00000000
     The SCF correction term to forces
     atom    1 type  1   force =    -0.00000000    0.00000000    0.00000000
     atom    2 type  1   force =     0.00000000    0.00000000    0.00000000
     atom    3 type  1   force =     0.00000000    0.00000000    0.00000000
     atom    4 type  1   force =    -0.00000000    0.00000000    0.00000000
     atom    5 type  1   force =     0.00000000   -0.00000000    0.00000000
     atom    6 type  1   force =     0.00000000   -0.00000000    0.00000000
     atom    7 type  1   force =    -0.00000000    0.00000000    0.00000000
     atom    8 type  1   force =     0.00000000   -0.00000000    0.00000000
     atom    9 type  1   force =    -0.00000000   -0.00000000    0.00000000
     atom   10 type  1   force =    -0.00000000   -0.00000000    0.00000000
     atom   11 type  1   force =     0.00000000   -0.00000000    0.00000000
     atom   12 type  1   force =     0.00000000   -0.00000000    0.00000000
     atom   13 type  1   force =    -0.00000000    0.00000000    0.00000000
     atom   14 type  1   force =     0.00000000    0.00000000    0.00000000
     atom   15 type  1   force =    -0.00000000    0.00000000    0.00000000
     atom   16 type  1   force =     0.00000000    0.00000000    0.00000000
     atom   17 type  1   force =     0.00000000   -0.00000000    0.00000000
     atom   18 type  1   force =    -0.00000000    0.00000000    0.00000000
     atom   19 type  1   force =    -0.00000000   -0.00000000   -0.00000000
     atom   20 type  1   force =     0.00000000    0.00000000   -0.00000000
     atom   21 type  1   force =     0.00000000    0.00000000   -0.00000000
     atom   22 type  1   force =     0.00000000    0.00000000   -0.00000000
     atom   23 type  1   force =     0.00000000    0.00000000    0.00000000
     atom   24 type  1   force =    -0.00000000   -0.00000000   -0.00000000
     atom   25 type  1   force =     0.00000000   -0.00000000   -0.00000000
     atom   26 type  1   force =    -0.00000000   -0.00000000   -0.00000000
     atom   27 type  1   force =     0.00000000   -0.00000000   -0.00000000
     atom   28 type  1   force =    -0.00000000   -0.00000000   -0.00000000
     atom   29 type  1   force =     0.00000000   -0.00000000   -0.00000000
     atom   30 type  1   force =     0.00000000    0.00000000   -0.00000000
     atom   31 type  1   force =     0.00000000    0.00000000   -0.00000000
     atom   32 type  1   force =     0.00000000    0.00000000   -0.00000000
     atom   33 type  1   force =    -0.00000000    0.00000000   -0.00000000
     atom   34 type  1   force =     0.00000000   -0.00000000   -0.00000000
     atom   35 type  1   force =    -0.00000000   -0.00000000   -0.00000000
     atom   36 type  1   force =    -0.00000000   -0.00000000   -0.00000000
     atom   37 type  2   force =     0.00001345    0.00001021   -0.00002013
     atom   38 type  3   force =     0.00000361    0.00000342   -0.00000686
     atom   39 type  4   force =    -0.00000175   -0.00000018   -0.00000799

     Total force =     0.030381     Total SCF correction =     0.000029

     Writing all to output data dir ./pwscf.save/

     init_run     :     16.12s CPU     16.62s WALL (       1 calls)
     electrons    :    872.50s CPU    898.84s WALL (       1 calls)
     forces       :      3.55s CPU      3.65s WALL (       1 calls)

     Called by init_run:
     wfcinit      :     13.07s CPU     13.45s WALL (       1 calls)
     potinit      :      1.97s CPU      2.06s WALL (       1 calls)
     hinit0       :      0.82s CPU      0.84s WALL (       1 calls)

     Called by electrons:
     c_bands      :    741.24s CPU    764.35s WALL (      48 calls)
     sum_band     :     88.84s CPU     90.87s WALL (      48 calls)
     v_of_rho     :     11.92s CPU     12.43s WALL (      49 calls)
     newd         :      3.34s CPU      3.45s WALL (      49 calls)
     PAW_pot      :     12.44s CPU     12.61s WALL (      49 calls)
     mix_rho      :     15.73s CPU     16.00s WALL (      48 calls)
     vdW_kernel   :      1.07s CPU      1.08s WALL (       1 calls)

     Called by c_bands:
     init_us_2    :      8.67s CPU      9.23s WALL (    2548 calls)
     init_us_2:cp :      8.66s CPU      9.22s WALL (    2548 calls)
     cegterg      :    717.93s CPU    739.10s WALL (    1248 calls)

     Called by *egterg:
     cdiaghg      :    204.38s CPU    208.52s WALL (    4564 calls)
     h_psi        :    334.45s CPU    346.41s WALL (    4590 calls)
     s_psi        :     35.65s CPU     36.68s WALL (    4590 calls)
     g_psi        :      0.89s CPU      1.10s WALL (    3316 calls)

     Called by h_psi:
     h_psi:calbec :     55.73s CPU     56.74s WALL (    4590 calls)
     vloc_psi     :    240.84s CPU    250.92s WALL (    4590 calls)
     add_vuspsi   :     35.68s CPU     36.52s WALL (    4590 calls)

     General routines
     calbec       :     80.02s CPU     81.31s WALL (    5942 calls)
     fft          :      9.33s CPU      9.87s WALL (    4438 calls)
     ffts         :      9.52s CPU      9.69s WALL (   22089 calls)
     fftw         :    276.45s CPU    287.54s WALL ( 1306540 calls)
     interpolate  :      0.62s CPU      0.64s WALL (      98 calls)

     Parallel routines

     PWSCF        :  14m57.73s CPU  15m29.85s WALL


   This run was terminated on:  11:25:47  17Dec2025            

=------------------------------------------------------------------------------=
   JOB DONE.
=------------------------------------------------------------------------------=
