
     Program PWSCF v.7.1 starts on 14Dec2025 at 10:13:37 
        Git branch: heads/qe-7.1
        Last git commit: 48ba0178f8fede6d020eb786884699a9f063f55d-dirty
        Last git commit date: Fri Jan 27 14:22:33 2023 +0000
        Last git commit subject: Merge branch 'fix_hubbard' into 'develop'

     This program is part of the open-source Quantum ESPRESSO suite
     for quantum simulation of materials; please cite
         "P. Giannozzi et al., J. Phys.:Condens. Matter 21 395502 (2009);
         "P. Giannozzi et al., J. Phys.:Condens. Matter 29 465901 (2017);
         "P. Giannozzi et al., J. Chem. Phys. 152 154105 (2020);
          URL http://www.quantum-espresso.org", 
     in publications or presentations arising from this work. More details at
     http://www.quantum-espresso.org/quote

     Parallel version (MPI), running on    96 processors

     MPI processes distributed on     2 nodes
     72480 MiB available memory on the printing compute node when the environment starts

     Reading input from espresso.pwi
Warning: card &CELL ignored
Warning: card / ignored
Warning: card &FCP ignored
Warning: card / ignored
Warning: card &RISM ignored
Warning: card / ignored

     Current dimensions of program PWSCF are:
     Max number of different atomic species (ntypx) = 10
     Max number of k-points (npk) =  40000
     Max angular momentum in pseudopotentials (lmaxx) =  4
     file Co.pbe-n-kjpaw_psl.1.0.0.UPF: wavefunction(s)  4S 3D renormalized
     file C.pbe-n-kjpaw_psl.1.0.0.UPF: wavefunction(s)  2S 2P renormalized
     file O.pbe-nl-kjpaw_psl.1.0.0.UPF: wavefunction(s)  2S 2P renormalized
     file H.pbe-kjpaw_psl.1.0.0.UPF: wavefunction(s)  1S renormalized

     **************************************************************************
     Initializing libbeef V0.1.2 with the BEEF-vdW functional.
     Citation: Wellendorff et al., PRB 85, 235149 (2012).
     **************************************************************************


     IMPORTANT: XC functional enforced from input :
     Exchange-correlation= BEEF-VDW
                           (   1   4  43  14   2   0   0)
     Any further DFT definition will be discarded
     Please, verify this is what you really want


     R & G space division:  proc/nbgrp/npool/nimage =      96
     Subspace diagonalization in iterative solution of the eigenvalue problem:
     one sub-group per band group will be used
     custom distributed-memory algorithm (size of sub-group:  2*  2 procs)


     Parallelization info
     --------------------
     sticks:   dense  smooth     PW     G-vecs:    dense   smooth      PW
     Min          43      28      7                 7829     4248     595
     Max          44      29      8                 7845     4281     630
     Sum        4153    2773    757               752179   409445   59217

     Using Slab Decomposition



     bravais-lattice index     =            0
     lattice parameter (alat)  =      14.1729  a.u.
     unit-cell volume          =    8574.3059 (a.u.)^3
     number of atoms/cell      =           39
     number of atomic types    =            4
     number of electrons       =       335.00
     number of Kohn-Sham states=          202
     kinetic-energy cutoff     =      50.0000  Ry
     charge density cutoff     =     300.0000  Ry
     scf convergence threshold =      1.0E-08
     mixing beta               =       0.7000
     number of iterations used =            8  local-TF  mixing
     Exchange-correlation= BEEF-VDW
                           (   1   4  43  14   2   0   0)

     celldm(1)=  14.172946  celldm(2)=   0.000000  celldm(3)=   0.000000
     celldm(4)=   0.000000  celldm(5)=   0.000000  celldm(6)=   0.000000

     crystal axes: (cart. coord. in units of alat)
               a(1) = (   1.000000   0.000000   0.000000 )  
               a(2) = (   0.500000   0.866025   0.000000 )  
               a(3) = (   0.000000   0.000000   3.477667 )  

     reciprocal axes: (cart. coord. in units 2 pi/alat)
               b(1) = (  1.000000 -0.577350  0.000000 )  
               b(2) = (  0.000000  1.154701  0.000000 )  
               b(3) = (  0.000000  0.000000  0.287549 )  


     PseudoPot. # 1 for Co read from file:
     /users/kbadger1/espresso/pseudo/pslibrary.1.0.0/pbe/PSEUDOPOTENTIALS/Co.pbe-n-kjpaw_psl.1.0.0.UPF
     MD5 check sum: 88af6ec42553d4236c267fdfcb472151
     Pseudo is Projector augmented-wave + core cor, Zval =  9.0
     Generated using 'atomic' code by A. Dal Corso  v.7.0
     Shape of augmentation charge: PSQ
     Using radial grid of 1193 points,  6 beta functions with: 
                l(1) =   0
                l(2) =   0
                l(3) =   1
                l(4) =   1
                l(5) =   2
                l(6) =   2
     Q(r) pseudized with 0 coefficients 


     PseudoPot. # 2 for C  read from file:
     /users/kbadger1/espresso/pseudo/pslibrary.1.0.0/pbe/PSEUDOPOTENTIALS/C.pbe-n-kjpaw_psl.1.0.0.UPF
     MD5 check sum: 6408e75cdba28732cea38a4db8498ce4
     Pseudo is Projector augmented-wave + core cor, Zval =  4.0
     Generated using 'atomic' code by A. Dal Corso  v.7.0
     Shape of augmentation charge: PSQ
     Using radial grid of 1073 points,  4 beta functions with: 
                l(1) =   0
                l(2) =   0
                l(3) =   1
                l(4) =   1
     Q(r) pseudized with 0 coefficients 


     PseudoPot. # 3 for O  read from file:
     /users/kbadger1/espresso/pseudo/pslibrary.1.0.0/pbe/PSEUDOPOTENTIALS/O.pbe-nl-kjpaw_psl.1.0.0.UPF
     MD5 check sum: f0439fab3598ca4e468f064226030408
     Pseudo is Projector augmented-wave + core cor, Zval =  6.0
     Generated using 'atomic' code by A. Dal Corso  v.7.0
     Shape of augmentation charge: PSQ
     Using radial grid of 1095 points,  4 beta functions with: 
                l(1) =   0
                l(2) =   0
                l(3) =   1
                l(4) =   1
     Q(r) pseudized with 0 coefficients 


     PseudoPot. # 4 for H  read from file:
     /users/kbadger1/espresso/pseudo/pslibrary.1.0.0/pbe/PSEUDOPOTENTIALS/H.pbe-kjpaw_psl.1.0.0.UPF
     MD5 check sum: fe4c6fa958fa6d3815bf5d2419cbf1df
     Pseudo is Projector augmented-wave, Zval =  1.0
     Generated using 'atomic' code by A. Dal Corso  v.7.0
     Shape of augmentation charge: PSQ
     Using radial grid of  929 points,  2 beta functions with: 
                l(1) =   0
                l(2) =   0
     Q(r) pseudized with 0 coefficients 


     atomic species   valence    mass     pseudopotential
        Co             9.00    58.93319     Co( 1.00)
        C              4.00    12.00000     C ( 1.00)
        O              6.00    15.99491     O ( 1.00)
        H              1.00     1.00783     H ( 1.00)

     Starting magnetic structure 
     atomic species   magnetization
        Co           1.000
        C            1.000
        O            0.000
        H            0.000

     No symmetry found



   Cartesian axes

     site n.     atom                  positions (alat units)
         1           Co  tau(   1) = (   0.0000000   0.1924501   1.3333333  )
         2           Co  tau(   2) = (   0.3333333   0.1924501   1.3333333  )
         3           Co  tau(   3) = (   0.6666667   0.1924501   1.3333333  )
         4           Co  tau(   4) = (   0.1666667   0.4811252   1.3333333  )
         5           Co  tau(   5) = (   0.5000000   0.4811252   1.3333333  )
         6           Co  tau(   6) = (   0.8333333   0.4811252   1.3333333  )
         7           Co  tau(   7) = (   0.3333333   0.7698004   1.3333333  )
         8           Co  tau(   8) = (   0.6666667   0.7698004   1.3333333  )
         9           Co  tau(   9) = (   1.0000000   0.7698004   1.3333333  )
        10           Co  tau(  10) = (   0.0000000   0.0000000   1.6036667  )
        11           Co  tau(  11) = (   0.3333333   0.0000000   1.6036667  )
        12           Co  tau(  12) = (   0.6666667   0.0000000   1.6036667  )
        13           Co  tau(  13) = (   0.1666667   0.2886751   1.6036667  )
        14           Co  tau(  14) = (   0.5000000   0.2886751   1.6036667  )
        15           Co  tau(  15) = (   0.8333333   0.2886751   1.6036667  )
        16           Co  tau(  16) = (   0.3333333   0.5773503   1.6036667  )
        17           Co  tau(  17) = (   0.6666667   0.5773503   1.6036667  )
        18           Co  tau(  18) = (   1.0000000   0.5773503   1.6036667  )
        19           Co  tau(  19) = (   0.0000000   0.1924501   1.8740000  )
        20           Co  tau(  20) = (   0.3333333   0.1924501   1.8740000  )
        21           Co  tau(  21) = (   0.6666667   0.1924501   1.8740000  )
        22           Co  tau(  22) = (   0.1666667   0.4811252   1.8740000  )
        23           Co  tau(  23) = (   0.5000000   0.4811252   1.8740000  )
        24           Co  tau(  24) = (   0.8333333   0.4811252   1.8740000  )
        25           Co  tau(  25) = (   0.3333333   0.7698004   1.8740000  )
        26           Co  tau(  26) = (   0.6666667   0.7698004   1.8740000  )
        27           Co  tau(  27) = (   1.0000000   0.7698004   1.8740000  )
        28           Co  tau(  28) = (   0.0000000   0.0000000   2.1443333  )
        29           Co  tau(  29) = (   0.3333333   0.0000000   2.1443333  )
        30           Co  tau(  30) = (   0.6666667   0.0000000   2.1443333  )
        31           Co  tau(  31) = (   0.1666667   0.2886751   2.1443333  )
        32           Co  tau(  32) = (   0.5000000   0.2886751   2.1443333  )
        33           Co  tau(  33) = (   0.8333333   0.2886751   2.1443333  )
        34           Co  tau(  34) = (   0.3333333   0.5773503   2.1443333  )
        35           Co  tau(  35) = (   0.6666667   0.5773503   2.1443333  )
        36           Co  tau(  36) = (   1.0000000   0.5773503   2.1443333  )
        37           C   tau(  37) = (   0.3390180   0.1958776   2.3254524  )
        38           O   tau(  38) = (   0.3248771   0.1878345   2.4838525  )
        39           H   tau(  39) = (   0.6518804   0.3761100   2.2809133  )

     number of k points=    13  Marzari-Vanderbilt smearing, width (Ry)=  0.0010
                       cart. coord. in units 2pi/alat
        k(    1) = (   0.0000000   0.0000000   0.0000000), wk =   0.0400000
        k(    2) = (   0.0000000   0.2309401   0.0000000), wk =   0.0800000
        k(    3) = (   0.0000000   0.4618802   0.0000000), wk =   0.0800000
        k(    4) = (   0.2000000  -0.1154701   0.0000000), wk =   0.0800000
        k(    5) = (   0.2000000   0.1154701   0.0000000), wk =   0.0800000
        k(    6) = (   0.2000000   0.3464102   0.0000000), wk =   0.0800000
        k(    7) = (   0.2000000  -0.5773503   0.0000000), wk =   0.0800000
        k(    8) = (   0.2000000  -0.3464102   0.0000000), wk =   0.0800000
        k(    9) = (   0.4000000  -0.2309401   0.0000000), wk =   0.0800000
        k(   10) = (   0.4000000   0.0000000   0.0000000), wk =   0.0800000
        k(   11) = (   0.4000000   0.2309401   0.0000000), wk =   0.0800000
        k(   12) = (   0.4000000  -0.6928203   0.0000000), wk =   0.0800000
        k(   13) = (   0.4000000  -0.4618802   0.0000000), wk =   0.0800000

     Dense  grid:   752179 G-vectors     FFT dimensions: (  80,  80, 288)

     Smooth grid:   409445 G-vectors     FFT dimensions: (  64,  64, 225)

     Estimated max dynamical RAM per process >      99.02 MB

     Estimated total dynamical RAM >       9.28 GB
     Generating pointlists ...
     new r_m :   0.0917 (alat units)  1.2990 (a.u.) for type    1
     new r_m :   0.0657 (alat units)  0.9309 (a.u.) for type    2
     new r_m :   0.0657 (alat units)  0.9309 (a.u.) for type    3
     new r_m :   0.0917 (alat units)  1.2990 (a.u.) for type    4

     Initial potential from superposition of free atoms

     starting charge     334.9897, renormalised to     335.0000

     negative rho (up, down):  3.057E-03 4.516E-04


     %%%%%%%%%%%%%%%%%%%%%%%%%%%%%%%%%%%%%%%%%%%%%%%%%%%%%%%%%%%%%%%%%%%%%%%%
     %                                                                      %
     % You are using vdW-DF, which was implemented by the Thonhauser group. %
     % Please cite the following two papers that made this development      %
     % possible and the two reviews that describe the various versions:     %
     %                                                                      %
     %   T. Thonhauser et al., PRL 115, 136402 (2015).                      %
     %   T. Thonhauser et al., PRB 76, 125112 (2007).                       %
     %   K. Berland et al., Rep. Prog. Phys. 78, 066501 (2015).             %
     %   D.C. Langreth et al., J. Phys.: Condens. Matter 21, 084203 (2009). %
     %                                                                      %
     % If you are calculating stress with vdW-DF, please also cite:         %
     %                                                                      %
     %   R. Sabatini et al., J. Phys.: Condens. Matter 24, 424209 (2012).   %
     %   C.M. Frostenson et al., Electr. Struct. 4, 014001 (2022).          %
     %                                                                      %
     %%%%%%%%%%%%%%%%%%%%%%%%%%%%%%%%%%%%%%%%%%%%%%%%%%%%%%%%%%%%%%%%%%%%%%%%

     %%%%%%%%%%%%%%%%%%%%%%%%%%%%%%%%%%%%%%%%%%%%%%%%%%%%%%%%%%%%%%%%%%%%%%%%
     %                                                                      %
     %  vdW-DF NEWS:                                                        %
     %                                                                      %
     %  * vdW-DF3 is now available. DOI: 10.1021/acs.jctc.0c00471           %
     %    use with input_dft = 'vdW-DF3-opt1' or 'vdW-DF3-opt2'             %
     %                                                                      %
     %  * Unscreened and range-separated hybrid vdW-DF-cx functionals       %
     %    DOI: 10.1063/1.4986522 and 10.1088/1361-648X/ac2ad2               %
     %    use with input_dft = 'vdW-DF-cx0'    and 'vdW-DF-ahcx'            %
     %  * Unscreened and range-separated hybrid vdW-DF2-b86r functionals    %
     %    DOI: 10.1063/1.4986522 and DOI: 10.1103/PhysRevX.12.041003        %
     %    use with input_dft = 'vdW-DF2-br0' and 'vdW-DF2-ahbr'             %
     %                                                                      %
     %%%%%%%%%%%%%%%%%%%%%%%%%%%%%%%%%%%%%%%%%%%%%%%%%%%%%%%%%%%%%%%%%%%%%%%%


     Starting wfcs are  333 randomized atomic wfcs
     Checking if some PAW data can be deallocated... 

     total cpu time spent up to now is       12.1 secs

     per-process dynamical memory:   231.0 Mb

     Self-consistent Calculation

     iteration #  1     ecut=    50.00 Ry     beta= 0.70
     Davidson diagonalization with overlap
     ethr =  1.00E-02,  avg # of iterations =  2.0

     negative rho (up, down):  3.360E-05 6.674E-08

     total cpu time spent up to now is       36.2 secs

     total energy              =   -6053.13644772 Ry
     estimated scf accuracy    <      38.96091957 Ry

     total magnetization       =    69.00 Bohr mag/cell
     absolute magnetization    =    81.26 Bohr mag/cell

     iteration #  2     ecut=    50.00 Ry     beta= 0.70
     Davidson diagonalization with overlap
     ethr =  1.00E-02,  avg # of iterations =  1.0

     negative rho (up, down):  5.079E-06 2.580E-08

     total cpu time spent up to now is       50.3 secs

     total energy              =   -6052.69664273 Ry
     estimated scf accuracy    <      24.12421746 Ry

     total magnetization       =    69.00 Bohr mag/cell
     absolute magnetization    =    76.88 Bohr mag/cell

     iteration #  3     ecut=    50.00 Ry     beta= 0.70
     Davidson diagonalization with overlap
     ethr =  7.20E-03,  avg # of iterations =  1.3

     negative rho (up, down):  3.233E-08 0.000E+00

     total cpu time spent up to now is       70.6 secs

     total energy              =   -6055.19701132 Ry
     estimated scf accuracy    <      85.13204038 Ry

     total magnetization       =    66.12 Bohr mag/cell
     absolute magnetization    =    73.49 Bohr mag/cell

     iteration #  4     ecut=    50.00 Ry     beta= 0.70
     Davidson diagonalization with overlap
     ethr =  7.20E-03,  avg # of iterations =  1.0

     negative rho (up, down):  1.092E-08 0.000E+00

     total cpu time spent up to now is       88.4 secs

     total energy              =   -6056.45147818 Ry
     estimated scf accuracy    <       5.29524445 Ry

     total magnetization       =    60.23 Bohr mag/cell
     absolute magnetization    =    70.10 Bohr mag/cell

     iteration #  5     ecut=    50.00 Ry     beta= 0.70
     Davidson diagonalization with overlap
     ethr =  1.58E-03,  avg # of iterations =  1.2

     total cpu time spent up to now is      104.8 secs

     total energy              =   -6056.45237479 Ry
     estimated scf accuracy    <       2.12948124 Ry

     total magnetization       =    60.33 Bohr mag/cell
     absolute magnetization    =    69.73 Bohr mag/cell

     iteration #  6     ecut=    50.00 Ry     beta= 0.70
     Davidson diagonalization with overlap
     ethr =  6.36E-04,  avg # of iterations =  2.0

     total cpu time spent up to now is      123.6 secs

     total energy              =   -6056.55845745 Ry
     estimated scf accuracy    <       0.73690900 Ry

     total magnetization       =    59.91 Bohr mag/cell
     absolute magnetization    =    69.03 Bohr mag/cell

     iteration #  7     ecut=    50.00 Ry     beta= 0.70
     Davidson diagonalization with overlap
     ethr =  2.20E-04,  avg # of iterations =  4.5

     total cpu time spent up to now is      147.3 secs

     total energy              =   -6056.58733099 Ry
     estimated scf accuracy    <       0.61056501 Ry

     total magnetization       =    60.05 Bohr mag/cell
     absolute magnetization    =    68.81 Bohr mag/cell

     iteration #  8     ecut=    50.00 Ry     beta= 0.70
     Davidson diagonalization with overlap
     ethr =  1.82E-04,  avg # of iterations =  1.4

     total cpu time spent up to now is      161.1 secs

     total energy              =   -6056.61074956 Ry
     estimated scf accuracy    <       0.13431912 Ry

     total magnetization       =    60.11 Bohr mag/cell
     absolute magnetization    =    68.72 Bohr mag/cell

     iteration #  9     ecut=    50.00 Ry     beta= 0.70
     Davidson diagonalization with overlap
     c_bands:  2 eigenvalues not converged
     ethr =  4.01E-05,  avg # of iterations =  9.0

     total cpu time spent up to now is      191.4 secs

     total energy              =   -6056.61809596 Ry
     estimated scf accuracy    <       0.13485289 Ry

     total magnetization       =    60.30 Bohr mag/cell
     absolute magnetization    =    68.51 Bohr mag/cell

     iteration # 10     ecut=    50.00 Ry     beta= 0.70
     Davidson diagonalization with overlap
     ethr =  4.01E-05,  avg # of iterations =  2.1

     total cpu time spent up to now is      212.2 secs

     total energy              =   -6056.62250938 Ry
     estimated scf accuracy    <       0.14572055 Ry

     total magnetization       =    60.54 Bohr mag/cell
     absolute magnetization    =    68.55 Bohr mag/cell

     iteration # 11     ecut=    50.00 Ry     beta= 0.70
     Davidson diagonalization with overlap
     ethr =  4.01E-05,  avg # of iterations =  1.2

     total cpu time spent up to now is      225.0 secs

     total energy              =   -6056.61788141 Ry
     estimated scf accuracy    <       0.10093809 Ry

     total magnetization       =    60.42 Bohr mag/cell
     absolute magnetization    =    68.39 Bohr mag/cell

     iteration # 12     ecut=    50.00 Ry     beta= 0.70
     Davidson diagonalization with overlap
     ethr =  3.01E-05,  avg # of iterations =  1.9

     negative rho (up, down):  1.382E-08 0.000E+00

     total cpu time spent up to now is      244.0 secs

     total energy              =   -6056.61874002 Ry
     estimated scf accuracy    <       0.07754728 Ry

     total magnetization       =    60.35 Bohr mag/cell
     absolute magnetization    =    68.22 Bohr mag/cell

     iteration # 13     ecut=    50.00 Ry     beta= 0.70
     Davidson diagonalization with overlap
     ethr =  2.31E-05,  avg # of iterations =  1.4

     total cpu time spent up to now is      257.3 secs

     total energy              =   -6056.62022322 Ry
     estimated scf accuracy    <       0.10600925 Ry

     total magnetization       =    60.40 Bohr mag/cell
     absolute magnetization    =    68.21 Bohr mag/cell

     iteration # 14     ecut=    50.00 Ry     beta= 0.70
     Davidson diagonalization with overlap
     ethr =  2.31E-05,  avg # of iterations =  1.2

     negative rho (up, down):  4.025E-03 2.994E-03

     total cpu time spent up to now is      276.6 secs

     total energy              =   -6056.61338602 Ry
     estimated scf accuracy    <       0.07265487 Ry

     total magnetization       =    60.40 Bohr mag/cell
     absolute magnetization    =    68.19 Bohr mag/cell

     iteration # 15     ecut=    50.00 Ry     beta= 0.70
     Davidson diagonalization with overlap
     ethr =  2.17E-05,  avg # of iterations =  1.3

     negative rho (up, down):  1.293E-02 1.139E-02

     total cpu time spent up to now is      290.2 secs

     total energy              =   -6056.61049049 Ry
     estimated scf accuracy    <       0.04323929 Ry

     total magnetization       =    60.34 Bohr mag/cell
     absolute magnetization    =    68.11 Bohr mag/cell

     iteration # 16     ecut=    50.00 Ry     beta= 0.70
     Davidson diagonalization with overlap
     c_bands:  4 eigenvalues not converged
     c_bands:  3 eigenvalues not converged
     c_bands:  4 eigenvalues not converged
     ethr =  1.29E-05,  avg # of iterations =  4.3

     negative rho (up, down):  2.140E-02 1.956E-02

     total cpu time spent up to now is      313.0 secs

     total energy              =   -6056.60930779 Ry
     estimated scf accuracy    <       0.04431631 Ry

     total magnetization       =    60.34 Bohr mag/cell
     absolute magnetization    =    68.06 Bohr mag/cell

     iteration # 17     ecut=    50.00 Ry     beta= 0.70
     Davidson diagonalization with overlap
     ethr =  1.29E-05,  avg # of iterations =  1.5

     negative rho (up, down):  1.651E-02 1.487E-02

     total cpu time spent up to now is      330.9 secs

     total energy              =   -6056.60991324 Ry
     estimated scf accuracy    <       0.01309812 Ry

     total magnetization       =    60.32 Bohr mag/cell
     absolute magnetization    =    68.03 Bohr mag/cell

     iteration # 18     ecut=    50.00 Ry     beta= 0.70
     Davidson diagonalization with overlap
     c_bands:  1 eigenvalues not converged
     c_bands:  1 eigenvalues not converged
     c_bands:  2 eigenvalues not converged
     c_bands:  2 eigenvalues not converged
     c_bands:  1 eigenvalues not converged
     ethr =  3.91E-06,  avg # of iterations =  7.9

     negative rho (up, down):  1.026E-02 8.917E-03

     total cpu time spent up to now is      357.9 secs

     total energy              =   -6056.60990753 Ry
     estimated scf accuracy    <       0.01349391 Ry

     total magnetization       =    60.34 Bohr mag/cell
     absolute magnetization    =    68.02 Bohr mag/cell

     iteration # 19     ecut=    50.00 Ry     beta= 0.70
     Davidson diagonalization with overlap
     ethr =  3.91E-06,  avg # of iterations =  2.0

     negative rho (up, down):  1.241E-02 1.103E-02

     total cpu time spent up to now is      374.2 secs

     total energy              =   -6056.60912393 Ry
     estimated scf accuracy    <       0.01959552 Ry

     total magnetization       =    60.36 Bohr mag/cell
     absolute magnetization    =    68.04 Bohr mag/cell

     iteration # 20     ecut=    50.00 Ry     beta= 0.70
     Davidson diagonalization with overlap
     ethr =  3.91E-06,  avg # of iterations =  1.3

     negative rho (up, down):  1.685E-02 1.585E-02

     total cpu time spent up to now is      392.1 secs

     total energy              =   -6056.60722513 Ry
     estimated scf accuracy    <       0.01031007 Ry

     total magnetization       =    60.36 Bohr mag/cell
     absolute magnetization    =    68.02 Bohr mag/cell

     iteration # 21     ecut=    50.00 Ry     beta= 0.70
     Davidson diagonalization with overlap
     ethr =  3.08E-06,  avg # of iterations =  1.7

     negative rho (up, down):  1.212E-02 1.139E-02

     total cpu time spent up to now is      408.0 secs

     total energy              =   -6056.60693002 Ry
     estimated scf accuracy    <       0.00969327 Ry

     total magnetization       =    60.38 Bohr mag/cell
     absolute magnetization    =    68.01 Bohr mag/cell

     iteration # 22     ecut=    50.00 Ry     beta= 0.70
     Davidson diagonalization with overlap
     ethr =  2.89E-06,  avg # of iterations =  1.2

     negative rho (up, down):  1.448E-02 1.376E-02

     total cpu time spent up to now is      426.6 secs

     total energy              =   -6056.60728977 Ry
     estimated scf accuracy    <       0.00426500 Ry

     total magnetization       =    60.38 Bohr mag/cell
     absolute magnetization    =    68.02 Bohr mag/cell

     iteration # 23     ecut=    50.00 Ry     beta= 0.70
     Davidson diagonalization with overlap
     c_bands:  1 eigenvalues not converged
     ethr =  1.27E-06,  avg # of iterations =  2.3

     negative rho (up, down):  1.082E-02 1.016E-02

     total cpu time spent up to now is      448.5 secs

     total energy              =   -6056.60719555 Ry
     estimated scf accuracy    <       0.00393654 Ry

     total magnetization       =    60.39 Bohr mag/cell
     absolute magnetization    =    68.03 Bohr mag/cell

     iteration # 24     ecut=    50.00 Ry     beta= 0.70
     Davidson diagonalization with overlap
     ethr =  1.18E-06,  avg # of iterations =  1.5

     negative rho (up, down):  6.585E-03 5.812E-03

     total cpu time spent up to now is      462.4 secs

     total energy              =   -6056.60700715 Ry
     estimated scf accuracy    <       0.00531684 Ry

     total magnetization       =    60.38 Bohr mag/cell
     absolute magnetization    =    68.03 Bohr mag/cell

     iteration # 25     ecut=    50.00 Ry     beta= 0.70
     Davidson diagonalization with overlap
     ethr =  1.18E-06,  avg # of iterations =  1.5

     negative rho (up, down):  6.646E-03 5.952E-03

     total cpu time spent up to now is      482.0 secs

     total energy              =   -6056.60713750 Ry
     estimated scf accuracy    <       0.00275185 Ry

     total magnetization       =    60.37 Bohr mag/cell
     absolute magnetization    =    68.02 Bohr mag/cell

     iteration # 26     ecut=    50.00 Ry     beta= 0.70
     Davidson diagonalization with overlap
     ethr =  8.21E-07,  avg # of iterations =  1.5

     negative rho (up, down):  5.357E-03 4.700E-03

     total cpu time spent up to now is      496.0 secs

     total energy              =   -6056.60738647 Ry
     estimated scf accuracy    <       0.00256526 Ry

     total magnetization       =    60.38 Bohr mag/cell
     absolute magnetization    =    68.04 Bohr mag/cell

     iteration # 27     ecut=    50.00 Ry     beta= 0.70
     Davidson diagonalization with overlap
     ethr =  7.66E-07,  avg # of iterations =  1.7

     negative rho (up, down):  3.831E-03 3.072E-03

     total cpu time spent up to now is      516.2 secs

     total energy              =   -6056.60731935 Ry
     estimated scf accuracy    <       0.00230224 Ry

     total magnetization       =    60.39 Bohr mag/cell
     absolute magnetization    =    68.04 Bohr mag/cell

     iteration # 28     ecut=    50.00 Ry     beta= 0.70
     Davidson diagonalization with overlap
     ethr =  6.87E-07,  avg # of iterations =  1.2

     negative rho (up, down):  2.418E-03 1.534E-03

     total cpu time spent up to now is      529.7 secs

     total energy              =   -6056.60743013 Ry
     estimated scf accuracy    <       0.00034745 Ry

     total magnetization       =    60.39 Bohr mag/cell
     absolute magnetization    =    68.04 Bohr mag/cell

     iteration # 29     ecut=    50.00 Ry     beta= 0.70
     Davidson diagonalization with overlap
     c_bands:  1 eigenvalues not converged
     ethr =  1.04E-07,  avg # of iterations =  5.3

     negative rho (up, down):  2.247E-03 1.316E-03

     total cpu time spent up to now is      557.0 secs

     total energy              =   -6056.60744789 Ry
     estimated scf accuracy    <       0.00228585 Ry

     total magnetization       =    60.38 Bohr mag/cell
     absolute magnetization    =    68.03 Bohr mag/cell

     iteration # 30     ecut=    50.00 Ry     beta= 0.70
     Davidson diagonalization with overlap
     ethr =  1.04E-07,  avg # of iterations =  1.5

     negative rho (up, down):  2.285E-03 1.343E-03

     total cpu time spent up to now is      575.7 secs

     total energy              =   -6056.60752345 Ry
     estimated scf accuracy    <       0.00021795 Ry

     total magnetization       =    60.39 Bohr mag/cell
     absolute magnetization    =    68.04 Bohr mag/cell

     iteration # 31     ecut=    50.00 Ry     beta= 0.70
     Davidson diagonalization with overlap
     ethr =  6.51E-08,  avg # of iterations =  1.3

     negative rho (up, down):  2.346E-03 1.313E-03

     total cpu time spent up to now is      591.0 secs

     total energy              =   -6056.60756573 Ry
     estimated scf accuracy    <       0.00013276 Ry

     total magnetization       =    60.39 Bohr mag/cell
     absolute magnetization    =    68.04 Bohr mag/cell

     iteration # 32     ecut=    50.00 Ry     beta= 0.70
     Davidson diagonalization with overlap
     ethr =  3.96E-08,  avg # of iterations =  1.7

     negative rho (up, down):  2.477E-03 1.372E-03

     total cpu time spent up to now is      610.8 secs

     total energy              =   -6056.60759157 Ry
     estimated scf accuracy    <       0.00003952 Ry

     total magnetization       =    60.39 Bohr mag/cell
     absolute magnetization    =    68.04 Bohr mag/cell

     iteration # 33     ecut=    50.00 Ry     beta= 0.70
     Davidson diagonalization with overlap
     ethr =  1.18E-08,  avg # of iterations =  4.5

     negative rho (up, down):  2.470E-03 1.357E-03

     total cpu time spent up to now is      634.3 secs

     total energy              =   -6056.60759593 Ry
     estimated scf accuracy    <       0.00003208 Ry

     total magnetization       =    60.39 Bohr mag/cell
     absolute magnetization    =    68.04 Bohr mag/cell

     iteration # 34     ecut=    50.00 Ry     beta= 0.70
     Davidson diagonalization with overlap
     ethr =  9.58E-09,  avg # of iterations =  1.9

     negative rho (up, down):  2.422E-03 1.299E-03

     total cpu time spent up to now is      650.4 secs

     total energy              =   -6056.60759927 Ry
     estimated scf accuracy    <       0.00002905 Ry

     total magnetization       =    60.39 Bohr mag/cell
     absolute magnetization    =    68.04 Bohr mag/cell

     iteration # 35     ecut=    50.00 Ry     beta= 0.70
     Davidson diagonalization with overlap
     ethr =  8.67E-09,  avg # of iterations =  1.2

     negative rho (up, down):  2.475E-03 1.357E-03

     total cpu time spent up to now is      669.6 secs

     total energy              =   -6056.60760112 Ry
     estimated scf accuracy    <       0.00001233 Ry

     total magnetization       =    60.39 Bohr mag/cell
     absolute magnetization    =    68.04 Bohr mag/cell

     iteration # 36     ecut=    50.00 Ry     beta= 0.70
     Davidson diagonalization with overlap
     ethr =  3.68E-09,  avg # of iterations =  3.3

     negative rho (up, down):  2.444E-03 1.326E-03

     total cpu time spent up to now is      691.5 secs

     total energy              =   -6056.60760019 Ry
     estimated scf accuracy    <       0.00004817 Ry

     total magnetization       =    60.39 Bohr mag/cell
     absolute magnetization    =    68.04 Bohr mag/cell

     iteration # 37     ecut=    50.00 Ry     beta= 0.70
     Davidson diagonalization with overlap
     ethr =  3.68E-09,  avg # of iterations =  1.2

     negative rho (up, down):  2.454E-03 1.340E-03

     total cpu time spent up to now is      705.0 secs

     total energy              =   -6056.60760253 Ry
     estimated scf accuracy    <       0.00000500 Ry

     total magnetization       =    60.39 Bohr mag/cell
     absolute magnetization    =    68.03 Bohr mag/cell

     iteration # 38     ecut=    50.00 Ry     beta= 0.70
     Davidson diagonalization with overlap
     ethr =  1.49E-09,  avg # of iterations =  1.9

     negative rho (up, down):  2.442E-03 1.342E-03

     total cpu time spent up to now is      724.8 secs

     total energy              =   -6056.60760298 Ry
     estimated scf accuracy    <       0.00000386 Ry

     total magnetization       =    60.39 Bohr mag/cell
     absolute magnetization    =    68.03 Bohr mag/cell

     iteration # 39     ecut=    50.00 Ry     beta= 0.70
     Davidson diagonalization with overlap
     ethr =  1.15E-09,  avg # of iterations =  2.5

     negative rho (up, down):  2.434E-03 1.331E-03

     total cpu time spent up to now is      741.1 secs

     total energy              =   -6056.60760289 Ry
     estimated scf accuracy    <       0.00000832 Ry

     total magnetization       =    60.39 Bohr mag/cell
     absolute magnetization    =    68.03 Bohr mag/cell

     iteration # 40     ecut=    50.00 Ry     beta= 0.70
     Davidson diagonalization with overlap
     ethr =  1.15E-09,  avg # of iterations =  1.3

     negative rho (up, down):  2.388E-03 1.292E-03

     total cpu time spent up to now is      760.8 secs

     total energy              =   -6056.60760318 Ry
     estimated scf accuracy    <       0.00000126 Ry

     total magnetization       =    60.39 Bohr mag/cell
     absolute magnetization    =    68.03 Bohr mag/cell

     iteration # 41     ecut=    50.00 Ry     beta= 0.70
     Davidson diagonalization with overlap
     ethr =  3.75E-10,  avg # of iterations =  5.0

     negative rho (up, down):  2.408E-03 1.314E-03

     total cpu time spent up to now is      782.6 secs

     total energy              =   -6056.60760323 Ry
     estimated scf accuracy    <       0.00000233 Ry

     total magnetization       =    60.39 Bohr mag/cell
     absolute magnetization    =    68.03 Bohr mag/cell

     iteration # 42     ecut=    50.00 Ry     beta= 0.70
     Davidson diagonalization with overlap
     ethr =  3.75E-10,  avg # of iterations =  1.7

     negative rho (up, down):  2.396E-03 1.304E-03

     total cpu time spent up to now is      799.8 secs

     total energy              =   -6056.60760328 Ry
     estimated scf accuracy    <       0.00000126 Ry

     total magnetization       =    60.39 Bohr mag/cell
     absolute magnetization    =    68.03 Bohr mag/cell

     iteration # 43     ecut=    50.00 Ry     beta= 0.70
     Davidson diagonalization with overlap
     ethr =  3.75E-10,  avg # of iterations =  1.3

     negative rho (up, down):  2.335E-03 1.248E-03

     total cpu time spent up to now is      817.4 secs

     total energy              =   -6056.60760324 Ry
     estimated scf accuracy    <       0.00000041 Ry

     total magnetization       =    60.39 Bohr mag/cell
     absolute magnetization    =    68.03 Bohr mag/cell

     iteration # 44     ecut=    50.00 Ry     beta= 0.70
     Davidson diagonalization with overlap
     ethr =  1.23E-10,  avg # of iterations =  4.2

     negative rho (up, down):  2.318E-03 1.230E-03

     total cpu time spent up to now is      840.4 secs

     total energy              =   -6056.60760327 Ry
     estimated scf accuracy    <       0.00000020 Ry

     total magnetization       =    60.39 Bohr mag/cell
     absolute magnetization    =    68.03 Bohr mag/cell

     iteration # 45     ecut=    50.00 Ry     beta= 0.70
     Davidson diagonalization with overlap
     ethr =  6.01E-11,  avg # of iterations =  3.3

     negative rho (up, down):  2.302E-03 1.212E-03

     total cpu time spent up to now is      860.1 secs

     total energy              =   -6056.60760328 Ry
     estimated scf accuracy    <       0.00000034 Ry

     total magnetization       =    60.39 Bohr mag/cell
     absolute magnetization    =    68.03 Bohr mag/cell

     iteration # 46     ecut=    50.00 Ry     beta= 0.70
     Davidson diagonalization with overlap
     ethr =  6.01E-11,  avg # of iterations =  2.0

     negative rho (up, down):  2.301E-03 1.211E-03

     total cpu time spent up to now is      879.3 secs

     total energy              =   -6056.60760327 Ry
     estimated scf accuracy    <       0.00000048 Ry

     total magnetization       =    60.39 Bohr mag/cell
     absolute magnetization    =    68.03 Bohr mag/cell

     iteration # 47     ecut=    50.00 Ry     beta= 0.70
     Davidson diagonalization with overlap
     ethr =  6.01E-11,  avg # of iterations =  1.3

     negative rho (up, down):  2.283E-03 1.194E-03

     total cpu time spent up to now is      898.9 secs

     total energy              =   -6056.60760326 Ry
     estimated scf accuracy    <       0.00000014 Ry

     total magnetization       =    60.39 Bohr mag/cell
     absolute magnetization    =    68.03 Bohr mag/cell

     iteration # 48     ecut=    50.00 Ry     beta= 0.70
     Davidson diagonalization with overlap
     ethr =  4.26E-11,  avg # of iterations =  1.7

     negative rho (up, down):  2.270E-03 1.180E-03

     total cpu time spent up to now is      915.0 secs

     total energy              =   -6056.60760326 Ry
     estimated scf accuracy    <       0.00000004 Ry

     total magnetization       =    60.39 Bohr mag/cell
     absolute magnetization    =    68.03 Bohr mag/cell

     iteration # 49     ecut=    50.00 Ry     beta= 0.70
     Davidson diagonalization with overlap
     ethr =  1.18E-11,  avg # of iterations =  6.1

     negative rho (up, down):  2.262E-03 1.172E-03

     total cpu time spent up to now is      939.2 secs

     total energy              =   -6056.60760325 Ry
     estimated scf accuracy    <       0.00000005 Ry

     total magnetization       =    60.39 Bohr mag/cell
     absolute magnetization    =    68.03 Bohr mag/cell

     iteration # 50     ecut=    50.00 Ry     beta= 0.70
     Davidson diagonalization with overlap
     ethr =  1.18E-11,  avg # of iterations =  1.7

     negative rho (up, down):  2.259E-03 1.169E-03

     total cpu time spent up to now is      958.3 secs

     total energy              =   -6056.60760325 Ry
     estimated scf accuracy    <       0.00000001 Ry

     total magnetization       =    60.39 Bohr mag/cell
     absolute magnetization    =    68.03 Bohr mag/cell

     iteration # 51     ecut=    50.00 Ry     beta= 0.70
     Davidson diagonalization with overlap
     ethr =  3.07E-12,  avg # of iterations =  5.6

     negative rho (up, down):  2.259E-03 1.169E-03

     total cpu time spent up to now is      979.8 secs

     total energy              =   -6056.60760325 Ry
     estimated scf accuracy    <       0.00000005 Ry

     total magnetization       =    60.39 Bohr mag/cell
     absolute magnetization    =    68.03 Bohr mag/cell

     iteration # 52     ecut=    50.00 Ry     beta= 0.70
     Davidson diagonalization with overlap
     ethr =  3.07E-12,  avg # of iterations =  1.8

     negative rho (up, down):  2.252E-03 1.160E-03

     Magnetic moment per site  (integrated on atomic sphere of radius R)
     atom   1 (R=0.092)  charge=  5.7329  magn=  1.6688
     atom   2 (R=0.092)  charge=  5.7361  magn=  1.6509
     atom   3 (R=0.092)  charge=  5.7343  magn=  1.6644
     atom   4 (R=0.092)  charge=  5.7339  magn=  1.6670
     atom   5 (R=0.092)  charge=  5.7343  magn=  1.6643
     atom   6 (R=0.092)  charge=  5.7338  magn=  1.6685
     atom   7 (R=0.092)  charge=  5.7332  magn=  1.6731
     atom   8 (R=0.092)  charge=  5.7329  magn=  1.6688
     atom   9 (R=0.092)  charge=  5.7339  magn=  1.6670
     atom  10 (R=0.092)  charge=  5.7291  magn=  1.6045
     atom  11 (R=0.092)  charge=  5.7304  magn=  1.6012
     atom  12 (R=0.092)  charge=  5.7298  magn=  1.6079
     atom  13 (R=0.092)  charge=  5.7304  magn=  1.6012
     atom  14 (R=0.092)  charge=  5.7305  magn=  1.5999
     atom  15 (R=0.092)  charge=  5.7301  magn=  1.6099
     atom  16 (R=0.092)  charge=  5.7298  magn=  1.6079
     atom  17 (R=0.092)  charge=  5.7301  magn=  1.6099
     atom  18 (R=0.092)  charge=  5.7303  magn=  1.6085
     atom  19 (R=0.092)  charge=  5.7295  magn=  1.5722
     atom  20 (R=0.092)  charge=  5.7284  magn=  1.6184
     atom  21 (R=0.092)  charge=  5.7305  magn=  1.5983
     atom  22 (R=0.092)  charge=  5.7298  magn=  1.5910
     atom  23 (R=0.092)  charge=  5.7305  magn=  1.5983
     atom  24 (R=0.092)  charge=  5.7283  magn=  1.6298
     atom  25 (R=0.092)  charge=  5.7290  magn=  1.6037
     atom  26 (R=0.092)  charge=  5.7295  magn=  1.5722
     atom  27 (R=0.092)  charge=  5.7298  magn=  1.5910
     atom  28 (R=0.092)  charge=  5.7306  magn=  1.7035
     atom  29 (R=0.092)  charge=  5.7443  magn=  1.3853
     atom  30 (R=0.092)  charge=  5.7330  magn=  1.7104
     atom  31 (R=0.092)  charge=  5.7443  magn=  1.3843
     atom  32 (R=0.092)  charge=  5.7474  magn=  1.1009
     atom  33 (R=0.092)  charge=  5.7326  magn=  1.5957
     atom  34 (R=0.092)  charge=  5.7330  magn=  1.7103
     atom  35 (R=0.092)  charge=  5.7326  magn=  1.5965
     atom  36 (R=0.092)  charge=  5.7317  magn=  1.6865
     atom  37 (R=0.066)  charge=  1.0529  magn= -0.0226
     atom  38 (R=0.066)  charge=  2.9375  magn= -0.0428
     atom  39 (R=0.092)  charge=  0.8666  magn= -0.0166

     total cpu time spent up to now is      999.5 secs

     End of self-consistent calculation

 ------ SPIN UP ------------


          k = 0.0000 0.0000 0.0000 ( 51087 PWs)   bands (ev):

   -21.8444  -9.2693  -7.6739  -6.5314  -5.8085  -5.6339  -5.4016  -5.1716
    -4.8455  -4.8375  -4.8327  -4.8151  -4.7900  -4.7869  -4.6435  -4.3832
    -4.3027  -4.3011  -4.2775  -4.2540  -4.2435  -4.0974  -3.7841  -3.7835
    -3.7743  -3.7608  -3.7338  -3.7032  -3.6528  -3.6513  -3.6465  -3.6428
    -3.6111  -3.5723  -3.5714  -3.4653  -3.2721  -3.2635  -3.2603  -3.2556
    -3.1995  -3.1985  -3.1909  -3.1893  -3.1856  -3.1739  -3.1696  -3.1115
    -3.0348  -3.0296  -2.9659  -2.9580  -2.9540  -2.9475  -2.9434  -2.9343
    -2.9245  -2.9137  -2.9032  -2.8770  -2.8266  -2.8147  -2.8131  -2.8125
    -2.7446  -2.5977  -2.3252  -2.2849  -2.2837  -2.2802  -2.2796  -2.1792
    -2.1529  -2.1462  -2.1364  -2.1233  -2.1119  -2.1062  -2.1006  -2.1004
    -2.0558  -2.0555  -2.0062  -2.0000  -1.9992  -1.9939  -1.9840  -1.9715
    -1.9690  -1.9596  -1.9570  -1.9501  -1.9432  -1.9282  -1.9241  -1.9149
    -1.9099  -1.9095  -1.9088  -1.9076  -1.9066  -1.8995  -1.8978  -1.8795
    -1.8721  -1.8544  -1.8430  -1.8367  -1.8334  -1.7564  -1.7537  -1.6659
    -1.5310  -1.4688  -1.4574  -1.4570  -1.4538  -1.4510  -1.4186  -1.4165
    -1.4129  -1.4126  -1.4073  -1.3652  -1.3636  -1.2350  -1.2286  -1.2170
    -1.2049  -1.1554  -1.0902  -1.0653  -1.0578  -1.0195  -0.9875  -0.9774
    -0.9687  -0.9643  -0.9641  -0.9513  -0.9099  -0.8918  -0.8394  -0.8294
    -0.7318  -0.7267  -0.7132  -0.7071  -0.6927  -0.6743  -0.6729  -0.6535
    -0.6526  -0.6453  -0.6444  -0.6432  -0.6412  -0.6253  -0.6238  -0.6194
    -0.6126  -0.6093  -0.5925  -0.5874  -0.5794  -0.5754  -0.5650  -0.5615
    -0.5437  -0.5397  -0.5338  -0.5157  -0.5148  -0.5112  -0.5061  -0.5022
    -0.4929  -0.4852  -0.4708  -0.4639  -0.4442  -0.4189  -0.4162  -0.4079
    -0.4029  -0.3988  -0.3950  -0.3932  -0.3775  -0.3446  -0.3345  -0.3245
    -0.3211  -0.3109  -0.2569  -0.2515  -0.2497  -0.2332  -0.2324  -0.2025
     0.5099   0.7158

          k = 0.0000 0.2309 0.0000 ( 51134 PWs)   bands (ev):

   -21.8444  -9.2586  -7.5334  -6.4364  -5.8457  -5.6734  -5.5268  -5.3536
    -5.1520  -5.0517  -5.0264  -4.6354  -4.5111  -4.4896  -4.4776  -4.4224
    -4.3368  -4.2982  -4.2353  -4.1887  -4.1577  -4.0801  -3.8935  -3.7857
    -3.7777  -3.7087  -3.6687  -3.6561  -3.6537  -3.6453  -3.6390  -3.6116
    -3.5996  -3.5492  -3.5246  -3.5063  -3.5008  -3.4334  -3.2890  -3.2797
    -3.2705  -3.2237  -3.2186  -3.2077  -3.1813  -3.1215  -3.0872  -3.0709
    -3.0528  -3.0471  -3.0385  -3.0110  -2.9678  -2.9167  -2.9106  -2.8811
    -2.8450  -2.8354  -2.8129  -2.8086  -2.7805  -2.7451  -2.7420  -2.7303
    -2.7025  -2.6004  -2.4035  -2.3944  -2.3699  -2.3512  -2.3385  -2.2566
    -2.2469  -2.2307  -2.2251  -2.2159  -2.2085  -2.1968  -2.1765  -2.1206
    -2.1168  -2.0987  -2.0818  -2.0421  -2.0413  -2.0347  -2.0218  -2.0111
    -2.0054  -2.0030  -1.9962  -1.9858  -1.9757  -1.9674  -1.9348  -1.8955
    -1.8860  -1.8768  -1.8260  -1.8127  -1.8055  -1.7996  -1.7936  -1.7853
    -1.7779  -1.7735  -1.7620  -1.7564  -1.7522  -1.7241  -1.7156  -1.7020
    -1.6916  -1.6786  -1.6368  -1.5952  -1.5836  -1.4903  -1.4840  -1.4803
    -1.4674  -1.4556  -1.4487  -1.4421  -1.4198  -1.3937  -1.3561  -1.2881
    -1.2584  -1.2044  -1.1889  -1.1725  -1.1635  -1.1149  -1.0992  -1.0856
    -1.0521  -1.0039  -0.9879  -0.9792  -0.9537  -0.9478  -0.9101  -0.9025
    -0.8732  -0.8667  -0.8534  -0.8347  -0.8263  -0.8055  -0.7964  -0.7902
    -0.7294  -0.7200  -0.7151  -0.7086  -0.6874  -0.6690  -0.6499  -0.6429
    -0.6380  -0.6304  -0.6256  -0.6152  -0.5939  -0.5893  -0.5796  -0.5633
    -0.5267  -0.5061  -0.4954  -0.4792  -0.4595  -0.4473  -0.4204  -0.3971
    -0.3892  -0.3794  -0.3735  -0.3651  -0.3478  -0.3381  -0.3283  -0.2910
    -0.2652  -0.2532  -0.2467  -0.2268  -0.2159  -0.1972  -0.1908  -0.1710
    -0.1184  -0.0407   0.0851   0.1301   0.1703   0.2631   0.3855   0.4093
     0.4474   0.7856

          k = 0.0000 0.4619 0.0000 ( 51204 PWs)   bands (ev):

   -21.8444  -9.2415  -7.1200  -6.4826  -6.1651  -5.8287  -5.5594  -5.3821
    -5.2180  -5.1436  -5.1115  -4.9075  -4.3428  -4.3224  -4.2904  -4.2522
    -4.2105  -4.1338  -4.1282  -4.0403  -3.9995  -3.9935  -3.9754  -3.8344
    -3.8172  -3.8130  -3.8011  -3.7996  -3.7307  -3.6987  -3.6897  -3.5850
    -3.5302  -3.5202  -3.5015  -3.4878  -3.4747  -3.4393  -3.3747  -3.3669
    -3.3554  -3.3431  -3.2964  -3.2274  -3.1430  -3.1112  -3.0504  -3.0374
    -3.0151  -2.9901  -2.9699  -2.9527  -2.9456  -2.9390  -2.9184  -2.8672
    -2.8568  -2.8359  -2.7948  -2.7708  -2.6645  -2.6483  -2.6272  -2.6059
    -2.5597  -2.5401  -2.5142  -2.5051  -2.4856  -2.4236  -2.3767  -2.3730
    -2.3678  -2.3542  -2.3479  -2.3266  -2.3127  -2.3027  -2.2772  -2.2598
    -2.2435  -2.2085  -2.1908  -2.1712  -2.1427  -2.1238  -2.0758  -2.0532
    -2.0369  -2.0218  -2.0066  -1.9834  -1.9760  -1.9399  -1.9272  -1.9196
    -1.9055  -1.8952  -1.8820  -1.8651  -1.8535  -1.8512  -1.8475  -1.8156
    -1.7994  -1.7685  -1.7407  -1.7376  -1.6720  -1.6509  -1.6351  -1.6212
    -1.6073  -1.5859  -1.5555  -1.5336  -1.5262  -1.5037  -1.5013  -1.4914
    -1.4886  -1.4768  -1.4673  -1.4585  -1.4506  -1.4470  -1.4288  -1.4217
    -1.4130  -1.3675  -1.3033  -1.2903  -1.2754  -1.2687  -1.2372  -1.2245
    -1.2004  -1.1449  -1.1241  -1.1117  -1.0707  -1.0586  -1.0286  -0.9927
    -0.9845  -0.9661  -0.9377  -0.9251  -0.9076  -0.8773  -0.8540  -0.7991
    -0.7602  -0.7412  -0.7264  -0.7157  -0.7149  -0.7045  -0.6966  -0.6887
    -0.6709  -0.6420  -0.5653  -0.5608  -0.5507  -0.5434  -0.5382  -0.5147
    -0.5082  -0.4945  -0.4834  -0.4754  -0.4694  -0.4422  -0.3841  -0.3685
    -0.3583  -0.3465  -0.3194  -0.2685  -0.2625  -0.2365  -0.2283  -0.1928
    -0.1567  -0.1520  -0.1452  -0.1293  -0.1218  -0.1188  -0.1096  -0.0627
    -0.0163   0.0066   0.4336   0.5868   0.8983   1.0773   1.1144   1.2732
     1.4641   1.5003

          k = 0.2000-0.1155 0.0000 ( 51134 PWs)   bands (ev):

   -21.8444  -9.2586  -7.5334  -6.4364  -5.8458  -5.6734  -5.5268  -5.3536
    -5.1519  -5.0518  -5.0264  -4.6353  -4.5112  -4.4896  -4.4776  -4.4224
    -4.3369  -4.2982  -4.2352  -4.1889  -4.1577  -4.0799  -3.8936  -3.7857
    -3.7777  -3.7087  -3.6688  -3.6562  -3.6537  -3.6454  -3.6390  -3.6116
    -3.5996  -3.5493  -3.5246  -3.5063  -3.5008  -3.4335  -3.2891  -3.2797
    -3.2705  -3.2237  -3.2186  -3.2077  -3.1813  -3.1216  -3.0872  -3.0709
    -3.0528  -3.0471  -3.0385  -3.0110  -2.9677  -2.9168  -2.9106  -2.8812
    -2.8449  -2.8354  -2.8129  -2.8086  -2.7805  -2.7451  -2.7420  -2.7303
    -2.7024  -2.6005  -2.4035  -2.3944  -2.3699  -2.3512  -2.3385  -2.2566
    -2.2469  -2.2307  -2.2252  -2.2160  -2.2085  -2.1968  -2.1765  -2.1206
    -2.1168  -2.0987  -2.0818  -2.0421  -2.0413  -2.0348  -2.0217  -2.0111
    -2.0055  -2.0030  -1.9962  -1.9858  -1.9757  -1.9674  -1.9347  -1.8955
    -1.8860  -1.8768  -1.8261  -1.8127  -1.8055  -1.7996  -1.7936  -1.7853
    -1.7779  -1.7735  -1.7620  -1.7564  -1.7522  -1.7241  -1.7156  -1.7020
    -1.6916  -1.6786  -1.6368  -1.5953  -1.5836  -1.4904  -1.4841  -1.4803
    -1.4674  -1.4556  -1.4487  -1.4421  -1.4198  -1.3936  -1.3559  -1.2882
    -1.2583  -1.2044  -1.1889  -1.1725  -1.1635  -1.1150  -1.0993  -1.0857
    -1.0520  -1.0039  -0.9880  -0.9792  -0.9537  -0.9478  -0.9101  -0.9025
    -0.8732  -0.8667  -0.8533  -0.8347  -0.8263  -0.8055  -0.7964  -0.7902
    -0.7294  -0.7201  -0.7151  -0.7086  -0.6874  -0.6689  -0.6499  -0.6429
    -0.6380  -0.6304  -0.6256  -0.6152  -0.5940  -0.5894  -0.5796  -0.5632
    -0.5266  -0.5061  -0.4954  -0.4792  -0.4595  -0.4474  -0.4204  -0.3971
    -0.3892  -0.3794  -0.3735  -0.3651  -0.3478  -0.3381  -0.3283  -0.2910
    -0.2652  -0.2532  -0.2467  -0.2268  -0.2159  -0.1972  -0.1908  -0.1710
    -0.1185  -0.0407   0.0850   0.1301   0.1701   0.2631   0.3854   0.4093
     0.4475   0.7857

          k = 0.2000 0.1155 0.0000 ( 51134 PWs)   bands (ev):

   -21.8444  -9.2574  -7.5347  -6.4398  -5.8835  -5.6591  -5.4470  -5.4157
    -5.1297  -5.0587  -5.0423  -4.5954  -4.5173  -4.4853  -4.4797  -4.4206
    -4.3429  -4.3188  -4.2326  -4.1989  -4.1621  -4.0520  -3.8994  -3.7905
    -3.7678  -3.7000  -3.6630  -3.6568  -3.6539  -3.6525  -3.6354  -3.6300
    -3.5704  -3.5520  -3.5418  -3.5077  -3.5010  -3.4368  -3.2976  -3.2768
    -3.2747  -3.2238  -3.2235  -3.2084  -3.1772  -3.1234  -3.0922  -3.0640
    -3.0508  -3.0471  -3.0406  -3.0203  -2.9621  -2.9169  -2.9097  -2.8835
    -2.8493  -2.8258  -2.8132  -2.8081  -2.7932  -2.7441  -2.7429  -2.7295
    -2.6788  -2.6019  -2.4054  -2.3878  -2.3690  -2.3523  -2.3425  -2.2560
    -2.2487  -2.2401  -2.2227  -2.2171  -2.2116  -2.1977  -2.1559  -2.1213
    -2.1163  -2.1008  -2.0784  -2.0434  -2.0396  -2.0373  -2.0280  -2.0111
    -2.0047  -2.0042  -1.9980  -1.9865  -1.9708  -1.9652  -1.9428  -1.8917
    -1.8846  -1.8698  -1.8224  -1.8221  -1.8099  -1.8017  -1.7927  -1.7915
    -1.7775  -1.7745  -1.7648  -1.7558  -1.7490  -1.7417  -1.7067  -1.7055
    -1.6874  -1.6870  -1.6362  -1.6036  -1.5887  -1.5087  -1.4883  -1.4737
    -1.4648  -1.4600  -1.4477  -1.4441  -1.4240  -1.3852  -1.2998  -1.2992
    -1.2518  -1.2016  -1.1892  -1.1710  -1.1616  -1.1396  -1.1018  -1.0963
    -1.0406  -1.0014  -0.9941  -0.9704  -0.9539  -0.9507  -0.9092  -0.9086
    -0.8803  -0.8667  -0.8501  -0.8327  -0.8281  -0.8085  -0.8031  -0.7883
    -0.7251  -0.7214  -0.7128  -0.6981  -0.6952  -0.6668  -0.6511  -0.6434
    -0.6395  -0.6318  -0.6252  -0.6004  -0.5989  -0.5927  -0.5808  -0.5664
    -0.5221  -0.4972  -0.4878  -0.4832  -0.4663  -0.4496  -0.4171  -0.4005
    -0.3896  -0.3783  -0.3725  -0.3615  -0.3477  -0.3365  -0.3295  -0.2871
    -0.2568  -0.2542  -0.2458  -0.2262  -0.2167  -0.1916  -0.1741  -0.1635
    -0.1174  -0.0765   0.0983   0.1280   0.1726   0.2510   0.3883   0.4077
     0.4365   0.7339

          k = 0.2000 0.3464 0.0000 ( 51202 PWs)   bands (ev):

   -21.8444  -9.2433  -7.2583  -6.2974  -6.0539  -5.9350  -5.6826  -5.4544
    -5.3645  -5.1090  -4.7593  -4.6190  -4.4992  -4.4853  -4.3383  -4.2769
    -4.2694  -4.1765  -4.1718  -4.0855  -4.0452  -3.9752  -3.9037  -3.8788
    -3.8306  -3.7850  -3.6954  -3.6768  -3.6506  -3.6435  -3.6338  -3.6189
    -3.5936  -3.5872  -3.5437  -3.5272  -3.4828  -3.4539  -3.4473  -3.3882
    -3.3048  -3.2565  -3.2213  -3.1906  -3.1734  -3.1638  -3.1015  -3.0594
    -3.0246  -2.9894  -2.9829  -2.9745  -2.9481  -2.9233  -2.9092  -2.8930
    -2.8812  -2.8475  -2.7684  -2.7172  -2.6960  -2.6758  -2.6563  -2.6392
    -2.6139  -2.5525  -2.5107  -2.4429  -2.4221  -2.3951  -2.3801  -2.3504
    -2.3376  -2.3282  -2.3246  -2.3035  -2.2776  -2.2693  -2.2625  -2.2502
    -2.2373  -2.1939  -2.1709  -2.1263  -2.0789  -2.0665  -2.0478  -2.0309
    -2.0167  -2.0019  -1.9714  -1.9642  -1.9486  -1.9295  -1.9167  -1.9091
    -1.9038  -1.8962  -1.8907  -1.8653  -1.8609  -1.8526  -1.8322  -1.8260
    -1.8089  -1.7843  -1.7601  -1.7301  -1.7229  -1.6879  -1.6809  -1.6733
    -1.6597  -1.6543  -1.6164  -1.5825  -1.5745  -1.5580  -1.5415  -1.5161
    -1.5103  -1.4996  -1.4831  -1.4652  -1.4485  -1.4425  -1.4257  -1.3739
    -1.3619  -1.3418  -1.3231  -1.2344  -1.2169  -1.1929  -1.1827  -1.1052
    -1.0773  -1.0655  -1.0530  -1.0465  -1.0415  -1.0357  -1.0063  -1.0032
    -0.9798  -0.9646  -0.9448  -0.9055  -0.8887  -0.8737  -0.8701  -0.8515
    -0.8241  -0.8042  -0.7950  -0.7829  -0.7728  -0.7512  -0.6292  -0.6178
    -0.5933  -0.5840  -0.5753  -0.5650  -0.5477  -0.5369  -0.5267  -0.5171
    -0.5025  -0.4756  -0.4501  -0.4384  -0.4156  -0.4073  -0.3628  -0.3491
    -0.3431  -0.3365  -0.3333  -0.3094  -0.2979  -0.2905  -0.2860  -0.2726
    -0.2571  -0.1855  -0.1729  -0.1706  -0.1239  -0.1209  -0.0994   0.0418
     0.1625   0.2201   0.2516   0.3926   0.5083   0.6261   0.9500   1.1183
     1.2193   1.4650

          k = 0.2000-0.5774 0.0000 ( 51262 PWs)   bands (ev):

   -21.8444  -9.2359  -6.7634  -6.6824  -6.1632  -6.0073  -5.7680  -5.4901
    -5.2466  -5.1837  -4.9549  -4.6879  -4.4768  -4.2392  -4.1961  -4.0714
    -4.0606  -4.0531  -4.0333  -4.0241  -3.9735  -3.9541  -3.9499  -3.9448
    -3.9273  -3.8584  -3.8022  -3.7921  -3.7728  -3.7692  -3.7087  -3.6210
    -3.6161  -3.6052  -3.5830  -3.5390  -3.4987  -3.4510  -3.3635  -3.3223
    -3.3157  -3.2822  -3.2328  -3.2173  -3.1901  -3.1363  -3.1031  -3.0999
    -3.0567  -3.0367  -2.9996  -2.9392  -2.9106  -2.8820  -2.8631  -2.8259
    -2.8030  -2.7414  -2.7360  -2.7277  -2.7114  -2.6983  -2.6781  -2.6293
    -2.5669  -2.5240  -2.5122  -2.5034  -2.4669  -2.4404  -2.4233  -2.3773
    -2.3716  -2.3344  -2.3216  -2.3144  -2.3029  -2.2834  -2.2673  -2.2605
    -2.2411  -2.2299  -2.2166  -2.1896  -2.1854  -2.1515  -2.1123  -2.1018
    -2.0864  -2.0576  -2.0183  -1.9881  -1.9678  -1.9487  -1.9380  -1.9301
    -1.9117  -1.8996  -1.8918  -1.8843  -1.8670  -1.8456  -1.8391  -1.7825
    -1.7767  -1.7547  -1.7475  -1.7397  -1.7219  -1.7165  -1.7069  -1.6938
    -1.6863  -1.6807  -1.6570  -1.6356  -1.5980  -1.5884  -1.5629  -1.5243
    -1.5006  -1.4909  -1.4674  -1.4399  -1.4285  -1.4164  -1.4132  -1.3849
    -1.3470  -1.3443  -1.3134  -1.2743  -1.2134  -1.2003  -1.1840  -1.1680
    -1.1446  -1.1395  -1.1347  -1.1070  -1.0842  -1.0721  -1.0594  -1.0329
    -0.9919  -0.9852  -0.9653  -0.9488  -0.9320  -0.8897  -0.8823  -0.8648
    -0.8639  -0.8375  -0.8342  -0.8147  -0.7859  -0.7664  -0.7447  -0.5918
    -0.5747  -0.5684  -0.5619  -0.5509  -0.5420  -0.5367  -0.5259  -0.4893
    -0.4850  -0.4737  -0.4618  -0.4429  -0.4075  -0.3565  -0.3407  -0.3309
    -0.3175  -0.3090  -0.2933  -0.2818  -0.2503  -0.2377  -0.2325  -0.2201
    -0.2143  -0.1585  -0.1432  -0.1367  -0.1226  -0.1125  -0.0910  -0.0597
     0.1238   0.2458   0.4906   0.8965   1.0054   1.1602   1.2379   1.5234
     1.6431   1.7161

          k = 0.2000-0.3464 0.0000 ( 51202 PWs)   bands (ev):

   -21.8444  -9.2452  -7.2544  -6.2975  -6.0082  -5.9463  -5.6844  -5.5216
    -5.3372  -5.0970  -4.7143  -4.6981  -4.4943  -4.4793  -4.3342  -4.2780
    -4.2705  -4.1768  -4.1734  -4.0651  -4.0338  -4.0195  -3.9073  -3.8805
    -3.8323  -3.7863  -3.6941  -3.6708  -3.6639  -3.6439  -3.6334  -3.6082
    -3.5953  -3.5890  -3.5408  -3.5271  -3.4860  -3.4450  -3.4342  -3.3955
    -3.3072  -3.2479  -3.2209  -3.1925  -3.1762  -3.1554  -3.0860  -3.0614
    -3.0097  -3.0038  -2.9802  -2.9660  -2.9575  -2.9278  -2.9005  -2.8958
    -2.8762  -2.8428  -2.7591  -2.7329  -2.7006  -2.6847  -2.6565  -2.6373
    -2.6188  -2.5522  -2.5087  -2.4455  -2.4113  -2.3948  -2.3813  -2.3491
    -2.3421  -2.3268  -2.3254  -2.2967  -2.2784  -2.2692  -2.2622  -2.2449
    -2.2387  -2.1990  -2.1665  -2.1508  -2.0810  -2.0679  -2.0457  -2.0264
    -2.0199  -1.9968  -1.9830  -1.9657  -1.9452  -1.9296  -1.9157  -1.9124
    -1.9030  -1.8976  -1.8864  -1.8675  -1.8552  -1.8541  -1.8313  -1.8163
    -1.8092  -1.7987  -1.7691  -1.7277  -1.7250  -1.6908  -1.6793  -1.6680
    -1.6643  -1.6500  -1.5951  -1.5836  -1.5775  -1.5491  -1.5256  -1.5153
    -1.5054  -1.4975  -1.4910  -1.4649  -1.4496  -1.4366  -1.4322  -1.3759
    -1.3617  -1.3297  -1.3141  -1.2477  -1.2099  -1.1939  -1.1644  -1.1052
    -1.0860  -1.0682  -1.0592  -1.0510  -1.0438  -1.0336  -1.0100  -0.9904
    -0.9883  -0.9672  -0.9509  -0.9047  -0.8926  -0.8806  -0.8622  -0.8533
    -0.8258  -0.8096  -0.7872  -0.7802  -0.7682  -0.7518  -0.6336  -0.6227
    -0.5943  -0.5856  -0.5754  -0.5615  -0.5430  -0.5387  -0.5354  -0.5131
    -0.5043  -0.4774  -0.4538  -0.4307  -0.4155  -0.4095  -0.3678  -0.3500
    -0.3403  -0.3382  -0.3341  -0.3109  -0.2973  -0.2937  -0.2823  -0.2737
    -0.2573  -0.1863  -0.1757  -0.1702  -0.1237  -0.1216  -0.1080   0.0646
     0.1123   0.2205   0.2362   0.4506   0.5015   0.6225   0.9788   1.1174
     1.2216   1.3943

          k = 0.4000-0.2309 0.0000 ( 51204 PWs)   bands (ev):

   -21.8444  -9.2415  -7.1200  -6.4826  -6.1652  -5.8290  -5.5591  -5.3821
    -5.2179  -5.1436  -5.1115  -4.9076  -4.3429  -4.3224  -4.2904  -4.2522
    -4.2104  -4.1338  -4.1282  -4.0402  -3.9995  -3.9935  -3.9753  -3.8344
    -3.8172  -3.8130  -3.8011  -3.7996  -3.7307  -3.6987  -3.6897  -3.5853
    -3.5303  -3.5203  -3.5015  -3.4878  -3.4746  -3.4393  -3.3748  -3.3669
    -3.3554  -3.3431  -3.2966  -3.2274  -3.1430  -3.1112  -3.0504  -3.0374
    -3.0151  -2.9900  -2.9699  -2.9528  -2.9456  -2.9389  -2.9185  -2.8672
    -2.8568  -2.8359  -2.7947  -2.7708  -2.6646  -2.6483  -2.6272  -2.6059
    -2.5597  -2.5402  -2.5141  -2.5051  -2.4856  -2.4236  -2.3767  -2.3730
    -2.3678  -2.3542  -2.3479  -2.3266  -2.3127  -2.3027  -2.2773  -2.2598
    -2.2435  -2.2085  -2.1908  -2.1712  -2.1426  -2.1238  -2.0758  -2.0532
    -2.0369  -2.0218  -2.0067  -1.9834  -1.9759  -1.9398  -1.9272  -1.9196
    -1.9055  -1.8952  -1.8819  -1.8651  -1.8535  -1.8512  -1.8475  -1.8155
    -1.7994  -1.7684  -1.7407  -1.7377  -1.6720  -1.6509  -1.6350  -1.6211
    -1.6072  -1.5859  -1.5555  -1.5335  -1.5261  -1.5037  -1.5013  -1.4914
    -1.4886  -1.4768  -1.4673  -1.4585  -1.4506  -1.4470  -1.4288  -1.4217
    -1.4129  -1.3675  -1.3033  -1.2903  -1.2754  -1.2687  -1.2372  -1.2244
    -1.2003  -1.1450  -1.1241  -1.1117  -1.0708  -1.0586  -1.0286  -0.9929
    -0.9845  -0.9661  -0.9378  -0.9252  -0.9076  -0.8773  -0.8539  -0.7992
    -0.7602  -0.7412  -0.7264  -0.7157  -0.7148  -0.7045  -0.6966  -0.6886
    -0.6709  -0.6420  -0.5654  -0.5607  -0.5507  -0.5434  -0.5382  -0.5146
    -0.5082  -0.4944  -0.4835  -0.4754  -0.4694  -0.4422  -0.3840  -0.3685
    -0.3583  -0.3465  -0.3194  -0.2685  -0.2625  -0.2364  -0.2283  -0.1928
    -0.1566  -0.1520  -0.1452  -0.1292  -0.1218  -0.1188  -0.1096  -0.0627
    -0.0163   0.0066   0.4332   0.5869   0.8983   1.0772   1.1143   1.2729
     1.4643   1.5003

          k = 0.4000 0.0000 0.0000 ( 51202 PWs)   bands (ev):

   -21.8444  -9.2433  -7.2584  -6.2974  -6.0541  -5.9349  -5.6826  -5.4543
    -5.3646  -5.1089  -4.7594  -4.6189  -4.4992  -4.4854  -4.3383  -4.2769
    -4.2693  -4.1765  -4.1718  -4.0857  -4.0452  -3.9749  -3.9037  -3.8788
    -3.8306  -3.7851  -3.6954  -3.6769  -3.6505  -3.6435  -3.6339  -3.6188
    -3.5936  -3.5872  -3.5437  -3.5272  -3.4828  -3.4540  -3.4473  -3.3883
    -3.3049  -3.2566  -3.2213  -3.1906  -3.1734  -3.1638  -3.1015  -3.0594
    -3.0247  -2.9893  -2.9829  -2.9745  -2.9481  -2.9233  -2.9092  -2.8930
    -2.8812  -2.8476  -2.7684  -2.7171  -2.6960  -2.6757  -2.6562  -2.6392
    -2.6139  -2.5525  -2.5108  -2.4429  -2.4220  -2.3951  -2.3801  -2.3504
    -2.3376  -2.3282  -2.3246  -2.3035  -2.2776  -2.2693  -2.2626  -2.2502
    -2.2372  -2.1939  -2.1710  -2.1263  -2.0789  -2.0665  -2.0479  -2.0309
    -2.0167  -2.0019  -1.9713  -1.9642  -1.9487  -1.9295  -1.9167  -1.9090
    -1.9038  -1.8962  -1.8907  -1.8653  -1.8609  -1.8526  -1.8322  -1.8260
    -1.8089  -1.7842  -1.7600  -1.7301  -1.7229  -1.6879  -1.6809  -1.6733
    -1.6597  -1.6543  -1.6164  -1.5825  -1.5746  -1.5581  -1.5415  -1.5161
    -1.5103  -1.4996  -1.4831  -1.4652  -1.4486  -1.4425  -1.4258  -1.3738
    -1.3619  -1.3418  -1.3232  -1.2343  -1.2169  -1.1929  -1.1827  -1.1052
    -1.0773  -1.0655  -1.0530  -1.0466  -1.0415  -1.0357  -1.0064  -1.0033
    -0.9798  -0.9645  -0.9448  -0.9055  -0.8887  -0.8737  -0.8701  -0.8514
    -0.8240  -0.8042  -0.7951  -0.7829  -0.7728  -0.7512  -0.6292  -0.6179
    -0.5932  -0.5840  -0.5753  -0.5650  -0.5478  -0.5369  -0.5268  -0.5171
    -0.5025  -0.4756  -0.4502  -0.4383  -0.4156  -0.4072  -0.3628  -0.3491
    -0.3431  -0.3364  -0.3333  -0.3094  -0.2979  -0.2905  -0.2860  -0.2726
    -0.2571  -0.1855  -0.1729  -0.1706  -0.1239  -0.1209  -0.0993   0.0418
     0.1628   0.2201   0.2517   0.3924   0.5083   0.6260   0.9496   1.1183
     1.2193   1.4650

          k = 0.4000 0.2309 0.0000 ( 51204 PWs)   bands (ev):

   -21.8444  -9.2385  -7.1269  -6.4903  -6.1760  -5.8789  -5.4440  -5.4208
    -5.2102  -5.1462  -5.1133  -4.9054  -4.3492  -4.3127  -4.3116  -4.2501
    -4.2054  -4.1348  -4.1288  -4.0185  -3.9988  -3.9952  -3.9168  -3.8454
    -3.8166  -3.8069  -3.8005  -3.8001  -3.7081  -3.6940  -3.6746  -3.6498
    -3.5346  -3.5291  -3.5148  -3.4874  -3.4826  -3.4354  -3.3760  -3.3674
    -3.3553  -3.3483  -3.3029  -3.2303  -3.1453  -3.1031  -3.0521  -3.0241
    -3.0238  -2.9825  -2.9740  -2.9657  -2.9583  -2.9249  -2.9102  -2.8717
    -2.8604  -2.8381  -2.8029  -2.7542  -2.6598  -2.6420  -2.6388  -2.5958
    -2.5658  -2.5366  -2.5143  -2.5139  -2.4966  -2.4268  -2.3774  -2.3735
    -2.3667  -2.3603  -2.3418  -2.3244  -2.3101  -2.3078  -2.2802  -2.2475
    -2.2279  -2.2134  -2.1993  -2.1824  -2.1334  -2.1245  -2.0683  -2.0568
    -2.0330  -2.0228  -2.0107  -1.9992  -1.9712  -1.9335  -1.9275  -1.9233
    -1.9096  -1.8947  -1.8762  -1.8672  -1.8630  -1.8485  -1.8484  -1.8165
    -1.7981  -1.7824  -1.7406  -1.7391  -1.6776  -1.6539  -1.6338  -1.6215
    -1.5866  -1.5826  -1.5473  -1.5298  -1.5283  -1.5076  -1.4986  -1.4976
    -1.4873  -1.4842  -1.4693  -1.4586  -1.4509  -1.4482  -1.4164  -1.4152
    -1.3885  -1.3801  -1.3326  -1.2920  -1.2733  -1.2614  -1.2361  -1.2290
    -1.1929  -1.1456  -1.1252  -1.1076  -1.0938  -1.0514  -1.0491  -1.0087
    -0.9839  -0.9591  -0.9386  -0.9291  -0.9019  -0.8723  -0.8495  -0.8151
    -0.7376  -0.7353  -0.7273  -0.7192  -0.7131  -0.6990  -0.6905  -0.6792
    -0.6711  -0.6599  -0.5656  -0.5620  -0.5490  -0.5437  -0.5356  -0.5060
    -0.5050  -0.4932  -0.4862  -0.4732  -0.4575  -0.4449  -0.3819  -0.3667
    -0.3574  -0.3464  -0.3100  -0.2680  -0.2630  -0.2298  -0.2287  -0.1927
    -0.1700  -0.1468  -0.1460  -0.1228  -0.1226  -0.1172  -0.0904  -0.0746
    -0.0158   0.0080   0.4079   0.6620   0.8372   1.0250   1.1181   1.1940
     1.4614   1.6069

          k = 0.4000-0.6928 0.0000 ( 51262 PWs)   bands (ev):

   -21.8444  -9.2340  -6.7848  -6.6719  -6.1699  -5.9269  -5.9036  -5.4124
    -5.2106  -5.1728  -5.0132  -4.6906  -4.4777  -4.2390  -4.1933  -4.0639
    -4.0605  -4.0376  -4.0311  -4.0037  -3.9705  -3.9539  -3.9458  -3.9454
    -3.9324  -3.8179  -3.8057  -3.7901  -3.7801  -3.7637  -3.7241  -3.6391
    -3.6172  -3.6054  -3.5903  -3.5716  -3.5026  -3.4475  -3.3568  -3.3233
    -3.3204  -3.2794  -3.2242  -3.2183  -3.1891  -3.1403  -3.1061  -3.1030
    -3.0718  -3.0213  -3.0072  -2.9384  -2.9092  -2.8828  -2.8660  -2.8210
    -2.7978  -2.7417  -2.7371  -2.7293  -2.7105  -2.7079  -2.6610  -2.6442
    -2.5589  -2.5220  -2.5154  -2.4959  -2.4844  -2.4492  -2.4288  -2.3753
    -2.3669  -2.3348  -2.3294  -2.3083  -2.3029  -2.2789  -2.2686  -2.2510
    -2.2384  -2.2255  -2.1989  -2.1929  -2.1832  -2.1748  -2.1134  -2.1035
    -2.0918  -2.0524  -2.0208  -1.9841  -1.9707  -1.9522  -1.9367  -1.9237
    -1.9103  -1.9053  -1.8996  -1.8736  -1.8613  -1.8551  -1.8383  -1.7779
    -1.7631  -1.7570  -1.7445  -1.7270  -1.7214  -1.7176  -1.7007  -1.6951
    -1.6935  -1.6795  -1.6619  -1.6501  -1.5905  -1.5879  -1.5739  -1.5241
    -1.5079  -1.4906  -1.4657  -1.4375  -1.4308  -1.4211  -1.4060  -1.3972
    -1.3467  -1.3436  -1.3087  -1.2724  -1.2132  -1.2060  -1.1921  -1.1685
    -1.1451  -1.1397  -1.1257  -1.1058  -1.0967  -1.0777  -1.0513  -1.0234
    -0.9957  -0.9850  -0.9636  -0.9455  -0.9340  -0.8956  -0.8818  -0.8801
    -0.8572  -0.8376  -0.8291  -0.8099  -0.7797  -0.7680  -0.7474  -0.5813
    -0.5759  -0.5722  -0.5628  -0.5512  -0.5472  -0.5298  -0.5281  -0.4886
    -0.4830  -0.4746  -0.4647  -0.4396  -0.4039  -0.3504  -0.3390  -0.3209
    -0.3156  -0.3100  -0.2956  -0.2535  -0.2482  -0.2417  -0.2322  -0.2220
    -0.2163  -0.2016  -0.1430  -0.1367  -0.1213  -0.1148  -0.0908  -0.0568
     0.1472   0.2549   0.5530   0.7483   1.0416   1.1600   1.2172   1.5634
     1.6688   1.7065

          k = 0.4000-0.4619 0.0000 ( 51262 PWs)   bands (ev):

   -21.8444  -9.2359  -6.7635  -6.6823  -6.1633  -6.0071  -5.7685  -5.4897
    -5.2464  -5.1838  -4.9551  -4.6879  -4.4768  -4.2392  -4.1961  -4.0713
    -4.0606  -4.0531  -4.0333  -4.0240  -3.9735  -3.9541  -3.9499  -3.9447
    -3.9273  -3.8583  -3.8022  -3.7922  -3.7728  -3.7692  -3.7087  -3.6210
    -3.6162  -3.6052  -3.5830  -3.5391  -3.4988  -3.4510  -3.3634  -3.3223
    -3.3157  -3.2823  -3.2328  -3.2173  -3.1901  -3.1363  -3.1031  -3.0999
    -3.0567  -3.0367  -2.9995  -2.9391  -2.9106  -2.8821  -2.8630  -2.8259
    -2.8029  -2.7414  -2.7360  -2.7278  -2.7114  -2.6983  -2.6781  -2.6291
    -2.5669  -2.5239  -2.5122  -2.5034  -2.4669  -2.4404  -2.4233  -2.3773
    -2.3716  -2.3344  -2.3216  -2.3144  -2.3029  -2.2833  -2.2674  -2.2605
    -2.2410  -2.2299  -2.2166  -2.1896  -2.1854  -2.1515  -2.1123  -2.1018
    -2.0864  -2.0577  -2.0183  -1.9881  -1.9678  -1.9486  -1.9380  -1.9301
    -1.9117  -1.8995  -1.8918  -1.8843  -1.8670  -1.8456  -1.8391  -1.7824
    -1.7767  -1.7546  -1.7475  -1.7397  -1.7219  -1.7165  -1.7069  -1.6938
    -1.6864  -1.6807  -1.6570  -1.6357  -1.5980  -1.5883  -1.5630  -1.5242
    -1.5006  -1.4909  -1.4675  -1.4399  -1.4285  -1.4164  -1.4132  -1.3849
    -1.3470  -1.3443  -1.3135  -1.2742  -1.2133  -1.2003  -1.1840  -1.1680
    -1.1446  -1.1394  -1.1347  -1.1071  -1.0843  -1.0721  -1.0594  -1.0329
    -0.9918  -0.9853  -0.9653  -0.9488  -0.9320  -0.8897  -0.8823  -0.8648
    -0.8639  -0.8375  -0.8342  -0.8147  -0.7859  -0.7664  -0.7448  -0.5918
    -0.5747  -0.5684  -0.5619  -0.5509  -0.5420  -0.5367  -0.5259  -0.4893
    -0.4851  -0.4737  -0.4618  -0.4429  -0.4074  -0.3564  -0.3407  -0.3308
    -0.3175  -0.3089  -0.2934  -0.2818  -0.2503  -0.2377  -0.2325  -0.2201
    -0.2143  -0.1587  -0.1432  -0.1367  -0.1226  -0.1125  -0.0910  -0.0597
     0.1238   0.2458   0.4907   0.8966   1.0048   1.1602   1.2378   1.5236
     1.6431   1.7165

 ------ SPIN DOWN ----------


          k = 0.0000 0.0000 0.0000 ( 51087 PWs)   bands (ev):

   -21.9381  -9.3581  -7.8086  -6.6016  -5.7983  -5.6177  -5.4452  -5.0912
    -4.6531  -4.6415  -4.6413  -4.6063  -4.5992  -4.5792  -4.2375  -3.7708
    -3.7707  -3.7504  -3.7260  -3.7250  -3.6580  -3.3411  -2.8306  -2.8264
    -2.8118  -2.8065  -2.7224  -2.6085  -2.3641  -2.3560  -2.3480  -2.3474
    -2.3158  -2.2264  -2.1586  -2.1561  -2.0877  -2.0605  -2.0593  -2.0586
    -1.9748  -1.9703  -1.9228  -1.9221  -1.8366  -1.8331  -1.8145  -1.8092
    -1.7649  -1.7321  -1.5572  -1.5525  -1.5513  -1.5461  -1.5352  -1.5344
    -1.5181  -1.5175  -1.4893  -1.4742  -1.4468  -1.4433  -1.4389  -1.4358
    -1.3700  -1.2712  -0.8995  -0.8828  -0.8673  -0.8629  -0.8263  -0.7615
    -0.6722  -0.6492  -0.5601  -0.5547  -0.5404  -0.5370  -0.5246  -0.5014
    -0.4841  -0.4780  -0.4621  -0.4568  -0.4441  -0.4428  -0.4017  -0.3781
    -0.3608  -0.3410  -0.3357  -0.3160  -0.3057  -0.2997  -0.2950  -0.2833
    -0.2766  -0.2740  -0.2645  -0.2554  -0.2540  -0.2418  -0.2226  -0.1717
    -0.1695  -0.1387  -0.1124  -0.0561  -0.0535  -0.0402  -0.0353  -0.0260
    -0.0228  -0.0205  -0.0168   0.0556   0.0556   0.0584   0.1021   0.1351
     0.1377   0.1445   0.1590   0.1980   0.3046   0.3422   0.3807   0.3897
     0.4439   0.4492   0.4552   0.4629   0.6298   0.6878   0.6909   0.7877
     0.7904   0.8799   0.9061   1.0119   1.0146   1.0199   1.0254   1.0314
     1.1047   1.1138   1.1726   1.1886   1.2009   1.2037   1.2095   1.2373
     1.2498   1.2534   1.2643   1.2792   1.2964   1.3076   1.3195   1.3353
     1.3431   1.3542   1.3569   1.3653   1.3732   1.4163   1.4189   1.4220
     1.4382   1.4414   1.4536   1.4657   1.4803   1.4867   1.4925   1.5264
     1.5326   1.5458   1.5500   1.5516   1.5616   1.5687   1.5719   1.6120
     1.6160   1.6204   1.6220   1.6271   1.6312   1.6406   1.6538   1.6539
     1.6602   1.7032   1.7037   1.8463   1.8512   1.8526   1.8579   1.8595
     1.8625   2.0682

          k = 0.0000 0.2309 0.0000 ( 51134 PWs)   bands (ev):

   -21.9381  -9.3475  -7.6672  -6.4993  -5.8668  -5.6719  -5.5426  -5.3900
    -5.0988  -4.9922  -4.9167  -4.4477  -4.1599  -4.0884  -4.0682  -3.9459
    -3.8541  -3.7888  -3.4723  -3.4065  -3.3640  -3.2728  -2.9633  -2.8141
    -2.7813  -2.7449  -2.6852  -2.6192  -2.4582  -2.3895  -2.3831  -2.3713
    -2.3395  -2.3033  -2.3011  -2.2912  -2.2398  -2.2044  -2.1195  -2.1182
    -2.0290  -2.0261  -1.9677  -1.8670  -1.8451  -1.8337  -1.8123  -1.7186
    -1.6883  -1.6598  -1.6176  -1.5902  -1.5667  -1.5502  -1.5379  -1.5349
    -1.5189  -1.5039  -1.4294  -1.4087  -1.4022  -1.3807  -1.3469  -1.3013
    -1.2553  -1.1670  -0.9782  -0.9331  -0.9175  -0.9130  -0.8467  -0.8055
    -0.7661  -0.7321  -0.6955  -0.6654  -0.6445  -0.5945  -0.5693  -0.5562
    -0.5264  -0.5160  -0.4995  -0.4920  -0.4850  -0.4646  -0.4380  -0.3998
    -0.3582  -0.3340  -0.3302  -0.3215  -0.3157  -0.2903  -0.2670  -0.2629
    -0.2554  -0.2461  -0.2419  -0.2356  -0.2311  -0.2288  -0.2013  -0.1771
    -0.1562  -0.1487  -0.1304  -0.1214  -0.1106  -0.0988  -0.0718  -0.0500
    -0.0416  -0.0181   0.0104   0.0473   0.0778   0.0931   0.1136   0.1233
     0.2360   0.2595   0.2711   0.3158   0.3452   0.3553   0.3843   0.4093
     0.4202   0.4306   0.4332   0.4411   0.6115   0.6668   0.7241   0.7646
     0.7773   0.7819   0.7959   0.8099   0.8530   0.8803   0.9077   0.9467
     1.0076   1.0102   1.0344   1.0657   1.0820   1.1042   1.1244   1.1572
     1.1887   1.2168   1.2370   1.2413   1.2579   1.2677   1.3096   1.3168
     1.3283   1.3529   1.3906   1.4060   1.4217   1.4300   1.4578   1.4678
     1.4996   1.5107   1.5139   1.5201   1.5427   1.5914   1.5985   1.6067
     1.6144   1.6370   1.6442   1.6746   1.6838   1.6903   1.6959   1.6978
     1.7189   1.7633   1.7690   1.7814   1.7842   1.7947   1.8038   1.8206
     1.8410   1.8444   1.8503   1.8862   1.9388   1.9539   1.9565   2.0183
     2.0366   2.0988

          k = 0.0000 0.4619 0.0000 ( 51204 PWs)   bands (ev):

   -21.9381  -9.3307  -7.2477  -6.5819  -6.2124  -5.8433  -5.6000  -5.4161
    -5.2415  -5.1559  -5.0931  -4.7683  -4.1239  -4.0406  -3.8275  -3.4786
    -3.4687  -3.4075  -3.3490  -3.1711  -3.0935  -3.0258  -2.9970  -2.8757
    -2.8687  -2.8047  -2.7617  -2.7085  -2.6582  -2.6305  -2.6172  -2.5714
    -2.5513  -2.4312  -2.3484  -2.3298  -2.2552  -2.2295  -2.1377  -2.1331
    -2.1201  -2.0937  -2.0580  -1.8429  -1.8246  -1.8118  -1.7819  -1.7333
    -1.6160  -1.6083  -1.5972  -1.5780  -1.5697  -1.5444  -1.5404  -1.5113
    -1.4994  -1.4330  -1.4283  -1.4085  -1.3826  -1.3611  -1.2227  -1.1932
    -1.0870  -1.0549  -0.9689  -0.9448  -0.9370  -0.9000  -0.8848  -0.8729
    -0.8582  -0.8292  -0.7997  -0.7828  -0.7375  -0.7116  -0.6906  -0.6492
    -0.6346  -0.6144  -0.5967  -0.5842  -0.5506  -0.5128  -0.4844  -0.4183
    -0.4109  -0.3950  -0.3768  -0.3428  -0.3102  -0.2983  -0.2755  -0.2532
    -0.2233  -0.2209  -0.2068  -0.1921  -0.1833  -0.1753  -0.1427  -0.1356
    -0.1159  -0.1042  -0.0922  -0.0747  -0.0670  -0.0602  -0.0495  -0.0234
    -0.0138   0.0097   0.0666   0.1059   0.1281   0.1336   0.1486   0.1891
     0.1986   0.2054   0.2359   0.2702   0.2869   0.3031   0.3239   0.3296
     0.3769   0.3899   0.3980   0.4092   0.4481   0.5391   0.5696   0.5891
     0.6498   0.6627   0.6920   0.7540   0.8037   0.8348   0.8579   0.8759
     0.8994   0.9167   0.9295   0.9569   0.9784   1.0643   1.1456   1.1569
     1.1683   1.1943   1.2269   1.2342   1.2666   1.2880   1.3091   1.3297
     1.3565   1.3699   1.3806   1.4411   1.4644   1.4751   1.5141   1.5262
     1.5348   1.5396   1.5579   1.5709   1.5955   1.6091   1.6185   1.6465
     1.6548   1.6939   1.7439   1.7563   1.7747   1.7821   1.7924   1.8135
     1.8194   1.8464   1.8510   1.8621   1.8802   1.8859   1.8937   1.8998
     1.9419   1.9974   2.0504   2.1073   2.1256   2.1947   2.5355   2.5983
     2.6359   2.6850

          k = 0.2000-0.1155 0.0000 ( 51134 PWs)   bands (ev):

   -21.9381  -9.3475  -7.6672  -6.4993  -5.8670  -5.6718  -5.5425  -5.3901
    -5.0987  -4.9922  -4.9167  -4.4475  -4.1603  -4.0884  -4.0682  -3.9458
    -3.8539  -3.7888  -3.4724  -3.4065  -3.3637  -3.2729  -2.9635  -2.8141
    -2.7813  -2.7451  -2.6852  -2.6191  -2.4583  -2.3895  -2.3831  -2.3714
    -2.3395  -2.3033  -2.3011  -2.2913  -2.2398  -2.2044  -2.1195  -2.1182
    -2.0290  -2.0261  -1.9678  -1.8669  -1.8451  -1.8336  -1.8122  -1.7186
    -1.6883  -1.6598  -1.6176  -1.5902  -1.5667  -1.5502  -1.5379  -1.5350
    -1.5188  -1.5039  -1.4294  -1.4087  -1.4022  -1.3807  -1.3469  -1.3013
    -1.2553  -1.1670  -0.9782  -0.9331  -0.9175  -0.9130  -0.8467  -0.8055
    -0.7663  -0.7320  -0.6955  -0.6653  -0.6445  -0.5946  -0.5693  -0.5562
    -0.5264  -0.5160  -0.4995  -0.4920  -0.4850  -0.4646  -0.4381  -0.3999
    -0.3581  -0.3340  -0.3302  -0.3215  -0.3158  -0.2903  -0.2670  -0.2629
    -0.2554  -0.2460  -0.2419  -0.2356  -0.2311  -0.2288  -0.2013  -0.1771
    -0.1561  -0.1487  -0.1304  -0.1214  -0.1107  -0.0988  -0.0718  -0.0500
    -0.0415  -0.0181   0.0105   0.0473   0.0778   0.0931   0.1136   0.1233
     0.2360   0.2595   0.2712   0.3158   0.3452   0.3554   0.3843   0.4093
     0.4202   0.4306   0.4332   0.4411   0.6114   0.6669   0.7239   0.7646
     0.7773   0.7819   0.7959   0.8099   0.8529   0.8803   0.9076   0.9468
     1.0076   1.0102   1.0344   1.0658   1.0820   1.1043   1.1244   1.1571
     1.1887   1.2168   1.2371   1.2414   1.2579   1.2678   1.3096   1.3169
     1.3283   1.3528   1.3906   1.4060   1.4217   1.4300   1.4578   1.4679
     1.4996   1.5107   1.5139   1.5201   1.5426   1.5913   1.5985   1.6067
     1.6143   1.6370   1.6442   1.6746   1.6838   1.6903   1.6959   1.6978
     1.7189   1.7633   1.7690   1.7814   1.7842   1.7947   1.8038   1.8206
     1.8410   1.8444   1.8503   1.8862   1.9388   1.9539   1.9565   2.0183
     2.0366   2.0988

          k = 0.2000 0.1155 0.0000 ( 51134 PWs)   bands (ev):

   -21.9381  -9.3464  -7.6684  -6.5031  -5.9047  -5.6529  -5.4611  -5.4531
    -5.0743  -4.9906  -4.9514  -4.3655  -4.2118  -4.0898  -4.0706  -3.9809
    -3.8361  -3.7888  -3.4833  -3.4166  -3.3197  -3.2548  -2.9833  -2.8367
    -2.7879  -2.7264  -2.7162  -2.5808  -2.4668  -2.3899  -2.3815  -2.3595
    -2.3511  -2.3124  -2.3008  -2.2998  -2.2600  -2.1782  -2.1187  -2.1169
    -2.0282  -2.0277  -1.9681  -1.8749  -1.8386  -1.8297  -1.8096  -1.7114
    -1.6939  -1.6612  -1.6108  -1.6004  -1.5694  -1.5529  -1.5340  -1.5333
    -1.5315  -1.4793  -1.4496  -1.4058  -1.3960  -1.3806  -1.3440  -1.3039
    -1.2377  -1.1810  -0.9831  -0.9370  -0.9195  -0.9105  -0.8379  -0.8161
    -0.8028  -0.6974  -0.6835  -0.6820  -0.6469  -0.5925  -0.5786  -0.5527
    -0.5333  -0.5101  -0.5030  -0.4875  -0.4821  -0.4588  -0.4585  -0.3859
    -0.3490  -0.3400  -0.3319  -0.3256  -0.3095  -0.2744  -0.2725  -0.2637
    -0.2577  -0.2448  -0.2439  -0.2370  -0.2331  -0.2287  -0.1938  -0.1854
    -0.1580  -0.1486  -0.1284  -0.1269  -0.1153  -0.0931  -0.0702  -0.0616
    -0.0361  -0.0192   0.0250   0.0668   0.0674   0.0914   0.1002   0.1225
     0.2052   0.2752   0.3040   0.3096   0.3502   0.3650   0.3739   0.4053
     0.4225   0.4237   0.4379   0.4423   0.6506   0.6604   0.6948   0.7604
     0.7810   0.7840   0.8053   0.8093   0.8541   0.8908   0.8916   0.9540
     0.9667   1.0211   1.0481   1.0672   1.0765   1.1127   1.1311   1.1348
     1.1774   1.2259   1.2322   1.2491   1.2673   1.2696   1.3102   1.3141
     1.3282   1.3596   1.3946   1.4136   1.4205   1.4292   1.4531   1.4690
     1.4936   1.5121   1.5178   1.5281   1.5348   1.5869   1.5898   1.6035
     1.6174   1.6375   1.6423   1.6752   1.6854   1.6946   1.6947   1.6973
     1.7195   1.7637   1.7698   1.7813   1.7827   1.7948   1.8047   1.8192
     1.8422   1.8438   1.8498   1.8685   1.9377   1.9522   1.9577   2.0146
     2.0420   2.0864

          k = 0.2000 0.3464 0.0000 ( 51202 PWs)   bands (ev):

   -21.9381  -9.3325  -7.3887  -6.3429  -6.1209  -6.0175  -5.6927  -5.4752
    -5.4084  -5.0441  -4.6956  -4.4656  -4.2781  -4.2677  -3.9194  -3.4529
    -3.4420  -3.4371  -3.4199  -3.2813  -3.1632  -3.1385  -3.1191  -2.9315
    -2.7736  -2.6968  -2.6887  -2.6737  -2.6017  -2.5753  -2.5604  -2.4904
    -2.4801  -2.4718  -2.4374  -2.3322  -2.3239  -2.2531  -2.0996  -2.0870
    -2.0626  -2.0039  -1.9783  -1.9622  -1.9344  -1.8072  -1.7517  -1.7408
    -1.6322  -1.6208  -1.5780  -1.5737  -1.5656  -1.5490  -1.5384  -1.5142
    -1.4961  -1.4888  -1.4340  -1.3914  -1.3534  -1.3096  -1.2088  -1.1743
    -1.1199  -1.0786  -1.0043  -0.9613  -0.9075  -0.8816  -0.8739  -0.8491
    -0.8224  -0.7870  -0.7764  -0.7352  -0.7120  -0.6981  -0.6841  -0.6618
    -0.6478  -0.6278  -0.6117  -0.5826  -0.5469  -0.4808  -0.4440  -0.4295
    -0.4240  -0.3879  -0.3645  -0.3478  -0.3351  -0.3097  -0.2996  -0.2904
    -0.2691  -0.2577  -0.2459  -0.2228  -0.2148  -0.1985  -0.1749  -0.1472
    -0.1312  -0.1239  -0.1152  -0.1016  -0.0939  -0.0866  -0.0712  -0.0567
     0.0171   0.0324   0.0355   0.0556   0.1461   0.1635   0.1851   0.2151
     0.2330   0.2654   0.2854   0.2917   0.3248   0.3500   0.3650   0.3714
     0.3758   0.4100   0.4420   0.4685   0.5140   0.5939   0.6321   0.6711
     0.7256   0.7558   0.7906   0.8143   0.8216   0.8336   0.8505   0.8695
     0.8816   0.8979   0.9056   0.9257   0.9652   1.0263   1.0548   1.0850
     1.1124   1.1312   1.1447   1.1614   1.1810   1.2325   1.2450   1.2879
     1.3244   1.3998   1.4242   1.4758   1.4931   1.5018   1.5172   1.5333
     1.5513   1.5529   1.5757   1.5832   1.6425   1.6585   1.6613   1.6661
     1.6822   1.7108   1.7235   1.7382   1.7438   1.7592   1.7659   1.7914
     1.7998   1.8052   1.8154   1.8278   1.8394   1.8548   1.8939   1.9236
     1.9351   1.9674   2.0240   2.0628   2.1684   2.2033   2.3015   2.4904
     2.5226   2.5357

          k = 0.2000-0.5774 0.0000 ( 51262 PWs)   bands (ev):

   -21.9381  -9.3252  -6.8743  -6.8040  -6.2308  -6.0479  -5.7975  -5.5369
    -5.2664  -5.2352  -4.8770  -4.5485  -4.3191  -3.7674  -3.5092  -3.4724
    -3.4696  -3.3768  -3.2273  -3.1382  -3.0642  -3.0531  -3.0494  -2.9188
    -2.9115  -2.9001  -2.8791  -2.8699  -2.7542  -2.6417  -2.5366  -2.5201
    -2.5083  -2.4729  -2.4489  -2.4328  -2.3927  -2.3285  -2.2034  -2.0712
    -1.9891  -1.9799  -1.9644  -1.9223  -1.8912  -1.8076  -1.7452  -1.7285
    -1.6941  -1.6809  -1.6735  -1.5783  -1.5288  -1.5104  -1.5042  -1.4801
    -1.4493  -1.3921  -1.3570  -1.3395  -1.2979  -1.2730  -1.2590  -1.1570
    -1.1096  -1.0205  -0.9779  -0.9608  -0.9500  -0.8947  -0.8826  -0.8404
    -0.8249  -0.8064  -0.7710  -0.7661  -0.7546  -0.7013  -0.6959  -0.6703
    -0.6508  -0.6322  -0.6225  -0.6117  -0.5984  -0.5877  -0.5525  -0.5308
[...]
     atom    8 type  1   force =    -0.00035316   -0.00246141   -0.10401001
     atom    9 type  1   force =    -0.00060347    0.00081974   -0.10539781
     atom   10 type  1   force =    -0.00075450   -0.00042359   -0.01510028
     atom   11 type  1   force =     0.00140089   -0.00237432   -0.01021651
     atom   12 type  1   force =    -0.00073977    0.00130253   -0.01136832
     atom   13 type  1   force =    -0.00136430    0.00239473   -0.01020717
     atom   14 type  1   force =     0.00170951    0.00098624   -0.00523744
     atom   15 type  1   force =    -0.00029972    0.00010062   -0.01026522
     atom   16 type  1   force =     0.00075760   -0.00128918   -0.01137327
     atom   17 type  1   force =    -0.00006593   -0.00031937   -0.01027405
     atom   18 type  1   force =    -0.00079803   -0.00046016   -0.01287493
     atom   19 type  1   force =    -0.00223014   -0.00514693    0.00042855
     atom   20 type  1   force =    -0.00361033   -0.00209390    0.00107623
     atom   21 type  1   force =     0.00650169   -0.00740380   -0.00161765
     atom   22 type  1   force =     0.00165910    0.00469957    0.00757808
     atom   23 type  1   force =    -0.00314968    0.00934420   -0.00162108
     atom   24 type  1   force =     0.00096701    0.00057734    0.01270886
     atom   25 type  1   force =     0.00016333    0.00009355    0.01872137
     atom   26 type  1   force =    -0.00556254    0.00062702    0.00048384
     atom   27 type  1   force =     0.00489283   -0.00091774    0.00757818
     atom   28 type  1   force =     0.00283264    0.00163361    0.12272439
     atom   29 type  1   force =     0.00307011    0.05093799    0.11105808
     atom   30 type  1   force =    -0.00553073    0.00859093    0.13030079
     atom   31 type  1   force =     0.04568661   -0.02280981    0.11108043
     atom   32 type  1   force =    -0.05166740   -0.02978998    0.05420194
     atom   33 type  1   force =    -0.00709537    0.00575833    0.09424701
     atom   34 type  1   force =     0.00463651   -0.00908855    0.13029698
     atom   35 type  1   force =     0.00142080   -0.00927052    0.09458430
     atom   36 type  1   force =    -0.00304490   -0.00175068    0.11167428
     atom   37 type  2   force =    -0.05811400   -0.03349157    0.39487307
     atom   38 type  3   force =     0.23646188    0.13432306   -2.67197383
     atom   39 type  4   force =    -0.00231645   -0.00136101   -0.02156390
     The ionic contribution  to forces
     atom    1 type  1   force =    -0.00708008   -0.00084055 -111.16429292
     atom    2 type  1   force =    -0.00172451   -0.00100637 -111.18201906
     atom    3 type  1   force =     0.00880459   -0.00217707 -111.16775948
     atom    4 type  1   force =    -0.00453963    0.00785144 -111.16375902
     atom    5 type  1   force =     0.00252614    0.00871674 -111.16776315
     atom    6 type  1   force =     0.00201347    0.00117091 -111.15877459
     atom    7 type  1   force =    -0.00026358   -0.00015005 -111.15531613
     atom    8 type  1   force =    -0.00425878   -0.00571438 -111.16427832
     atom    9 type  1   force =     0.00452238   -0.00785067 -111.16374054
     atom   10 type  1   force =    -0.04304963   -0.02489302  -40.09759648
     atom   11 type  1   force =    -0.00320919   -0.06780955  -40.19189825
     atom   12 type  1   force =     0.04625750   -0.03944047  -40.10410018
     atom   13 type  1   force =    -0.06029924    0.03106428  -40.19203987
     atom   14 type  1   force =     0.04514939    0.02602520  -40.22166479
     atom   15 type  1   force =     0.01514778    0.00430784  -40.10335198
     atom   16 type  1   force =    -0.01099281    0.05984236  -40.10417014
     atom   17 type  1   force =     0.01133786    0.01102186  -40.10328533
     atom   18 type  1   force =    -0.00034229   -0.00011886  -40.08080829
     atom   19 type  1   force =    -0.35424920   -0.03612011   31.41394591
     atom   20 type  1   force =    -0.08003262   -0.04685174   30.39989729
     atom   21 type  1   force =     0.43413901   -0.12649812   31.24088016
     atom   22 type  1   force =    -0.22088020    0.37968003   31.43502432
     atom   23 type  1   force =     0.10803178    0.43941910   31.24080774
     atom   24 type  1   force =     0.11208426    0.06510886   31.62313661
     atom   25 type  1   force =    -0.00989543   -0.00562460   31.78706103
     atom   26 type  1   force =    -0.20795030   -0.28885172   31.41460064
     atom   27 type  1   force =     0.21798937   -0.38072439   31.43593434
     atom   28 type  1   force =    -1.49613212   -0.86500481  104.05331336
     atom   29 type  1   force =    -0.09093335   -4.65620892  100.06529105
     atom   30 type  1   force =     1.56252133   -1.24176324  104.00682041
     atom   31 type  1   force =    -4.08163997    2.24753448  100.05480434
     atom   32 type  1   force =     2.97982557    1.71791233   98.95717074
     atom   33 type  1   force =     1.04004379   -0.22066404  103.83501582
     atom   34 type  1   force =    -0.29255126    1.97728077  104.00462345
     atom   35 type  1   force =     0.32889854    1.01015413  103.83852447
     atom   36 type  1   force =    -0.00370583    0.00045051  104.49626301
     atom   37 type  2   force =     0.55615583    0.31271697   51.23601952
     atom   38 type  3   force =    -0.96450873   -0.54986305   90.08115176
     atom   39 type  4   force =     0.46279018    0.26791796   15.06633256
     The local contribution  to forces
     atom    1 type  1   force =     0.00905333    0.00103210  111.27115229
     atom    2 type  1   force =     0.00111722    0.00065470  111.29281405
     atom    3 type  1   force =    -0.01020030    0.00338190  111.27776373
     atom    4 type  1   force =     0.00347462   -0.00752719  111.27101542
     atom    5 type  1   force =    -0.00217920   -0.01052362  111.27776276
     atom    6 type  1   force =    -0.00097124   -0.00057033  111.26325555
     atom    7 type  1   force =    -0.00078804   -0.00046042  111.25835998
     atom    8 type  1   force =     0.00540950    0.00732521  111.27112355
     atom    9 type  1   force =    -0.00477800    0.00677019  111.27100810
     atom   10 type  1   force =     0.04395263    0.02540725   40.09590259
     atom   11 type  1   force =     0.00112346    0.06820929   40.18278992
     atom   12 type  1   force =    -0.04496817    0.03766223   40.09840373
     atom   13 type  1   force =     0.05960898   -0.03306739   40.18291733
     atom   14 type  1   force =    -0.04527143   -0.02609720   40.20818771
     atom   15 type  1   force =    -0.01426550   -0.00494478   40.09234685
     atom   16 type  1   force =     0.01009330   -0.05783517   40.09847936
     atom   17 type  1   force =    -0.01144864   -0.00992790   40.09229236
     atom   18 type  1   force =     0.00188886    0.00101347   40.07193885
     atom   19 type  1   force =     0.35408398    0.03865142  -31.39798629
     atom   20 type  1   force =     0.08483946    0.04963462  -30.38528390
     atom   21 type  1   force =    -0.43951019    0.13010025  -31.22717763
     atom   22 type  1   force =     0.22075750   -0.38065883  -31.42586030
     atom   23 type  1   force =    -0.10760668   -0.44587831  -31.22709000
     atom   24 type  1   force =    -0.11207383   -0.06512122  -31.61286148
     atom   25 type  1   force =     0.00913931    0.00518706  -31.77954142
     atom   26 type  1   force =     0.21006064    0.28744559  -31.39866081
     atom   27 type  1   force =    -0.21890190    0.38110935  -31.42676010
     atom   28 type  1   force =     1.48926234    0.86103258 -104.18485453
     atom   29 type  1   force =     0.08674637    4.58946390 -100.17524265
     atom   30 type  1   force =    -1.55128502    1.22349290 -104.14641855
     atom   31 type  1   force =     4.02160091   -2.21774464 -100.16488644
     atom   32 type  1   force =    -2.92957931   -1.68895463  -98.99944948
     atom   33 type  1   force =    -1.02612279    0.21213646 -103.93240450
     atom   34 type  1   force =     0.28240146   -1.95839929 -104.14422318
     atom   35 type  1   force =    -0.32931521   -0.99368743 -103.93620702
     atom   36 type  1   force =     0.00979038    0.00305261 -104.61791941
     atom   37 type  2   force =    -0.49908296   -0.27983243  -51.62971314
     atom   38 type  3   force =     0.73232979    0.41791451  -87.42937096
     atom   39 type  4   force =    -0.45147876   -0.26126536  -15.05091143
     The core correction contribution to forces
     atom    1 type  1   force =    -0.00010685   -0.00001845    0.01004644
     atom    2 type  1   force =     0.00023767    0.00013787    0.00872509
     atom    3 type  1   force =    -0.00008105   -0.00008831    0.01022990
     atom    4 type  1   force =    -0.00010532   -0.00006207    0.00999679
     atom    5 type  1   force =    -0.00011568   -0.00002631    0.01022992
     atom    6 type  1   force =     0.00013623    0.00007849    0.00998837
     atom    7 type  1   force =     0.00014544    0.00008389    0.01036219
     atom    8 type  1   force =    -0.00006795   -0.00008306    0.01004626
     atom    9 type  1   force =    -0.00010731   -0.00005991    0.00999681
     atom   10 type  1   force =    -0.00015597   -0.00009024   -0.00187233
     atom   11 type  1   force =    -0.00011206   -0.00012917   -0.00195057
     atom   12 type  1   force =     0.00025078   -0.00036933   -0.00170819
     atom   13 type  1   force =    -0.00016791   -0.00003155   -0.00195103
     atom   14 type  1   force =     0.00025654    0.00014808   -0.00181362
     atom   15 type  1   force =    -0.00003860    0.00016980   -0.00188992
     atom   16 type  1   force =    -0.00019561    0.00040223   -0.00170892
     atom   17 type  1   force =     0.00012784   -0.00011667   -0.00188909
     atom   18 type  1   force =     0.00009945    0.00005672   -0.00159914
     atom   19 type  1   force =     0.00027242   -0.00076609    0.00129263
     atom   20 type  1   force =    -0.00101637   -0.00058500    0.00139284
     atom   21 type  1   force =     0.00095428   -0.00071622    0.00075805
     atom   22 type  1   force =    -0.00001255    0.00088786    0.00131893
     atom   23 type  1   force =    -0.00014512    0.00118668    0.00075531
     atom   24 type  1   force =     0.00036029    0.00020690    0.00221004
     atom   25 type  1   force =     0.00001995    0.00001121    0.00194130
     atom   26 type  1   force =    -0.00052825    0.00061592    0.00129494
     atom   27 type  1   force =     0.00076153   -0.00045594    0.00131924
     atom   28 type  1   force =     0.00198210    0.00114824   -0.00924666
     atom   29 type  1   force =     0.00026957    0.00904047   -0.00502155
     atom   30 type  1   force =    -0.00242796    0.00340014   -0.00807285
     atom   31 type  1   force =     0.00797367   -0.00428711   -0.00501227
     atom   32 type  1   force =    -0.00073061   -0.00043141    0.00009954
     atom   33 type  1   force =    -0.00887133    0.00438070   -0.00576977
     atom   34 type  1   force =     0.00171655   -0.00380556   -0.00807781
     atom   35 type  1   force =    -0.00062852   -0.00985520   -0.00578157
     atom   36 type  1   force =    -0.00123914   -0.00071964   -0.01014149
     atom   37 type  2   force =     0.00075568    0.00045013   -0.00135030
     atom   38 type  3   force =    -0.00175319   -0.00099529    0.01959165
     atom   39 type  4   force =     0.00000000    0.00000000    0.00000000
     The Hubbard contrib.    to forces
     atom    1 type  1   force =     0.00000000    0.00000000    0.00000000
     atom    2 type  1   force =     0.00000000    0.00000000    0.00000000
     atom    3 type  1   force =     0.00000000    0.00000000    0.00000000
     atom    4 type  1   force =     0.00000000    0.00000000    0.00000000
     atom    5 type  1   force =     0.00000000    0.00000000    0.00000000
     atom    6 type  1   force =     0.00000000    0.00000000    0.00000000
     atom    7 type  1   force =     0.00000000    0.00000000    0.00000000
     atom    8 type  1   force =     0.00000000    0.00000000    0.00000000
     atom    9 type  1   force =     0.00000000    0.00000000    0.00000000
     atom   10 type  1   force =     0.00000000    0.00000000    0.00000000
     atom   11 type  1   force =     0.00000000    0.00000000    0.00000000
     atom   12 type  1   force =     0.00000000    0.00000000    0.00000000
     atom   13 type  1   force =     0.00000000    0.00000000    0.00000000
     atom   14 type  1   force =     0.00000000    0.00000000    0.00000000
     atom   15 type  1   force =     0.00000000    0.00000000    0.00000000
     atom   16 type  1   force =     0.00000000    0.00000000    0.00000000
     atom   17 type  1   force =     0.00000000    0.00000000    0.00000000
     atom   18 type  1   force =     0.00000000    0.00000000    0.00000000
     atom   19 type  1   force =     0.00000000    0.00000000    0.00000000
     atom   20 type  1   force =     0.00000000    0.00000000    0.00000000
     atom   21 type  1   force =     0.00000000    0.00000000    0.00000000
     atom   22 type  1   force =     0.00000000    0.00000000    0.00000000
     atom   23 type  1   force =     0.00000000    0.00000000    0.00000000
     atom   24 type  1   force =     0.00000000    0.00000000    0.00000000
     atom   25 type  1   force =     0.00000000    0.00000000    0.00000000
     atom   26 type  1   force =     0.00000000    0.00000000    0.00000000
     atom   27 type  1   force =     0.00000000    0.00000000    0.00000000
     atom   28 type  1   force =     0.00000000    0.00000000    0.00000000
     atom   29 type  1   force =     0.00000000    0.00000000    0.00000000
     atom   30 type  1   force =     0.00000000    0.00000000    0.00000000
     atom   31 type  1   force =     0.00000000    0.00000000    0.00000000
     atom   32 type  1   force =     0.00000000    0.00000000    0.00000000
     atom   33 type  1   force =     0.00000000    0.00000000    0.00000000
     atom   34 type  1   force =     0.00000000    0.00000000    0.00000000
     atom   35 type  1   force =     0.00000000    0.00000000    0.00000000
     atom   36 type  1   force =     0.00000000    0.00000000    0.00000000
     atom   37 type  2   force =     0.00000000    0.00000000    0.00000000
     atom   38 type  3   force =     0.00000000    0.00000000    0.00000000
     atom   39 type  4   force =     0.00000000    0.00000000    0.00000000
     The SCF correction term to forces
     atom    1 type  1   force =     0.00000000   -0.00000000    0.00000000
     atom    2 type  1   force =    -0.00000000   -0.00000000    0.00000000
     atom    3 type  1   force =    -0.00000000   -0.00000000    0.00000000
     atom    4 type  1   force =    -0.00000000   -0.00000000    0.00000000
     atom    5 type  1   force =    -0.00000000   -0.00000000    0.00000000
     atom    6 type  1   force =     0.00000000    0.00000000   -0.00000000
     atom    7 type  1   force =     0.00000000    0.00000000    0.00000000
     atom    8 type  1   force =     0.00000000    0.00000000    0.00000000
     atom    9 type  1   force =    -0.00000000    0.00000000    0.00000000
     atom   10 type  1   force =     0.00000000    0.00000000    0.00000000
     atom   11 type  1   force =    -0.00000000    0.00000000    0.00000000
     atom   12 type  1   force =    -0.00000000    0.00000000    0.00000000
     atom   13 type  1   force =     0.00000000   -0.00000000    0.00000000
     atom   14 type  1   force =    -0.00000000   -0.00000000    0.00000000
     atom   15 type  1   force =     0.00000000   -0.00000000    0.00000000
     atom   16 type  1   force =    -0.00000000   -0.00000000    0.00000000
     atom   17 type  1   force =    -0.00000000    0.00000000    0.00000000
     atom   18 type  1   force =     0.00000000    0.00000000    0.00000000
     atom   19 type  1   force =     0.00000000   -0.00000000    0.00000000
     atom   20 type  1   force =    -0.00000000   -0.00000000    0.00000000
     atom   21 type  1   force =     0.00000000   -0.00000000    0.00000000
     atom   22 type  1   force =     0.00000000   -0.00000000    0.00000000
     atom   23 type  1   force =    -0.00000000    0.00000000    0.00000000
     atom   24 type  1   force =    -0.00000000   -0.00000000    0.00000000
     atom   25 type  1   force =     0.00000000    0.00000000    0.00000000
     atom   26 type  1   force =    -0.00000000    0.00000000    0.00000000
     atom   27 type  1   force =     0.00000000    0.00000000    0.00000000
     atom   28 type  1   force =     0.00000000    0.00000000    0.00000000
     atom   29 type  1   force =    -0.00000000    0.00000000    0.00000000
     atom   30 type  1   force =     0.00000000    0.00000000    0.00000000
     atom   31 type  1   force =    -0.00000000   -0.00000000    0.00000000
     atom   32 type  1   force =    -0.00000000   -0.00000000    0.00000000
     atom   33 type  1   force =     0.00000000   -0.00000000    0.00000000
     atom   34 type  1   force =     0.00000000    0.00000000    0.00000000
     atom   35 type  1   force =    -0.00000000    0.00000000    0.00000000
     atom   36 type  1   force =     0.00000000    0.00000000    0.00000000
     atom   37 type  2   force =    -0.00001056   -0.00000682    0.00000843
     atom   38 type  3   force =    -0.00000640   -0.00000422    0.00001868
     atom   39 type  4   force =     0.00000064    0.00000042    0.00000324

     Total force =     0.012462     Total SCF correction =     0.000025

     Writing all to output data dir ./pwscf.save/

     init_run     :     11.23s CPU     11.69s WALL (       1 calls)
     electrons    :    944.97s CPU    987.60s WALL (       1 calls)
     forces       :      3.55s CPU      3.66s WALL (       1 calls)

     Called by init_run:
     wfcinit      :      8.17s CPU      8.52s WALL (       1 calls)
     potinit      :      1.96s CPU      2.05s WALL (       1 calls)
     hinit0       :      0.84s CPU      0.85s WALL (       1 calls)

     Called by electrons:
     c_bands      :    790.40s CPU    827.71s WALL (      52 calls)
     sum_band     :    108.96s CPU    113.18s WALL (      52 calls)
     v_of_rho     :      9.21s CPU      9.62s WALL (      53 calls)
     newd         :      3.00s CPU      3.05s WALL (      53 calls)
     PAW_pot      :     13.39s CPU     13.55s WALL (      53 calls)
     mix_rho      :     21.08s CPU     21.41s WALL (      52 calls)
     vdW_kernel   :      1.09s CPU      1.10s WALL (       1 calls)

     Called by c_bands:
     init_us_2    :      9.75s CPU     10.12s WALL (    2756 calls)
     init_us_2:cp :      9.74s CPU     10.11s WALL (    2756 calls)
     cegterg      :    762.21s CPU    797.63s WALL (    1352 calls)

     Called by *egterg:
     cdiaghg      :    206.92s CPU    215.15s WALL (    4606 calls)
     h_psi        :    367.90s CPU    387.01s WALL (    4632 calls)
     s_psi        :     38.72s CPU     41.04s WALL (    4632 calls)
     g_psi        :      0.99s CPU      1.01s WALL (    3254 calls)

     Called by h_psi:
     h_psi:calbec :     57.99s CPU     61.31s WALL (    4632 calls)
     vloc_psi     :    268.03s CPU    281.22s WALL (    4632 calls)
     add_vuspsi   :     39.46s CPU     42.02s WALL (    4632 calls)

     General routines
     calbec       :     88.38s CPU     92.64s WALL (    6088 calls)
     fft          :      6.41s CPU      6.84s WALL (    4794 calls)
     ffts         :     12.34s CPU     12.56s WALL (   22067 calls)
     fftw         :    314.47s CPU    329.84s WALL ( 1406446 calls)
     interpolate  :      0.39s CPU      0.41s WALL (     106 calls)

     Parallel routines

     PWSCF        :  16m 9.47s CPU  16m57.55s WALL


   This run was terminated on:  10:30:35  14Dec2025            

=------------------------------------------------------------------------------=
   JOB DONE.
=------------------------------------------------------------------------------=
