
     Program PWSCF v.7.1 starts on 31Oct2025 at 20:39:58 
        Git branch: heads/qe-7.1
        Last git commit: 48ba0178f8fede6d020eb786884699a9f063f55d-dirty
        Last git commit date: Fri Jan 27 14:22:33 2023 +0000
        Last git commit subject: Merge branch 'fix_hubbard' into 'develop'

     This program is part of the open-source Quantum ESPRESSO suite
     for quantum simulation of materials; please cite
         "P. Giannozzi et al., J. Phys.:Condens. Matter 21 395502 (2009);
         "P. Giannozzi et al., J. Phys.:Condens. Matter 29 465901 (2017);
         "P. Giannozzi et al., J. Chem. Phys. 152 154105 (2020);
          URL http://www.quantum-espresso.org", 
     in publications or presentations arising from this work. More details at
     http://www.quantum-espresso.org/quote

     Parallel version (MPI), running on    48 processors

     MPI processes distributed on     1 nodes
     160606 MiB available memory on the printing compute node when the environment starts

     Reading input from espresso.pwi
Warning: card &CELL ignored
Warning: card / ignored
Warning: card &FCP ignored
Warning: card / ignored
Warning: card &RISM ignored
Warning: card / ignored

     Current dimensions of program PWSCF are:
     Max number of different atomic species (ntypx) = 10
     Max number of k-points (npk) =  40000
     Max angular momentum in pseudopotentials (lmaxx) =  4
     file Pt.pbe-n-kjpaw_psl.1.0.0.UPF: wavefunction(s)  6S 5D renormalized
     file H.pbe-kjpaw_psl.1.0.0.UPF: wavefunction(s)  1S renormalized

     **************************************************************************
     Initializing libbeef V0.1.2 with the BEEF-vdW functional.
     Citation: Wellendorff et al., PRB 85, 235149 (2012).
     **************************************************************************


     IMPORTANT: XC functional enforced from input :
     Exchange-correlation= BEEF-VDW
                           (   1   4  43  14   2   0   0)
     Any further DFT definition will be discarded
     Please, verify this is what you really want


     R & G space division:  proc/nbgrp/npool/nimage =      48
     Subspace diagonalization in iterative solution of the eigenvalue problem:
     one sub-group per band group will be used
     custom distributed-memory algorithm (size of sub-group:  2*  2 procs)


     Parallelization info
     --------------------
     sticks:   dense  smooth     PW     G-vecs:    dense   smooth      PW
     Min         151      59     16                29407     7165    1028
     Max         152      60     17                29420     7176    1042
     Sum        7267    2839    769              1411785   344073   49691

     Using Slab Decomposition



     bravais-lattice index     =            0
     lattice parameter (alat)  =      16.0349  a.u.
     unit-cell volume          =   10068.6169 (a.u.)^3
     number of atoms/cell      =           37
     number of atomic types    =            2
     number of electrons       =       361.00
     number of Kohn-Sham states=          217
     kinetic-energy cutoff     =      40.0000  Ry
     charge density cutoff     =     410.0000  Ry
     scf convergence threshold =      1.0E-06
     mixing beta               =       0.7000
     number of iterations used =            8  local-TF  mixing
     Exchange-correlation= BEEF-VDW
                           (   1   4  43  14   2   0   0)

     celldm(1)=  16.034858  celldm(2)=   0.000000  celldm(3)=   0.000000
     celldm(4)=   0.000000  celldm(5)=   0.000000  celldm(6)=   0.000000

     crystal axes: (cart. coord. in units of alat)
               a(1) = (   1.000000   0.000000   0.000000 )  
               a(2) = (   0.500000   0.866025   0.000000 )  
               a(3) = (   0.000000   0.000000   2.819966 )  

     reciprocal axes: (cart. coord. in units 2 pi/alat)
               b(1) = (  1.000000 -0.577350  0.000000 )  
               b(2) = (  0.000000  1.154701  0.000000 )  
               b(3) = (  0.000000  0.000000  0.354614 )  


     PseudoPot. # 1 for Pt read from file:
     /users/kbadger1/espresso/pseudo/pslibrary.1.0.0/pbe/PSEUDOPOTENTIALS/Pt.pbe-n-kjpaw_psl.1.0.0.UPF
     MD5 check sum: 2e24a0b5bf98a4ed1a57fa81bca8c143
     Pseudo is Projector augmented-wave + core cor, Zval = 10.0
     Generated using 'atomic' code by A. Dal Corso  v.7.0
     Shape of augmentation charge: PSQ
     Using radial grid of 1277 points,  6 beta functions with: 
                l(1) =   0
                l(2) =   0
                l(3) =   1
                l(4) =   1
                l(5) =   2
                l(6) =   2
     Q(r) pseudized with 0 coefficients 


     PseudoPot. # 2 for H  read from file:
     /users/kbadger1/espresso/pseudo/pslibrary.1.0.0/pbe/PSEUDOPOTENTIALS/H.pbe-kjpaw_psl.1.0.0.UPF
     MD5 check sum: fe4c6fa958fa6d3815bf5d2419cbf1df
     Pseudo is Projector augmented-wave, Zval =  1.0
     Generated using 'atomic' code by A. Dal Corso  v.7.0
     Shape of augmentation charge: PSQ
     Using radial grid of  929 points,  2 beta functions with: 
                l(1) =   0
                l(2) =   0
     Q(r) pseudized with 0 coefficients 


     atomic species   valence    mass     pseudopotential
        Pt            10.00   195.08400     Pt( 1.00)
        H              1.00     1.00800     H ( 1.00)

     No symmetry found



   Cartesian axes

     site n.     atom                  positions (alat units)
         1           Pt  tau(   1) = (   0.0000000   0.0000000   1.0017346  )
         2           Pt  tau(   2) = (   0.3333333   0.0000000   1.0017346  )
         3           Pt  tau(   3) = (   0.6666667   0.0000000   1.0017346  )
         4           Pt  tau(   4) = (   0.1666667   0.2886751   1.0017346  )
         5           Pt  tau(   5) = (   0.5000000   0.2886751   1.0017346  )
         6           Pt  tau(   6) = (   0.8333333   0.2886751   1.0017346  )
         7           Pt  tau(   7) = (   0.3333333   0.5773503   1.0017346  )
         8           Pt  tau(   8) = (   0.6666667   0.5773503   1.0017346  )
         9           Pt  tau(   9) = (   1.0000000   0.5773503   1.0017346  )
        10           Pt  tau(  10) = (   0.1666667   0.0962250   1.2739001  )
        11           Pt  tau(  11) = (   0.5000000   0.0962250   1.2739001  )
        12           Pt  tau(  12) = (   0.8333333   0.0962250   1.2739001  )
        13           Pt  tau(  13) = (   0.3333333   0.3849002   1.2739001  )
        14           Pt  tau(  14) = (   0.6666667   0.3849002   1.2739001  )
        15           Pt  tau(  15) = (   1.0000000   0.3849002   1.2739001  )
        16           Pt  tau(  16) = (   0.5000000   0.6735753   1.2739001  )
        17           Pt  tau(  17) = (   0.8333333   0.6735753   1.2739001  )
        18           Pt  tau(  18) = (   1.1666667   0.6735753   1.2739001  )
        19           Pt  tau(  19) = (   0.0004869   0.1925928   1.5450651  )
        20           Pt  tau(  20) = (   0.3332118   0.1922790   1.5477574  )
        21           Pt  tau(  21) = (   0.6658950   0.1925933   1.5450492  )
        22           Pt  tau(  22) = (   0.1665990   0.4802728   1.5450767  )
        23           Pt  tau(  23) = (   0.4998208   0.4802537   1.5450588  )
        24           Pt  tau(  24) = (   0.8331978   0.4809669   1.5437629  )
        25           Pt  tau(  25) = (   0.3331929   0.7696415   1.5425967  )
        26           Pt  tau(  26) = (   0.6671148   0.7700275   1.5450555  )
        27           Pt  tau(  27) = (   0.9993029   0.7700481   1.5450594  )
        28           Pt  tau(  28) = (  -0.0015681  -0.0010504   1.8186103  )
        29           Pt  tau(  29) = (   0.3331145  -0.0039160   1.8266373  )
        30           Pt  tau(  30) = (   0.6677507  -0.0010426   1.8186156  )
        31           Pt  tau(  31) = (   0.1633031   0.2902057   1.8266562  )
        32           Pt  tau(  32) = (   0.5028766   0.2901760   1.8266336  )
        33           Pt  tau(  33) = (   0.8330735   0.2882364   1.8191208  )
        34           Pt  tau(  34) = (   0.3330986   0.5785965   1.8186403  )
        35           Pt  tau(  35) = (   0.6662960   0.5771202   1.8191303  )
        36           Pt  tau(  36) = (   0.9998896   0.5771397   1.8191422  )
        37           H   tau(  37) = (   0.3330221   0.1921313   1.9272303  )

     number of k points=    13  Marzari-Vanderbilt smearing, width (Ry)=  0.0010
                       cart. coord. in units 2pi/alat
        k(    1) = (   0.0000000   0.0000000   0.0000000), wk =   0.0800000
        k(    2) = (   0.0000000   0.2309401   0.0000000), wk =   0.1600000
        k(    3) = (   0.0000000   0.4618802   0.0000000), wk =   0.1600000
        k(    4) = (   0.2000000  -0.1154701   0.0000000), wk =   0.1600000
        k(    5) = (   0.2000000   0.1154701   0.0000000), wk =   0.1600000
        k(    6) = (   0.2000000   0.3464102   0.0000000), wk =   0.1600000
        k(    7) = (   0.2000000  -0.5773503   0.0000000), wk =   0.1600000
        k(    8) = (   0.2000000  -0.3464102   0.0000000), wk =   0.1600000
        k(    9) = (   0.4000000  -0.2309401   0.0000000), wk =   0.1600000
        k(   10) = (   0.4000000  -0.0000000   0.0000000), wk =   0.1600000
        k(   11) = (   0.4000000   0.2309401   0.0000000), wk =   0.1600000
        k(   12) = (   0.4000000  -0.6928203   0.0000000), wk =   0.1600000
        k(   13) = (   0.4000000  -0.4618802   0.0000000), wk =   0.1600000

     Dense  grid:  1411785 G-vectors     FFT dimensions: ( 108, 108, 300)

     Smooth grid:   344073 G-vectors     FFT dimensions: (  72,  72, 192)

     Estimated max dynamical RAM per process >     203.68 MB

     Estimated total dynamical RAM >       9.55 GB

     Initial potential from superposition of free atoms

     starting charge     360.9939, renormalised to     361.0000

     negative rho (up, down):  3.361E-03 0.000E+00


     %%%%%%%%%%%%%%%%%%%%%%%%%%%%%%%%%%%%%%%%%%%%%%%%%%%%%%%%%%%%%%%%%%%%%%%%
     %                                                                      %
     % You are using vdW-DF, which was implemented by the Thonhauser group. %
     % Please cite the following two papers that made this development      %
     % possible and the two reviews that describe the various versions:     %
     %                                                                      %
     %   T. Thonhauser et al., PRL 115, 136402 (2015).                      %
     %   T. Thonhauser et al., PRB 76, 125112 (2007).                       %
     %   K. Berland et al., Rep. Prog. Phys. 78, 066501 (2015).             %
     %   D.C. Langreth et al., J. Phys.: Condens. Matter 21, 084203 (2009). %
     %                                                                      %
     % If you are calculating stress with vdW-DF, please also cite:         %
     %                                                                      %
     %   R. Sabatini et al., J. Phys.: Condens. Matter 24, 424209 (2012).   %
     %                                                                      %
     %%%%%%%%%%%%%%%%%%%%%%%%%%%%%%%%%%%%%%%%%%%%%%%%%%%%%%%%%%%%%%%%%%%%%%%%

     %%%%%%%%%%%%%%%%%%%%%%%%%%%%%%%%%%%%%%%%%%%%%%%%%%%%%%%%%%%%%%%%%%%%%%%%
     %                                                                      %
     %  vdW-DF NEWS:                                                        %
     %                                                                      %
     %  * vdW-DF3 is now available. DOI: 10.1021/acs.jctc.0c00471           %
     %    use with input_dft = 'vdW-DF3-opt1' or 'vdW-DF3-opt2'             %
     %                                                                      %
     %  * Unscreened and range-separated hybrid vdW-DF-cx functionals       %
     %    DOI: 10.1063/1.4986522 and 10.1088/1361-648X/ac2ad2               %
     %    use with input_dft = 'vdW-DF-cx0'    and 'vdW-DF-ahcx'            %
     %  * Unscreened and range-separated hybrid vdW-DF2-b86r functionals    %
     %    DOI: 10.1063/1.4986522 and DOI: 10.1103/PhysRevX.12.041003        %
     %    use with input_dft = 'vdW-DF2-br0' and 'vdW-DF2-ahbr'             %
     %                                                                      %
     %%%%%%%%%%%%%%%%%%%%%%%%%%%%%%%%%%%%%%%%%%%%%%%%%%%%%%%%%%%%%%%%%%%%%%%%


     Starting wfcs are  325 randomized atomic wfcs
     Checking if some PAW data can be deallocated... 

     total cpu time spent up to now is       10.3 secs

     per-process dynamical memory:   208.1 Mb

     Self-consistent Calculation

     iteration #  1     ecut=    40.00 Ry     beta= 0.70
     Davidson diagonalization with overlap
     ethr =  1.00E-02,  avg # of iterations =  2.0

     Threshold (ethr) on eigenvalues was too large:
     Diagonalizing with lowered threshold

     Davidson diagonalization with overlap
     ethr =  3.39E-04,  avg # of iterations =  3.6

     negative rho (up, down):  1.697E-02 0.000E+00

     total cpu time spent up to now is       40.0 secs

     total energy              =  -27755.29765139 Ry
     estimated scf accuracy    <       1.41795460 Ry

     iteration #  2     ecut=    40.00 Ry     beta= 0.70
     Davidson diagonalization with overlap
     ethr =  3.93E-04,  avg # of iterations =  2.0

     negative rho (up, down):  1.529E-02 0.000E+00

     total cpu time spent up to now is       52.3 secs

     total energy              =  -27755.38234198 Ry
     estimated scf accuracy    <       0.71306721 Ry

     iteration #  3     ecut=    40.00 Ry     beta= 0.70
     Davidson diagonalization with overlap
     ethr =  1.98E-04,  avg # of iterations =  2.0

     negative rho (up, down):  1.057E-02 0.000E+00

     total cpu time spent up to now is       64.8 secs

     total energy              =  -27755.42848022 Ry
     estimated scf accuracy    <       0.12390070 Ry

     iteration #  4     ecut=    40.00 Ry     beta= 0.70
     Davidson diagonalization with overlap
     c_bands:  1 eigenvalues not converged
     c_bands:  1 eigenvalues not converged
     c_bands:  1 eigenvalues not converged
     ethr =  3.43E-05,  avg # of iterations = 10.7

     negative rho (up, down):  7.738E-03 0.000E+00

     total cpu time spent up to now is       94.2 secs

     total energy              =  -27755.47470571 Ry
     estimated scf accuracy    <       0.10589319 Ry

     iteration #  5     ecut=    40.00 Ry     beta= 0.70
     Davidson diagonalization with overlap
     ethr =  2.93E-05,  avg # of iterations =  2.8

     negative rho (up, down):  3.073E-03 0.000E+00

     total cpu time spent up to now is      107.4 secs

     total energy              =  -27755.47638781 Ry
     estimated scf accuracy    <       0.03471515 Ry

     iteration #  6     ecut=    40.00 Ry     beta= 0.70
     Davidson diagonalization with overlap
     c_bands:  1 eigenvalues not converged
     c_bands:  1 eigenvalues not converged
     c_bands:  1 eigenvalues not converged
     ethr =  9.62E-06,  avg # of iterations =  7.5

     negative rho (up, down):  1.980E-03 0.000E+00

     total cpu time spent up to now is      122.7 secs

     total energy              =  -27755.47989059 Ry
     estimated scf accuracy    <       0.00574254 Ry

     iteration #  7     ecut=    40.00 Ry     beta= 0.70
     Davidson diagonalization with overlap
     c_bands:  2 eigenvalues not converged
     c_bands:  1 eigenvalues not converged
     c_bands:  1 eigenvalues not converged
     ethr =  1.59E-06,  avg # of iterations = 14.1

     negative rho (up, down):  1.490E-03 0.000E+00

     total cpu time spent up to now is      157.7 secs

     total energy              =  -27755.48107533 Ry
     estimated scf accuracy    <       0.00234766 Ry

     iteration #  8     ecut=    40.00 Ry     beta= 0.70
     Davidson diagonalization with overlap
     ethr =  6.50E-07,  avg # of iterations =  4.2

     negative rho (up, down):  1.302E-03 0.000E+00

     total cpu time spent up to now is      172.5 secs

     total energy              =  -27755.48136275 Ry
     estimated scf accuracy    <       0.00043770 Ry

     iteration #  9     ecut=    40.00 Ry     beta= 0.70
     Davidson diagonalization with overlap
     ethr =  1.21E-07,  avg # of iterations =  4.0

     negative rho (up, down):  1.022E-03 0.000E+00

     total cpu time spent up to now is      192.8 secs

     total energy              =  -27755.48149226 Ry
     estimated scf accuracy    <       0.00027196 Ry

     iteration # 10     ecut=    40.00 Ry     beta= 0.70
     Davidson diagonalization with overlap
     ethr =  7.53E-08,  avg # of iterations =  2.1

     negative rho (up, down):  1.032E-03 0.000E+00

     total cpu time spent up to now is      206.3 secs

     total energy              =  -27755.48151734 Ry
     estimated scf accuracy    <       0.00005439 Ry

     iteration # 11     ecut=    40.00 Ry     beta= 0.70
     Davidson diagonalization with overlap
     ethr =  1.51E-08,  avg # of iterations =  4.0

     negative rho (up, down):  1.057E-03 0.000E+00

     total cpu time spent up to now is      221.8 secs

     total energy              =  -27755.48152804 Ry
     estimated scf accuracy    <       0.00006075 Ry

     iteration # 12     ecut=    40.00 Ry     beta= 0.70
     Davidson diagonalization with overlap
     ethr =  1.51E-08,  avg # of iterations =  1.5

     negative rho (up, down):  1.130E-03 0.000E+00

     total cpu time spent up to now is      233.6 secs

     total energy              =  -27755.48153270 Ry
     estimated scf accuracy    <       0.00002950 Ry

     iteration # 13     ecut=    40.00 Ry     beta= 0.70
     Davidson diagonalization with overlap
     ethr =  8.17E-09,  avg # of iterations =  1.2

     negative rho (up, down):  1.511E-03 0.000E+00

     total cpu time spent up to now is      244.4 secs

     total energy              =  -27755.48153815 Ry
     estimated scf accuracy    <       0.00002424 Ry

     iteration # 14     ecut=    40.00 Ry     beta= 0.70
     Davidson diagonalization with overlap
     ethr =  6.71E-09,  avg # of iterations =  1.5

     negative rho (up, down):  1.894E-03 0.000E+00

     total cpu time spent up to now is      257.2 secs

     total energy              =  -27755.48153923 Ry
     estimated scf accuracy    <       0.00001038 Ry

     iteration # 15     ecut=    40.00 Ry     beta= 0.70
     Davidson diagonalization with overlap
     ethr =  2.88E-09,  avg # of iterations =  2.2

     negative rho (up, down):  2.335E-03 0.000E+00

     total cpu time spent up to now is      269.6 secs

     total energy              =  -27755.48153829 Ry
     estimated scf accuracy    <       0.00000426 Ry

     iteration # 16     ecut=    40.00 Ry     beta= 0.70
     Davidson diagonalization with overlap
     ethr =  1.18E-09,  avg # of iterations =  3.4

     negative rho (up, down):  2.568E-03 0.000E+00

     total cpu time spent up to now is      283.7 secs

     total energy              =  -27755.48153763 Ry
     estimated scf accuracy    <       0.00000193 Ry

     iteration # 17     ecut=    40.00 Ry     beta= 0.70
     Davidson diagonalization with overlap
     ethr =  5.35E-10,  avg # of iterations =  3.5

     negative rho (up, down):  2.865E-03 0.000E+00

     total cpu time spent up to now is      298.4 secs

     total energy              =  -27755.48153643 Ry
     estimated scf accuracy    <       0.00000125 Ry

     iteration # 18     ecut=    40.00 Ry     beta= 0.70
     Davidson diagonalization with overlap
     ethr =  3.47E-10,  avg # of iterations =  2.0

     negative rho (up, down):  3.151E-03 0.000E+00

     total cpu time spent up to now is      310.3 secs

     End of self-consistent calculation

          k = 0.0000 0.0000 0.0000 ( 42913 PWs)   bands (ev):

    -6.2934  -5.2796  -4.5631  -3.8895  -3.8568  -3.8424  -3.8418  -3.8290
    -3.8283  -3.8189  -3.5552  -3.3079  -3.3076  -3.2872  -3.2871  -3.2847
    -3.2253  -2.8459  -2.8458  -2.8398  -2.8340  -2.8339  -2.7119  -2.6161
    -2.6160  -2.6058  -2.5997  -2.5996  -2.5211  -2.4132  -2.4130  -2.4046
    -2.4046  -2.4014  -2.3449  -2.3449  -2.3389  -2.3343  -2.2942  -2.2941
    -1.8738  -1.7810  -1.7739  -1.7340  -1.7339  -1.7073  -1.7073  -1.6900
    -1.6732  -1.6729  -1.5479  -1.5385  -1.5385  -1.4253  -1.4253  -0.9773
    -0.9770  -0.9575  -0.9544  -0.9541  -0.8989  -0.8576  -0.7791  -0.7790
    -0.7728  -0.7728  -0.7637  -0.7637  -0.7378  -0.7100  -0.7098  -0.6938
    -0.6927  -0.6924  -0.6706  -0.6594  -0.6592  -0.5537  -0.5530  -0.5385
    -0.5377  -0.5362  -0.5017  -0.3377  -0.3376  -0.3339  -0.3329  -0.3257
    -0.2993  -0.2894  -0.2883  -0.2345  -0.2344  -0.1810  -0.1809  -0.1451
    -0.1389  -0.0995  -0.0952  -0.0952   0.0020   0.0713   0.0724   0.0834
     0.0956   0.0970   0.0980   0.3144   0.5790   0.5792   0.5870   0.6019
     0.6020   0.6175   0.6218   0.6219   0.6312   0.6313   0.6406   0.7112
     0.7112   0.7750   0.8584   0.8586   0.8689   0.8690   0.8850   0.9814
     0.9815   1.0539   1.0543   1.0656   1.0694   1.2981   1.2982   1.3200
     1.3293   1.3293   1.3342   1.3965   1.3966   1.5472   1.5476   1.5482
     1.5535   1.5636   1.5643   1.7201   1.7225   1.7230   1.7447   1.7480
     1.7574   1.7577   1.7667   1.7671   1.7771   1.7795   1.7800   1.8678
     1.8740   1.8743   1.9014   1.9015   1.9320   1.9321   1.9397   1.9827
     1.9847   1.9847   2.0284   2.0285   2.0415   2.0415   2.0467   2.1152
     2.1153   2.1267   2.1374   2.1455   2.1455   2.2194   2.2357   2.2358
     2.2551   2.2605   2.2672   2.2673   2.4573   2.4595   2.5542   2.5553
     2.5557   2.5713   2.5715   2.5778   3.1390   3.4185   3.4193   3.4203
     3.4583   3.4704   3.4710   5.4215   5.7102   5.7112   5.7757   5.7764
     5.7804   7.2837   7.3125   7.3128   7.3991   7.4028   7.4031   7.5379
     7.6361

          k = 0.0000 0.2309 0.0000 ( 42996 PWs)   bands (ev):

    -6.1475  -5.1746  -4.5098  -4.3200  -3.9508  -3.9430  -3.7487  -3.6474
    -3.6047  -3.5999  -3.5257  -3.3889  -3.3496  -3.2373  -3.2183  -3.2145
    -3.1531  -2.9136  -2.8048  -2.7948  -2.7903  -2.7637  -2.7183  -2.6813
    -2.6631  -2.6256  -2.5969  -2.5950  -2.5314  -2.4962  -2.4895  -2.4277
    -2.4075  -2.3949  -2.3924  -2.2510  -2.1977  -2.1637  -2.1581  -2.1334
    -1.9187  -1.8915  -1.8846  -1.8484  -1.8020  -1.7791  -1.7746  -1.7092
    -1.5992  -1.5667  -1.5182  -1.5012  -1.4526  -1.4412  -1.4053  -1.2196
    -1.1282  -1.1254  -1.0723  -1.0524  -1.0155  -0.9721  -0.9606  -0.9478
    -0.9249  -0.9210  -0.8653  -0.8493  -0.8005  -0.7681  -0.7577  -0.7273
    -0.6770  -0.6676  -0.6417  -0.5790  -0.5671  -0.5603  -0.5278  -0.4970
    -0.4747  -0.4730  -0.4339  -0.4069  -0.3591  -0.3582  -0.3396  -0.3312
    -0.3069  -0.3013  -0.2696  -0.2363  -0.1993  -0.1897  -0.1735  -0.1597
    -0.1334  -0.1283  -0.1051  -0.0832  -0.0188   0.0330   0.0434   0.0785
     0.0888   0.0914   0.1006   0.1040   0.1521   0.1617   0.1659   0.1757
     0.4160   0.5155   0.5594   0.5778   0.5874   0.5924   0.6072   0.6377
     0.6511   0.7188   0.7869   0.8094   0.8846   0.9365   0.9401   0.9823
     0.9925   0.9974   1.0402   1.0483   1.0629   1.1510   1.1783   1.1909
     1.2002   1.2070   1.3663   1.3825   1.4107   1.4171   1.4359   1.4364
     1.4639   1.5367   1.5448   1.5794   1.5896   1.5970   1.6565   1.6591
     1.6734   1.6843   1.7762   1.7883   1.8169   1.8201   1.8616   1.9237
     1.9305   1.9563   1.9716   1.9855   2.0188   2.0336   2.0906   2.0964
     2.1633   2.1653   2.1822   2.1884   2.2159   2.2216   2.2240   2.2369
     2.2407   2.3036   2.3075   2.4439   2.4487   2.4665   2.4834   2.5046
     2.5056   2.5332   2.5549   2.5678   2.5778   2.6444   2.6778   2.7024
     2.7799   2.8651   2.8729   2.8897   2.9245   3.2658   3.3159   3.8365
     4.0288   4.0676   4.1746   4.9602   5.3913   5.4708   6.1389   6.2138
     6.2184   6.3078   6.5465   7.0064   7.1583   7.3505   7.5599   7.5622
     7.6319

          k = 0.0000 0.4619 0.0000 ( 43046 PWs)   bands (ev):

    -5.7303  -5.1375  -4.8684  -4.2676  -3.9835  -3.9740  -3.7953  -3.6180
    -3.4683  -3.3630  -3.2595  -3.2562  -3.2239  -3.1098  -3.0687  -3.0362
    -3.0345  -3.0268  -2.9050  -2.8651  -2.8649  -2.8172  -2.8151  -2.8083
    -2.7381  -2.6926  -2.6881  -2.5960  -2.4544  -2.4350  -2.4250  -2.4215
    -2.4093  -2.3100  -2.1882  -2.1747  -2.1727  -2.1404  -2.1277  -2.0289
    -1.9536  -1.8666  -1.8592  -1.8450  -1.7934  -1.7816  -1.7413  -1.7040
    -1.7025  -1.6663  -1.6438  -1.6013  -1.4815  -1.4752  -1.4572  -1.3704
    -1.3295  -1.2964  -1.2581  -1.2565  -1.1781  -1.1134  -1.0558  -1.0544
    -1.0469  -0.9841  -0.9443  -0.9426  -0.8746  -0.8318  -0.7998  -0.7934
    -0.7720  -0.7004  -0.6950  -0.6500  -0.6458  -0.6394  -0.5970  -0.5698
    -0.5586  -0.5473  -0.5300  -0.5158  -0.5011  -0.4953  -0.4516  -0.3898
    -0.3786  -0.3726  -0.3556  -0.3505  -0.3246  -0.2438  -0.2116  -0.1830
    -0.1518  -0.1326  -0.1195  -0.0978  -0.0621  -0.0513   0.0421   0.0679
     0.0939   0.1136   0.1371   0.1697   0.2104   0.3098   0.3393   0.4012
     0.4172   0.4690   0.5057   0.5274   0.5340   0.5426   0.5430   0.6003
     0.6030   0.6406   0.6442   0.6539   0.6854   0.7034   0.7192   0.7392
     0.7617   0.8618   0.8739   0.8916   0.9485   0.9922   1.0755   1.0939
     1.1752   1.1835   1.2475   1.2953   1.3509   1.3563   1.4022   1.4142
     1.4469   1.4581   1.5026   1.5180   1.5558   1.5570   1.6239   1.6694
     1.6704   1.7177   1.7257   1.7383   1.7399   1.7806   1.8871   1.9189
     1.9732   1.9844   2.0136   2.0310   2.0898   2.1173   2.1205   2.2079
     2.2123   2.2200   2.2329   2.2985   2.3159   2.3178   2.3353   2.4516
     2.4553   2.4752   2.4804   2.4876   2.4908   2.5132   2.5232   2.6926
     2.7255   2.7263   2.7399   2.7430   2.8886   2.9388   3.1573   3.3244
     3.3689   3.5743   3.7708   3.7823   4.0732   4.1569   4.2740   4.4753
     4.7918   4.9971   5.0016   5.0849   5.2000   5.2336   5.3440   5.3725
     5.5848   5.6423   6.1931   6.2750   6.6768   6.8037   7.1769   7.2708
     7.8002

          k = 0.2000-0.1155 0.0000 ( 42996 PWs)   bands (ev):

    -6.1475  -5.1746  -4.5097  -4.3199  -3.9509  -3.9431  -3.7487  -3.6470
    -3.6049  -3.6001  -3.5258  -3.3889  -3.3495  -3.2372  -3.2182  -3.2144
    -3.1531  -2.9138  -2.8047  -2.7948  -2.7902  -2.7636  -2.7184  -2.6814
    -2.6632  -2.6255  -2.5969  -2.5947  -2.5313  -2.4963  -2.4896  -2.4274
    -2.4075  -2.3949  -2.3924  -2.2509  -2.1977  -2.1637  -2.1580  -2.1337
    -1.9188  -1.8916  -1.8847  -1.8484  -1.8019  -1.7791  -1.7745  -1.7091
    -1.5993  -1.5668  -1.5182  -1.5012  -1.4526  -1.4412  -1.4052  -1.2200
    -1.1281  -1.1253  -1.0727  -1.0527  -1.0156  -0.9725  -0.9600  -0.9476
    -0.9249  -0.9207  -0.8652  -0.8493  -0.8007  -0.7683  -0.7578  -0.7274
    -0.6766  -0.6669  -0.6406  -0.5791  -0.5673  -0.5605  -0.5277  -0.4972
    -0.4757  -0.4734  -0.4333  -0.4069  -0.3590  -0.3580  -0.3397  -0.3312
    -0.3070  -0.3013  -0.2696  -0.2362  -0.2000  -0.1890  -0.1737  -0.1597
    -0.1334  -0.1283  -0.1048  -0.0830  -0.0189   0.0331   0.0433   0.0784
     0.0890   0.0917   0.1006   0.1042   0.1520   0.1616   0.1658   0.1757
     0.4156   0.5151   0.5594   0.5779   0.5875   0.5927   0.6072   0.6378
     0.6512   0.7188   0.7870   0.8097   0.8849   0.9366   0.9403   0.9814
     0.9933   0.9974   1.0403   1.0484   1.0630   1.1510   1.1783   1.1908
     1.2001   1.2070   1.3663   1.3826   1.4108   1.4170   1.4358   1.4363
     1.4638   1.5367   1.5447   1.5794   1.5896   1.5968   1.6565   1.6590
     1.6734   1.6842   1.7762   1.7883   1.8167   1.8200   1.8619   1.9238
     1.9306   1.9563   1.9717   1.9857   2.0191   2.0337   2.0906   2.0964
     2.1633   2.1653   2.1823   2.1884   2.2159   2.2215   2.2241   2.2370
     2.2405   2.3039   2.3078   2.4441   2.4490   2.4661   2.4833   2.5043
     2.5055   2.5329   2.5548   2.5673   2.5776   2.6445   2.6779   2.7025
     2.7799   2.8651   2.8727   2.8897   2.9249   3.2655   3.3154   3.8366
     4.0288   4.0677   4.1748   4.9606   5.3909   5.4704   6.1390   6.2138
     6.2183   6.3077   6.5467   7.0064   7.1584   7.3512   7.5598   7.5620
     7.6328

          k = 0.2000 0.1155 0.0000 ( 42996 PWs)   bands (ev):

    -6.1475  -5.1746  -4.5097  -4.3195  -3.9511  -3.9434  -3.7487  -3.6463
    -3.6052  -3.6005  -3.5258  -3.3891  -3.3494  -3.2370  -3.2179  -3.2143
    -3.1530  -2.9143  -2.8046  -2.7948  -2.7900  -2.7635  -2.7185  -2.6813
    -2.6633  -2.6256  -2.5965  -2.5947  -2.5312  -2.4966  -2.4899  -2.4269
    -2.4075  -2.3950  -2.3924  -2.2509  -2.1977  -2.1638  -2.1580  -2.1343
    -1.9188  -1.8918  -1.8848  -1.8484  -1.8018  -1.7789  -1.7745  -1.7093
    -1.5996  -1.5668  -1.5182  -1.5013  -1.4527  -1.4411  -1.4051  -1.2206
    -1.1280  -1.1253  -1.0735  -1.0534  -1.0159  -0.9734  -0.9591  -0.9471
    -0.9248  -0.9202  -0.8651  -0.8492  -0.8010  -0.7686  -0.7580  -0.7278
    -0.6761  -0.6655  -0.6385  -0.5791  -0.5677  -0.5611  -0.5276  -0.4976
    -0.4765  -0.4753  -0.4323  -0.4069  -0.3587  -0.3578  -0.3398  -0.3313
    -0.3070  -0.3012  -0.2698  -0.2360  -0.2010  -0.1879  -0.1740  -0.1595
    -0.1334  -0.1281  -0.1043  -0.0827  -0.0189   0.0330   0.0432   0.0783
     0.0893   0.0922   0.1004   0.1044   0.1519   0.1614   0.1658   0.1757
     0.4148   0.5144   0.5596   0.5780   0.5880   0.5930   0.6071   0.6380
     0.6515   0.7186   0.7869   0.8101   0.8855   0.9369   0.9406   0.9801
     0.9947   0.9972   1.0405   1.0487   1.0630   1.1510   1.1785   1.1907
     1.1998   1.2070   1.3666   1.3826   1.4111   1.4169   1.4356   1.4360
     1.4636   1.5366   1.5447   1.5793   1.5896   1.5963   1.6561   1.6587
     1.6733   1.6843   1.7763   1.7884   1.8165   1.8197   1.8624   1.9239
     1.9305   1.9565   1.9717   1.9860   2.0197   2.0337   2.0907   2.0963
     2.1633   2.1653   2.1823   2.1884   2.2158   2.2214   2.2241   2.2371
     2.2403   2.3044   2.3083   2.4443   2.4496   2.4654   2.4831   2.5040
     2.5051   2.5324   2.5546   2.5665   2.5770   2.6448   2.6779   2.7026
     2.7801   2.8652   2.8722   2.8898   2.9255   3.2648   3.3146   3.8369
     4.0289   4.0680   4.1751   4.9614   5.3904   5.4697   6.1389   6.2139
     6.2184   6.3076   6.5470   7.0066   7.1586   7.3524   7.5596   7.5615
     7.6318

          k = 0.2000 0.3464 0.0000 ( 43046 PWs)   bands (ev):

    -5.8649  -5.0306  -4.6084  -4.5940  -4.2785  -3.5397  -3.5290  -3.5245
    -3.5139  -3.4780  -3.4550  -3.4327  -3.3501  -3.3330  -3.1815  -2.9540
    -2.9492  -2.9357  -2.9283  -2.8575  -2.8432  -2.7261  -2.7153  -2.7147
    -2.6881  -2.6365  -2.5854  -2.5685  -2.5562  -2.5499  -2.4958  -2.4604
    -2.4484  -2.3887  -2.3820  -2.2864  -2.1750  -2.0458  -1.9748  -1.9530
    -1.9118  -1.9063  -1.8901  -1.8886  -1.8382  -1.8139  -1.7536  -1.6726
    -1.6562  -1.6189  -1.5420  -1.5118  -1.4801  -1.4727  -1.4453  -1.3841
    -1.3402  -1.2213  -1.2002  -1.1820  -1.1144  -1.0874  -1.0769  -1.0636
    -1.0417  -1.0063  -0.9788  -0.8594  -0.8451  -0.8323  -0.8131  -0.7932
    -0.7553  -0.7247  -0.6971  -0.6617  -0.6540  -0.5677  -0.5608  -0.5301
    -0.5182  -0.5098  -0.4785  -0.4589  -0.4477  -0.4246  -0.3957  -0.3887
    -0.3598  -0.3277  -0.2485  -0.2433  -0.2338  -0.2065  -0.1844  -0.1784
    -0.1543  -0.1169  -0.1071  -0.0996  -0.0859  -0.0835  -0.0801  -0.0653
    -0.0328  -0.0091   0.0766   0.0999   0.1487   0.2081   0.2303   0.2559
     0.2596   0.4402   0.4481   0.4937   0.5595   0.5680   0.6034   0.6172
     0.6386   0.6457   0.6995   0.7017   0.7333   0.7387   0.7501   0.8361
     0.9305   0.9877   1.0016   1.0041   1.0230   1.0444   1.0849   1.1331
     1.1950   1.2092   1.2404   1.2958   1.3217   1.3539   1.4019   1.4468
     1.4539   1.4643   1.5148   1.5387   1.5452   1.5595   1.5689   1.5718
     1.5900   1.5991   1.6112   1.7154   1.7527   1.7977   1.9294   1.9396
     1.9658   2.0862   2.1114   2.1168   2.1239   2.2040   2.2329   2.2476
     2.2530   2.2714   2.2973   2.3011   2.3203   2.3277   2.3385   2.3804
     2.3936   2.4095   2.4823   2.5083   2.5107   2.5335   2.5417   2.5970
     2.7259   2.7460   2.7727   2.7902   2.8388   2.8618   2.8678   2.9659
     3.0010   3.3265   3.5088   3.5470   3.9188   4.0743   4.0814   4.0879
     4.6005   4.7772   4.7985   4.9625   5.0095   5.0483   5.6445   6.0897
     6.1865   6.2153   6.4152   6.6720   6.9271   6.9634   6.9961   7.0068
     7.3894

          k = 0.2000-0.5774 0.0000 ( 43014 PWs)   bands (ev):

    -5.3843  -5.3015  -4.8663  -4.6198  -4.0852  -3.8747  -3.5263  -3.4960
    -3.3811  -3.3406  -3.2416  -3.2320  -3.1316  -3.1227  -3.0501  -3.0243
    -3.0000  -2.9912  -2.9617  -2.9424  -2.8387  -2.8046  -2.7991  -2.7843
    -2.7527  -2.7452  -2.6821  -2.6147  -2.5530  -2.4580  -2.4299  -2.4030
    -2.3932  -2.3585  -2.3377  -2.3018  -2.1705  -2.1526  -2.0410  -1.9834
    -1.9591  -1.9301  -1.8458  -1.8351  -1.7822  -1.7380  -1.6648  -1.6055
    -1.5856  -1.5719  -1.5489  -1.4955  -1.4847  -1.4583  -1.3818  -1.3651
    -1.3396  -1.3263  -1.3163  -1.3146  -1.2686  -1.2414  -1.1978  -1.1305
    -1.0794  -1.0504  -1.0338  -0.9679  -0.9155  -0.8973  -0.8620  -0.8359
    -0.8225  -0.8001  -0.7677  -0.7526  -0.7264  -0.6947  -0.6699  -0.6221
    -0.5898  -0.5662  -0.4959  -0.4898  -0.4683  -0.4655  -0.4038  -0.3310
    -0.2975  -0.2955  -0.2839  -0.2661  -0.2265  -0.2025  -0.1971  -0.1798
    -0.1694  -0.1624  -0.1463  -0.0958  -0.0823  -0.0683  -0.0590  -0.0513
    -0.0440  -0.0398  -0.0095   0.0294   0.0684   0.2406   0.2694   0.3314
     0.3533   0.4364   0.4514   0.4627   0.4961   0.5087   0.5449   0.5550
     0.5689   0.5821   0.6637   0.6885   0.7033   0.7353   0.7617   0.7914
     0.8405   0.8456   0.9005   1.0065   1.0470   1.1031   1.1141   1.1361
     1.1833   1.2010   1.2389   1.2429   1.2574   1.2696   1.2887   1.3011
     1.4080   1.4242   1.4399   1.4592   1.4733   1.5161   1.5254   1.5447
     1.5491   1.6938   1.7152   1.7762   1.8401   1.8678   1.9396   1.9524
     2.0004   2.0614   2.0751   2.0787   2.1645   2.1816   2.2572   2.2781
     2.2892   2.3012   2.3047   2.3326   2.3575   2.3993   2.4555   2.4601
     2.4931   2.5027   2.5151   2.5192   2.5216   2.5913   2.6858   2.7263
     2.7330   2.7413   2.7444   2.7964   2.8421   2.9197   3.0200   3.7619
     3.8859   3.9101   4.0833   4.1366   4.2165   4.2657   4.2836   4.6291
     4.8501   4.9063   5.1052   5.3399   5.3663   5.4486   5.4902   5.6710
     5.7672   5.8309   5.8848   6.1360   6.2662   6.3223   6.7952   6.9494
     6.9811

          k = 0.2000-0.3464 0.0000 ( 43046 PWs)   bands (ev):

    -5.8649  -5.0305  -4.6084  -4.5941  -4.2785  -3.5395  -3.5292  -3.5248
    -3.5141  -3.4781  -3.4544  -3.4322  -3.3501  -3.3329  -3.1817  -2.9546
    -2.9498  -2.9355  -2.9282  -2.8580  -2.8431  -2.7261  -2.7153  -2.7147
    -2.6876  -2.6365  -2.5846  -2.5685  -2.5559  -2.5497  -2.4961  -2.4604
    -2.4486  -2.3888  -2.3819  -2.2874  -2.1752  -2.0456  -1.9745  -1.9529
    -1.9115  -1.9061  -1.8899  -1.8885  -1.8382  -1.8140  -1.7534  -1.6727
    -1.6562  -1.6187  -1.5419  -1.5117  -1.4800  -1.4729  -1.4453  -1.3842
    -1.3402  -1.2210  -1.1997  -1.1816  -1.1135  -1.0872  -1.0766  -1.0634
    -1.0416  -1.0063  -0.9787  -0.8595  -0.8455  -0.8330  -0.8136  -0.7932
    -0.7554  -0.7245  -0.6974  -0.6618  -0.6547  -0.5675  -0.5603  -0.5298
    -0.5180  -0.5096  -0.4789  -0.4591  -0.4483  -0.4240  -0.3961  -0.3892
    -0.3609  -0.3277  -0.2484  -0.2435  -0.2340  -0.2067  -0.1844  -0.1788
    -0.1547  -0.1165  -0.1064  -0.0990  -0.0857  -0.0835  -0.0801  -0.0654
    -0.0329  -0.0092   0.0766   0.1000   0.1489   0.2076   0.2298   0.2558
     0.2594   0.4404   0.4483   0.4933   0.5595   0.5678   0.6030   0.6167
     0.6386   0.6459   0.6998   0.7020   0.7332   0.7386   0.7500   0.8374
     0.9294   0.9876   1.0016   1.0040   1.0228   1.0445   1.0847   1.1330
     1.1951   1.2089   1.2403   1.2956   1.3215   1.3536   1.4018   1.4472
     1.4540   1.4643   1.5149   1.5390   1.5454   1.5598   1.5690   1.5721
     1.5903   1.5995   1.6116   1.7150   1.7527   1.7978   1.9291   1.9393
     1.9656   2.0862   2.1115   2.1168   2.1240   2.2038   2.2327   2.2483
     2.2530   2.2715   2.2973   2.3011   2.3200   2.3272   2.3381   2.3801
     2.3932   2.4105   2.4818   2.5085   2.5103   2.5335   2.5417   2.5969
     2.7267   2.7467   2.7734   2.7906   2.8390   2.8621   2.8677   2.9658
     3.0008   3.3260   3.5084   3.5467   3.9190   4.0748   4.0818   4.0883
     4.6004   4.7772   4.7982   4.9623   5.0095   5.0483   5.6445   6.0902
     6.1869   6.2157   6.4149   6.6716   6.9268   6.9629   6.9918   7.0062
     7.0343

          k = 0.4000-0.2309 0.0000 ( 43046 PWs)   bands (ev):

    -5.7303  -5.1374  -4.8683  -4.2676  -3.9836  -3.9741  -3.7952  -3.6177
    -3.4683  -3.3629  -3.2597  -3.2564  -3.2238  -3.1097  -3.0685  -3.0363
    -3.0344  -3.0267  -2.9049  -2.8653  -2.8651  -2.8170  -2.8149  -2.8083
    -2.7380  -2.6926  -2.6882  -2.5960  -2.4545  -2.4350  -2.4252  -2.4217
    -2.4094  -2.3101  -2.1883  -2.1749  -2.1727  -2.1405  -2.1279  -2.0289
    -1.9537  -1.8666  -1.8592  -1.8449  -1.7933  -1.7815  -1.7412  -1.7045
    -1.7023  -1.6662  -1.6437  -1.6015  -1.4816  -1.4754  -1.4572  -1.3705
    -1.3297  -1.2972  -1.2586  -1.2565  -1.1783  -1.1135  -1.0557  -1.0542
    -1.0467  -0.9839  -0.9446  -0.9423  -0.8746  -0.8316  -0.7991  -0.7923
    -0.7717  -0.7007  -0.6949  -0.6501  -0.6459  -0.6394  -0.5972  -0.5700
    -0.5591  -0.5474  -0.5301  -0.5158  -0.5006  -0.4952  -0.4517  -0.3899
    -0.3785  -0.3730  -0.3556  -0.3509  -0.3241  -0.2441  -0.2116  -0.1824
    -0.1513  -0.1323  -0.1198  -0.0976  -0.0617  -0.0509   0.0422   0.0680
     0.0937   0.1134   0.1371   0.1698   0.2104   0.3098   0.3390   0.4012
     0.4173   0.4690   0.5059   0.5275   0.5339   0.5421   0.5426   0.6003
     0.6030   0.6406   0.6445   0.6539   0.6856   0.7038   0.7197   0.7394
     0.7611   0.8620   0.8742   0.8919   0.9485   0.9924   1.0758   1.0943
     1.1753   1.1836   1.2471   1.2948   1.3509   1.3562   1.4023   1.4145
     1.4466   1.4579   1.5025   1.5178   1.5556   1.5568   1.6240   1.6692
     1.6703   1.7177   1.7257   1.7382   1.7398   1.7809   1.8872   1.9190
     1.9734   1.9845   2.0137   2.0311   2.0900   2.1173   2.1205   2.2079
     2.2125   2.2201   2.2330   2.2984   2.3162   2.3181   2.3352   2.4517
     2.4553   2.4750   2.4805   2.4877   2.4905   2.5127   2.5229   2.6928
     2.7250   2.7262   2.7395   2.7427   2.8887   2.9388   3.1572   3.3239
     3.3690   3.5746   3.7708   3.7824   4.0732   4.1569   4.2742   4.4749
     4.7914   4.9970   5.0016   5.0850   5.2001   5.2336   5.3437   5.3721
     5.5848   5.6423   6.1933   6.2747   6.6769   6.8038   7.1769   7.2708
     7.7999

          k = 0.4000-0.0000 0.0000 ( 43046 PWs)   bands (ev):

    -5.8649  -5.0305  -4.6082  -4.5941  -4.2785  -3.5396  -3.5290  -3.5244
    -3.5138  -3.4780  -3.4553  -3.4330  -3.3501  -3.3330  -3.1814  -2.9537
    -2.9490  -2.9358  -2.9284  -2.8572  -2.8433  -2.7260  -2.7152  -2.7146
    -2.6884  -2.6365  -2.5858  -2.5686  -2.5562  -2.5500  -2.4958  -2.4604
    -2.4482  -2.3888  -2.3820  -2.2858  -2.1752  -2.0459  -1.9748  -1.9531
    -1.9118  -1.9064  -1.8903  -1.8887  -1.8382  -1.8139  -1.7537  -1.6727
    -1.6563  -1.6189  -1.5420  -1.5118  -1.4802  -1.4726  -1.4452  -1.3841
    -1.3402  -1.2215  -1.2004  -1.1822  -1.1148  -1.0877  -1.0769  -1.0637
    -1.0418  -1.0063  -0.9789  -0.8593  -0.8447  -0.8320  -0.8128  -0.7933
    -0.7551  -0.7249  -0.6968  -0.6614  -0.6539  -0.5678  -0.5611  -0.5303
    -0.5183  -0.5100  -0.4783  -0.4588  -0.4474  -0.4249  -0.3955  -0.3886
    -0.3592  -0.3277  -0.2485  -0.2433  -0.2337  -0.2065  -0.1845  -0.1783
    -0.1540  -0.1171  -0.1074  -0.0999  -0.0861  -0.0836  -0.0801  -0.0653
    -0.0328  -0.0090   0.0766   0.0998   0.1487   0.2083   0.2306   0.2560
     0.2598   0.4401   0.4481   0.4939   0.5596   0.5681   0.6036   0.6175
     0.6385   0.6457   0.6994   0.7015   0.7333   0.7387   0.7503   0.8353
     0.9310   0.9877   1.0016   1.0042   1.0231   1.0444   1.0850   1.1332
     1.1951   1.2092   1.2404   1.2959   1.3217   1.3540   1.4018   1.4465
     1.4539   1.4644   1.5147   1.5384   1.5452   1.5594   1.5688   1.5717
     1.5899   1.5989   1.6110   1.7156   1.7528   1.7976   1.9296   1.9398
     1.9659   2.0862   2.1114   2.1167   2.1239   2.2042   2.2331   2.2471
     2.2529   2.2714   2.2973   2.3010   2.3204   2.3279   2.3387   2.3805
     2.3937   2.4090   2.4826   2.5086   2.5106   2.5336   2.5417   2.5971
     2.7254   2.7456   2.7724   2.7900   2.8388   2.8616   2.8678   2.9660
     3.0010   3.3266   3.5089   3.5472   3.9186   4.0741   4.0811   4.0877
     4.6005   4.7772   4.7987   4.9626   5.0095   5.0483   5.6444   6.0894
     6.1863   6.2151   6.4155   6.6721   6.9272   6.9636   6.9964   7.0066
     7.3890

          k = 0.4000 0.2309 0.0000 ( 43046 PWs)   bands (ev):

    -5.7303  -5.1373  -4.8683  -4.2676  -3.9838  -3.9743  -3.7952  -3.6171
    -3.4683  -3.3628  -3.2600  -3.2568  -3.2236  -3.1093  -3.0683  -3.0365
    -3.0342  -3.0265  -2.9047  -2.8655  -2.8655  -2.8167  -2.8147  -2.8081
    -2.7378  -2.6927  -2.6883  -2.5958  -2.4547  -2.4353  -2.4254  -2.4217
    -2.4098  -2.3103  -2.1883  -2.1749  -2.1729  -2.1407  -2.1283  -2.0292
    -1.9537  -1.8664  -1.8590  -1.8450  -1.7932  -1.7813  -1.7411  -1.7054
    -1.7020  -1.6660  -1.6434  -1.6016  -1.4820  -1.4757  -1.4574  -1.3708
    -1.3302  -1.2986  -1.2595  -1.2565  -1.1787  -1.1136  -1.0554  -1.0539
    -1.0463  -0.9835  -0.9450  -0.9418  -0.8747  -0.8314  -0.7974  -0.7906
    -0.7714  -0.7015  -0.6948  -0.6502  -0.6460  -0.6393  -0.5976  -0.5703
    -0.5598  -0.5477  -0.5305  -0.5158  -0.4996  -0.4950  -0.4520  -0.3902
    -0.3783  -0.3735  -0.3555  -0.3518  -0.3232  -0.2447  -0.2117  -0.1813
    -0.1504  -0.1321  -0.1204  -0.0974  -0.0609  -0.0499   0.0423   0.0682
     0.0933   0.1131   0.1373   0.1699   0.2106   0.3099   0.3384   0.4010
     0.4173   0.4691   0.5060   0.5275   0.5337   0.5415   0.5419   0.6002
     0.6031   0.6406   0.6449   0.6541   0.6857   0.7047   0.7208   0.7398
     0.7600   0.8623   0.8748   0.8922   0.9486   0.9929   1.0764   1.0949
     1.1754   1.1835   1.2463   1.2942   1.3508   1.3560   1.4027   1.4150
     1.4462   1.4574   1.5023   1.5177   1.5551   1.5563   1.6240   1.6691
     1.6699   1.7175   1.7256   1.7382   1.7397   1.7816   1.8875   1.9192
     1.9736   1.9847   2.0139   2.0313   2.0903   2.1174   2.1204   2.2081
     2.2127   2.2203   2.2331   2.2983   2.3168   2.3188   2.3350   2.4519
     2.4552   2.4747   2.4806   2.4880   2.4899   2.5119   2.5222   2.6929
     2.7247   2.7253   2.7389   2.7419   2.8888   2.9389   3.1572   3.3230
     3.3692   3.5750   3.7709   3.7824   4.0733   4.1569   4.2747   4.4742
     4.7910   4.9970   5.0016   5.0849   5.2005   5.2338   5.3432   5.3713
     5.5848   5.6423   6.1938   6.2741   6.6772   6.8041   7.1772   7.2709
     7.7993

          k = 0.4000-0.6928 0.0000 ( 43014 PWs)   bands (ev):

    -5.3842  -5.3014  -4.8663  -4.6199  -4.0852  -3.8745  -3.5257  -3.4958
    -3.3811  -3.3408  -3.2420  -3.2323  -3.1314  -3.1224  -3.0499  -3.0240
    -3.0003  -2.9910  -2.9623  -2.9429  -2.8379  -2.8044  -2.7991  -2.7839
    -2.7525  -2.7450  -2.6822  -2.6148  -2.5534  -2.4584  -2.4301  -2.4028
    -2.3931  -2.3594  -2.3379  -2.3018  -2.1711  -2.1531  -2.0412  -1.9823
    -1.9594  -1.9302  -1.8457  -1.8350  -1.7821  -1.7379  -1.6636  -1.6051
    -1.5851  -1.5718  -1.5493  -1.4973  -1.4863  -1.4586  -1.3821  -1.3654
    -1.3403  -1.3262  -1.3166  -1.3151  -1.2683  -1.2412  -1.1980  -1.1304
    -1.0792  -1.0509  -1.0338  -0.9676  -0.9166  -0.8963  -0.8612  -0.8353
    -0.8213  -0.7989  -0.7681  -0.7526  -0.7262  -0.6949  -0.6699  -0.6225
    -0.5903  -0.5667  -0.4950  -0.4893  -0.4699  -0.4650  -0.4044  -0.3293
    -0.2977  -0.2961  -0.2847  -0.2668  -0.2263  -0.2017  -0.1963  -0.1791
    -0.1678  -0.1609  -0.1453  -0.0964  -0.0850  -0.0680  -0.0584  -0.0517
    -0.0442  -0.0402  -0.0096   0.0300   0.0679   0.2418   0.2699   0.3314
     0.3531   0.4363   0.4518   0.4630   0.4954   0.5083   0.5450   0.5558
     0.5686   0.5813   0.6638   0.6883   0.7039   0.7358   0.7621   0.7907
     0.8406   0.8458   0.9022   1.0066   1.0469   1.1032   1.1138   1.1359
     1.1834   1.2007   1.2386   1.2423   1.2576   1.2698   1.2885   1.3011
     1.4078   1.4242   1.4394   1.4590   1.4732   1.5156   1.5254   1.5449
     1.5494   1.6933   1.7161   1.7772   1.8402   1.8680   1.9393   1.9521
     2.0005   2.0616   2.0750   2.0785   2.1646   2.1817   2.2570   2.2790
     2.2897   2.3014   2.3050   2.3326   2.3573   2.3985   2.4552   2.4599
     2.4940   2.5029   2.5152   2.5191   2.5217   2.5917   2.6862   2.7256
     2.7324   2.7404   2.7435   2.7962   2.8410   2.9196   3.0201   3.7622
     3.8859   3.9101   4.0839   4.1360   4.2168   4.2657   4.2846   4.6282
     4.8499   4.9062   5.1053   5.3401   5.3661   5.4486   5.4904   5.6672
     5.7671   5.8311   5.8858   6.1354   6.2663   6.3230   6.7943   6.9504
     6.9825

          k = 0.4000-0.4619 0.0000 ( 43014 PWs)   bands (ev):

    -5.3842  -5.3015  -4.8663  -4.6198  -4.0853  -3.8746  -3.5261  -3.4960
    -3.3811  -3.3407  -3.2418  -3.2321  -3.1315  -3.1227  -3.0501  -3.0242
    -3.0001  -2.9911  -2.9619  -2.9426  -2.8384  -2.8045  -2.7991  -2.7842
    -2.7527  -2.7451  -2.6822  -2.6148  -2.5532  -2.4581  -2.4300  -2.4030
    -2.3931  -2.3589  -2.3377  -2.3018  -2.1707  -2.1528  -2.0410  -1.9830
    -1.9592  -1.9302  -1.8457  -1.8351  -1.7821  -1.7380  -1.6643  -1.6054
    -1.5855  -1.5718  -1.5490  -1.4962  -1.4852  -1.4585  -1.3819  -1.3652
    -1.3398  -1.3263  -1.3164  -1.3148  -1.2685  -1.2413  -1.1978  -1.1305
    -1.0793  -1.0506  -1.0338  -0.9678  -0.9159  -0.8970  -0.8617  -0.8356
    -0.8221  -0.7997  -0.7679  -0.7526  -0.7263  -0.6948  -0.6699  -0.6222
    -0.5900  -0.5663  -0.4955  -0.4896  -0.4688  -0.4654  -0.4039  -0.3304
    -0.2980  -0.2953  -0.2842  -0.2663  -0.2264  -0.2022  -0.1968  -0.1795
    -0.1691  -0.1616  -0.1459  -0.0960  -0.0834  -0.0683  -0.0588  -0.0516
    -0.0441  -0.0398  -0.0095   0.0296   0.0682   0.2410   0.2695   0.3312
     0.3534   0.4363   0.4516   0.4627   0.4959   0.5086   0.5449   0.5552
     0.5688   0.5819   0.6638   0.6884   0.7035   0.7355   0.7618   0.7911
     0.8405   0.8457   0.9011   1.0066   1.0470   1.1032   1.1140   1.1360
     1.1834   1.2008   1.2387   1.2427   1.2575   1.2697   1.2886   1.3011
     1.4079   1.4242   1.4397   1.4591   1.4733   1.5159   1.5254   1.5447
     1.5492   1.6936   1.7155   1.7765   1.8402   1.8679   1.9395   1.9523
     2.0004   2.0614   2.0751   2.0787   2.1646   2.1817   2.2571   2.2784
     2.2894   2.3013   2.3048   2.3326   2.3574   2.3990   2.4554   2.4600
     2.4934   2.5028   2.5151   2.5192   2.5217   2.5914   2.6860   2.7260
     2.7328   2.7409   2.7441   2.7963   2.8417   2.9197   3.0200   3.7619
     3.8859   3.9101   4.0835   4.1364   4.2166   4.2657   4.2839   4.6288
     4.8500   4.9063   5.1052   5.3399   5.3662   5.4486   5.4903   5.6696
     5.7672   5.8311   5.8851   6.1358   6.2663   6.3224   6.7949   6.9498
     6.9815

     the Fermi energy is     2.4985 ev

!    total energy              =  -27755.48153473 Ry
     total all-electron energy =  -1326642.246951 Ry
     estimated scf accuracy    <       0.00000036 Ry
     smearing contrib. (-TS)   =      -0.00001725 Ry
     internal energy E=F+TS    =  -27755.48151748 Ry

     The total energy is F=E-TS. E is the sum of the following terms:
     one-electron contribution =  -20600.90465160 Ry
     hartree contribution      =   10607.58807495 Ry
     xc contribution           =    -890.65904276 Ry
     ewald contribution        =    8602.45853428 Ry
     one-center paw contrib.   =  -25473.96443235 Ry

     convergence has been achieved in  18 iterations

     negative rho (up, down):  3.151E-03 0.000E+00

     Forces acting on atoms (cartesian axes, Ry/au):

     atom    1 type  1   force =     0.00013906    0.00008430   -0.00612798
     atom    2 type  1   force =     0.00003958    0.00000420   -0.00462068
     atom    3 type  1   force =    -0.00008057    0.00011129   -0.00611596
     atom    4 type  1   force =     0.00002224    0.00004610   -0.00464227
     atom    5 type  1   force =     0.00006501    0.00005320   -0.00461800
     atom    6 type  1   force =     0.00001087   -0.00005953   -0.00549902
     atom    7 type  1   force =     0.00005310   -0.00008007   -0.00613015
     atom    8 type  1   force =    -0.00005572    0.00009104   -0.00547329
     atom    9 type  1   force =     0.00009304    0.00010002   -0.00548910
     atom   10 type  1   force =     0.00018200    0.00006062    0.00833690
     atom   11 type  1   force =    -0.00018256    0.00009807    0.00837153
     atom   12 type  1   force =    -0.00007155    0.00030604    0.00196794
     atom   13 type  1   force =     0.00002999   -0.00025114    0.00838922
     atom   14 type  1   force =    -0.00043756   -0.00028282    0.00587419
     atom   15 type  1   force =     0.00033528   -0.00026804    0.00589983
     atom   16 type  1   force =     0.00027522   -0.00021606    0.00198812
     atom   17 type  1   force =    -0.00004092    0.00043900    0.00589807
     atom   18 type  1   force =    -0.00031713   -0.00015761    0.00202803
     atom   19 type  1   force =     0.00000219    0.00000935   -0.00000390
     atom   20 type  1   force =    -0.00001093   -0.00000545    0.00003409
     atom   21 type  1   force =    -0.00000371    0.00000595   -0.00000532
     atom   22 type  1   force =    -0.00001576   -0.00000868   -0.00000084
     atom   23 type  1   force =     0.00000156   -0.00000468   -0.00000806
     atom   24 type  1   force =     0.00000093   -0.00000251    0.00001370
     atom   25 type  1   force =     0.00000076   -0.00000439    0.00000062
     atom   26 type  1   force =     0.00000751   -0.00001006   -0.00000450
     atom   27 type  1   force =    -0.00001663   -0.00001628   -0.00000302
     atom   28 type  1   force =     0.00001607    0.00000471    0.00000629
     atom   29 type  1   force =    -0.00000765    0.00000497   -0.00001881
     atom   30 type  1   force =    -0.00002702    0.00000299    0.00001018
     atom   31 type  1   force =     0.00000511   -0.00001472   -0.00001801
     atom   32 type  1   force =    -0.00001776   -0.00001095   -0.00001342
     atom   33 type  1   force =    -0.00000014   -0.00000631   -0.00000800
     atom   34 type  1   force =    -0.00000625   -0.00002998    0.00000575
     atom   35 type  1   force =    -0.00000364   -0.00000298   -0.00001147
     atom   36 type  1   force =    -0.00000892   -0.00001112   -0.00001182
     atom   37 type  2   force =     0.00002491    0.00002157   -0.00000083
     The non-local contrib.  to forces
     atom    1 type  1   force =    -0.00100342   -0.00060478   -0.01984720
     atom    2 type  1   force =    -0.00000490    0.00031829   -0.01751012
     atom    3 type  1   force =     0.00097083   -0.00057545   -0.01983591
     atom    4 type  1   force =     0.00029881   -0.00018970   -0.01754217
     atom    5 type  1   force =    -0.00030055   -0.00018285   -0.01753165
     atom    6 type  1   force =    -0.00002838    0.00048647   -0.01904015
     atom    7 type  1   force =     0.00000983    0.00112198   -0.01986226
     atom    8 type  1   force =     0.00041427   -0.00025490   -0.01902071
     atom    9 type  1   force =    -0.00045290   -0.00024432   -0.01903591
     atom   10 type  1   force =     0.00050717    0.00022766    0.00127078
     atom   11 type  1   force =    -0.00052710    0.00027391    0.00133597
     atom   12 type  1   force =    -0.00009729    0.00151588   -0.00094180
     atom   13 type  1   force =     0.00002796   -0.00065645    0.00132494
     atom   14 type  1   force =     0.00061722    0.00031955   -0.00063188
     atom   15 type  1   force =    -0.00076718    0.00034626   -0.00065244
     atom   16 type  1   force =     0.00132522   -0.00085228   -0.00095073
     atom   17 type  1   force =    -0.00005465   -0.00082790   -0.00064864
     atom   18 type  1   force =    -0.00139360   -0.00077837   -0.00093138
     atom   19 type  1   force =    -0.00293038   -0.00092416    0.00220368
     atom   20 type  1   force =     0.00003727   -0.00000359    0.01221141
     atom   21 type  1   force =     0.00289863   -0.00093196    0.00220760
     atom   22 type  1   force =    -0.00065783    0.00300354    0.00219470
     atom   23 type  1   force =     0.00066904    0.00297314    0.00219140
     atom   24 type  1   force =    -0.00002472   -0.00001148    0.00490490
     atom   25 type  1   force =    -0.00002053    0.00000994    0.00582161
     atom   26 type  1   force =    -0.00223549   -0.00207241    0.00220237
     atom   27 type  1   force =     0.00225656   -0.00204513    0.00220331
     atom   28 type  1   force =     0.00275930    0.00163587    0.01794289
     atom   29 type  1   force =     0.00002186    0.04249277    0.01208881
     atom   30 type  1   force =    -0.00264795    0.00162973    0.01787813
     atom   31 type  1   force =     0.03674703   -0.02117863    0.01209769
     atom   32 type  1   force =    -0.03668523   -0.02116389    0.01212548
     atom   33 type  1   force =     0.00005179    0.00085364    0.01537492
     atom   34 type  1   force =     0.00005193   -0.00304852    0.01791493
     atom   35 type  1   force =     0.00074453   -0.00033195    0.01538045
     atom   36 type  1   force =    -0.00063028   -0.00032426    0.01538900
     atom   37 type  2   force =    -0.00002088   -0.00000087   -0.01808025
     The ionic contribution  to forces
     atom    1 type  1   force =     0.00956803    0.00552071  -93.27413084
     atom    2 type  1   force =    -0.00013821    0.01176212  -93.25615749
     atom    3 type  1   force =    -0.00943453    0.00535915  -93.27441573
     atom    4 type  1   force =     0.01012162   -0.00585366  -93.25590081
     atom    5 type  1   force =    -0.01033626   -0.00581655  -93.25633334
     atom    6 type  1   force =     0.00020951   -0.00155631  -93.27480089
     atom    7 type  1   force =    -0.00007199   -0.01100209  -93.27415265
     atom    8 type  1   force =    -0.00137267    0.00088535  -93.27479310
     atom    9 type  1   force =     0.00144035    0.00068379  -93.27463440
     atom   10 type  1   force =     0.08697573    0.05070276  -31.32928412
     atom   11 type  1   force =    -0.08943099    0.04975616  -31.33208496
     atom   12 type  1   force =     0.00069017    0.06513686  -31.43356308
     atom   13 type  1   force =    -0.00199923   -0.10204623  -31.33003569
     atom   14 type  1   force =    -0.05024214   -0.02894691  -31.43515817
     atom   15 type  1   force =     0.05059355   -0.02950367  -31.43270455
     atom   16 type  1   force =     0.05639292   -0.03340645  -31.43275833
     atom   17 type  1   force =    -0.00028065    0.05698778  -31.43381054
     atom   18 type  1   force =    -0.05788372   -0.03503299  -31.43337470
     atom   19 type  1   force =     0.10476171   -0.00224585   30.97999466
     atom   20 type  1   force =    -0.00493943    0.00105438   31.67733366
     atom   21 type  1   force =    -0.09915752   -0.00243096   30.97564215
     atom   22 type  1   force =     0.05220308   -0.08780718   30.98126111
     atom   23 type  1   force =    -0.05491208   -0.08331150   30.97836469
     atom   24 type  1   force =     0.00283206    0.00107353   30.70505744
     atom   25 type  1   force =     0.00275517   -0.00116443   30.43438297
     atom   26 type  1   force =     0.04726313    0.09073165   30.97887677
     atom   27 type  1   force =    -0.04958556    0.08593327   30.97780645
     atom   28 type  1   force =    -0.00825492   -0.00566329   92.22545063
     atom   29 type  1   force =    -0.00380474   -0.71707138   92.66639656
     atom   30 type  1   force =     0.01342391   -0.00743195   92.22759403
     atom   31 type  1   force =    -0.62315849    0.35753137   92.66773603
     atom   32 type  1   force =     0.62054395    0.36055554   92.66727821
     atom   33 type  1   force =     0.00353847    0.01488706   92.33884808
     atom   34 type  1   force =     0.00112239    0.01401583   92.22992379
     atom   35 type  1   force =     0.01217550   -0.00419896   92.33996257
     atom   36 type  1   force =    -0.01201293   -0.00802321   92.34078398
     atom   37 type  2   force =     0.00040481   -0.00006378   11.61539962
     The local contribution  to forces
     atom    1 type  1   force =    -0.00840874   -0.00475519   93.27084138
     atom    2 type  1   force =     0.00019571   -0.01201054   93.25193912
     atom    3 type  1   force =     0.00836029   -0.00471972   93.27106784
     atom    4 type  1   force =    -0.01038708    0.00612215   93.25177136
     atom    5 type  1   force =     0.01060370    0.00602157   93.25207637
     atom    6 type  1   force =    -0.00007770    0.00098433   93.27143190
     atom    7 type  1   force =     0.00000644    0.00974956   93.27088154
     atom    8 type  1   force =     0.00090907   -0.00051877   93.27141787
     atom    9 type  1   force =    -0.00078843   -0.00035874   93.27134036
     atom   10 type  1   force =    -0.08734052   -0.05075095   31.33597590
     atom   11 type  1   force =     0.08962503   -0.05000014   31.33856257
     atom   12 type  1   force =    -0.00048783   -0.06623522   31.43590704
     atom   13 type  1   force =     0.00175931    0.10244958   31.33666477
     atom   14 type  1   force =     0.04925521    0.02842073   31.44108132
     atom   15 type  1   force =    -0.04932695    0.02889410   31.43879734
     atom   16 type  1   force =    -0.05737803    0.03402603   31.43521828
     atom   17 type  1   force =     0.00036068   -0.05574020   31.43986538
     atom   18 type  1   force =     0.05881515    0.03540372   31.43579239
     atom   19 type  1   force =    -0.10175180    0.00328002  -30.98014197
     atom   20 type  1   force =     0.00458943   -0.00100371  -31.68729454
     atom   21 type  1   force =     0.09648500    0.00343909  -30.97573445
     atom   22 type  1   force =    -0.05171634    0.08478915  -30.98144566
     atom   23 type  1   force =     0.05422103    0.08056533  -30.97842179
     atom   24 type  1   force =    -0.00262612   -0.00100045  -30.70794153
     atom   25 type  1   force =    -0.00261727    0.00104288  -30.43798695
     atom   26 type  1   force =    -0.04508360   -0.08871871  -30.97894965
     atom   27 type  1   force =     0.04726079   -0.08423996  -30.97795024
     atom   28 type  1   force =     0.00620403    0.00436450  -92.22734344
     atom   29 type  1   force =     0.00362580    0.66834979  -92.66646397
     atom   30 type  1   force =    -0.01133970    0.00605417  -92.22930214
     atom   31 type  1   force =     0.58099352   -0.33327640  -92.66790715
     atom   32 type  1   force =    -0.57860074   -0.33621139  -92.66729618
     atom   33 type  1   force =    -0.00344387   -0.01553520  -92.33798604
     atom   34 type  1   force =    -0.00116356   -0.01170052  -92.23177862
     atom   35 type  1   force =    -0.01279806    0.00453771  -92.33912939
     atom   36 type  1   force =     0.01249228    0.00818182  -92.34001304
     atom   37 type  2   force =    -0.00037036    0.00008457  -11.59735381
     The core correction contribution to forces
     atom    1 type  1   force =    -0.00001100   -0.00000812    0.01721067
     atom    2 type  1   force =    -0.00000176   -0.00000485    0.01724444
     atom    3 type  1   force =     0.00000579   -0.00000800    0.01721046
     atom    4 type  1   force =    -0.00000336   -0.00000144    0.01724340
     atom    5 type  1   force =    -0.00000129   -0.00000213    0.01724221
     atom    6 type  1   force =    -0.00000179    0.00000877    0.01712268
     atom    7 type  1   force =    -0.00000254    0.00000680    0.01721071
     atom    8 type  1   force =     0.00000718   -0.00000706    0.01712342
     atom    9 type  1   force =    -0.00000978   -0.00000649    0.01712400
     atom   10 type  1   force =    -0.00013967   -0.00007966    0.00045506
     atom   11 type  1   force =     0.00015037   -0.00007877    0.00046415
     atom   12 type  1   force =     0.00000287   -0.00014039    0.00071613
     atom   13 type  1   force =     0.00000592    0.00017291    0.00046060
     atom   14 type  1   force =     0.00012497    0.00007402    0.00073319
     atom   15 type  1   force =    -0.00012024    0.00007458    0.00072621
     atom   16 type  1   force =    -0.00012096    0.00007818    0.00071506
     atom   17 type  1   force =     0.00000257   -0.00013638    0.00072884
     atom   18 type  1   force =     0.00012996    0.00007976    0.00071764
     atom   19 type  1   force =    -0.00014506    0.00000103   -0.00182665
     atom   20 type  1   force =     0.00001065   -0.00000595   -0.00199492
     atom   21 type  1   force =     0.00012829    0.00000129   -0.00182596
     atom   22 type  1   force =    -0.00006865    0.00011772   -0.00182142
     atom   23 type  1   force =     0.00007461    0.00010610   -0.00182613
     atom   24 type  1   force =    -0.00000849   -0.00000383   -0.00174473
     atom   25 type  1   force =    -0.00001028   -0.00000101   -0.00192518
     atom   26 type  1   force =    -0.00006269   -0.00012417   -0.00183102
     atom   27 type  1   force =     0.00006738   -0.00011081   -0.00182525
     atom   28 type  1   force =    -0.00073813   -0.00042216   -0.01602381
     atom   29 type  1   force =     0.00001054    0.00604838   -0.01187307
     atom   30 type  1   force =     0.00072760   -0.00041639   -0.01602573
     atom   31 type  1   force =     0.00524851   -0.00302271   -0.01186745
     atom   32 type  1   force =    -0.00522910   -0.00302449   -0.01187748
     atom   33 type  1   force =    -0.00000865   -0.00011862   -0.01622693
     atom   34 type  1   force =    -0.00000060    0.00084380   -0.01602204
     atom   35 type  1   force =    -0.00010051    0.00005290   -0.01622621
     atom   36 type  1   force =     0.00010273    0.00006345   -0.01622348
     atom   37 type  2   force =     0.00000000    0.00000000    0.00000000
     The Hubbard contrib.    to forces
     atom    1 type  1   force =     0.00000000    0.00000000    0.00000000
     atom    2 type  1   force =     0.00000000    0.00000000    0.00000000
     atom    3 type  1   force =     0.00000000    0.00000000    0.00000000
     atom    4 type  1   force =     0.00000000    0.00000000    0.00000000
     atom    5 type  1   force =     0.00000000    0.00000000    0.00000000
     atom    6 type  1   force =     0.00000000    0.00000000    0.00000000
     atom    7 type  1   force =     0.00000000    0.00000000    0.00000000
     atom    8 type  1   force =     0.00000000    0.00000000    0.00000000
     atom    9 type  1   force =     0.00000000    0.00000000    0.00000000
     atom   10 type  1   force =     0.00000000    0.00000000    0.00000000
     atom   11 type  1   force =     0.00000000    0.00000000    0.00000000
     atom   12 type  1   force =     0.00000000    0.00000000    0.00000000
     atom   13 type  1   force =     0.00000000    0.00000000    0.00000000
     atom   14 type  1   force =     0.00000000    0.00000000    0.00000000
     atom   15 type  1   force =     0.00000000    0.00000000    0.00000000
     atom   16 type  1   force =     0.00000000    0.00000000    0.00000000
     atom   17 type  1   force =     0.00000000    0.00000000    0.00000000
     atom   18 type  1   force =     0.00000000    0.00000000    0.00000000
     atom   19 type  1   force =     0.00000000    0.00000000    0.00000000
     atom   20 type  1   force =     0.00000000    0.00000000    0.00000000
     atom   21 type  1   force =     0.00000000    0.00000000    0.00000000
     atom   22 type  1   force =     0.00000000    0.00000000    0.00000000
     atom   23 type  1   force =     0.00000000    0.00000000    0.00000000
     atom   24 type  1   force =     0.00000000    0.00000000    0.00000000
     atom   25 type  1   force =     0.00000000    0.00000000    0.00000000
     atom   26 type  1   force =     0.00000000    0.00000000    0.00000000
     atom   27 type  1   force =     0.00000000    0.00000000    0.00000000
     atom   28 type  1   force =     0.00000000    0.00000000    0.00000000
     atom   29 type  1   force =     0.00000000    0.00000000    0.00000000
     atom   30 type  1   force =     0.00000000    0.00000000    0.00000000
     atom   31 type  1   force =     0.00000000    0.00000000    0.00000000
     atom   32 type  1   force =     0.00000000    0.00000000    0.00000000
     atom   33 type  1   force =     0.00000000    0.00000000    0.00000000
     atom   34 type  1   force =     0.00000000    0.00000000    0.00000000
     atom   35 type  1   force =     0.00000000    0.00000000    0.00000000
     atom   36 type  1   force =     0.00000000    0.00000000    0.00000000
     atom   37 type  2   force =     0.00000000    0.00000000    0.00000000
     The SCF correction term to forces
     atom    1 type  1   force =    -0.00000000   -0.00000000   -0.00000000
     atom    2 type  1   force =    -0.00000000   -0.00000000   -0.00000000
     atom    3 type  1   force =     0.00000000    0.00000000   -0.00000000
     atom    4 type  1   force =    -0.00000000   -0.00000000   -0.00000000
     atom    5 type  1   force =     0.00000000    0.00000000   -0.00000000
     atom    6 type  1   force =    -0.00000000    0.00000000   -0.00000000
     atom    7 type  1   force =     0.00000000    0.00000000   -0.00000000
     atom    8 type  1   force =    -0.00000000   -0.00000000   -0.00000000
     atom    9 type  1   force =    -0.00000000    0.00000000   -0.00000000
     atom   10 type  1   force =     0.00000000   -0.00000000   -0.00000000
     atom   11 type  1   force =    -0.00000000    0.00000000    0.00000000
     atom   12 type  1   force =    -0.00000000    0.00000000   -0.00000000
     atom   13 type  1   force =     0.00000000   -0.00000000   -0.00000000
     atom   14 type  1   force =    -0.00000000   -0.00000000   -0.00000000
     atom   15 type  1   force =    -0.00000000   -0.00000000   -0.00000000
     atom   16 type  1   force =     0.00000000   -0.00000000   -0.00000000
     atom   17 type  1   force =    -0.00000000    0.00000000   -0.00000000
     atom   18 type  1   force =     0.00000000    0.00000000   -0.00000000
     atom   19 type  1   force =     0.00006754   -0.00010175   -0.00028831
     atom   20 type  1   force =     0.00029098   -0.00004665   -0.00027621
     atom   21 type  1   force =    -0.00035828   -0.00007158   -0.00034935
     atom   22 type  1   force =     0.00022381   -0.00011197   -0.00024427
     atom   23 type  1   force =    -0.00005121   -0.00033782   -0.00037091
     atom   24 type  1   force =    -0.00017197   -0.00006034   -0.00031706
     atom   25 type  1   force =    -0.00010649    0.00010815   -0.00034652
     atom   26 type  1   force =     0.00012599    0.00017350   -0.00035765
     atom   27 type  1   force =    -0.00001597    0.00044628   -0.00029197
     atom   28 type  1   force =     0.00004562    0.00008973   -0.00007467
     atom   29 type  1   force =     0.00013872    0.00018534   -0.00022182
     atom   30 type  1   force =    -0.00019105    0.00016737   -0.00018880
     atom   31 type  1   force =     0.00017437   -0.00006841   -0.00013182
     atom   32 type  1   force =    -0.00004681   -0.00016678   -0.00029814
     atom   33 type  1   force =    -0.00013806   -0.00009326   -0.00007270
     atom   34 type  1   force =    -0.00001658   -0.00014063   -0.00008700
     atom   35 type  1   force =    -0.00002526   -0.00006275   -0.00005358
     atom   36 type  1   force =     0.00003912    0.00009101   -0.00000296
     atom   37 type  2   force =     0.00001116    0.00000159   -0.00002106

     Total force =     0.000091     Total SCF correction =     0.001448
     SCF correction compared to forces is large: reduce conv_thr to get better values

     Writing all to output data dir ./pwscf.save/

     init_run     :      9.77s CPU     10.09s WALL (       1 calls)
     electrons    :    290.56s CPU    300.28s WALL (       1 calls)
     forces       :      3.26s CPU      3.98s WALL (       1 calls)

     Called by init_run:
     wfcinit      :      5.38s CPU      5.55s WALL (       1 calls)
     potinit      :      3.00s CPU      3.08s WALL (       1 calls)
     hinit0       :      0.81s CPU      0.82s WALL (       1 calls)

     Called by electrons:
     c_bands      :    245.69s CPU    251.41s WALL (      19 calls)
     sum_band     :     28.74s CPU     29.86s WALL (      19 calls)
     v_of_rho     :      8.14s CPU      9.84s WALL (      19 calls)
     newd         :      2.41s CPU      3.10s WALL (      19 calls)
     PAW_pot      :      3.98s CPU      4.26s WALL (      19 calls)
     mix_rho      :      3.66s CPU      3.74s WALL (      19 calls)
     vdW_kernel   :      1.68s CPU      1.69s WALL (       1 calls)

     Called by c_bands:
     init_us_2    :      2.67s CPU      2.73s WALL (     520 calls)
     init_us_2:cp :      2.67s CPU      2.72s WALL (     520 calls)
     cegterg      :    239.13s CPU    244.54s WALL (     247 calls)

     Called by *egterg:
     cdiaghg      :     73.59s CPU     74.44s WALL (    1199 calls)
     h_psi        :    106.02s CPU    108.66s WALL (    1225 calls)
     s_psi        :     13.40s CPU     13.75s WALL (    1225 calls)
     g_psi        :      0.42s CPU      0.43s WALL (     965 calls)

     Called by h_psi:
     h_psi:calbec :     17.95s CPU     18.58s WALL (    1225 calls)
     vloc_psi     :     73.14s CPU     74.91s WALL (    1225 calls)
     add_vuspsi   :     13.90s CPU     14.13s WALL (    1225 calls)

     General routines
     calbec       :     25.67s CPU     26.55s WALL (    1524 calls)
     fft          :      4.43s CPU      6.29s WALL (    1257 calls)
     ffts         :      2.09s CPU      2.12s WALL (    4499 calls)
     fftw         :     71.22s CPU     72.98s WALL (  313773 calls)
     interpolate  :      0.60s CPU      0.64s WALL (      19 calls)

     Parallel routines

     PWSCF        :   5m 6.81s CPU   5m20.84s WALL


   This run was terminated on:  20:45:19  31Oct2025            

=------------------------------------------------------------------------------=
   JOB DONE.
=------------------------------------------------------------------------------=
