
     Program PWSCF v.7.1 starts on  2Mar2025 at  9: 7:16 
        Git branch: heads/qe-7.1
        Last git commit: 48ba0178f8fede6d020eb786884699a9f063f55d-dirty
        Last git commit date: Fri Jan 27 14:22:33 2023 +0000
        Last git commit subject: Merge branch 'fix_hubbard' into 'develop'

     This program is part of the open-source Quantum ESPRESSO suite
     for quantum simulation of materials; please cite
         "P. Giannozzi et al., J. Phys.:Condens. Matter 21 395502 (2009);
         "P. Giannozzi et al., J. Phys.:Condens. Matter 29 465901 (2017);
         "P. Giannozzi et al., J. Chem. Phys. 152 154105 (2020);
          URL http://www.quantum-espresso.org", 
     in publications or presentations arising from this work. More details at
     http://www.quantum-espresso.org/quote

     Parallel version (MPI), running on    48 processors

     MPI processes distributed on     1 nodes
     16638 MiB available memory on the printing compute node when the environment starts

     Reading input from espresso.pwi
Warning: card &CELL ignored
Warning: card / ignored
Warning: card &FCP ignored
Warning: card / ignored
Warning: card &RISM ignored
Warning: card / ignored

     Current dimensions of program PWSCF are:
     Max number of different atomic species (ntypx) = 10
     Max number of k-points (npk) =  40000
     Max angular momentum in pseudopotentials (lmaxx) =  4
     file Pt.pbe-n-kjpaw_psl.1.0.0.UPF: wavefunction(s)  6S 5D renormalized
     file O.pbe-nl-kjpaw_psl.1.0.0.UPF: wavefunction(s)  2S 2P renormalized
     file H.pbe-kjpaw_psl.1.0.0.UPF: wavefunction(s)  1S renormalized

     **************************************************************************
     Initializing libbeef V0.1.2 with the BEEF-vdW functional.
     Citation: Wellendorff et al., PRB 85, 235149 (2012).
     **************************************************************************


     IMPORTANT: XC functional enforced from input :
     Exchange-correlation= BEEF-VDW
                           (   1   4  43  14   2   0   0)
     Any further DFT definition will be discarded
     Please, verify this is what you really want


     R & G space division:  proc/nbgrp/npool/nimage =      48
     Subspace diagonalization in iterative solution of the eigenvalue problem:
     one sub-group per band group will be used
     custom distributed-memory algorithm (size of sub-group:  2*  2 procs)


     Parallelization info
     --------------------
     sticks:   dense  smooth     PW     G-vecs:    dense   smooth      PW
     Min         151      59     16                29407     7165    1028
     Max         152      60     17                29420     7176    1042
     Sum        7267    2839    769              1411785   344073   49691

     Using Slab Decomposition



     bravais-lattice index     =            0
     lattice parameter (alat)  =      16.0349  a.u.
     unit-cell volume          =   10068.6169 (a.u.)^3
     number of atoms/cell      =           39
     number of atomic types    =            3
     number of electrons       =       368.00
     number of Kohn-Sham states=          221
     kinetic-energy cutoff     =      40.0000  Ry
     charge density cutoff     =     410.0000  Ry
     scf convergence threshold =      1.0E-08
     mixing beta               =       0.7000
     number of iterations used =            8  local-TF  mixing
     Exchange-correlation= BEEF-VDW
                           (   1   4  43  14   2   0   0)

     celldm(1)=  16.034858  celldm(2)=   0.000000  celldm(3)=   0.000000
     celldm(4)=   0.000000  celldm(5)=   0.000000  celldm(6)=   0.000000

     crystal axes: (cart. coord. in units of alat)
               a(1) = (   1.000000   0.000000   0.000000 )  
               a(2) = (   0.500000   0.866025   0.000000 )  
               a(3) = (   0.000000   0.000000   2.819966 )  

     reciprocal axes: (cart. coord. in units 2 pi/alat)
               b(1) = (  1.000000 -0.577350  0.000000 )  
               b(2) = (  0.000000  1.154701  0.000000 )  
               b(3) = (  0.000000  0.000000  0.354614 )  


     PseudoPot. # 1 for Pt read from file:
     /users/kbadger1/espresso/pseudo/pslibrary.1.0.0/pbe/PSEUDOPOTENTIALS/Pt.pbe-n-kjpaw_psl.1.0.0.UPF
     MD5 check sum: 2e24a0b5bf98a4ed1a57fa81bca8c143
     Pseudo is Projector augmented-wave + core cor, Zval = 10.0
     Generated using 'atomic' code by A. Dal Corso  v.7.0
     Shape of augmentation charge: PSQ
     Using radial grid of 1277 points,  6 beta functions with: 
                l(1) =   0
                l(2) =   0
                l(3) =   1
                l(4) =   1
                l(5) =   2
                l(6) =   2
     Q(r) pseudized with 0 coefficients 


     PseudoPot. # 2 for O  read from file:
     /users/kbadger1/espresso/pseudo/pslibrary.1.0.0/pbe/PSEUDOPOTENTIALS/O.pbe-nl-kjpaw_psl.1.0.0.UPF
     MD5 check sum: f0439fab3598ca4e468f064226030408
     Pseudo is Projector augmented-wave + core cor, Zval =  6.0
     Generated using 'atomic' code by A. Dal Corso  v.7.0
     Shape of augmentation charge: PSQ
     Using radial grid of 1095 points,  4 beta functions with: 
                l(1) =   0
                l(2) =   0
                l(3) =   1
                l(4) =   1
     Q(r) pseudized with 0 coefficients 


     PseudoPot. # 3 for H  read from file:
     /users/kbadger1/espresso/pseudo/pslibrary.1.0.0/pbe/PSEUDOPOTENTIALS/H.pbe-kjpaw_psl.1.0.0.UPF
     MD5 check sum: fe4c6fa958fa6d3815bf5d2419cbf1df
     Pseudo is Projector augmented-wave, Zval =  1.0
     Generated using 'atomic' code by A. Dal Corso  v.7.0
     Shape of augmentation charge: PSQ
     Using radial grid of  929 points,  2 beta functions with: 
                l(1) =   0
                l(2) =   0
     Q(r) pseudized with 0 coefficients 


     atomic species   valence    mass     pseudopotential
        Pt            10.00   195.08400     Pt( 1.00)
        O              6.00    15.99900     O ( 1.00)
        H              1.00     1.00800     H ( 1.00)

     No symmetry found



   Cartesian axes

     site n.     atom                  positions (alat units)
         1           Pt  tau(   1) = (   0.0000000   0.0000000   1.0017346  )
         2           Pt  tau(   2) = (   0.3333333   0.0000000   1.0017346  )
         3           Pt  tau(   3) = (   0.6666667   0.0000000   1.0017346  )
         4           Pt  tau(   4) = (   0.1666667   0.2886751   1.0017346  )
         5           Pt  tau(   5) = (   0.5000000   0.2886751   1.0017346  )
         6           Pt  tau(   6) = (   0.8333333   0.2886751   1.0017346  )
         7           Pt  tau(   7) = (   0.3333333   0.5773503   1.0017346  )
         8           Pt  tau(   8) = (   0.6666667   0.5773503   1.0017346  )
         9           Pt  tau(   9) = (   1.0000000   0.5773503   1.0017346  )
        10           Pt  tau(  10) = (   0.1666667   0.0962250   1.2739001  )
        11           Pt  tau(  11) = (   0.5000000   0.0962250   1.2739001  )
        12           Pt  tau(  12) = (   0.8333333   0.0962250   1.2739001  )
        13           Pt  tau(  13) = (   0.3333333   0.3849002   1.2739001  )
        14           Pt  tau(  14) = (   0.6666667   0.3849002   1.2739001  )
        15           Pt  tau(  15) = (   1.0000000   0.3849002   1.2739001  )
        16           Pt  tau(  16) = (   0.5000000   0.6735753   1.2739001  )
        17           Pt  tau(  17) = (   0.8333333   0.6735753   1.2739001  )
        18           Pt  tau(  18) = (   1.1666667   0.6735753   1.2739001  )
        19           Pt  tau(  19) = (  -0.0012525   0.1942500   1.5409962  )
        20           Pt  tau(  20) = (   0.3335309   0.1951149   1.5458080  )
        21           Pt  tau(  21) = (   0.6640749   0.1941112   1.5475859  )
        22           Pt  tau(  22) = (   0.1654816   0.4833171   1.5421553  )
        23           Pt  tau(  23) = (   0.4984217   0.4813503   1.5466000  )
        24           Pt  tau(  24) = (   0.8322489   0.4830777   1.5418356  )
        25           Pt  tau(  25) = (   0.3306256   0.7730466   1.5437530  )
        26           Pt  tau(  26) = (   0.6651090   0.7718812   1.5406057  )
        27           Pt  tau(  27) = (   0.9997933   0.7725342   1.5442987  )
        28           Pt  tau(  28) = (  -0.0023086   0.0044940   1.8164938  )
        29           Pt  tau(  29) = (   0.3285613   0.0025483   1.8144217  )
        30           Pt  tau(  30) = (   0.6641586   0.0032232   1.8290909  )
        31           Pt  tau(  31) = (   0.1617418   0.2932308   1.8142115  )
        32           Pt  tau(  32) = (   0.4985261   0.2952545   1.8295671  )
        33           Pt  tau(  33) = (   0.8328164   0.2935119   1.8148053  )
        34           Pt  tau(  34) = (   0.3297082   0.5842774   1.8153029  )
        35           Pt  tau(  35) = (   0.6650188   0.5840084   1.8155822  )
        36           Pt  tau(  36) = (   0.9966489   0.5814894   1.8165778  )
        37           O   tau(  37) = (   0.4844573   0.2906805   2.0663335  )
        38           H   tau(  38) = (   0.5887715   0.3161339   2.1063907  )
        39           H   tau(  39) = (   0.6503929   0.0140721   2.0114247  )

     number of k points=    13  Marzari-Vanderbilt smearing, width (Ry)=  0.0200
                       cart. coord. in units 2pi/alat
        k(    1) = (   0.0000000   0.0000000   0.0000000), wk =   0.0800000
        k(    2) = (   0.0000000   0.2309401   0.0000000), wk =   0.1600000
        k(    3) = (   0.0000000   0.4618802   0.0000000), wk =   0.1600000
        k(    4) = (   0.2000000  -0.1154701   0.0000000), wk =   0.1600000
        k(    5) = (   0.2000000   0.1154701   0.0000000), wk =   0.1600000
        k(    6) = (   0.2000000   0.3464102   0.0000000), wk =   0.1600000
        k(    7) = (   0.2000000  -0.5773503   0.0000000), wk =   0.1600000
        k(    8) = (   0.2000000  -0.3464102   0.0000000), wk =   0.1600000
        k(    9) = (   0.4000000  -0.2309401   0.0000000), wk =   0.1600000
        k(   10) = (   0.4000000  -0.0000000   0.0000000), wk =   0.1600000
        k(   11) = (   0.4000000   0.2309401   0.0000000), wk =   0.1600000
        k(   12) = (   0.4000000  -0.6928203   0.0000000), wk =   0.1600000
        k(   13) = (   0.4000000  -0.4618802   0.0000000), wk =   0.1600000

     Dense  grid:  1411785 G-vectors     FFT dimensions: ( 108, 108, 300)

     Smooth grid:   344073 G-vectors     FFT dimensions: (  72,  72, 192)

     Estimated max dynamical RAM per process >     207.10 MB

     Estimated total dynamical RAM >       9.71 GB

     Initial potential from superposition of free atoms

     starting charge     367.9939, renormalised to     368.0000

     negative rho (up, down):  3.161E-03 0.000E+00


     %%%%%%%%%%%%%%%%%%%%%%%%%%%%%%%%%%%%%%%%%%%%%%%%%%%%%%%%%%%%%%%%%%%%%%%%
     %                                                                      %
     % You are using vdW-DF, which was implemented by the Thonhauser group. %
     % Please cite the following two papers that made this development      %
     % possible and the two reviews that describe the various versions:     %
     %                                                                      %
     %   T. Thonhauser et al., PRL 115, 136402 (2015).                      %
     %   T. Thonhauser et al., PRB 76, 125112 (2007).                       %
     %   K. Berland et al., Rep. Prog. Phys. 78, 066501 (2015).             %
     %   D.C. Langreth et al., J. Phys.: Condens. Matter 21, 084203 (2009). %
     %                                                                      %
     % If you are calculating stress with vdW-DF, please also cite:         %
     %                                                                      %
     %   R. Sabatini et al., J. Phys.: Condens. Matter 24, 424209 (2012).   %
     %                                                                      %
     %%%%%%%%%%%%%%%%%%%%%%%%%%%%%%%%%%%%%%%%%%%%%%%%%%%%%%%%%%%%%%%%%%%%%%%%

     %%%%%%%%%%%%%%%%%%%%%%%%%%%%%%%%%%%%%%%%%%%%%%%%%%%%%%%%%%%%%%%%%%%%%%%%
     %                                                                      %
     %  vdW-DF NEWS:                                                        %
     %                                                                      %
     %  * vdW-DF3 is now available. DOI: 10.1021/acs.jctc.0c00471           %
     %    use with input_dft = 'vdW-DF3-opt1' or 'vdW-DF3-opt2'             %
     %                                                                      %
     %  * Unscreened and range-separated hybrid vdW-DF-cx functionals       %
     %    DOI: 10.1063/1.4986522 and 10.1088/1361-648X/ac2ad2               %
     %    use with input_dft = 'vdW-DF-cx0'    and 'vdW-DF-ahcx'            %
     %  * Unscreened and range-separated hybrid vdW-DF2-b86r functionals    %
     %    DOI: 10.1063/1.4986522 and DOI: 10.1103/PhysRevX.12.041003        %
     %    use with input_dft = 'vdW-DF2-br0' and 'vdW-DF2-ahbr'             %
     %                                                                      %
     %%%%%%%%%%%%%%%%%%%%%%%%%%%%%%%%%%%%%%%%%%%%%%%%%%%%%%%%%%%%%%%%%%%%%%%%


     Starting wfcs are  330 randomized atomic wfcs
     Checking if some PAW data can be deallocated... 

     total cpu time spent up to now is       11.1 secs

     per-process dynamical memory:   212.1 Mb

     Self-consistent Calculation

     iteration #  1     ecut=    40.00 Ry     beta= 0.70
     Davidson diagonalization with overlap
     ethr =  1.00E-02,  avg # of iterations =  2.0

     Threshold (ethr) on eigenvalues was too large:
     Diagonalizing with lowered threshold

     Davidson diagonalization with overlap
     ethr =  6.72E-04,  avg # of iterations =  3.1

     negative rho (up, down):  1.066E-02 0.000E+00

     total cpu time spent up to now is       46.6 secs

     total energy              =  -27798.82500650 Ry
     estimated scf accuracy    <       2.63921105 Ry

     iteration #  2     ecut=    40.00 Ry     beta= 0.70
     Davidson diagonalization with overlap
     ethr =  7.17E-04,  avg # of iterations =  3.0

     negative rho (up, down):  9.367E-03 0.000E+00

     total cpu time spent up to now is       67.2 secs

     total energy              =  -27799.02582900 Ry
     estimated scf accuracy    <       1.05084083 Ry

     iteration #  3     ecut=    40.00 Ry     beta= 0.70
     Davidson diagonalization with overlap
     ethr =  2.86E-04,  avg # of iterations =  2.0

     negative rho (up, down):  7.162E-03 0.000E+00

     total cpu time spent up to now is       88.5 secs

     total energy              =  -27799.09670528 Ry
     estimated scf accuracy    <       0.30716984 Ry

     iteration #  4     ecut=    40.00 Ry     beta= 0.70
     Davidson diagonalization with overlap
     ethr =  8.35E-05,  avg # of iterations = 10.0

     negative rho (up, down):  5.710E-03 0.000E+00

     total cpu time spent up to now is      121.2 secs

     total energy              =  -27799.14508080 Ry
     estimated scf accuracy    <       0.17966934 Ry

     iteration #  5     ecut=    40.00 Ry     beta= 0.70
     Davidson diagonalization with overlap
     ethr =  4.88E-05,  avg # of iterations =  2.6

     negative rho (up, down):  3.912E-03 0.000E+00

     total cpu time spent up to now is      137.3 secs

     total energy              =  -27799.15271288 Ry
     estimated scf accuracy    <       0.03032029 Ry

     iteration #  6     ecut=    40.00 Ry     beta= 0.70
     Davidson diagonalization with overlap
     c_bands:  2 eigenvalues not converged
     c_bands:  1 eigenvalues not converged
     ethr =  8.24E-06,  avg # of iterations = 13.4

     negative rho (up, down):  3.112E-03 0.000E+00

     total cpu time spent up to now is      184.1 secs

     total energy              =  -27799.16061241 Ry
     estimated scf accuracy    <       0.00862590 Ry

     iteration #  7     ecut=    40.00 Ry     beta= 0.70
     Davidson diagonalization with overlap
     c_bands:  1 eigenvalues not converged
     ethr =  2.34E-06,  avg # of iterations =  9.1

     negative rho (up, down):  2.472E-03 0.000E+00

     total cpu time spent up to now is      213.2 secs

     total energy              =  -27799.16134950 Ry
     estimated scf accuracy    <       0.00305554 Ry

     iteration #  8     ecut=    40.00 Ry     beta= 0.70
     Davidson diagonalization with overlap
     ethr =  8.30E-07,  avg # of iterations =  6.1

     negative rho (up, down):  2.366E-03 0.000E+00

     total cpu time spent up to now is      239.9 secs

     total energy              =  -27799.16170963 Ry
     estimated scf accuracy    <       0.00068224 Ry

     iteration #  9     ecut=    40.00 Ry     beta= 0.70
     Davidson diagonalization with overlap
     ethr =  1.85E-07,  avg # of iterations =  4.4

     negative rho (up, down):  2.234E-03 0.000E+00

     total cpu time spent up to now is      270.2 secs

     total energy              =  -27799.16192156 Ry
     estimated scf accuracy    <       0.00023642 Ry

     iteration # 10     ecut=    40.00 Ry     beta= 0.70
     Davidson diagonalization with overlap
     ethr =  6.42E-08,  avg # of iterations =  2.8

     negative rho (up, down):  2.123E-03 0.000E+00

     total cpu time spent up to now is      294.7 secs

     total energy              =  -27799.16196525 Ry
     estimated scf accuracy    <       0.00012580 Ry

     iteration # 11     ecut=    40.00 Ry     beta= 0.70
     Davidson diagonalization with overlap
     ethr =  3.42E-08,  avg # of iterations =  1.9

     negative rho (up, down):  2.078E-03 0.000E+00

     total cpu time spent up to now is      309.9 secs

     total energy              =  -27799.16198097 Ry
     estimated scf accuracy    <       0.00005888 Ry

     iteration # 12     ecut=    40.00 Ry     beta= 0.70
     Davidson diagonalization with overlap
     ethr =  1.60E-08,  avg # of iterations =  2.0

     negative rho (up, down):  2.080E-03 0.000E+00

     total cpu time spent up to now is      332.3 secs

     total energy              =  -27799.16199088 Ry
     estimated scf accuracy    <       0.00003523 Ry

     iteration # 13     ecut=    40.00 Ry     beta= 0.70
     Davidson diagonalization with overlap
     ethr =  9.57E-09,  avg # of iterations =  3.3

     negative rho (up, down):  2.220E-03 0.000E+00

     total cpu time spent up to now is      356.5 secs

     total energy              =  -27799.16199771 Ry
     estimated scf accuracy    <       0.00001088 Ry

     iteration # 14     ecut=    40.00 Ry     beta= 0.70
     Davidson diagonalization with overlap
     ethr =  2.96E-09,  avg # of iterations =  4.0

     negative rho (up, down):  2.289E-03 0.000E+00

     total cpu time spent up to now is      384.5 secs

     total energy              =  -27799.16199965 Ry
     estimated scf accuracy    <       0.00000601 Ry

     iteration # 15     ecut=    40.00 Ry     beta= 0.70
     Davidson diagonalization with overlap
     ethr =  1.63E-09,  avg # of iterations =  2.0

     negative rho (up, down):  2.492E-03 0.000E+00

     total cpu time spent up to now is      399.1 secs

     total energy              =  -27799.16199923 Ry
     estimated scf accuracy    <       0.00000311 Ry

     iteration # 16     ecut=    40.00 Ry     beta= 0.70
     Davidson diagonalization with overlap
     ethr =  8.45E-10,  avg # of iterations =  2.0

     negative rho (up, down):  2.581E-03 0.000E+00

     total cpu time spent up to now is      420.9 secs

     total energy              =  -27799.16199893 Ry
     estimated scf accuracy    <       0.00000220 Ry

     iteration # 17     ecut=    40.00 Ry     beta= 0.70
     Davidson diagonalization with overlap
     ethr =  5.96E-10,  avg # of iterations =  1.3

     negative rho (up, down):  2.706E-03 0.000E+00

     total cpu time spent up to now is      434.8 secs

     total energy              =  -27799.16199821 Ry
     estimated scf accuracy    <       0.00000093 Ry

     iteration # 18     ecut=    40.00 Ry     beta= 0.70
     Davidson diagonalization with overlap
     ethr =  2.53E-10,  avg # of iterations =  2.3

     negative rho (up, down):  2.903E-03 0.000E+00

     total cpu time spent up to now is      456.6 secs

     total energy              =  -27799.16199710 Ry
     estimated scf accuracy    <       0.00000051 Ry

     iteration # 19     ecut=    40.00 Ry     beta= 0.70
     Davidson diagonalization with overlap
     ethr =  1.39E-10,  avg # of iterations =  2.5

     negative rho (up, down):  2.963E-03 0.000E+00

     total cpu time spent up to now is      479.3 secs

     total energy              =  -27799.16199680 Ry
     estimated scf accuracy    <       0.00000023 Ry

     iteration # 20     ecut=    40.00 Ry     beta= 0.70
     Davidson diagonalization with overlap
     ethr =  6.19E-11,  avg # of iterations =  4.0

     negative rho (up, down):  3.051E-03 0.000E+00

     total cpu time spent up to now is      504.9 secs

     total energy              =  -27799.16199635 Ry
     estimated scf accuracy    <       0.00000017 Ry

     iteration # 21     ecut=    40.00 Ry     beta= 0.70
     Davidson diagonalization with overlap
     ethr =  4.49E-11,  avg # of iterations =  2.0

     negative rho (up, down):  3.072E-03 0.000E+00

     total cpu time spent up to now is      519.6 secs

     total energy              =  -27799.16199624 Ry
     estimated scf accuracy    <       0.00000002 Ry

     iteration # 22     ecut=    40.00 Ry     beta= 0.70
     Davidson diagonalization with overlap
     ethr =  5.86E-12,  avg # of iterations =  5.2

     negative rho (up, down):  3.076E-03 0.000E+00

     total cpu time spent up to now is      557.3 secs

     total energy              =  -27799.16199624 Ry
     estimated scf accuracy    <       0.00000001 Ry

     iteration # 23     ecut=    40.00 Ry     beta= 0.70
     Davidson diagonalization with overlap
     ethr =  3.06E-12,  avg # of iterations =  1.3

     negative rho (up, down):  3.079E-03 0.000E+00

     total cpu time spent up to now is      577.2 secs

     End of self-consistent calculation

          k = 0.0000 0.0000 0.0000 ( 42913 PWs)   bands (ev):

   -16.2890  -6.2636  -4.9954  -4.0120  -3.9159  -3.8773  -3.8532  -3.8431
    -3.8336  -3.8286  -3.8121  -3.7222  -3.3835  -3.2897  -3.2876  -3.2837
    -3.2751  -3.2524  -2.9610  -2.8251  -2.8232  -2.8150  -2.8078  -2.8028
    -2.7512  -2.6072  -2.5982  -2.5966  -2.5949  -2.5694  -2.4318  -2.3933
    -2.3783  -2.3754  -2.3700  -2.3648  -2.3602  -2.3522  -2.3432  -2.3386
    -2.3357  -2.2970  -2.1786  -1.8390  -1.7904  -1.7539  -1.7441  -1.7393
    -1.7199  -1.6913  -1.6775  -1.6605  -1.6373  -1.5378  -1.4910  -1.4766
    -1.3602  -1.1657  -1.0498  -0.9704  -0.9471  -0.9379  -0.9243  -0.8633
    -0.8460  -0.8022  -0.7660  -0.7517  -0.7506  -0.7360  -0.7285  -0.7141
    -0.7038  -0.6946  -0.6855  -0.6772  -0.6526  -0.6452  -0.6340  -0.5902
    -0.5551  -0.5382  -0.5151  -0.5036  -0.4010  -0.3617  -0.3505  -0.3367
    -0.3319  -0.3059  -0.3001  -0.2929  -0.2830  -0.2761  -0.2601  -0.1997
    -0.1878  -0.1726  -0.1498  -0.0811  -0.0807  -0.0416  -0.0399  -0.0230
     0.0277   0.0669   0.1012   0.1288   0.1588   0.3291   0.4007   0.5040
     0.5439   0.5668   0.5827   0.5894   0.6053   0.6123   0.6269   0.6616
     0.6810   0.6891   0.7529   0.7737   0.7847   0.8402   0.8856   0.8996
     0.9447   0.9771   0.9961   1.0125   1.0604   1.0923   1.0989   1.1142
     1.1187   1.2267   1.3128   1.3327   1.3446   1.3482   1.3585   1.4007
     1.4159   1.5807   1.5945   1.6034   1.6201   1.6377   1.6641   1.6724
     1.7416   1.7503   1.7740   1.7851   1.7891   1.8062   1.8140   1.8165
     1.8319   1.8459   1.8856   1.8954   1.9147   1.9351   1.9428   1.9529
     1.9550   2.0212   2.0271   2.0348   2.0380   2.0640   2.0653   2.0709
     2.0912   2.1032   2.1588   2.1673   2.1690   2.1788   2.1917   2.1978
     2.2051   2.2086   2.2732   2.2891   2.3021   2.3131   2.3222   2.4741
     2.5081   2.5760   2.5949   2.6131   2.6215   2.6293   2.6365   2.7303
     2.9660   3.4522   3.5110   3.5176   3.5431   3.5755   4.2748   5.0820
     5.7969   5.8245   5.8555   5.8709   6.3579   7.0932   7.3753   7.4155
     7.4187   7.4337   7.4449   7.4617   7.5486

          k = 0.0000 0.2309 0.0000 ( 42996 PWs)   bands (ev):

   -16.2890  -6.1168  -4.8532  -4.3631  -4.0261  -3.9657  -3.8618  -3.7623
    -3.6973  -3.6532  -3.6136  -3.5793  -3.4354  -3.3748  -3.2777  -3.2175
    -3.2109  -3.1876  -2.9440  -2.8786  -2.7880  -2.7811  -2.7637  -2.7385
    -2.6935  -2.6868  -2.6355  -2.6181  -2.5998  -2.5668  -2.5364  -2.5072
    -2.4702  -2.3962  -2.3830  -2.3645  -2.3556  -2.2579  -2.1805  -2.1699
    -2.1534  -2.1377  -2.0955  -1.9259  -1.8821  -1.8594  -1.8369  -1.8059
    -1.7774  -1.7190  -1.6295  -1.5773  -1.5306  -1.5039  -1.4745  -1.4554
    -1.3942  -1.2791  -1.1763  -1.1320  -1.0939  -1.0679  -1.0571  -0.9981
    -0.9549  -0.9233  -0.9070  -0.8942  -0.8804  -0.8522  -0.8197  -0.7808
    -0.7601  -0.7350  -0.7030  -0.6472  -0.6298  -0.6127  -0.5778  -0.5621
    -0.5458  -0.4928  -0.4849  -0.4615  -0.4321  -0.4208  -0.3971  -0.3641
    -0.3385  -0.3311  -0.3112  -0.3049  -0.2817  -0.2253  -0.1989  -0.1883
    -0.1798  -0.1650  -0.1259  -0.1167  -0.0958  -0.0772  -0.0685   0.0276
     0.0532   0.0727   0.0925   0.1085   0.1368   0.1693   0.1893   0.1940
     0.2151   0.2236   0.2896   0.3719   0.4799   0.5194   0.5390   0.5581
     0.6036   0.6437   0.6550   0.6640   0.7009   0.7843   0.8227   0.8822
     0.9228   0.9716   0.9979   1.0185   1.0444   1.0755   1.0829   1.0991
     1.1477   1.1818   1.1942   1.2263   1.2340   1.2422   1.3017   1.4157
     1.4414   1.4479   1.4671   1.4845   1.5395   1.5736   1.5922   1.6242
     1.6344   1.6571   1.6970   1.7194   1.7302   1.7610   1.7717   1.8470
     1.8578   1.9153   1.9660   1.9729   2.0041   2.0188   2.0262   2.0365
     2.0618   2.1280   2.1422   2.1620   2.1874   2.2130   2.2294   2.2519
     2.2616   2.2718   2.2806   2.3240   2.3312   2.3508   2.4573   2.4725
     2.5082   2.5180   2.5240   2.5374   2.5542   2.5760   2.5999   2.6235
     2.6432   2.7250   2.7389   2.7549   2.8044   2.9067   2.9251   2.9472
     3.1729   3.2691   3.5748   3.8977   4.1220   4.1796   4.4792   5.0349
     5.3431   5.6851   6.1285   6.2517   6.2539   6.4963   6.7349   7.0622
     7.2397   7.2851   7.5489   7.6019   7.6210

          k = 0.0000 0.4619 0.0000 ( 43046 PWs)   bands (ev):

   -16.2890  -5.6946  -5.0609  -4.4594  -4.0613  -3.9995  -3.9331  -3.7918
    -3.6121  -3.4625  -3.3660  -3.3196  -3.2934  -3.2534  -3.1938  -3.0832
    -3.0440  -3.0332  -3.0218  -2.9299  -2.8963  -2.8694  -2.8382  -2.8207
    -2.7939  -2.7581  -2.7223  -2.6875  -2.6810  -2.5617  -2.4345  -2.4191
    -2.4131  -2.4010  -2.3952  -2.3400  -2.1727  -2.1574  -2.1490  -2.1410
    -2.1248  -2.0572  -1.9804  -1.8929  -1.8456  -1.8300  -1.8048  -1.7908
    -1.7456  -1.6997  -1.6836  -1.6653  -1.6403  -1.5591  -1.5108  -1.4804
    -1.4565  -1.4191  -1.3640  -1.3129  -1.2967  -1.2557  -1.2289  -1.1634
    -1.0894  -1.0649  -1.0094  -1.0008  -0.9851  -0.9452  -0.9102  -0.8964
    -0.8179  -0.7776  -0.7544  -0.7339  -0.6742  -0.6432  -0.6351  -0.6225
    -0.6040  -0.5808  -0.5558  -0.5457  -0.5218  -0.5128  -0.5018  -0.4873
    -0.4673  -0.4239  -0.4038  -0.3738  -0.3607  -0.3423  -0.3376  -0.3225
    -0.1953  -0.1802  -0.1544  -0.1469  -0.1018  -0.0799  -0.0667  -0.0436
     0.0163   0.0489   0.0740   0.0916   0.1160   0.1786   0.2029   0.2200
     0.3060   0.3536   0.3582   0.4405   0.4693   0.4897   0.5165   0.5332
     0.5543   0.5763   0.5960   0.6412   0.6638   0.6688   0.6929   0.7065
     0.7196   0.7605   0.7922   0.8306   0.8808   0.9114   0.9321   0.9681
     0.9992   1.0638   1.1094   1.1322   1.1906   1.2222   1.2857   1.3485
     1.3804   1.4178   1.4359   1.4599   1.4797   1.4976   1.5551   1.5659
     1.6076   1.6206   1.6466   1.6738   1.7410   1.7577   1.7704   1.7944
     1.8290   1.8698   1.9738   1.9955   2.0149   2.0381   2.0606   2.0747
     2.0929   2.1620   2.1820   2.2196   2.2796   2.3010   2.3374   2.3693
     2.3799   2.3884   2.4217   2.4872   2.4885   2.5155   2.5301   2.5333
     2.5507   2.5549   2.7100   2.7311   2.7431   2.7600   2.7860   2.9290
     2.9951   3.0043   3.2093   3.4544   3.5275   3.7654   3.8190   3.8437
     4.1909   4.2238   4.3375   4.5563   4.8227   5.0293   5.0391   5.1023
     5.2671   5.3580   5.3846   5.6314   5.6956   5.7539   6.1803   6.3591
     6.7098   6.9362   7.0846   7.4657   7.5897

          k = 0.2000-0.1155 0.0000 ( 42996 PWs)   bands (ev):

   -16.2890  -6.1171  -4.8535  -4.3703  -4.0234  -3.9619  -3.8632  -3.7609
    -3.6984  -3.6568  -3.6137  -3.5744  -3.4312  -3.3676  -3.2855  -3.2202
    -3.2126  -3.1935  -2.9532  -2.8524  -2.7897  -2.7822  -2.7722  -2.7380
    -2.6965  -2.6786  -2.6426  -2.6194  -2.6076  -2.5681  -2.5415  -2.4970
    -2.4658  -2.4064  -2.3947  -2.3620  -2.3528  -2.2675  -2.1774  -2.1673
    -2.1495  -2.1378  -2.0778  -1.9032  -1.8665  -1.8632  -1.8210  -1.8055
    -1.7941  -1.7226  -1.6369  -1.5890  -1.5377  -1.4991  -1.4727  -1.4553
    -1.3927  -1.2736  -1.1617  -1.1408  -1.0854  -1.0591  -1.0379  -0.9995
    -0.9583  -0.9299  -0.9039  -0.8960  -0.8810  -0.8629  -0.8240  -0.7738
    -0.7538  -0.7277  -0.7094  -0.6645  -0.6444  -0.6259  -0.5995  -0.5646
    -0.5396  -0.4853  -0.4642  -0.4594  -0.4334  -0.4133  -0.3772  -0.3704
    -0.3520  -0.3392  -0.3098  -0.2962  -0.2680  -0.2230  -0.2106  -0.1892
    -0.1844  -0.1563  -0.1275  -0.1110  -0.0875  -0.0779  -0.0646   0.0059
     0.0602   0.0772   0.0818   0.1057   0.1369   0.1638   0.1787   0.1995
     0.2128   0.2225   0.2823   0.3627   0.4739   0.5224   0.5548   0.5728
     0.6078   0.6367   0.6494   0.6713   0.6912   0.7608   0.8162   0.8543
     0.9433   0.9594   1.0026   1.0221   1.0355   1.0535   1.0807   1.0946
     1.1369   1.1830   1.1956   1.2245   1.2338   1.2574   1.3317   1.4071
     1.4397   1.4571   1.4716   1.4943   1.5281   1.5538   1.5961   1.6138
     1.6346   1.6827   1.6991   1.7160   1.7384   1.7641   1.7936   1.8482
     1.8629   1.9293   1.9419   1.9731   1.9862   2.0165   2.0266   2.0415
     2.0918   2.1132   2.1362   2.1596   2.1768   2.2082   2.2354   2.2546
     2.2651   2.2771   2.2833   2.3012   2.3246   2.3406   2.4489   2.4769
     2.5017   2.5144   2.5286   2.5446   2.5698   2.5897   2.6039   2.6297
     2.6479   2.7226   2.7330   2.7525   2.8088   2.9195   2.9210   2.9511
     3.1794   3.2769   3.5898   3.8914   4.1079   4.1805   4.4712   5.0435
     5.3341   5.6823   6.1474   6.2490   6.2524   6.4975   6.7165   7.0810
     7.2278   7.2887   7.5711   7.6093   7.6325

          k = 0.2000 0.1155 0.0000 ( 42996 PWs)   bands (ev):

   -16.2890  -6.1170  -4.8538  -4.3681  -4.0196  -3.9595  -3.8735  -3.7597
    -3.6976  -3.6487  -3.6092  -3.5825  -3.4499  -3.3704  -3.2610  -3.2236
    -3.2183  -3.1835  -2.9568  -2.8751  -2.7893  -2.7779  -2.7648  -2.7336
    -2.6972  -2.6809  -2.6336  -2.6186  -2.5999  -2.5684  -2.5430  -2.5016
    -2.4681  -2.3989  -2.3863  -2.3594  -2.3557  -2.2619  -2.1837  -2.1660
    -2.1514  -2.1425  -2.0954  -1.9416  -1.8878  -1.8566  -1.8134  -1.7962
    -1.7763  -1.7328  -1.6011  -1.5756  -1.5499  -1.5053  -1.4858  -1.4474
    -1.3818  -1.2723  -1.1883  -1.1264  -1.0880  -1.0580  -1.0311  -1.0033
    -0.9736  -0.9219  -0.9041  -0.9012  -0.8787  -0.8346  -0.8200  -0.7688
    -0.7609  -0.7427  -0.7256  -0.6659  -0.6447  -0.6222  -0.5751  -0.5635
    -0.5335  -0.4901  -0.4721  -0.4541  -0.4315  -0.4201  -0.3977  -0.3622
    -0.3546  -0.3408  -0.3242  -0.2805  -0.2421  -0.2289  -0.2145  -0.1948
    -0.1800  -0.1655  -0.1347  -0.1103  -0.0894  -0.0769  -0.0533  -0.0184
     0.0473   0.0724   0.0933   0.1166   0.1391   0.1556   0.1866   0.1972
     0.2152   0.2281   0.2848   0.3731   0.4616   0.5368   0.5519   0.5890
     0.6137   0.6251   0.6396   0.6698   0.7023   0.7490   0.8141   0.8394
     0.9435   0.9813   1.0135   1.0204   1.0411   1.0493   1.0899   1.1005
     1.1280   1.1797   1.1986   1.2167   1.2390   1.2533   1.3277   1.4062
     1.4355   1.4450   1.4710   1.5002   1.5223   1.5641   1.6133   1.6275
     1.6348   1.6855   1.6999   1.7050   1.7510   1.7615   1.7946   1.8387
     1.8610   1.9101   1.9343   1.9665   1.9929   2.0078   2.0224   2.0689
     2.0851   2.1250   2.1446   2.1501   2.1828   2.2184   2.2296   2.2427
     2.2665   2.2725   2.2779   2.2977   2.3345   2.3472   2.4718   2.4865
     2.4929   2.5189   2.5306   2.5364   2.5688   2.5775   2.6039   2.6223
     2.6351   2.7166   2.7382   2.7561   2.8901   2.9122   2.9303   2.9579
     2.9966   3.3384   3.6498   3.8132   4.1309   4.2183   4.5087   4.8680
     5.4444   5.7709   6.0707   6.2466   6.2540   6.4783   6.7353   7.0281
     7.2336   7.2742   7.5686   7.6191   7.6366

          k = 0.2000 0.3464 0.0000 ( 43046 PWs)   bands (ev):

   -16.2890  -5.8318  -4.6316  -4.6040  -4.5696  -3.9289  -3.6262  -3.5228
    -3.5148  -3.4873  -3.4685  -3.4500  -3.4367  -3.4250  -3.3319  -3.3234
    -3.0510  -2.9471  -2.9381  -2.9288  -2.8727  -2.8559  -2.7451  -2.7103
    -2.6939  -2.6842  -2.6825  -2.6436  -2.5788  -2.5415  -2.5295  -2.5220
    -2.4938  -2.4454  -2.4173  -2.4062  -2.3629  -2.2937  -2.2240  -2.0419
    -2.0043  -1.9456  -1.9330  -1.9142  -1.9029  -1.8829  -1.8663  -1.8157
    -1.7719  -1.6515  -1.6486  -1.5963  -1.5698  -1.5335  -1.4944  -1.4650
    -1.4506  -1.4040  -1.3548  -1.2505  -1.2206  -1.2020  -1.1311  -1.1211
    -1.1016  -1.0583  -1.0130  -0.9937  -0.9734  -0.9516  -0.8688  -0.8232
    -0.7963  -0.7731  -0.7581  -0.7272  -0.7130  -0.6828  -0.6684  -0.6495
    -0.5823  -0.5213  -0.5158  -0.5046  -0.4898  -0.4769  -0.4613  -0.4239
    -0.4062  -0.3944  -0.3413  -0.3335  -0.2955  -0.2545  -0.2421  -0.2306
    -0.1909  -0.1623  -0.1432  -0.1245  -0.1157  -0.0894  -0.0638  -0.0510
    -0.0416  -0.0138   0.0165   0.0327   0.0355   0.0974   0.1323   0.1558
     0.1814   0.2352   0.2718   0.3303   0.3679   0.4587   0.4780   0.4944
     0.5880   0.6168   0.6306   0.6545   0.6745   0.7047   0.7262   0.7381
     0.7708   0.8139   0.8287   0.8534   0.9451   0.9957   1.0552   1.0763
     1.0891   1.1192   1.1653   1.1732   1.2137   1.2703   1.2870   1.3095
     1.3506   1.3873   1.4337   1.4612   1.5000   1.5265   1.5477   1.5717
     1.5880   1.6019   1.6232   1.6354   1.6415   1.6927   1.7143   1.7933
     1.8399   1.9047   1.9424   2.0073   2.0422   2.0887   2.1542   2.1791
     2.2083   2.2410   2.2766   2.2964   2.3115   2.3312   2.3483   2.3682
     2.3772   2.3919   2.4155   2.4283   2.4453   2.4911   2.5400   2.5560
     2.5733   2.5881   2.6336   2.6750   2.7303   2.7878   2.8210   2.8604
     2.8945   2.9078   3.0462   3.0543   3.1853   3.4805   3.5853   3.6283
     4.0109   4.1087   4.1312   4.2907   4.4947   4.8365   4.9880   5.0485
     5.0854   5.2910   5.7391   5.9952   6.2305   6.4035   6.4913   6.5766
     6.9737   7.0444   7.0617   7.1210   7.2628

          k = 0.2000-0.5774 0.0000 ( 43014 PWs)   bands (ev):

   -16.2890  -5.3037  -5.2923  -4.6967  -4.1500  -4.0896  -3.8481  -3.5725
    -3.5035  -3.3819  -3.3508  -3.2632  -3.2361  -3.1345  -3.1204  -3.0504
    -3.0210  -3.0142  -2.9752  -2.9649  -2.9578  -2.9493  -2.9059  -2.7995
    -2.7882  -2.7727  -2.7503  -2.6839  -2.6169  -2.5507  -2.5398  -2.4841
    -2.4141  -2.3962  -2.3833  -2.3715  -2.3121  -2.2758  -2.2476  -2.1622
    -2.1035  -1.9701  -1.9631  -1.9521  -1.8786  -1.8039  -1.7698  -1.7331
    -1.6611  -1.6198  -1.5827  -1.5483  -1.5224  -1.5079  -1.4569  -1.4444
    -1.4001  -1.3699  -1.3485  -1.3304  -1.3245  -1.3021  -1.2621  -1.2364
    -1.2247  -1.1592  -1.1097  -1.0750  -1.0293  -0.9996  -0.9409  -0.9106
    -0.8763  -0.8436  -0.8174  -0.8012  -0.7800  -0.7535  -0.7153  -0.6896
    -0.6580  -0.6392  -0.6142  -0.6023  -0.5467  -0.5344  -0.4835  -0.4611
    -0.4123  -0.3835  -0.3473  -0.3075  -0.2801  -0.2530  -0.2492  -0.2147
    -0.1916  -0.1661  -0.1596  -0.1416  -0.1219  -0.1008  -0.0871  -0.0697
    -0.0445  -0.0273  -0.0136   0.0010   0.0200   0.0332   0.0618   0.0698
     0.1274   0.3003   0.3298   0.3734   0.3861   0.4060   0.4862   0.4944
     0.5178   0.5662   0.5826   0.6094   0.6211   0.6524   0.6721   0.7097
     0.7320   0.7783   0.8270   0.8586   0.8952   0.9483   1.0166   1.0426
     1.0897   1.1171   1.1496   1.1768   1.2016   1.2454   1.2629   1.2885
     1.3142   1.3443   1.3667   1.3882   1.4346   1.4697   1.4906   1.5219
     1.5313   1.5668   1.5758   1.5977   1.6669   1.7109   1.7597   1.8505
     1.9094   1.9314   1.9674   1.9961   2.0216   2.1187   2.1364   2.1712
     2.2103   2.2708   2.2922   2.3213   2.3420   2.3561   2.3674   2.3991
     2.4081   2.4609   2.4892   2.5115   2.5297   2.5489   2.5671   2.5713
     2.6300   2.7258   2.7307   2.7536   2.7769   2.7875   2.8345   2.8511
     2.9581   3.0898   3.3218   3.7058   3.9284   3.9291   4.1837   4.2948
     4.3114   4.3545   4.4265   4.7153   4.9373   4.9522   5.2544   5.4120
     5.5182   5.5457   5.5563   5.6078   5.7471   5.8492   6.0238   6.2132
     6.3899   6.4493   6.7377   7.0181   7.0416

          k = 0.2000-0.3464 0.0000 ( 43046 PWs)   bands (ev):

   -16.2890  -5.8321  -4.6243  -4.6043  -4.5783  -3.9314  -3.6155  -3.5245
    -3.5147  -3.5037  -3.4744  -3.4540  -3.4364  -3.4005  -3.3372  -3.3175
    -3.0630  -2.9505  -2.9341  -2.9279  -2.8816  -2.8457  -2.7433  -2.7068
    -2.6932  -2.6844  -2.6809  -2.6494  -2.5614  -2.5413  -2.5276  -2.5230
    -2.5042  -2.4434  -2.4218  -2.4112  -2.3718  -2.2991  -2.2256  -2.0471
    -1.9509  -1.9428  -1.9315  -1.9248  -1.8881  -1.8736  -1.8501  -1.8169
    -1.7762  -1.6978  -1.6517  -1.6224  -1.5442  -1.5340  -1.4996  -1.4607
    -1.4387  -1.3972  -1.3683  -1.2588  -1.2256  -1.1791  -1.1722  -1.1186
    -1.0745  -1.0478  -1.0337  -0.9996  -0.9767  -0.9413  -0.8591  -0.8336
    -0.7983  -0.7764  -0.7484  -0.7400  -0.7066  -0.6819  -0.6635  -0.6374
    -0.5792  -0.5326  -0.5097  -0.4932  -0.4754  -0.4687  -0.4463  -0.4287
    -0.4169  -0.4004  -0.3809  -0.3358  -0.2707  -0.2573  -0.2416  -0.2210
    -0.2044  -0.1605  -0.1528  -0.1248  -0.1122  -0.0807  -0.0722  -0.0647
    -0.0397   0.0011   0.0094   0.0383   0.0520   0.0990   0.1357   0.1572
     0.1801   0.2138   0.2544   0.2906   0.3839   0.4459   0.4684   0.5239
     0.5881   0.6077   0.6483   0.6584   0.6803   0.7003   0.7178   0.7414
     0.7760   0.8065   0.8535   0.8770   0.9354   1.0052   1.0469   1.0531
     1.0988   1.1064   1.1321   1.1777   1.2088   1.2549   1.2986   1.3217
     1.3559   1.3694   1.4205   1.4850   1.5002   1.5175   1.5483   1.5750
     1.5892   1.6083   1.6198   1.6283   1.6584   1.6856   1.7205   1.8037
     1.8451   1.9270   1.9486   1.9703   2.0443   2.1161   2.1513   2.1824
     2.1916   2.2113   2.2806   2.2869   2.3153   2.3177   2.3559   2.3618
     2.3709   2.3951   2.4152   2.4352   2.4534   2.4969   2.5279   2.5507
     2.5746   2.5941   2.6164   2.6884   2.7493   2.7943   2.8341   2.8816
     2.9049   2.9112   3.0161   3.0489   3.1141   3.5288   3.5941   3.7030
     3.9768   4.1143   4.1397   4.1757   4.5550   4.8388   4.9761   5.0486
     5.1114   5.3562   5.7387   5.9093   6.2314   6.2910   6.4861   6.7801
     6.9779   7.0224   7.0731   7.0978   7.2733

          k = 0.4000-0.2309 0.0000 ( 43046 PWs)   bands (ev):

   -16.2890  -5.6958  -5.0640  -4.4604  -4.0604  -3.9981  -3.9360  -3.7836
    -3.6236  -3.4603  -3.3696  -3.3228  -3.3026  -3.2438  -3.1880  -3.0940
    -3.0486  -3.0361  -3.0180  -2.9346  -2.8944  -2.8651  -2.8453  -2.8204
    -2.7944  -2.7672  -2.7114  -2.6881  -2.6822  -2.5735  -2.4304  -2.4164
    -2.4072  -2.3982  -2.3894  -2.3400  -2.1770  -2.1592  -2.1411  -2.1355
    -2.1173  -2.0496  -1.9282  -1.8942  -1.8445  -1.8316  -1.8043  -1.7918
    -1.7467  -1.6963  -1.6820  -1.6530  -1.6436  -1.5968  -1.4991  -1.4684
    -1.4548  -1.4249  -1.3530  -1.3018  -1.2725  -1.2346  -1.2034  -1.1759
    -1.0862  -1.0622  -1.0244  -1.0127  -0.9873  -0.9407  -0.9291  -0.8865
    -0.8227  -0.8020  -0.7932  -0.7415  -0.6856  -0.6494  -0.6360  -0.6228
    -0.5995  -0.5876  -0.5547  -0.5385  -0.5281  -0.5213  -0.5128  -0.4885
    -0.4506  -0.4328  -0.3934  -0.3655  -0.3451  -0.3329  -0.3116  -0.2963
    -0.2098  -0.1964  -0.1685  -0.1568  -0.1220  -0.0907  -0.0593  -0.0512
     0.0116   0.0342   0.0864   0.0993   0.1253   0.1672   0.2097   0.2425
     0.2690   0.3534   0.3635   0.4254   0.4548   0.4929   0.5133   0.5243
     0.5690   0.5935   0.6069   0.6450   0.6511   0.6626   0.6822   0.6970
     0.7109   0.7534   0.8001   0.8436   0.8843   0.8998   0.9127   0.9510
     0.9902   1.0641   1.0925   1.1332   1.1935   1.2262   1.2958   1.3635
     1.3889   1.4021   1.4232   1.4590   1.4812   1.5064   1.5377   1.5758
     1.5994   1.6340   1.6558   1.6888   1.7482   1.7587   1.7772   1.7867
     1.8200   1.9012   1.9328   1.9972   2.0196   2.0344   2.0487   2.0656
     2.1228   2.1641   2.1823   2.2111   2.2714   2.2972   2.3343   2.3485
     2.3631   2.3911   2.4423   2.4808   2.4968   2.5217   2.5306   2.5429
     2.5646   2.5720   2.7099   2.7333   2.7583   2.7841   2.7920   2.9241
     2.9992   3.0071   3.2259   3.4391   3.5064   3.7742   3.8213   3.8399
     4.1882   4.2165   4.3465   4.5732   4.8260   5.0327   5.0376   5.1191
     5.2411   5.3397   5.4094   5.6295   5.6973   5.7518   6.1883   6.3862
     6.6900   6.9217   7.0918   7.4533   7.6178

          k = 0.4000-0.0000 0.0000 ( 43046 PWs)   bands (ev):

   -16.2890  -5.8325  -4.6289  -4.6094  -4.5708  -3.9315  -3.6217  -3.5262
    -3.5200  -3.4897  -3.4706  -3.4453  -3.4390  -3.4117  -3.3299  -3.3229
    -3.0465  -2.9625  -2.9463  -2.9291  -2.8815  -2.8647  -2.7420  -2.7029
    -2.6924  -2.6865  -2.6785  -2.6305  -2.5579  -2.5343  -2.5298  -2.5231
    -2.5069  -2.4389  -2.4260  -2.4090  -2.3709  -2.3015  -2.2403  -2.0469
    -1.9946  -1.9429  -1.9288  -1.9036  -1.8846  -1.8753  -1.8386  -1.8113
    -1.7441  -1.6902  -1.6476  -1.6258  -1.5642  -1.5352  -1.4825  -1.4572
    -1.4468  -1.4146  -1.3351  -1.2645  -1.2352  -1.2008  -1.1311  -1.0849
    -1.0650  -1.0495  -1.0162  -0.9940  -0.9750  -0.9553  -0.8562  -0.8316
    -0.8225  -0.7938  -0.7662  -0.7512  -0.7060  -0.6833  -0.6653  -0.6348
    -0.5916  -0.5218  -0.5132  -0.4908  -0.4800  -0.4737  -0.4558  -0.4202
    -0.4075  -0.3941  -0.3733  -0.3306  -0.3109  -0.2514  -0.2421  -0.2390
    -0.1962  -0.1625  -0.1537  -0.1208  -0.1140  -0.0902  -0.0675  -0.0610
    -0.0413  -0.0117   0.0232   0.0290   0.0553   0.1129   0.1257   0.1394
     0.1730   0.2373   0.2793   0.2890   0.3758   0.4448   0.4873   0.4950
     0.5690   0.6061   0.6327   0.6670   0.6737   0.6872   0.7164   0.7381
     0.7890   0.8036   0.8315   0.8741   0.9490   0.9890   1.0482   1.0670
     1.0958   1.1122   1.1515   1.1728   1.2349   1.2677   1.2847   1.3280
     1.3356   1.3765   1.4056   1.4904   1.5135   1.5325   1.5537   1.5898
     1.5984   1.6055   1.6173   1.6337   1.6521   1.6886   1.7385   1.7597
     1.8365   1.9089   1.9429   2.0014   2.0424   2.0745   2.1516   2.1665
     2.2102   2.2501   2.2794   2.3078   2.3108   2.3253   2.3427   2.3652
     2.3767   2.3835   2.4158   2.4345   2.4424   2.4886   2.5347   2.5479
     2.5724   2.5902   2.6279   2.6779   2.7478   2.8072   2.8440   2.8677
     2.8987   2.9126   3.0457   3.0538   3.1786   3.4732   3.5828   3.6197
     4.0152   4.1204   4.1341   4.3005   4.4925   4.8329   4.9927   5.0495
     5.0826   5.2850   5.7428   5.9905   6.2320   6.4012   6.4840   6.5995
     6.9725   7.0495   7.0656   7.0922   7.2769

          k = 0.4000 0.2309 0.0000 ( 43046 PWs)   bands (ev):

   -16.2890  -5.6953  -5.0633  -4.4596  -4.0534  -3.9981  -3.9433  -3.7990
    -3.6080  -3.4595  -3.3704  -3.3186  -3.2855  -3.2554  -3.1827  -3.0884
    -3.0564  -3.0393  -3.0211  -2.9310  -2.8996  -2.8718  -2.8468  -2.8185
    -2.7957  -2.7606  -2.7219  -2.6844  -2.6692  -2.5586  -2.4254  -2.4240
    -2.4111  -2.3983  -2.3855  -2.3479  -2.1839  -2.1511  -2.1457  -2.1394
    -2.1272  -2.0873  -1.9776  -1.8658  -1.8326  -1.8265  -1.8109  -1.7787
    -1.7531  -1.7059  -1.6862  -1.6597  -1.6240  -1.5731  -1.4977  -1.4742
    -1.4504  -1.4265  -1.3521  -1.3114  -1.2747  -1.2569  -1.2210  -1.1133
    -1.0897  -1.0382  -1.0232  -0.9973  -0.9871  -0.9376  -0.9006  -0.8941
    -0.8459  -0.7936  -0.7799  -0.7448  -0.7081  -0.6592  -0.6514  -0.6346
    -0.6099  -0.5757  -0.5589  -0.5384  -0.5250  -0.5195  -0.5159  -0.5013
    -0.4762  -0.4285  -0.3917  -0.3663  -0.3590  -0.3428  -0.3286  -0.2728
    -0.2271  -0.1923  -0.1767  -0.1397  -0.1118  -0.0884  -0.0593  -0.0387
    -0.0052   0.0776   0.0915   0.1176   0.1329   0.1828   0.2061   0.2269
     0.2660   0.3493   0.3874   0.4079   0.4525   0.4943   0.5213   0.5400
     0.5738   0.5904   0.6093   0.6356   0.6504   0.6679   0.6885   0.7028
     0.7042   0.7494   0.7836   0.8559   0.8700   0.8973   0.9130   0.9390
     0.9899   1.0742   1.1092   1.1243   1.2091   1.2234   1.2769   1.3361
     1.3947   1.3962   1.4531   1.4629   1.4904   1.5035   1.5465   1.5712
     1.5894   1.6297   1.6441   1.7146   1.7431   1.7554   1.7658   1.7907
     1.8225   1.8429   1.9301   2.0036   2.0241   2.0525   2.0747   2.0814
     2.1571   2.1693   2.1792   2.2173   2.2734   2.2902   2.3291   2.3489
     2.3702   2.3870   2.4469   2.4722   2.5081   2.5162   2.5223   2.5363
     2.5574   2.5676   2.7068   2.7350   2.7604   2.7660   2.7858   2.9288
     2.9996   3.0155   3.1886   3.4505   3.5066   3.7897   3.8248   3.9039
     4.1666   4.2212   4.2761   4.5559   4.7887   5.0313   5.0368   5.0930
     5.3045   5.3687   5.4005   5.6723   5.6844   5.7798   6.1041   6.3454
     6.7571   6.9498   7.0849   7.4692   7.5810

          k = 0.4000-0.6928 0.0000 ( 43014 PWs)   bands (ev):

   -16.2890  -5.3041  -5.2941  -4.6945  -4.1706  -4.0576  -3.8719  -3.5759
    -3.4886  -3.3777  -3.3474  -3.2636  -3.2340  -3.1377  -3.1239  -3.0605
    -3.0283  -3.0078  -2.9911  -2.9675  -2.9608  -2.9440  -2.8932  -2.8063
    -2.7952  -2.7684  -2.7394  -2.6873  -2.6089  -2.5455  -2.5371  -2.4892
    -2.4096  -2.3931  -2.3805  -2.3717  -2.3243  -2.2769  -2.2477  -2.1578
    -2.1161  -1.9881  -1.9550  -1.9369  -1.8705  -1.7951  -1.7649  -1.7339
    -1.6579  -1.6267  -1.5846  -1.5635  -1.5377  -1.4716  -1.4627  -1.4316
    -1.3924  -1.3617  -1.3484  -1.3280  -1.3190  -1.2930  -1.2628  -1.2455
    -1.2158  -1.1162  -1.0964  -1.0649  -1.0471  -1.0060  -0.9405  -0.9110
    -0.8866  -0.8666  -0.8257  -0.8078  -0.7885  -0.7611  -0.7286  -0.7098
    -0.6761  -0.6399  -0.6097  -0.5727  -0.5504  -0.5215  -0.4957  -0.4501
    -0.4470  -0.3840  -0.3410  -0.2861  -0.2798  -0.2608  -0.2400  -0.2157
    -0.1923  -0.1743  -0.1609  -0.1505  -0.1293  -0.1064  -0.0957  -0.0707
    -0.0445  -0.0307  -0.0191  -0.0028   0.0071   0.0168   0.0660   0.1014
     0.1681   0.2787   0.3248   0.3688   0.3824   0.4444   0.4819   0.4993
     0.5300   0.5512   0.5933   0.6073   0.6327   0.6484   0.6736   0.7149
     0.7470   0.7642   0.8069   0.8677   0.8830   0.9096   1.0083   1.0487
     1.0900   1.1199   1.1397   1.1852   1.2141   1.2395   1.2720   1.2935
     1.3040   1.3236   1.3600   1.3785   1.4122   1.4645   1.4986   1.5201
     1.5309   1.5555   1.5872   1.6395   1.6874   1.7109   1.7616   1.8364
     1.9042   1.9553   1.9866   2.0021   2.0635   2.0890   2.1239   2.1453
     2.2209   2.2518   2.3075   2.3143   2.3405   2.3520   2.3625   2.3846
     2.4233   2.4782   2.5006   2.5089   2.5340   2.5483   2.5567   2.5635
     2.6309   2.7138   2.7423   2.7612   2.7683   2.7891   2.8347   2.8594
     2.9609   3.0954   3.3314   3.7487   3.9257   3.9352   4.1188   4.2815
     4.3085   4.3510   4.3802   4.8279   4.9444   4.9672   5.2029   5.3993
     5.4423   5.5379   5.5562   5.7112   5.7573   5.8522   5.9375   6.3318
     6.3923   6.4168   6.7822   7.0067   7.0389

          k = 0.4000-0.4619 0.0000 ( 43014 PWs)   bands (ev):

   -16.2890  -5.3100  -5.2891  -4.6942  -4.1443  -4.1031  -3.8387  -3.5751
    -3.5143  -3.3803  -3.3515  -3.2660  -3.2234  -3.1357  -3.1280  -3.0591
    -3.0279  -3.0189  -2.9781  -2.9620  -2.9581  -2.9403  -2.8858  -2.8135
    -2.7919  -2.7741  -2.7498  -2.6873  -2.6035  -2.5604  -2.5399  -2.4834
    -2.4099  -2.3985  -2.3822  -2.3684  -2.3265  -2.2616  -2.2373  -2.1489
    -2.0976  -1.9779  -1.9528  -1.9276  -1.8697  -1.8264  -1.7699  -1.7409
    -1.6686  -1.6278  -1.5856  -1.5555  -1.5215  -1.4857  -1.4582  -1.4307
    -1.3872  -1.3667  -1.3374  -1.3255  -1.3080  -1.2962  -1.2611  -1.2415
    -1.2234  -1.1804  -1.0989  -1.0740  -1.0307  -0.9937  -0.9475  -0.9033
    -0.8725  -0.8561  -0.8368  -0.8127  -0.7959  -0.7381  -0.7180  -0.7069
    -0.6827  -0.6478  -0.6136  -0.5807  -0.5473  -0.5232  -0.4834  -0.4482
    -0.4149  -0.3793  -0.3448  -0.3098  -0.2655  -0.2563  -0.2439  -0.2111
    -0.1960  -0.1844  -0.1670  -0.1488  -0.1423  -0.1217  -0.0881  -0.0574
    -0.0379  -0.0236  -0.0172   0.0104   0.0203   0.0260   0.0468   0.0662
     0.1667   0.2291   0.3493   0.3647   0.3922   0.4214   0.4810   0.4903
     0.5276   0.5731   0.5870   0.6105   0.6358   0.6460   0.6661   0.7044
     0.7496   0.7690   0.8341   0.8640   0.8921   0.9481   0.9787   1.0347
     1.0617   1.1216   1.1520   1.1773   1.2178   1.2472   1.2668   1.2924
     1.3015   1.3390   1.3634   1.3841   1.4420   1.4544   1.4894   1.5240
     1.5352   1.5664   1.5769   1.6239   1.6726   1.7057   1.8020   1.8261
     1.8989   1.9530   1.9809   1.9973   2.0116   2.1088   2.1326   2.1717
     2.1940   2.2769   2.2922   2.3123   2.3318   2.3506   2.3645   2.3915
     2.4186   2.4718   2.4965   2.5103   2.5239   2.5337   2.5646   2.5764
     2.6285   2.7232   2.7409   2.7643   2.7884   2.7954   2.8403   2.8656
     2.9606   3.0913   3.3248   3.7052   3.9265   3.9315   4.1954   4.2842
     4.3065   4.3237   4.4336   4.7161   4.9401   4.9557   5.2594   5.4143
     5.5096   5.5427   5.5528   5.6205   5.7972   5.8671   6.0416   6.1762
     6.3820   6.4567   6.7007   7.0073   7.0275

     the Fermi energy is     2.5534 ev

!    total energy              =  -27799.16199622 Ry
     total all-electron energy =  -1326794.774303 Ry
     estimated scf accuracy    <          2.9E-09 Ry
     smearing contrib. (-TS)   =       0.00054382 Ry
     internal energy E=F+TS    =  -27799.16254004 Ry

     The total energy is F=E-TS. E is the sum of the following terms:
     one-electron contribution =  -20717.65137602 Ry
     hartree contribution      =   10670.21486881 Ry
     xc contribution           =    -899.17509729 Ry
     ewald contribution        =    8631.57631474 Ry
     one-center paw contrib.   =  -25484.12725029 Ry

     convergence has been achieved in  23 iterations

     negative rho (up, down):  3.079E-03 0.000E+00

     Forces acting on atoms (cartesian axes, Ry/au):

     atom    1 type  1   force =     0.00004683   -0.00082275   -0.00774372
     atom    2 type  1   force =    -0.00045258   -0.00089038   -0.00315464
     atom    3 type  1   force =     0.00103597   -0.00037388   -0.00385945
     atom    4 type  1   force =    -0.00058331   -0.00078062   -0.00335946
     atom    5 type  1   force =     0.00033505    0.00000562   -0.00363820
     atom    6 type  1   force =     0.00071006   -0.00087591   -0.00340581
     atom    7 type  1   force =     0.00092525    0.00059746   -0.00328735
     atom    8 type  1   force =     0.00018121    0.00011332   -0.00635302
     atom    9 type  1   force =    -0.00017856   -0.00022413   -0.00300943
     atom   10 type  1   force =     0.00049426    0.00101552   -0.00016632
     atom   11 type  1   force =    -0.00003417    0.00254568    0.01183664
     atom   12 type  1   force =    -0.00179141    0.00053985    0.00619264
     atom   13 type  1   force =     0.00182063   -0.00020752    0.00842431
     atom   14 type  1   force =    -0.00268504    0.00173430    0.00482288
     atom   15 type  1   force =    -0.00059277    0.00118127    0.00129418
     atom   16 type  1   force =     0.00096723   -0.00217030    0.00008520
     atom   17 type  1   force =    -0.00176176   -0.00048556   -0.00178118
     atom   18 type  1   force =    -0.00050482    0.00135453    0.00680210
     atom   19 type  1   force =    -0.00014595   -0.00004393   -0.00000208
     atom   20 type  1   force =     0.00009564    0.00005756    0.00003536
     atom   21 type  1   force =    -0.00018811   -0.00005106    0.00025419
     atom   22 type  1   force =     0.00000321   -0.00006097   -0.00003814
     atom   23 type  1   force =     0.00001241   -0.00007419    0.00002833
     atom   24 type  1   force =    -0.00001779   -0.00003607   -0.00007364
     atom   25 type  1   force =     0.00013718   -0.00003927   -0.00026143
     atom   26 type  1   force =     0.00015798    0.00006326    0.00002394
     atom   27 type  1   force =     0.00005833    0.00004955    0.00009539
     atom   28 type  1   force =     0.00020349   -0.00011899   -0.00007266
     atom   29 type  1   force =     0.00011881    0.00010720    0.00011927
     atom   30 type  1   force =     0.00008073   -0.00027712   -0.00007935
     atom   31 type  1   force =     0.00011436   -0.00023117   -0.00007239
     atom   32 type  1   force =     0.00027965   -0.00002811   -0.00051905
     atom   33 type  1   force =    -0.00005363   -0.00013199    0.00015389
     atom   34 type  1   force =     0.00009852   -0.00011446   -0.00021146
     atom   35 type  1   force =     0.00013764   -0.00019046   -0.00014061
     atom   36 type  1   force =     0.00022226   -0.00012686   -0.00007871
     atom   37 type  2   force =    -0.00104111    0.00265103    0.00040935
     atom   38 type  3   force =    -0.00083181    0.00043534   -0.00039027
     atom   39 type  3   force =     0.00262612   -0.00409581    0.00112069
     The non-local contrib.  to forces
     atom    1 type  1   force =     0.00064941    0.00014242   -0.01647287
     atom    2 type  1   force =    -0.00020064   -0.00061212   -0.01918770
     atom    3 type  1   force =    -0.00031949   -0.00051653   -0.01966368
     atom    4 type  1   force =    -0.00052723    0.00066562   -0.01916908
     atom    5 type  1   force =    -0.00028996    0.00053467   -0.02062137
     atom    6 type  1   force =     0.00057963    0.00087902   -0.01844646
     atom    7 type  1   force =    -0.00039812   -0.00051758   -0.01914126
     atom    8 type  1   force =     0.00005198    0.00042417   -0.01653814
     atom    9 type  1   force =    -0.00014982   -0.00018951   -0.02013783
     atom   10 type  1   force =     0.00147051    0.00282035   -0.00188817
     atom   11 type  1   force =    -0.00060171    0.00127755    0.00251302
     atom   12 type  1   force =    -0.00218072    0.00221597   -0.00014402
     atom   13 type  1   force =    -0.00088915    0.00049829    0.00176630
     atom   14 type  1   force =    -0.00079890   -0.00199689    0.00211972
     atom   15 type  1   force =    -0.00003132    0.00104892   -0.00211287
     atom   16 type  1   force =    -0.00310462   -0.00015540   -0.00040715
     atom   17 type  1   force =     0.00237359    0.00178112   -0.00161723
     atom   18 type  1   force =    -0.00111806    0.00041412   -0.00014660
     atom   19 type  1   force =     0.00182681    0.00293155    0.00702144
     atom   20 type  1   force =    -0.01296116   -0.00535305   -0.00542947
     atom   21 type  1   force =     0.01105563    0.00414218   -0.00611790
     atom   22 type  1   force =    -0.00246652   -0.00073959    0.00237518
     atom   23 type  1   force =    -0.00059783    0.01432527   -0.00302045
     atom   24 type  1   force =     0.00255828    0.00116220    0.00524921
     atom   25 type  1   force =     0.01065945   -0.00805887    0.00142153
     atom   26 type  1   force =     0.00168768    0.00025550    0.01006714
     atom   27 type  1   force =    -0.01074643   -0.00807047   -0.00062262
     atom   28 type  1   force =    -0.00450532    0.00013162    0.01930335
     atom   29 type  1   force =     0.01780634    0.01530465    0.03198451
     atom   30 type  1   force =    -0.00545823    0.01284107   -0.13091918
     atom   31 type  1   force =     0.01796563    0.00063397    0.02815644
     atom   32 type  1   force =    -0.00297782   -0.00783748   -0.07721411
     atom   33 type  1   force =    -0.01467041   -0.00561383    0.02082820
     atom   34 type  1   force =     0.00700139   -0.01509995    0.03074933
     atom   35 type  1   force =    -0.00825034   -0.01443856    0.02241659
     atom   36 type  1   force =     0.00430631    0.00331912    0.02015332
     atom   37 type  2   force =     2.04512077    0.51175190   -0.52328050
     atom   38 type  3   force =    -0.10031424   -0.02454683   -0.04155992
     atom   39 type  3   force =     0.00372141   -0.00282421   -0.04292142
     The ionic contribution  to forces
     atom    1 type  1   force =    -0.00907182   -0.00765905  -94.35110954
     atom    2 type  1   force =     0.01287062    0.00893826  -94.34051210
     atom    3 type  1   force =    -0.00388435    0.00981838  -94.32551900
     atom    4 type  1   force =     0.01607710    0.00079413  -94.35119862
     atom    5 type  1   force =     0.00531536   -0.00061580  -94.31267429
     atom    6 type  1   force =    -0.02142688   -0.00572329  -94.34160040
     atom    7 type  1   force =     0.00965832   -0.00267662  -94.33030411
     atom    8 type  1   force =    -0.01271383   -0.01146643  -94.33854571
     atom    9 type  1   force =     0.00302261    0.00881793  -94.35322205
     atom   10 type  1   force =     0.11674629    0.06102034  -33.28500704
     atom   11 type  1   force =     0.04286191    0.07528373  -33.14526055
     atom   12 type  1   force =    -0.17156524    0.02113194  -33.20074081
     atom   13 type  1   force =     0.11649432   -0.00276014  -33.19580701
     atom   14 type  1   force =    -0.12140549   -0.07882472  -33.13299429
     atom   15 type  1   force =    -0.01267301    0.02481770  -33.35704383
     atom   16 type  1   force =    -0.09521192   -0.12605528  -33.14723546
     atom   17 type  1   force =     0.04948186    0.04204163  -33.27611702
     atom   18 type  1   force =     0.02360872    0.06827986  -33.24825399
     atom   19 type  1   force =    -0.03327552   -0.09916366   28.14624084
     atom   20 type  1   force =    -0.06936956   -0.06509265   28.77435882
     atom   21 type  1   force =     0.10507418   -0.14897238   29.15245873
     atom   22 type  1   force =    -0.04267397    0.10306869   28.31426587
     atom   23 type  1   force =     0.02358566    0.21692510   28.82868033
     atom   24 type  1   force =     0.01043155    0.08557451   28.23711628
     atom   25 type  1   force =     0.03895837    0.01917781   28.72104221
     atom   26 type  1   force =    -0.09246306   -0.04078485   28.05225719
     atom   27 type  1   force =     0.06319128   -0.06090971   28.79224544
     atom   28 type  1   force =     0.25377790    0.02387131   90.47801537
     atom   29 type  1   force =    -0.83296931   -0.94330610   89.26617569
     atom   30 type  1   force =     0.81202909   -1.31406771   89.26152860
     atom   31 type  1   force =    -1.12486087    0.01727791   89.50519216
     atom   32 type  1   force =    -0.17430012    0.26661293   84.35473580
     atom   33 type  1   force =     1.43260143    0.20011049   89.28304123
     atom   34 type  1   force =    -0.52726721    0.74753120   89.42192485
     atom   35 type  1   force =     0.60941702    1.07682291   89.64343069
     atom   36 type  1   force =    -0.05565652   -0.26296964   90.53015095
     atom   37 type  2   force =    -3.67954926   -0.50242652   65.42086386
     atom   38 type  3   force =     3.25257108    0.86722161   11.61394072
     atom   39 type  3   force =     0.08256325   -0.27166383   12.23548018
     The local contribution  to forces
     atom    1 type  1   force =     0.00847503    0.00666959   94.34251736
     atom    2 type  1   force =    -0.01312996   -0.00919593   94.33941745
     atom    3 type  1   force =     0.00522913   -0.00965834   94.32423079
     atom    4 type  1   force =    -0.01611254   -0.00225319   94.34987822
     atom    5 type  1   force =    -0.00467282    0.00008460   94.31267266
     atom    6 type  1   force =     0.02154530    0.00396743   94.33951860
     atom    7 type  1   force =    -0.00831224    0.00376594   94.32907096
     atom    8 type  1   force =     0.01286598    0.01108739   94.33114283
     atom    9 type  1   force =    -0.00302958   -0.00887512   94.35328058
     atom   10 type  1   force =    -0.11734007   -0.06253050   33.28542959
     atom   11 type  1   force =    -0.04220682   -0.07385315   33.15388512
     atom   12 type  1   force =     0.17143012   -0.02266924   33.20609466
     atom   13 type  1   force =    -0.11355733    0.00199519   33.20151471
     atom   14 type  1   force =     0.11924342    0.08248723   33.13503965
     atom   15 type  1   force =     0.01209405   -0.02455672   33.35876553
     atom   16 type  1   force =     0.09903486    0.12358647   33.14701488
     atom   17 type  1   force =    -0.05344892   -0.04424839   33.27462025
     atom   18 type  1   force =    -0.02304626   -0.06716421   33.25394123
     atom   19 type  1   force =     0.03118891    0.09595133  -28.15145774
     atom   20 type  1   force =     0.08268440    0.07069234  -28.76714704
     atom   21 type  1   force =    -0.11647474    0.14456801  -29.14385245
     atom   22 type  1   force =     0.04515598   -0.10228785  -28.31495923
     atom   23 type  1   force =    -0.02273571   -0.23121278  -28.82446449
     atom   24 type  1   force =    -0.01331764   -0.08665264  -28.24064673
     atom   25 type  1   force =    -0.04956105   -0.01087250  -28.72058330
     atom   26 type  1   force =     0.09062883    0.04041436  -28.06045368
     atom   27 type  1   force =    -0.05204945    0.06919874  -28.78928878
     atom   28 type  1   force =    -0.24914177   -0.02394805  -90.48125812
     atom   29 type  1   force =     0.81603751    0.92936114  -89.28125375
     atom   30 type  1   force =    -0.80510423    1.30000258  -89.13300164
     atom   31 type  1   force =     1.10826396   -0.01799550  -89.51642928
     atom   32 type  1   force =     0.17669845   -0.25930363  -84.27997565
     atom   33 type  1   force =    -1.41835386   -0.19466352  -89.28755744
     atom   34 type  1   force =     0.52053982   -0.73379622  -89.43610158
     atom   35 type  1   force =    -0.60128953   -1.06314459  -89.64965599
     atom   36 type  1   force =     0.05182455    0.25943479  -90.53404906
     atom   37 type  2   force =     1.65272541   -0.00178481  -64.90360861
     atom   38 type  3   force =    -3.15309088   -0.84223932  -11.57277368
     atom   39 type  3   force =    -0.08365987    0.27039605  -12.19144139
     The core correction contribution to forces
     atom    1 type  1   force =    -0.00000901    0.00003607    0.01733405
     atom    2 type  1   force =     0.00000649   -0.00001652    0.01713257
     atom    3 type  1   force =     0.00001333   -0.00000795    0.01710217
     atom    4 type  1   force =    -0.00002988    0.00001659    0.01714369
     atom    5 type  1   force =    -0.00001174    0.00000484    0.01699707
     atom    6 type  1   force =     0.00001403    0.00000557    0.01714550
     atom    7 type  1   force =    -0.00002496    0.00001886    0.01709582
     atom    8 type  1   force =    -0.00001787    0.00005557    0.01760165
     atom    9 type  1   force =    -0.00002585    0.00000826    0.01708321
     atom   10 type  1   force =    -0.00040152   -0.00027956    0.00127505
     atom   11 type  1   force =    -0.00007384   -0.00014984    0.00067166
     atom   12 type  1   force =     0.00052813   -0.00011541    0.00096949
     atom   13 type  1   force =    -0.00023125    0.00006051    0.00092523
     atom   14 type  1   force =     0.00029457    0.00006147    0.00064082
     atom   15 type  1   force =     0.00000189   -0.00013860    0.00166800
     atom   16 type  1   force =     0.00024770    0.00045160    0.00069511
     atom   17 type  1   force =    -0.00016835   -0.00008365    0.00130809
     atom   18 type  1   force =     0.00005059   -0.00018230    0.00124054
     atom   19 type  1   force =     0.00009393    0.00025128   -0.00181376
     atom   20 type  1   force =    -0.00026433   -0.00017316   -0.00174617
     atom   21 type  1   force =     0.00018188    0.00023449   -0.00224235
     atom   22 type  1   force =    -0.00002034   -0.00011163   -0.00172255
     atom   23 type  1   force =    -0.00023030   -0.00011280   -0.00116456
     atom   24 type  1   force =     0.00030740   -0.00014735   -0.00180171
     atom   25 type  1   force =     0.00009090   -0.00028012   -0.00214739
     atom   26 type  1   force =     0.00028970    0.00017100   -0.00184863
     atom   27 type  1   force =    -0.00033340   -0.00018019   -0.00224719
     atom   28 type  1   force =     0.00005758   -0.00016864   -0.01616150
     atom   29 type  1   force =    -0.00074790   -0.00123590   -0.01679757
     atom   30 type  1   force =    -0.00138109    0.00096991    0.00230892
     atom   31 type  1   force =    -0.00124914   -0.00014031   -0.01701648
     atom   32 type  1   force =     0.00086938    0.00050816    0.00194508
     atom   33 type  1   force =     0.00035175    0.00003070   -0.01619096
     atom   34 type  1   force =    -0.00016488    0.00123668   -0.01680101
     atom   35 type  1   force =     0.00024504    0.00054191   -0.01635706
     atom   36 type  1   force =    -0.00024883    0.00007516   -0.01636105
     atom   37 type  2   force =    -0.01932053   -0.00488130    0.00644050
     atom   38 type  3   force =     0.00000000    0.00000000    0.00000000
     atom   39 type  3   force =     0.00000000    0.00000000    0.00000000
     The Hubbard contrib.    to forces
     atom    1 type  1   force =     0.00000000    0.00000000    0.00000000
     atom    2 type  1   force =     0.00000000    0.00000000    0.00000000
     atom    3 type  1   force =     0.00000000    0.00000000    0.00000000
     atom    4 type  1   force =     0.00000000    0.00000000    0.00000000
     atom    5 type  1   force =     0.00000000    0.00000000    0.00000000
     atom    6 type  1   force =     0.00000000    0.00000000    0.00000000
     atom    7 type  1   force =     0.00000000    0.00000000    0.00000000
     atom    8 type  1   force =     0.00000000    0.00000000    0.00000000
     atom    9 type  1   force =     0.00000000    0.00000000    0.00000000
     atom   10 type  1   force =     0.00000000    0.00000000    0.00000000
     atom   11 type  1   force =     0.00000000    0.00000000    0.00000000
     atom   12 type  1   force =     0.00000000    0.00000000    0.00000000
     atom   13 type  1   force =     0.00000000    0.00000000    0.00000000
     atom   14 type  1   force =     0.00000000    0.00000000    0.00000000
     atom   15 type  1   force =     0.00000000    0.00000000    0.00000000
     atom   16 type  1   force =     0.00000000    0.00000000    0.00000000
     atom   17 type  1   force =     0.00000000    0.00000000    0.00000000
     atom   18 type  1   force =     0.00000000    0.00000000    0.00000000
     atom   19 type  1   force =     0.00000000    0.00000000    0.00000000
     atom   20 type  1   force =     0.00000000    0.00000000    0.00000000
     atom   21 type  1   force =     0.00000000    0.00000000    0.00000000
     atom   22 type  1   force =     0.00000000    0.00000000    0.00000000
     atom   23 type  1   force =     0.00000000    0.00000000    0.00000000
     atom   24 type  1   force =     0.00000000    0.00000000    0.00000000
     atom   25 type  1   force =     0.00000000    0.00000000    0.00000000
     atom   26 type  1   force =     0.00000000    0.00000000    0.00000000
     atom   27 type  1   force =     0.00000000    0.00000000    0.00000000
     atom   28 type  1   force =     0.00000000    0.00000000    0.00000000
     atom   29 type  1   force =     0.00000000    0.00000000    0.00000000
     atom   30 type  1   force =     0.00000000    0.00000000    0.00000000
     atom   31 type  1   force =     0.00000000    0.00000000    0.00000000
     atom   32 type  1   force =     0.00000000    0.00000000    0.00000000
     atom   33 type  1   force =     0.00000000    0.00000000    0.00000000
     atom   34 type  1   force =     0.00000000    0.00000000    0.00000000
     atom   35 type  1   force =     0.00000000    0.00000000    0.00000000
     atom   36 type  1   force =     0.00000000    0.00000000    0.00000000
     atom   37 type  2   force =     0.00000000    0.00000000    0.00000000
     atom   38 type  3   force =     0.00000000    0.00000000    0.00000000
     atom   39 type  3   force =     0.00000000    0.00000000    0.00000000
     The SCF correction term to forces
     atom    1 type  1   force =     0.00000000   -0.00000000   -0.00000000
     atom    2 type  1   force =     0.00000000   -0.00000000   -0.00000000
     atom    3 type  1   force =    -0.00000000   -0.00000000   -0.00000000
     atom    4 type  1   force =     0.00000000   -0.00000000   -0.00000000
     atom    5 type  1   force =    -0.00000000   -0.00000000   -0.00000000
     atom    6 type  1   force =    -0.00000000   -0.00000000   -0.00000000
     atom    7 type  1   force =     0.00000000    0.00000000   -0.00000000
     atom    8 type  1   force =    -0.00000000    0.00000000   -0.00000000
     atom    9 type  1   force =     0.00000000    0.00000000   -0.00000000
     atom   10 type  1   force =     0.00000000   -0.00000000    0.00000000
     atom   11 type  1   force =    -0.00000000   -0.00000000    0.00000000
     atom   12 type  1   force =    -0.00000000   -0.00000000    0.00000000
     atom   13 type  1   force =     0.00000000   -0.00000000    0.00000000
     atom   14 type  1   force =    -0.00000000    0.00000000    0.00000000
     atom   15 type  1   force =     0.00000000    0.00000000    0.00000000
     atom   16 type  1   force =     0.00000000    0.00000000    0.00000000
     atom   17 type  1   force =    -0.00000000    0.00000000    0.00000000
     atom   18 type  1   force =    -0.00000000    0.00000000    0.00000000
     atom   19 type  1   force =     0.00001947   -0.00001417    0.00000649
     atom   20 type  1   force =     0.00000584   -0.00001568   -0.00000143
     atom   21 type  1   force =    -0.00002551   -0.00002310    0.00000752
     atom   22 type  1   force =     0.00000761    0.00000967    0.00000195
     atom   23 type  1   force =    -0.00000985    0.00000128   -0.00000315
     atom   24 type  1   force =     0.00000217    0.00002746    0.00000867
     atom   25 type  1   force =    -0.00001095   -0.00000532    0.00000487
     atom   26 type  1   force =     0.00001439    0.00000750    0.00000127
     atom   27 type  1   force =    -0.00000411    0.00001144    0.00000789
     atom   28 type  1   force =     0.00001465   -0.00000498    0.00002760
     atom   29 type  1   force =    -0.00000828   -0.00001634    0.00000976
     atom   30 type  1   force =    -0.00000526   -0.00002271    0.00000330
     atom   31 type  1   force =    -0.00000568   -0.00000698    0.00002412
     atom   32 type  1   force =    -0.00001070   -0.00000783   -0.00001081
     atom   33 type  1   force =     0.00001701    0.00000443    0.00003222
     atom   34 type  1   force =    -0.00001105    0.00001409    0.00001630
     atom   35 type  1   force =     0.00001500    0.00002813    0.00002451
     atom   36 type  1   force =    -0.00000371    0.00001395    0.00002648
     atom   37 type  2   force =    -0.00001795   -0.00000799   -0.00000654
     atom   38 type  3   force =     0.00000178    0.00000012    0.00000197
     atom   39 type  3   force =     0.00000088   -0.00000357    0.00000268

     Total force =     0.005950     Total SCF correction =     0.000108

     Writing all to output data dir ./pwscf.save/

     init_run     :     10.54s CPU     10.85s WALL (       1 calls)
     electrons    :    537.82s CPU    566.38s WALL (       1 calls)
     forces       :      4.29s CPU      5.13s WALL (       1 calls)

     Called by init_run:
     wfcinit      :      5.72s CPU      5.88s WALL (       1 calls)
     potinit      :      3.21s CPU      3.29s WALL (       1 calls)
     hinit0       :      1.03s CPU      1.05s WALL (       1 calls)

     Called by electrons:
     c_bands      :    447.70s CPU    467.66s WALL (      24 calls)
     sum_band     :     54.49s CPU     56.82s WALL (      24 calls)
     v_of_rho     :     12.89s CPU     15.80s WALL (      24 calls)
     newd         :      3.78s CPU      5.61s WALL (      24 calls)
     PAW_pot      :      5.47s CPU      5.61s WALL (      24 calls)
     mix_rho      :     15.39s CPU     16.58s WALL (      24 calls)
     vdW_kernel   :      1.68s CPU      1.70s WALL (       1 calls)

     Called by c_bands:
     init_us_2    :      3.26s CPU      3.31s WALL (     650 calls)
     init_us_2:cp :      3.26s CPU      3.31s WALL (     650 calls)
     cegterg      :    438.39s CPU    457.08s WALL (     312 calls)

     Called by *egterg:
     cdiaghg      :     89.26s CPU     94.71s WALL (    1498 calls)
     h_psi        :    210.33s CPU    219.90s WALL (    1524 calls)
     s_psi        :     22.22s CPU     22.76s WALL (    1524 calls)
     g_psi        :      0.86s CPU      0.88s WALL (    1199 calls)

     Called by h_psi:
     h_psi:calbec :     32.62s CPU     33.66s WALL (    1524 calls)
     vloc_psi     :    153.04s CPU    160.71s WALL (    1524 calls)
     add_vuspsi   :     22.31s CPU     23.11s WALL (    1524 calls)

     General routines
     calbec       :     44.85s CPU     46.23s WALL (    1888 calls)
     fft          :     14.97s CPU     17.45s WALL (    1572 calls)
     ffts         :      7.26s CPU      7.80s WALL (    7012 calls)
     fftw         :    156.16s CPU    162.14s WALL (  406952 calls)
     interpolate  :      0.62s CPU      0.68s WALL (      24 calls)

     Parallel routines

     PWSCF        :   9m14.51s CPU   9m47.16s WALL


   This run was terminated on:   9:17: 4   2Mar2025            

=------------------------------------------------------------------------------=
   JOB DONE.
=------------------------------------------------------------------------------=
