  37  37   0   0
  0.4190497E+02  0.8468310E-09  0.8468310E-09  0.2496566E-08  0.5000000E-15
  1.000000000000000E-004
  CAR 
 unknown system                          
      8.63977700     -9.89374911  301     -0.07656532      1.00000000
     -9.894  0.0000E+00  0.0000E+00
     -9.832  0.0000E+00  0.0000E+00
     -9.770  0.0000E+00  0.0000E+00
     -9.708 -0.4471E-28 -0.2762E-29
     -9.647 -0.6636E-24 -0.4100E-25
     -9.585 -0.4560E-20 -0.2817E-21
     -9.523 -0.1448E-16 -0.8951E-18
     -9.461 -0.2059E-13 -0.1273E-14
     -9.400 -0.1379E-10 -0.8530E-12
     -9.338 -0.4220E-08 -0.2615E-09
     -9.276 -0.5854E-06 -0.3643E-07
     -9.214 -0.3627E-04 -0.2277E-05
     -9.152 -0.9733E-03 -0.6241E-04
     -9.091 -0.1047E-01 -0.7094E-03
     -9.029 -0.3357E-01 -0.2784E-02
     -8.967  0.5335E-01  0.5123E-03
     -8.905  0.3329E+00  0.2108E-01
     -8.844  0.6107E+00  0.5881E-01
     -8.782  0.2063E+01  0.1863E+00
     -8.720  0.3813E+01  0.4218E+00
     -8.658  0.2230E+01  0.5596E+00
     -8.596 -0.3072E-01  0.5577E+00
     -8.535  0.1962E+00  0.5698E+00
     -8.473  0.2575E+01  0.7289E+00
     -8.411  0.3807E+01  0.9641E+00
     -8.349  0.3549E+01  0.1183E+01
     -8.288  0.3743E+01  0.1415E+01
     -8.226  0.1868E+01  0.1530E+01
     -8.164  0.2836E-02  0.1530E+01
     -8.102 -0.3614E+00  0.1508E+01
     -8.040 -0.3026E+00  0.1489E+01
     -7.979  0.2107E+01  0.1619E+01
     -7.917  0.6768E+01  0.2037E+01
     -7.855  0.6022E+01  0.2409E+01
     -7.793  0.1505E+01  0.2502E+01
     -7.732  0.1692E+01  0.2607E+01
     -7.670  0.5128E+01  0.2924E+01
     -7.608  0.6109E+01  0.3301E+01
     -7.546  0.3155E+01  0.3496E+01
     -7.484  0.7753E+00  0.3544E+01
     -7.423  0.2510E+01  0.3699E+01
     -7.361  0.5414E+01  0.4033E+01
     -7.299  0.7424E+01  0.4492E+01
     -7.237  0.9529E+01  0.5081E+01
     -7.175  0.9550E+01  0.5671E+01
     -7.114  0.6133E+01  0.6050E+01
     -7.052  0.4987E+01  0.6358E+01
     -6.990  0.5651E+01  0.6707E+01
     -6.928  0.4220E+01  0.6968E+01
     -6.867  0.3852E+01  0.7206E+01
     -6.805  0.6501E+01  0.7607E+01
     -6.743  0.8684E+01  0.8144E+01
     -6.681  0.7387E+01  0.8600E+01
     -6.619  0.8103E+01  0.9101E+01
     -6.558  0.1392E+02  0.9961E+01
     -6.496  0.1386E+02  0.1082E+02
     -6.434  0.1064E+02  0.1147E+02
     -6.372  0.1107E+02  0.1216E+02
     -6.311  0.9310E+01  0.1273E+02
     -6.249  0.1065E+02  0.1339E+02
     -6.187  0.2048E+02  0.1466E+02
     -6.125  0.3318E+02  0.1671E+02
     -6.063  0.3631E+02  0.1895E+02
     -6.002  0.3056E+02  0.2084E+02
     -5.940  0.2929E+02  0.2265E+02
     -5.878  0.3261E+02  0.2466E+02
     -5.816  0.3590E+02  0.2688E+02
     -5.755  0.2982E+02  0.2872E+02
     -5.693  0.2660E+02  0.3036E+02
     -5.631  0.3377E+02  0.3245E+02
     -5.569  0.4019E+02  0.3493E+02
     -5.507  0.4304E+02  0.3759E+02
     -5.446  0.5240E+02  0.4083E+02
     -5.384  0.6317E+02  0.4473E+02
     -5.322  0.6373E+02  0.4867E+02
     -5.260  0.5578E+02  0.5212E+02
     -5.199  0.4533E+02  0.5492E+02
     -5.137  0.4080E+02  0.5744E+02
     -5.075  0.5119E+02  0.6060E+02
     -5.013  0.7049E+02  0.6495E+02
     -4.951  0.5943E+02  0.6863E+02
     -4.890  0.3042E+02  0.7050E+02
     -4.828  0.2572E+02  0.7209E+02
     -4.766  0.4095E+02  0.7462E+02
     -4.704  0.3768E+02  0.7695E+02
     -4.643  0.2176E+02  0.7830E+02
     -4.581  0.2702E+02  0.7996E+02
     -4.519  0.4581E+02  0.8279E+02
     -4.457  0.5971E+02  0.8648E+02
     -4.395  0.6171E+02  0.9030E+02
     -4.334  0.5249E+02  0.9354E+02
     -4.272  0.4568E+02  0.9636E+02
     -4.210  0.4431E+02  0.9910E+02
     -4.148  0.4739E+02  0.1020E+03
     -4.087  0.5808E+02  0.1056E+03
     -4.025  0.5784E+02  0.1092E+03
     -3.963  0.4590E+02  0.1120E+03
     -3.901  0.4080E+02  0.1145E+03
     -3.839  0.3924E+02  0.1170E+03
     -3.778  0.3658E+02  0.1192E+03
     -3.716  0.4402E+02  0.1219E+03
     -3.654  0.6099E+02  0.1257E+03
     -3.592  0.6371E+02  0.1296E+03
     -3.531  0.5724E+02  0.1332E+03
     -3.469  0.5784E+02  0.1368E+03
     -3.407  0.6940E+02  0.1410E+03
     -3.345  0.7702E+02  0.1458E+03
     -3.283  0.7260E+02  0.1503E+03
     -3.222  0.6723E+02  0.1544E+03
     -3.160  0.7479E+02  0.1591E+03
     -3.098  0.8776E+02  0.1645E+03
     -3.036  0.8184E+02  0.1695E+03
     -2.975  0.7498E+02  0.1742E+03
     -2.913  0.7768E+02  0.1790E+03
     -2.851  0.7663E+02  0.1837E+03
     -2.789  0.8712E+02  0.1891E+03
     -2.727  0.1039E+03  0.1955E+03
     -2.666  0.1027E+03  0.2019E+03
     -2.604  0.7861E+02  0.2067E+03
     -2.542  0.6118E+02  0.2105E+03
     -2.480  0.6381E+02  0.2144E+03
     -2.419  0.5816E+02  0.2180E+03
     -2.357  0.4158E+02  0.2206E+03
     -2.295  0.2853E+02  0.2224E+03
     -2.233  0.2526E+02  0.2239E+03
     -2.171  0.3270E+02  0.2259E+03
     -2.110  0.4764E+02  0.2289E+03
     -2.048  0.6979E+02  0.2332E+03
     -1.986  0.9008E+02  0.2388E+03
     -1.924  0.9009E+02  0.2443E+03
     -1.863  0.7577E+02  0.2490E+03
     -1.801  0.5657E+02  0.2525E+03
     -1.739  0.4352E+02  0.2552E+03
     -1.677  0.4361E+02  0.2579E+03
     -1.615  0.4947E+02  0.2609E+03
     -1.554  0.5764E+02  0.2645E+03
     -1.492  0.5792E+02  0.2681E+03
     -1.430  0.5538E+02  0.2715E+03
     -1.368  0.5998E+02  0.2752E+03
     -1.307  0.5784E+02  0.2788E+03
     -1.245  0.5102E+02  0.2819E+03
     -1.183  0.5922E+02  0.2856E+03
     -1.121  0.7683E+02  0.2903E+03
     -1.059  0.8568E+02  0.2956E+03
     -0.998  0.8325E+02  0.3008E+03
     -0.936  0.6630E+02  0.3049E+03
     -0.874  0.5684E+02  0.3084E+03
     -0.812  0.5758E+02  0.3119E+03
     -0.751  0.4870E+02  0.3149E+03
     -0.689  0.4248E+02  0.3176E+03
     -0.627  0.5491E+02  0.3210E+03
     -0.565  0.6297E+02  0.3248E+03
     -0.503  0.5910E+02  0.3285E+03
     -0.442  0.6137E+02  0.3323E+03
     -0.380  0.7364E+02  0.3368E+03
     -0.318  0.9117E+02  0.3425E+03
     -0.256  0.9092E+02  0.3481E+03
     -0.195  0.6507E+02  0.3521E+03
     -0.133  0.6082E+02  0.3559E+03
     -0.071  0.9226E+02  0.3616E+03
     -0.009  0.8893E+02  0.3671E+03
      0.053  0.4600E+02  0.3699E+03
      0.114  0.3502E+02  0.3721E+03
      0.176  0.5558E+02  0.3755E+03
      0.238  0.5363E+02  0.3788E+03
      0.300  0.4192E+02  0.3814E+03
      0.361  0.3587E+02  0.3836E+03
      0.423  0.2321E+02  0.3851E+03
      0.485  0.1074E+02  0.3857E+03
      0.547  0.4096E+01  0.3860E+03
      0.609  0.2844E+01  0.3861E+03
      0.670  0.5870E+01  0.3865E+03
      0.732  0.1292E+02  0.3873E+03
      0.794  0.1554E+02  0.3883E+03
      0.856  0.9777E+01  0.3889E+03
      0.917  0.7748E+01  0.3893E+03
      0.979  0.1137E+02  0.3901E+03
      1.041  0.8212E+01  0.3906E+03
      1.103  0.2513E+01  0.3907E+03
      1.165  0.5524E+01  0.3911E+03
      1.226  0.1222E+02  0.3918E+03
      1.288  0.1305E+02  0.3926E+03
      1.350  0.1129E+02  0.3933E+03
      1.412  0.1021E+02  0.3939E+03
      1.473  0.1701E+02  0.3950E+03
      1.535  0.2752E+02  0.3967E+03
      1.597  0.2415E+02  0.3982E+03
      1.659  0.1758E+02  0.3993E+03
      1.721  0.1528E+02  0.4002E+03
      1.782  0.7952E+01  0.4007E+03
      1.844  0.1077E+01  0.4008E+03
      1.906  0.2581E+01  0.4009E+03
      1.968  0.6569E+01  0.4013E+03
      2.029  0.7210E+01  0.4018E+03
      2.091  0.4557E+01  0.4021E+03
      2.153  0.4608E+01  0.4024E+03
      2.215  0.9883E+01  0.4030E+03
      2.277  0.1136E+02  0.4037E+03
      2.338  0.1108E+02  0.4043E+03
      2.400  0.1631E+02  0.4054E+03
      2.462  0.2247E+02  0.4067E+03
      2.524  0.1862E+02  0.4079E+03
      2.585  0.9031E+01  0.4085E+03
      2.647  0.6275E+01  0.4088E+03
      2.709  0.7870E+01  0.4093E+03
      2.771  0.1432E+02  0.4102E+03
      2.833  0.1973E+02  0.4114E+03
      2.894  0.1619E+02  0.4124E+03
      2.956  0.1031E+02  0.4131E+03
      3.018  0.7893E+01  0.4136E+03
      3.080  0.1271E+02  0.4143E+03
      3.141  0.1458E+02  0.4152E+03
      3.203  0.1103E+02  0.4159E+03
      3.265  0.9435E+01  0.4165E+03
      3.327  0.6630E+01  0.4169E+03
      3.389  0.1975E+01  0.4170E+03
      3.450  0.2122E+01  0.4172E+03
      3.512  0.7627E+01  0.4176E+03
      3.574  0.1378E+02  0.4185E+03
      3.636  0.2006E+02  0.4197E+03
      3.698  0.2376E+02  0.4212E+03
      3.759  0.1899E+02  0.4224E+03
      3.821  0.9489E+01  0.4230E+03
      3.883  0.4100E+01  0.4232E+03
      3.945  0.3448E+01  0.4234E+03
      4.006  0.4619E+01  0.4237E+03
      4.068  0.6706E+01  0.4241E+03
      4.130  0.8123E+01  0.4246E+03
      4.192  0.7218E+01  0.4251E+03
      4.254  0.5078E+01  0.4254E+03
      4.315  0.5870E+01  0.4257E+03
      4.377  0.1718E+02  0.4268E+03
      4.439  0.2620E+02  0.4284E+03
      4.501  0.1682E+02  0.4295E+03
      4.562  0.7108E+01  0.4299E+03
      4.624  0.8593E+01  0.4304E+03
      4.686  0.1321E+02  0.4312E+03
      4.748  0.1484E+02  0.4322E+03
      4.810  0.1098E+02  0.4328E+03
      4.871  0.6590E+01  0.4333E+03
      4.933  0.6124E+01  0.4336E+03
      4.995  0.9534E+01  0.4342E+03
      5.057  0.9556E+01  0.4348E+03
      5.118  0.6723E+01  0.4352E+03
      5.180  0.8382E+01  0.4357E+03
      5.242  0.1262E+02  0.4365E+03
      5.304  0.1374E+02  0.4374E+03
      5.366  0.9300E+01  0.4379E+03
      5.427  0.8429E+01  0.4385E+03
      5.489  0.1624E+02  0.4395E+03
      5.551  0.2304E+02  0.4409E+03
      5.613  0.2571E+02  0.4425E+03
      5.674  0.2589E+02  0.4441E+03
      5.736  0.2453E+02  0.4456E+03
      5.798  0.2096E+02  0.4469E+03
      5.860  0.1693E+02  0.4479E+03
      5.922  0.1713E+02  0.4490E+03
      5.983  0.2432E+02  0.4505E+03
      6.045  0.3081E+02  0.4524E+03
      6.107  0.2406E+02  0.4539E+03
      6.169  0.1524E+02  0.4548E+03
      6.230  0.1705E+02  0.4559E+03
      6.292  0.2423E+02  0.4574E+03
      6.354  0.3075E+02  0.4593E+03
      6.416  0.2626E+02  0.4609E+03
      6.478  0.1472E+02  0.4618E+03
      6.539  0.1618E+02  0.4628E+03
      6.601  0.2584E+02  0.4644E+03
      6.663  0.2667E+02  0.4661E+03
      6.725  0.2396E+02  0.4675E+03
      6.786  0.2279E+02  0.4689E+03
      6.848  0.2114E+02  0.4702E+03
      6.910  0.1883E+02  0.4714E+03
      6.972  0.1220E+02  0.4722E+03
      7.034  0.1010E+02  0.4728E+03
      7.095  0.1957E+02  0.4740E+03
      7.157  0.2494E+02  0.4755E+03
      7.219  0.2110E+02  0.4768E+03
      7.281  0.1555E+02  0.4778E+03
      7.342  0.8608E+01  0.4783E+03
      7.404  0.3380E+01  0.4785E+03
      7.466  0.3921E+01  0.4788E+03
      7.528  0.5928E+01  0.4792E+03
      7.590  0.6445E+01  0.4796E+03
      7.651  0.5510E+01  0.4799E+03
      7.713  0.2087E+01  0.4800E+03
      7.775 -0.8815E-01  0.4800E+03
      7.837 -0.1955E+00  0.4800E+03
      7.898 -0.3524E-01  0.4800E+03
      7.960 -0.2396E-02  0.4800E+03
      8.022 -0.7126E-04  0.4800E+03
      8.084 -0.9701E-06  0.4800E+03
      8.146 -0.6146E-08  0.4800E+03
      8.207 -0.1822E-10  0.4800E+03
      8.269 -0.2530E-13  0.4800E+03
      8.331  0.0000E+00  0.4800E+03
      8.393  0.0000E+00  0.4800E+03
      8.454  0.0000E+00  0.4800E+03
      8.516  0.0000E+00  0.4800E+03
      8.578  0.0000E+00  0.4800E+03
      8.640  0.0000E+00  0.4800E+03
