   37   37    1    1
  0.4190497E+02  0.8468310E-09  0.8468310E-09  0.2496566E-08  0.5000000E-15
  1.000000000000000E-004
  CAR 
 unknown system                          
    361     13    240
 
  0.1276756E-14  0.1276756E-14  0.1276756E-14  0.4000000E-01
      1         -8.893749   1.000000
      2         -7.745124   1.000000
      3         -6.989801   1.000000
      4         -6.500437   1.000000
      5         -6.474308   1.000000
      6         -6.461345   1.000000
      7         -6.451594   1.000000
      8         -6.440106   1.000000
      9         -6.427729   1.000000
     10         -6.419198   1.000000
     11         -6.147776   1.000000
     12         -5.918139   1.000000
     13         -5.914089   1.000000
     14         -5.902652   1.000000
     15         -5.894664   1.000000
     16         -5.889796   1.000000
     17         -5.827670   1.000000
     18         -5.462479   1.000000
     19         -5.458589   1.000000
     20         -5.453731   1.000000
     21         -5.448364   1.000000
     22         -5.443075   1.000000
     23         -5.331554   1.000000
     24         -5.231140   1.000000
     25         -5.225297   1.000000
     26         -5.222978   1.000000
     27         -5.219697   1.000000
     28         -5.211561   1.000000
     29         -5.123758   1.000000
     30         -5.031120   1.000000
     31         -5.023408   1.000000
     32         -5.022361   1.000000
     33         -5.017336   1.000000
     34         -5.013161   1.000000
     35         -4.966872   1.000000
     36         -4.957106   1.000000
     37         -4.949035   1.000000
     38         -4.941412   1.000000
     39         -4.913968   1.000000
     40         -4.907255   1.000000
     41         -4.562267   1.000000
     42         -4.381507   1.000000
     43         -4.378887   1.000000
     44         -4.353624   1.000000
     45         -4.338811   1.000000
     46         -4.325460   1.000000
     47         -4.309523   1.000000
     48         -4.302672   1.000000
     49         -4.285806   1.000000
     50         -4.283667   1.000000
     51         -4.179924   1.000000
     52         -4.134935   1.000000
     53         -4.132542   1.000000
     54         -4.041975   1.000000
     55         -4.027868   1.000000
     56         -3.590567   1.000000
     57         -3.580406   1.000000
     58         -3.567728   1.000000
     59         -3.561872   1.000000
     60         -3.550797   1.000000
     61         -3.495696   1.000000
     62         -3.485576   1.000000
     63         -3.387373   1.000000
     64         -3.382316   1.000000
     65         -3.374617   1.000000
     66         -3.372465   1.000000
     67         -3.366511   1.000000
     68         -3.363353   1.000000
     69         -3.349352   1.000000
     70         -3.322479   1.000000
     71         -3.304680   1.000000
     72         -3.297720   1.000000
     73         -3.293536   1.000000
     74         -3.289196   1.000000
     75         -3.269475   1.000000
     76         -3.262141   1.000000
     77         -3.252352   1.000000
     78         -3.163781   1.000000
     79         -3.150711   1.000000
     80         -3.144749   1.000000
     81         -3.140531   1.000000
     82         -3.126439   1.000000
     83         -3.107003   1.000000
     84         -2.942997   1.000000
     85         -2.936980   1.000000
     86         -2.929113   1.000000
     87         -2.915807   1.000000
     88         -2.910804   1.000000
     89         -2.893219   1.000000
     90         -2.888189   1.000000
     91         -2.873417   1.000000
     92         -2.841095   1.000000
     93         -2.821062   1.000000
     94         -2.808664   1.000000
     95         -2.780006   1.000000
     96         -2.742110   1.000000
     97         -2.739632   1.000000
     98         -2.693821   1.000000
     99         -2.692477   1.000000
    100         -2.680782   1.000000
    101         -2.611857   1.000000
    102         -2.533202   1.000000
    103         -2.528868   1.000000
    104         -2.516751   1.000000
    105         -2.508842   1.000000
    106         -2.494880   1.000000
    107         -2.488855   1.000000
    108         -2.264868   1.000000
    109         -2.032027   1.000000
    110         -2.006093   1.000000
    111         -2.000836   1.000000
    112         -1.998970   1.000000
    113         -1.992260   1.000000
    114         -1.982762   1.000000
    115         -1.973692   1.000000
    116         -1.968138   1.000000
    117         -1.961923   1.000000
    118         -1.947339   1.000000
    119         -1.937394   1.000000
    120         -1.878644   1.000000
    121         -1.864745   1.000000
    122         -1.817124   1.000000
    123         -1.738071   1.000000
    124         -1.728938   1.000000
    125         -1.717668   1.000000
    126         -1.712103   1.000000
    127         -1.700826   1.000000
    128         -1.618301   1.000000
    129         -1.587853   1.000000
    130         -1.538099   1.000000
    131         -1.537041   1.000000
    132         -1.522611   1.000000
    133         -1.493072   1.000000
    134         -1.304080   1.000000
    135         -1.284160   1.000000
    136         -1.269981   1.000000
    137         -1.260189   1.000000
    138         -1.253758   1.000000
    139         -1.247065   1.000000
    140         -1.195209   1.000000
    141         -1.176699   1.000000
    142         -1.073187   1.000000
    143         -1.046763   1.000000
    144         -1.038092   1.000000
    145         -1.028426   1.000000
    146         -1.024919   1.000000
    147         -1.014421   1.000000
    148         -0.897422   1.000000
    149         -0.870417   1.000000
    150         -0.859692   1.000000
    151         -0.848966   1.000000
    152         -0.834735   1.000000
    153         -0.832792   1.000000
    154         -0.826126   1.000000
    155         -0.820160   1.000000
    156         -0.807658   1.000000
    157         -0.804844   1.000000
    158         -0.801116   1.000000
    159         -0.796045   1.000000
    160         -0.733593   1.000000
    161         -0.707368   1.000000
    162         -0.698262   1.000000
    163         -0.695288   1.000000
    164         -0.674787   1.000000
    165         -0.662411   1.000000
    166         -0.641481   1.000000
    167         -0.639973   1.000000
    168         -0.600903   1.000000
    169         -0.592887   1.000000
    170         -0.578281   1.000000
    171         -0.568052   1.000000
    172         -0.557758   1.000000
    173         -0.545442   1.000000
    174         -0.541078   1.000000
    175         -0.536859   1.000000
    176         -0.463053   1.000000
    177         -0.457097   1.000001
    178         -0.449485   1.000001
    179         -0.437898   1.000002
    180         -0.429051   1.000004
    181         -0.426635   1.000004
    182         -0.394943   1.000032
    183         -0.351395   1.000356
    184         -0.338446   1.000670
    185         -0.325220   1.001229
    186         -0.323235   1.001342
    187         -0.310813   1.002273
    188         -0.307170   1.002635
    189         -0.123714   0.854036
    190         -0.104213   0.724354
    191         -0.022120   0.106468
    192         -0.018621   0.089424
    193         -0.005277   0.035708
    194          0.002953   0.011194
    195          0.006144   0.003342
    196          0.012427  -0.009613
    197          0.503929  -0.000000
    198          0.819104  -0.000000
    199          0.828204  -0.000000
    200          0.876621  -0.000000
    201          0.889633  -0.000000
    202          0.901501  -0.000000
    203          0.908000  -0.000000
    204          2.764140   0.000000
    205          3.112233   0.000000
    206          3.166421   0.000000
    207          3.191033   0.000000
    208          3.218070   0.000000
    209          3.220308   0.000000
    210          4.534177   0.000000
    211          4.724454   0.000000
    212          4.779340   0.000000
    213          4.811176   0.000000
    214          4.825260   0.000000
    215          4.830531   0.000000
    216          4.916143   0.000000
    217          5.087144   0.000000
    218          5.153232   0.000000
    219          5.437332   0.000000
    220          5.532773   0.000000
    221          5.771709   0.000000
    222          5.823667   0.000000
    223          5.850937   0.000000
    224          5.861214   0.000000
    225          5.863625   0.000000
    226          6.053542   0.000000
    227          6.367474   0.000000
    228          6.607630   0.000000
    229          6.622563   0.000000
    230          6.629583   0.000000
    231          6.812871   0.000000
    232          6.982027   0.000000
    233          7.122038   0.000000
    234          7.150637   0.000000
    235          7.162875   0.000000
    236          7.174775   0.000000
    237          7.179313   0.000000
    238          7.215864   0.000000
    239          7.263104   0.000000
    240          7.639777   0.000000
 
  0.2000000E+00  0.1278043E-14  0.1276756E-14  0.8000000E-01
      1         -8.745438   1.000000
      2         -7.611527   1.000000
      3         -6.989244   1.000000
      4         -6.883246   1.000000
      5         -6.553781   1.000000
      6         -6.543133   1.000000
      7         -6.359093   1.000000
      8         -6.266746   1.000000
      9         -6.217635   1.000000
     10         -6.208236   1.000000
     11         -6.108618   1.000000
     12         -6.006718   1.000000
     13         -5.981466   1.000000
     14         -5.845908   1.000000
     15         -5.830423   1.000000
     16         -5.823225   1.000000
     17         -5.732819   1.000000
     18         -5.532458   1.000000
     19         -5.424411   1.000000
     20         -5.414158   1.000000
     21         -5.406289   1.000000
     22         -5.391261   1.000000
     23         -5.329125   1.000000
     24         -5.298872   1.000000
     25         -5.273208   1.000000
     26         -5.223493   1.000000
     27         -5.216274   1.000000
     28         -5.208207   1.000000
     29         -5.161975   1.000000
     30         -5.110430   1.000000
     31         -5.103900   1.000000
     32         -5.040236   1.000000
     33         -5.017058   1.000000
     34         -5.008465   1.000000
     35         -5.005444   1.000000
     36         -4.872676   1.000000
     37         -4.807787   1.000000
     38         -4.778190   1.000000
     39         -4.765455   1.000000
     40         -4.739899   1.000000
     41         -4.586538   1.000000
     42         -4.495750   1.000000
     43         -4.490636   1.000000
     44         -4.455205   1.000000
     45         -4.414186   1.000000
     46         -4.394641   1.000000
     47         -4.388374   1.000000
     48         -4.308324   1.000000
     49         -4.207298   1.000000
     50         -4.175782   1.000000
     51         -4.121579   1.000000
     52         -4.107497   1.000000
     53         -4.075352   1.000000
     54         -4.054759   1.000000
     55         -4.036777   1.000000
     56         -3.824441   1.000000
     57         -3.737959   1.000000
     58         -3.731514   1.000000
     59         -3.674713   1.000000
     60         -3.654136   1.000000
     61         -3.617767   1.000000
     62         -3.577658   1.000000
     63         -3.569901   1.000000
     64         -3.559416   1.000000
     65         -3.534996   1.000000
     66         -3.526725   1.000000
     67         -3.477810   1.000000
     68         -3.448250   1.000000
     69         -3.405849   1.000000
     70         -3.367177   1.000000
     71         -3.362788   1.000000
     72         -3.333398   1.000000
     73         -3.281381   1.000000
     74         -3.270656   1.000000
     75         -3.261732   1.000000
     76         -3.179863   1.000000
     77         -3.169573   1.000000
     78         -3.154681   1.000000
     79         -3.132364   1.000000
     80         -3.098164   1.000000
     81         -3.072107   1.000000
     82         -3.059739   1.000000
     83         -3.037140   1.000000
     84         -2.996933   1.000000
     85         -2.964754   1.000000
     86         -2.956839   1.000000
     87         -2.943472   1.000000
     88         -2.928210   1.000000
     89         -2.906677   1.000000
     90         -2.894887   1.000000
     91         -2.867751   1.000000
     92         -2.820051   1.000000
     93         -2.800789   1.000000
     94         -2.789999   1.000000
     95         -2.769281   1.000000
     96         -2.756831   1.000000
     97         -2.736543   1.000000
     98         -2.722547   1.000000
     99         -2.696798   1.000000
    100         -2.687389   1.000000
    101         -2.610368   1.000000
    102         -2.570483   1.000000
    103         -2.539196   1.000000
    104         -2.528493   1.000000
    105         -2.510554   1.000000
    106         -2.502490   1.000000
    107         -2.499665   1.000000
    108         -2.480372   1.000000
    109         -2.444577   1.000000
    110         -2.432881   1.000000
    111         -2.426147   1.000000
    112         -2.411200   1.000000
    113         -2.196023   1.000000
    114         -2.069987   1.000000
    115         -2.038643   1.000000
    116         -2.020347   1.000000
    117         -2.000876   1.000000
    118         -1.993506   1.000000
    119         -1.986544   1.000000
    120         -1.959889   1.000000
    121         -1.941531   1.000000
    122         -1.857015   1.000000
    123         -1.799462   1.000000
    124         -1.783957   1.000000
    125         -1.720104   1.000000
    126         -1.662323   1.000000
    127         -1.651876   1.000000
    128         -1.604086   1.000000
    129         -1.596949   1.000000
    130         -1.575518   1.000000
    131         -1.548580   1.000000
    132         -1.536757   1.000000
    133         -1.520571   1.000000
    134         -1.446224   1.000000
    135         -1.416623   1.000000
    136         -1.398267   1.000000
    137         -1.384981   1.000000
    138         -1.374426   1.000000
    139         -1.290837   1.000000
    140         -1.199433   1.000000
    141         -1.179375   1.000000
    142         -1.162380   1.000000
    143         -1.153613   1.000000
    144         -1.136045   1.000000
    145         -1.118801   1.000000
    146         -1.066232   1.000000
    147         -1.034065   1.000000
    148         -1.002768   1.000000
    149         -0.990590   1.000000
    150         -0.983554   1.000000
    151         -0.944541   1.000000
    152         -0.918681   1.000000
    153         -0.906339   1.000000
    154         -0.890447   1.000000
    155         -0.829121   1.000000
    156         -0.791645   1.000000
    157         -0.778422   1.000000
    158         -0.758589   1.000000
    159         -0.733169   1.000000
    160         -0.660814   1.000000
    161         -0.642550   1.000000
    162         -0.633722   1.000000
    163         -0.602747   1.000000
    164         -0.592428   1.000000
    165         -0.569924   1.000000
    166         -0.547682   1.000000
    167         -0.488560   1.000000
    168         -0.470213   1.000000
    169         -0.415244   1.000009
    170         -0.407670   1.000015
    171         -0.401693   1.000021
    172         -0.384714   1.000059
    173         -0.361141   1.000216
    174         -0.353530   1.000319
    175         -0.347493   1.000432
    176         -0.342149   1.000561
    177         -0.327986   1.001086
    178         -0.278435   1.007522
    179         -0.273490   1.008819
    180         -0.137566   0.924454
    181         -0.124726   0.859828
    182         -0.100861   0.699031
    183         -0.089280   0.606640
    184         -0.072462   0.465306
    185         -0.068440   0.431486
    186         -0.031383   0.157501
    187         -0.023704   0.114596
    188         -0.001857   0.024757
    189          0.010357  -0.005700
    190          0.059389  -0.033143
    191          0.107501  -0.012918
    192          0.131177  -0.006176
    193          0.184279  -0.000704
    194          0.290995  -0.000001
    195          0.302625  -0.000001
    196          0.315376  -0.000000
    197          0.345648  -0.000000
    198          0.684524  -0.000000
    199          0.757675  -0.000000
    200          1.229868  -0.000000
    201          1.465126  -0.000000
    202          1.482225  -0.000000
    203          1.597080  -0.000000
    204          2.373854  -0.000000
    205          2.777879   0.000000
    206          2.909994   0.000000
    207          3.528719   0.000000
    208          3.646078   0.000000
    209          3.656717   0.000000
    210          3.741285   0.000000
    211          3.980529   0.000000
    212          4.395184   0.000000
    213          4.604464   0.000000
    214          4.729970   0.000000
    215          4.940365   0.000000
    216          4.999161   0.000000
    217          5.013398   0.000000
    218          5.195365   0.000000
    219          5.259750   0.000000
    220          5.473174   0.000000
    221          5.655927   0.000000
    222          5.693929   0.000000
    223          5.773689   0.000000
    224          5.916377   0.000000
    225          6.114092   0.000000
    226          6.168889   0.000000
    227          6.227709   0.000000
    228          6.333968   0.000000
    229          6.354854   0.000000
    230          6.600889   0.000000
    231          6.703253   0.000000
    232          6.750871   0.000000
    233          6.794745   0.000000
    234          6.875615   0.000000
    235          6.909403   0.000000
    236          7.056756   0.000000
    237          7.264606   0.000000
    238          7.454990   0.000000
    239          7.513006   0.000000
    240          7.602533   0.000000
 
  0.2000000E+00  0.2000000E+00  0.1276756E-14  0.8000000E-01
      1         -8.745397   1.000000
      2         -7.612426   1.000000
      3         -6.987937   1.000000
      4         -6.879880   1.000000
      5         -6.559823   1.000000
      6         -6.543232   1.000000
      7         -6.359008   1.000000
      8         -6.259087   1.000000
      9         -6.219289   1.000000
     10         -6.215039   1.000000
     11         -6.113893   1.000000
     12         -6.003811   1.000000
     13         -5.971066   1.000000
     14         -5.846997   1.000000
     15         -5.829172   1.000000
     16         -5.820688   1.000000
     17         -5.736818   1.000000
     18         -5.535447   1.000000
     19         -5.424894   1.000000
     20         -5.411781   1.000000
     21         -5.403443   1.000000
     22         -5.386534   1.000000
     23         -5.333244   1.000000
     24         -5.297438   1.000000
     25         -5.275038   1.000000
     26         -5.225933   1.000000
     27         -5.213108   1.000000
     28         -5.204271   1.000000
     29         -5.165564   1.000000
     30         -5.113837   1.000000
     31         -5.106817   1.000000
     32         -5.032576   1.000000
     33         -5.016581   1.000000
     34         -5.010567   1.000000
     35         -5.004767   1.000000
     36         -4.870590   1.000000
     37         -4.809382   1.000000
     38         -4.779010   1.000000
     39         -4.766463   1.000000
     40         -4.746495   1.000000
     41         -4.585445   1.000000
     42         -4.496787   1.000000
     43         -4.492498   1.000000
     44         -4.453657   1.000000
     45         -4.418857   1.000000
     46         -4.391898   1.000000
     47         -4.385494   1.000000
     48         -4.311790   1.000000
     49         -4.207215   1.000000
     50         -4.169448   1.000000
     51         -4.123305   1.000000
     52         -4.105766   1.000000
     53         -4.078127   1.000000
     54         -4.051970   1.000000
     55         -4.040460   1.000000
     56         -3.832968   1.000000
     57         -3.737759   1.000000
     58         -3.730557   1.000000
     59         -3.684628   1.000000
     60         -3.661308   1.000000
     61         -3.622457   1.000000
     62         -3.587815   1.000000
     63         -3.562171   1.000000
     64         -3.549312   1.000000
     65         -3.531837   1.000000
     66         -3.521614   1.000000
     67         -3.473703   1.000000
     68         -3.448961   1.000000
     69         -3.408468   1.000000
     70         -3.374154   1.000000
     71         -3.365831   1.000000
     72         -3.343715   1.000000
     73         -3.267614   1.000000
     74         -3.259799   1.000000
     75         -3.241294   1.000000
     76         -3.180885   1.000000
     77         -3.173543   1.000000
     78         -3.158483   1.000000
     79         -3.132439   1.000000
     80         -3.103479   1.000000
     81         -3.082185   1.000000
     82         -3.076275   1.000000
     83         -3.024790   1.000000
     84         -3.000268   1.000000
     85         -2.960617   1.000000
     86         -2.954628   1.000000
     87         -2.942811   1.000000
     88         -2.929054   1.000000
     89         -2.908882   1.000000
     90         -2.895202   1.000000
     91         -2.868393   1.000000
     92         -2.817003   1.000000
     93         -2.807726   1.000000
     94         -2.781141   1.000000
     95         -2.770892   1.000000
     96         -2.755498   1.000000
     97         -2.735466   1.000000
     98         -2.719307   1.000000
     99         -2.700784   1.000000
    100         -2.680232   1.000000
    101         -2.612897   1.000000
    102         -2.569964   1.000000
    103         -2.543311   1.000000
    104         -2.525212   1.000000
    105         -2.508179   1.000000
    106         -2.497422   1.000000
    107         -2.492164   1.000000
    108         -2.480228   1.000000
    109         -2.448767   1.000000
    110         -2.434433   1.000000
    111         -2.426854   1.000000
    112         -2.411142   1.000000
    113         -2.196723   1.000000
    114         -2.079471   1.000000
    115         -2.046570   1.000000
    116         -2.010821   1.000000
    117         -2.001264   1.000000
    118         -1.992433   1.000000
    119         -1.982389   1.000000
    120         -1.949179   1.000000
    121         -1.943813   1.000000
    122         -1.861790   1.000000
    123         -1.800847   1.000000
    124         -1.780971   1.000000
    125         -1.711774   1.000000
    126         -1.658069   1.000000
    127         -1.652319   1.000000
    128         -1.609459   1.000000
    129         -1.597405   1.000000
    130         -1.568826   1.000000
    131         -1.548448   1.000000
    132         -1.532736   1.000000
    133         -1.522520   1.000000
    134         -1.449723   1.000000
    135         -1.408377   1.000000
    136         -1.399922   1.000000
    137         -1.389167   1.000000
    138         -1.376939   1.000000
    139         -1.295191   1.000000
    140         -1.199142   1.000000
    141         -1.181061   1.000000
    142         -1.159450   1.000000
    143         -1.155063   1.000000
    144         -1.139223   1.000000
    145         -1.118548   1.000000
    146         -1.068542   1.000000
    147         -1.032806   1.000000
    148         -1.002702   1.000000
    149         -0.992463   1.000000
    150         -0.983133   1.000000
    151         -0.937632   1.000000
    152         -0.925505   1.000000
    153         -0.902432   1.000000
    154         -0.894650   1.000000
    155         -0.819413   1.000000
    156         -0.797363   1.000000
    157         -0.780927   1.000000
    158         -0.761459   1.000000
    159         -0.724930   1.000000
    160         -0.662438   1.000000
    161         -0.640826   1.000000
    162         -0.631099   1.000000
    163         -0.603181   1.000000
    164         -0.592131   1.000000
    165         -0.568367   1.000000
    166         -0.546954   1.000000
    167         -0.485566   1.000000
    168         -0.472501   1.000000
    169         -0.421170   1.000006
    170         -0.406411   1.000016
    171         -0.396946   1.000029
    172         -0.387702   1.000049
    173         -0.358918   1.000242
    174         -0.356479   1.000275
    175         -0.346975   1.000443
    176         -0.339138   1.000648
    177         -0.330943   1.000950
    178         -0.272770   1.009020
    179         -0.269719   1.009911
    180         -0.138842   0.929968
    181         -0.120745   0.836480
    182         -0.105073   0.730725
    183         -0.090993   0.620700
    184         -0.075958   0.494863
    185         -0.071562   0.457719
    186         -0.038008   0.199035
    187         -0.027382   0.134420
    188         -0.008026   0.045329
    189          0.003957   0.008627
    190          0.068195  -0.029911
    191          0.107462  -0.012932
    192          0.130004  -0.006429
    193          0.188053  -0.000588
    194          0.289879  -0.000001
    195          0.298410  -0.000001
    196          0.315317  -0.000000
    197          0.351576  -0.000000
    198          0.685187  -0.000000
    199          0.746223  -0.000000
    200          1.231838  -0.000000
    201          1.464713  -0.000000
    202          1.486958  -0.000000
    203          1.598708  -0.000000
    204          2.381206  -0.000000
    205          2.776777   0.000000
    206          2.897683   0.000000
    207          3.533271   0.000000
    208          3.646569   0.000000
    209          3.656993   0.000000
    210          3.735792   0.000000
    211          3.981875   0.000000
    212          4.398827   0.000000
    213          4.605147   0.000000
    214          4.742124   0.000000
    215          4.941070   0.000000
    216          4.995001   0.000000
    217          5.013723   0.000000
    218          5.198310   0.000000
    219          5.259624   0.000000
    220          5.459544   0.000000
    221          5.660743   0.000000
    222          5.701029   0.000000
    223          5.787451   0.000000
    224          5.903182   0.000000
    225          6.116967   0.000000
    226          6.168723   0.000000
    227          6.210040   0.000000
    228          6.327382   0.000000
    229          6.345386   0.000000
    230          6.562095   0.000000
    231          6.707207   0.000000
    232          6.755851   0.000000
    233          6.797857   0.000000
    234          6.888539   0.000000
    235          6.908844   0.000000
    236          7.062697   0.000000
    237          7.279729   0.000000
    238          7.462121   0.000000
    239          7.514908   0.000000
    240          7.605859   0.000000
 
  0.1276756E-14  0.2000000E+00  0.1276756E-14  0.8000000E-01
      1         -8.746256   1.000000
      2         -7.621348   1.000000
      3         -7.030716   1.000000
      4         -6.835905   1.000000
      5         -6.561187   1.000000
      6         -6.552881   1.000000
      7         -6.359404   1.000000
      8         -6.262521   1.000000
      9         -6.216713   1.000000
     10         -6.208609   1.000000
     11         -6.154316   1.000000
     12         -6.000468   1.000000
     13         -5.895974   1.000000
     14         -5.846742   1.000000
     15         -5.826099   1.000000
     16         -5.820789   1.000000
     17         -5.791140   1.000000
     18         -5.531773   1.000000
     19         -5.416987   1.000000
     20         -5.409895   1.000000
     21         -5.404691   1.000000
     22         -5.350170   1.000000
     23         -5.330123   1.000000
     24         -5.291880   1.000000
     25         -5.273932   1.000000
     26         -5.266409   1.000000
     27         -5.220204   1.000000
     28         -5.207361   1.000000
     29         -5.121057   1.000000
     30         -5.107129   1.000000
     31         -5.097538   1.000000
     32         -5.024811   1.000000
     33         -5.014350   1.000000
     34         -5.007653   1.000000
     35         -5.003742   1.000000
     36         -4.841078   1.000000
     37         -4.806766   1.000000
     38         -4.778968   1.000000
     39         -4.775379   1.000000
     40         -4.758556   1.000000
     41         -4.565240   1.000000
     42         -4.497626   1.000000
     43         -4.491340   1.000000
     44         -4.459947   1.000000
     45         -4.411410   1.000000
     46         -4.407953   1.000000
     47         -4.386235   1.000000
     48         -4.330697   1.000000
     49         -4.212544   1.000000
     50         -4.180092   1.000000
     51         -4.125676   1.000000
     52         -4.111188   1.000000
     53         -4.065505   1.000000
     54         -4.043280   1.000000
     55         -4.033014   1.000000
     56         -3.832535   1.000000
     57         -3.732892   1.000000
     58         -3.729315   1.000000
     59         -3.682849   1.000000
     60         -3.662628   1.000000
     61         -3.624888   1.000000
     62         -3.584833   1.000000
     63         -3.570027   1.000000
     64         -3.547444   1.000000
     65         -3.529184   1.000000
     66         -3.522249   1.000000
     67         -3.499151   1.000000
     68         -3.443349   1.000000
     69         -3.398646   1.000000
     70         -3.378934   1.000000
     71         -3.367838   1.000000
     72         -3.350364   1.000000
     73         -3.269878   1.000000
     74         -3.263671   1.000000
     75         -3.244144   1.000000
     76         -3.185194   1.000000
     77         -3.167499   1.000000
     78         -3.158664   1.000000