       N       E                     dE             d eps       ncg     rms          rms(c)
DAV:   1    -0.104698608517E+03   -0.10470E+03   -0.18336E+00  6864   0.231E+00    0.404E+00
RMM:   2    -0.114985801801E+03   -0.10287E+02   -0.20323E+00  6778   0.212E+00    0.324E+01
RMM:   3    -0.104782562242E+03    0.10203E+02   -0.12759E+00  6853   0.195E+00    0.493E+00
RMM:   4    -0.104547715680E+03    0.23485E+00   -0.17246E-01  6712   0.683E-01    0.156E+00
RMM:   5    -0.104538291212E+03    0.94245E-02   -0.36609E-02  6893   0.312E-01    0.123E+00
RMM:   6    -0.104530342506E+03    0.79487E-02   -0.76484E-03  6942   0.156E-01    0.591E-01
RMM:   7    -0.104530519087E+03   -0.17658E-03   -0.29317E-03  7045   0.859E-02    0.578E-01
RMM:   8    -0.104528905407E+03    0.16137E-02   -0.20796E-03  7048   0.782E-02    0.208E-01
RMM:   9    -0.104528725085E+03    0.18032E-03   -0.75044E-04  6925   0.465E-02    0.125E-01
RMM:  10    -0.104528674556E+03    0.50529E-04   -0.19393E-04  7000   0.237E-02    0.896E-02
RMM:  11    -0.104528685750E+03   -0.11195E-04   -0.77335E-05  6703   0.148E-02    0.699E-02
RMM:  12    -0.104528734739E+03   -0.48989E-04   -0.52397E-05  6273   0.123E-02    0.522E-02
RMM:  13    -0.104528749892E+03   -0.15153E-04   -0.28515E-05  5223   0.953E-03    0.218E-02
RMM:  14    -0.104528765983E+03   -0.16091E-04   -0.68876E-06  4338   0.432E-03    0.124E-02
RMM:  15    -0.104528777488E+03   -0.11505E-04   -0.23830E-06  4084   0.247E-03    0.765E-03
RMM:  16    -0.104528788658E+03   -0.11170E-04   -0.89233E-07  2744   0.167E-03    0.572E-03
RMM:  17    -0.104528816394E+03   -0.27736E-04   -0.24611E-06  4116   0.223E-03    0.339E-03
RMM:  18    -0.104528829481E+03   -0.13087E-04   -0.84142E-07  2589   0.146E-03    0.240E-03
RMM:  19    -0.104528840863E+03   -0.11382E-04   -0.69321E-07  2425   0.139E-03    0.251E-03
RMM:  20    -0.104528846722E+03   -0.58581E-05   -0.37948E-07  2078   0.125E-03
   1 F= -.10452885E+03 E0= -.10449806E+03  d E =-.923610E-01
