unknown system                          
           1
     8.468310    0.000000    0.000000
     4.234155    7.333772    0.000000
     0.000000    0.000000   24.965662
   Pt   H 
    36     1
Direct configuration=     1
   0.00000000  0.00000000  0.34046764
   0.33400137  0.00000000  0.34046764
   0.66800274  0.00000000  0.34046764
   0.00000000  0.33400137  0.34046764
   0.33400137  0.33400137  0.34046764
   0.66800274  0.33400137  0.34046764
   0.00000000  0.66800274  0.34046764
   0.33400137  0.66800274  0.34046764
   0.66800274  0.66800274  0.34046764
   0.11133379  0.11133379  0.43297074
   0.44533516  0.11133379  0.43297074
   0.77933653  0.11133379  0.43297074
   0.11133379  0.44533516  0.43297074
   0.44533516  0.44533516  0.43297074
   0.77933653  0.44533516  0.43297074
   0.11133379  0.77933653  0.43297074
   0.44533516  0.77933653  0.43297074
   0.77933653  0.77933653  0.43297074
   0.88860557  0.22572643  0.52535606
   0.22111351  0.22436740  0.52605405
   0.55301194  0.22519806  0.52509459
   0.88881848  0.55613803  0.52512723
   0.22148297  0.55606847  0.52483541
   0.55467670  0.55728375  0.52423185
   0.88773767  0.89157276  0.52406075
   0.22121753  0.89069799  0.52437292
   0.55503558  0.89033727  0.52430383
   0.99737236  0.00090177  0.61757473
   0.33457200  0.99552518  0.61804132
   0.66503643  0.00135567  0.61751739
   0.99530135  0.33367059  0.62173085
   0.33253510  0.33334143  0.62143991
   0.66380514  0.33524352  0.61787266
   0.99625211  0.67133872  0.61727337
   0.33115555  0.66753214  0.61743211
   0.66484963  0.66769721  0.61758848
   0.17197439  0.29438941  0.66266920
