
     Program PWSCF v.7.1 starts on 27Jan2025 at  9:20:36 
        Git branch: heads/qe-7.1
        Last git commit: 48ba0178f8fede6d020eb786884699a9f063f55d-dirty
        Last git commit date: Fri Jan 27 14:22:33 2023 +0000
        Last git commit subject: Merge branch 'fix_hubbard' into 'develop'

     This program is part of the open-source Quantum ESPRESSO suite
     for quantum simulation of materials; please cite
         "P. Giannozzi et al., J. Phys.:Condens. Matter 21 395502 (2009);
         "P. Giannozzi et al., J. Phys.:Condens. Matter 29 465901 (2017);
         "P. Giannozzi et al., J. Chem. Phys. 152 154105 (2020);
          URL http://www.quantum-espresso.org", 
     in publications or presentations arising from this work. More details at
     http://www.quantum-espresso.org/quote

     Parallel version (MPI), running on    48 processors

     MPI processes distributed on     1 nodes
     270053 MiB available memory on the printing compute node when the environment starts

     Reading input from espresso.pwi
Warning: card &CELL ignored
Warning: card / ignored
Warning: card &FCP ignored
Warning: card / ignored
Warning: card &RISM ignored
Warning: card / ignored

     Current dimensions of program PWSCF are:
     Max number of different atomic species (ntypx) = 10
     Max number of k-points (npk) =  40000
     Max angular momentum in pseudopotentials (lmaxx) =  4
     file Pt.pbe-n-kjpaw_psl.1.0.0.UPF: wavefunction(s)  6S 5D renormalized
     file H.pbe-kjpaw_psl.1.0.0.UPF: wavefunction(s)  1S renormalized

     **************************************************************************
     Initializing libbeef V0.1.2 with the BEEF-vdW functional.
     Citation: Wellendorff et al., PRB 85, 235149 (2012).
     **************************************************************************


     IMPORTANT: XC functional enforced from input :
     Exchange-correlation= BEEF-VDW
                           (   1   4  43  14   2   0   0)
     Any further DFT definition will be discarded
     Please, verify this is what you really want


     R & G space division:  proc/nbgrp/npool/nimage =      48
     Subspace diagonalization in iterative solution of the eigenvalue problem:
     one sub-group per band group will be used
     custom distributed-memory algorithm (size of sub-group:  2*  2 procs)


     Parallelization info
     --------------------
     sticks:   dense  smooth     PW     G-vecs:    dense   smooth      PW
     Min         150      59     16                30552     7447    1068
     Max         151      60     17                30571     7456    1081
     Sum        7243    2839    769              1467143   357639   51591

     Using Slab Decomposition



     bravais-lattice index     =            0
     lattice parameter (alat)  =      16.0028  a.u.
     unit-cell volume          =   10463.1828 (a.u.)^3
     number of atoms/cell      =           37
     number of atomic types    =            2
     number of electrons       =       361.00
     number of Kohn-Sham states=          217
     kinetic-energy cutoff     =      40.0000  Ry
     charge density cutoff     =     410.0000  Ry
     scf convergence threshold =      1.0E-06
     mixing beta               =       0.7000
     number of iterations used =            8  local-TF  mixing
     Exchange-correlation= BEEF-VDW
                           (   1   4  43  14   2   0   0)

     celldm(1)=  16.002787  celldm(2)=   0.000000  celldm(3)=   0.000000
     celldm(4)=   0.000000  celldm(5)=   0.000000  celldm(6)=   0.000000

     crystal axes: (cart. coord. in units of alat)
               a(1) = (   1.000000   0.000000   0.000000 )  
               a(2) = (   0.500000   0.866025   0.000000 )  
               a(3) = (   0.000000   0.000000   2.948128 )  

     reciprocal axes: (cart. coord. in units 2 pi/alat)
               b(1) = (  1.000000 -0.577350  0.000000 )  
               b(2) = (  0.000000  1.154701  0.000000 )  
               b(3) = (  0.000000  0.000000  0.339198 )  


     PseudoPot. # 1 for Pt read from file:
     /users/kbadger1/espresso/pseudo/pslibrary.1.0.0/pbe/PSEUDOPOTENTIALS/Pt.pbe-n-kjpaw_psl.1.0.0.UPF
     MD5 check sum: 2e24a0b5bf98a4ed1a57fa81bca8c143
     Pseudo is Projector augmented-wave + core cor, Zval = 10.0
     Generated using 'atomic' code by A. Dal Corso  v.7.0
     Shape of augmentation charge: PSQ
     Using radial grid of 1277 points,  6 beta functions with: 
                l(1) =   0
                l(2) =   0
                l(3) =   1
                l(4) =   1
                l(5) =   2
                l(6) =   2
     Q(r) pseudized with 0 coefficients 


     PseudoPot. # 2 for H  read from file:
     /users/kbadger1/espresso/pseudo/pslibrary.1.0.0/pbe/PSEUDOPOTENTIALS/H.pbe-kjpaw_psl.1.0.0.UPF
     MD5 check sum: fe4c6fa958fa6d3815bf5d2419cbf1df
     Pseudo is Projector augmented-wave, Zval =  1.0
     Generated using 'atomic' code by A. Dal Corso  v.7.0
     Shape of augmentation charge: PSQ
     Using radial grid of  929 points,  2 beta functions with: 
                l(1) =   0
                l(2) =   0
     Q(r) pseudized with 0 coefficients 


     atomic species   valence    mass     pseudopotential
        Pt            10.00   195.08400     Pt( 1.00)
        H              1.00     1.00800     H ( 1.00)

     No symmetry found



   Cartesian axes

     site n.     atom                  positions (alat units)
         1           Pt  tau(   1) = (   0.0000000   0.0000000   1.0037422  )
         2           Pt  tau(   2) = (   0.3340014   0.0000000   1.0037422  )
         3           Pt  tau(   3) = (   0.6680027   0.0000000   1.0037422  )
         4           Pt  tau(   4) = (   0.1670007   0.2892537   1.0037422  )
         5           Pt  tau(   5) = (   0.5010021   0.2892537   1.0037422  )
         6           Pt  tau(   6) = (   0.8350034   0.2892537   1.0037422  )
         7           Pt  tau(   7) = (   0.3340014   0.5785073   1.0037422  )
         8           Pt  tau(   8) = (   0.6680027   0.5785073   1.0037422  )
         9           Pt  tau(   9) = (   1.0020041   0.5785073   1.0037422  )
        10           Pt  tau(  10) = (   0.1670007   0.0964179   1.2764532  )
        11           Pt  tau(  11) = (   0.5010021   0.0964179   1.2764532  )
        12           Pt  tau(  12) = (   0.8350034   0.0964179   1.2764532  )
        13           Pt  tau(  13) = (   0.3340014   0.3856716   1.2764532  )
        14           Pt  tau(  14) = (   0.6680027   0.3856716   1.2764532  )
        15           Pt  tau(  15) = (   1.0020041   0.3856716   1.2764532  )
        16           Pt  tau(  16) = (   0.5010021   0.6749252   1.2764532  )
        17           Pt  tau(  17) = (   0.8350034   0.6749252   1.2764532  )
        18           Pt  tau(  18) = (   1.1690048   0.6749252   1.2764532  )
        19           Pt  tau(  19) = (   0.0020478   0.1909742   1.5479838  )
        20           Pt  tau(  20) = (   0.3341287   0.1908474   1.5476484  )
        21           Pt  tau(  21) = (   0.6681313   0.1907358   1.5457928  )
        22           Pt  tau(  22) = (   0.1681833   0.4765123   1.5506243  )
        23           Pt  tau(  23) = (   0.5013065   0.4793609   1.5461687  )
        24           Pt  tau(  24) = (   0.8349721   0.4793960   1.5460756  )
        25           Pt  tau(  25) = (   0.3347866   0.7674170   1.5463269  )
        26           Pt  tau(  26) = (   0.6681936   0.7680546   1.5465087  )
        27           Pt  tau(  27) = (   1.0018119   0.7673137   1.5459053  )
        28           Pt  tau(  28) = (   0.0002619  -0.0061672   1.8207924  )
        29           Pt  tau(  29) = (   0.3363554  -0.0061481   1.8205622  )
        30           Pt  tau(  30) = (   0.6682321  -0.0049518   1.8213745  )
        31           Pt  tau(  31) = (   0.1682919   0.2814666   1.8356235  )
        32           Pt  tau(  32) = (   0.5021314   0.2837144   1.8208543  )
        33           Pt  tau(  33) = (   0.8343998   0.2837380   1.8209358  )
        34           Pt  tau(  34) = (   0.3348366   0.5724780   1.8219493  )
        35           Pt  tau(  35) = (   0.6682855   0.5720609   1.8210158  )
        36           Pt  tau(  36) = (   1.0017011   0.5725180   1.8218276  )
        37           H   tau(  37) = (   0.1683795   0.2353825   2.0137086  )

     number of k points=    13  Marzari-Vanderbilt smearing, width (Ry)=  0.0200
                       cart. coord. in units 2pi/alat
        k(    1) = (   0.0000000   0.0000000   0.0000000), wk =   0.0800000
        k(    2) = (   0.0000000   0.2309401   0.0000000), wk =   0.1600000
        k(    3) = (   0.0000000   0.4618802   0.0000000), wk =   0.1600000
        k(    4) = (   0.2000000  -0.1154701   0.0000000), wk =   0.1600000
        k(    5) = (   0.2000000   0.1154701   0.0000000), wk =   0.1600000
        k(    6) = (   0.2000000   0.3464102   0.0000000), wk =   0.1600000
        k(    7) = (   0.2000000  -0.5773503   0.0000000), wk =   0.1600000
        k(    8) = (   0.2000000  -0.3464102   0.0000000), wk =   0.1600000
        k(    9) = (   0.4000000  -0.2309401   0.0000000), wk =   0.1600000
        k(   10) = (   0.4000000   0.0000000   0.0000000), wk =   0.1600000
        k(   11) = (   0.4000000   0.2309401   0.0000000), wk =   0.1600000
        k(   12) = (   0.4000000  -0.6928203   0.0000000), wk =   0.1600000
        k(   13) = (   0.4000000  -0.4618802   0.0000000), wk =   0.1600000

     Dense  grid:  1467143 G-vectors     FFT dimensions: ( 108, 108, 320)

     Smooth grid:   357639 G-vectors     FFT dimensions: (  72,  72, 192)

     Estimated max dynamical RAM per process >     211.30 MB

     Estimated total dynamical RAM >       9.90 GB

     Initial potential from superposition of free atoms

     starting charge     360.9939, renormalised to     361.0000

     negative rho (up, down):  3.584E-03 0.000E+00


     %%%%%%%%%%%%%%%%%%%%%%%%%%%%%%%%%%%%%%%%%%%%%%%%%%%%%%%%%%%%%%%%%%%%%%%%
     %                                                                      %
     % You are using vdW-DF, which was implemented by the Thonhauser group. %
     % Please cite the following two papers that made this development      %
     % possible and the two reviews that describe the various versions:     %
     %                                                                      %
     %   T. Thonhauser et al., PRL 115, 136402 (2015).                      %
     %   T. Thonhauser et al., PRB 76, 125112 (2007).                       %
     %   K. Berland et al., Rep. Prog. Phys. 78, 066501 (2015).             %
     %   D.C. Langreth et al., J. Phys.: Condens. Matter 21, 084203 (2009). %
     %                                                                      %
     % If you are calculating stress with vdW-DF, please also cite:         %
     %                                                                      %
     %   R. Sabatini et al., J. Phys.: Condens. Matter 24, 424209 (2012).   %
     %                                                                      %
     %%%%%%%%%%%%%%%%%%%%%%%%%%%%%%%%%%%%%%%%%%%%%%%%%%%%%%%%%%%%%%%%%%%%%%%%

     %%%%%%%%%%%%%%%%%%%%%%%%%%%%%%%%%%%%%%%%%%%%%%%%%%%%%%%%%%%%%%%%%%%%%%%%
     %                                                                      %
     %  vdW-DF NEWS:                                                        %
     %                                                                      %
     %  * vdW-DF3 is now available. DOI: 10.1021/acs.jctc.0c00471           %
     %    use with input_dft = 'vdW-DF3-opt1' or 'vdW-DF3-opt2'             %
     %                                                                      %
     %  * Unscreened and range-separated hybrid vdW-DF-cx functionals       %
     %    DOI: 10.1063/1.4986522 and 10.1088/1361-648X/ac2ad2               %
     %    use with input_dft = 'vdW-DF-cx0'    and 'vdW-DF-ahcx'            %
     %  * Unscreened and range-separated hybrid vdW-DF2-b86r functionals    %
     %    DOI: 10.1063/1.4986522 and DOI: 10.1103/PhysRevX.12.041003        %
     %    use with input_dft = 'vdW-DF2-br0' and 'vdW-DF2-ahbr'             %
     %                                                                      %
     %%%%%%%%%%%%%%%%%%%%%%%%%%%%%%%%%%%%%%%%%%%%%%%%%%%%%%%%%%%%%%%%%%%%%%%%


     Starting wfcs are  325 randomized atomic wfcs
     Checking if some PAW data can be deallocated... 

     total cpu time spent up to now is       16.8 secs

     per-process dynamical memory:   208.7 Mb

     Self-consistent Calculation

     iteration #  1     ecut=    40.00 Ry     beta= 0.70
     Davidson diagonalization with overlap
     ethr =  1.00E-02,  avg # of iterations =  2.0

     Threshold (ethr) on eigenvalues was too large:
     Diagonalizing with lowered threshold

     Davidson diagonalization with overlap
     ethr =  3.96E-04,  avg # of iterations =  3.8

     negative rho (up, down):  1.750E-02 0.000E+00

     total cpu time spent up to now is       54.3 secs

     total energy              =  -27755.28487188 Ry
     estimated scf accuracy    <       1.62773056 Ry

     iteration #  2     ecut=    40.00 Ry     beta= 0.70
     Davidson diagonalization with overlap
     ethr =  4.51E-04,  avg # of iterations =  2.0

     negative rho (up, down):  1.560E-02 0.000E+00

     total cpu time spent up to now is       74.0 secs

     total energy              =  -27755.38836147 Ry
     estimated scf accuracy    <       0.82082445 Ry

     iteration #  3     ecut=    40.00 Ry     beta= 0.70
     Davidson diagonalization with overlap
     ethr =  2.27E-04,  avg # of iterations =  2.0

     negative rho (up, down):  1.021E-02 0.000E+00

     total cpu time spent up to now is       87.2 secs

     total energy              =  -27755.44281074 Ry
     estimated scf accuracy    <       0.10083432 Ry

     iteration #  4     ecut=    40.00 Ry     beta= 0.70
     Davidson diagonalization with overlap
     c_bands:  1 eigenvalues not converged
     c_bands:  1 eigenvalues not converged
     c_bands:  1 eigenvalues not converged
     ethr =  2.79E-05,  avg # of iterations = 11.8

     negative rho (up, down):  7.586E-03 0.000E+00

     total cpu time spent up to now is      130.5 secs

     total energy              =  -27755.49306144 Ry
     estimated scf accuracy    <       0.08746888 Ry

     iteration #  5     ecut=    40.00 Ry     beta= 0.70
     Davidson diagonalization with overlap
     ethr =  2.42E-05,  avg # of iterations =  1.2

     negative rho (up, down):  3.718E-03 0.000E+00

     total cpu time spent up to now is      143.1 secs

     total energy              =  -27755.49325003 Ry
     estimated scf accuracy    <       0.02963720 Ry

     iteration #  6     ecut=    40.00 Ry     beta= 0.70
     Davidson diagonalization with overlap
     c_bands:  2 eigenvalues not converged
     c_bands:  1 eigenvalues not converged
     c_bands:  1 eigenvalues not converged
     ethr =  8.21E-06,  avg # of iterations = 11.6

     negative rho (up, down):  1.824E-03 0.000E+00

     total cpu time spent up to now is      167.2 secs

     total energy              =  -27755.49535552 Ry
     estimated scf accuracy    <       0.00247639 Ry

     iteration #  7     ecut=    40.00 Ry     beta= 0.70
     Davidson diagonalization with overlap
     c_bands:  1 eigenvalues not converged
     c_bands:  1 eigenvalues not converged
     ethr =  6.86E-07,  avg # of iterations = 11.7

     negative rho (up, down):  1.401E-03 0.000E+00

     total cpu time spent up to now is      204.3 secs

     total energy              =  -27755.49610837 Ry
     estimated scf accuracy    <       0.00201028 Ry

     iteration #  8     ecut=    40.00 Ry     beta= 0.70
     Davidson diagonalization with overlap
     c_bands:  1 eigenvalues not converged
     ethr =  5.57E-07,  avg # of iterations =  2.7

     negative rho (up, down):  1.182E-03 0.000E+00

     total cpu time spent up to now is      224.0 secs

     total energy              =  -27755.49623747 Ry
     estimated scf accuracy    <       0.00022618 Ry

     iteration #  9     ecut=    40.00 Ry     beta= 0.70
     Davidson diagonalization with overlap
     ethr =  6.27E-08,  avg # of iterations =  4.9

     negative rho (up, down):  8.905E-04 0.000E+00

     total cpu time spent up to now is      254.3 secs

     total energy              =  -27755.49634120 Ry
     estimated scf accuracy    <       0.00010478 Ry

     iteration # 10     ecut=    40.00 Ry     beta= 0.70
     Davidson diagonalization with overlap
     ethr =  2.90E-08,  avg # of iterations =  3.5

     negative rho (up, down):  8.547E-04 0.000E+00

     total cpu time spent up to now is      275.8 secs

     total energy              =  -27755.49635975 Ry
     estimated scf accuracy    <       0.00010258 Ry

     iteration # 11     ecut=    40.00 Ry     beta= 0.70
     Davidson diagonalization with overlap
     ethr =  2.84E-08,  avg # of iterations =  1.2

     negative rho (up, down):  9.252E-04 0.000E+00

     total cpu time spent up to now is      290.0 secs

     total energy              =  -27755.49636416 Ry
     estimated scf accuracy    <       0.00006692 Ry

     iteration # 12     ecut=    40.00 Ry     beta= 0.70
     Davidson diagonalization with overlap
     ethr =  1.85E-08,  avg # of iterations =  1.5

     negative rho (up, down):  1.133E-03 0.000E+00

     total cpu time spent up to now is      310.9 secs

     total energy              =  -27755.49636955 Ry
     estimated scf accuracy    <       0.00002721 Ry

     iteration # 13     ecut=    40.00 Ry     beta= 0.70
     Davidson diagonalization with overlap
     ethr =  7.54E-09,  avg # of iterations =  2.0

     negative rho (up, down):  1.643E-03 0.000E+00

     total cpu time spent up to now is      323.4 secs

     total energy              =  -27755.49637483 Ry
     estimated scf accuracy    <       0.00001617 Ry

     iteration # 14     ecut=    40.00 Ry     beta= 0.70
     Davidson diagonalization with overlap
     ethr =  4.48E-09,  avg # of iterations =  2.0

     negative rho (up, down):  2.009E-03 0.000E+00

     total cpu time spent up to now is      342.7 secs

     total energy              =  -27755.49638181 Ry
     estimated scf accuracy    <       0.00000849 Ry

     iteration # 15     ecut=    40.00 Ry     beta= 0.70
     Davidson diagonalization with overlap
     ethr =  2.35E-09,  avg # of iterations =  1.9

     negative rho (up, down):  2.758E-03 0.000E+00

     total cpu time spent up to now is      355.4 secs

     total energy              =  -27755.49637993 Ry
     estimated scf accuracy    <       0.00000735 Ry

     iteration # 16     ecut=    40.00 Ry     beta= 0.70
     Davidson diagonalization with overlap
     ethr =  2.04E-09,  avg # of iterations =  1.3

     negative rho (up, down):  2.974E-03 0.000E+00

     total cpu time spent up to now is      374.7 secs

     total energy              =  -27755.49637985 Ry
     estimated scf accuracy    <       0.00000202 Ry

     iteration # 17     ecut=    40.00 Ry     beta= 0.70
     Davidson diagonalization with overlap
     ethr =  5.61E-10,  avg # of iterations =  4.1

     negative rho (up, down):  3.398E-03 0.000E+00

     total cpu time spent up to now is      391.4 secs

     End of self-consistent calculation

          k = 0.0000 0.0000 0.0000 ( 44645 PWs)   bands (ev):

    -6.6375  -5.3628  -4.2964  -4.2352  -4.2197  -4.2090  -4.2068  -4.2027
    -4.1927  -4.1843  -3.7531  -3.6608  -3.6576  -3.6543  -3.6484  -3.6432
    -3.3362  -3.1899  -3.1847  -3.1805  -3.1781  -3.1763  -3.1107  -2.9729
    -2.9682  -2.9646  -2.9565  -2.9550  -2.7882  -2.7459  -2.7449  -2.7404
    -2.7332  -2.7300  -2.7149  -2.7123  -2.7105  -2.7014  -2.7005  -2.6593
    -2.5381  -2.1184  -2.1152  -2.0898  -2.0793  -2.0535  -2.0435  -2.0401
    -2.0319  -2.0293  -1.9756  -1.8811  -1.8617  -1.7913  -1.6631  -1.3325
    -1.3227  -1.3044  -1.2980  -1.2919  -1.2791  -1.2353  -1.1188  -1.1169
    -1.1105  -1.1093  -1.0946  -1.0868  -1.0673  -1.0623  -1.0580  -1.0431
    -1.0368  -1.0274  -1.0031  -0.9990  -0.9731  -0.9057  -0.8881  -0.8841
    -0.8773  -0.8618  -0.7356  -0.6979  -0.6765  -0.6642  -0.6568  -0.6490
    -0.6291  -0.6225  -0.6085  -0.5422  -0.5418  -0.4864  -0.4841  -0.4518
    -0.4497  -0.4219  -0.4108  -0.4032  -0.3837  -0.2795  -0.2602  -0.2552
    -0.2429  -0.2307  -0.2145   0.0974   0.2446   0.2521   0.2681   0.2695
     0.2726   0.2755   0.2809   0.3230   0.3284   0.3354   0.3366   0.3597
     0.4025   0.4083   0.5381   0.5619   0.5730   0.5818   0.5844   0.6634
     0.6656   0.7129   0.7195   0.7351   0.7390   0.7772   0.9716   0.9780
     1.0056   1.0087   1.0199   1.0290   1.0734   1.0850   1.2428   1.2490
     1.2505   1.2601   1.2613   1.3165   1.4187   1.4242   1.4355   1.4412
     1.4474   1.4592   1.4639   1.4653   1.4692   1.4716   1.4755   1.5645
     1.5854   1.5872   1.6053   1.6122   1.6183   1.6370   1.6465   1.6988
     1.7052   1.7164   1.7271   1.7373   1.7427   1.7454   1.7491   1.8095
     1.8228   1.8324   1.8385   1.8421   1.8448   1.8601   1.9145   1.9387
     1.9443   1.9470   1.9643   1.9663   2.1352   2.1711   2.2370   2.2498
     2.2719   2.2729   2.2783   2.2834   2.6067   3.0891   3.1454   3.1592
     3.1637   3.1685   3.1706   4.7124   5.4417   5.4567   5.4857   5.4959
     5.5067   6.6631   7.0788   7.0810   7.1100   7.1145   7.1392   7.1396
     7.2494

          k = 0.0000 0.2309 0.0000 ( 44694 PWs)   bands (ev):

    -6.4899  -5.2184  -4.7272  -4.3321  -4.3123  -4.1377  -4.0788  -4.0246
    -3.9857  -3.9606  -3.8141  -3.7463  -3.6485  -3.5920  -3.5891  -3.5742
    -3.3371  -3.2120  -3.1536  -3.1465  -3.1386  -3.1128  -3.0638  -3.0416
    -3.0046  -2.9771  -2.9690  -2.9338  -2.9207  -2.8629  -2.8242  -2.7753
    -2.7611  -2.7261  -2.7190  -2.6230  -2.5288  -2.5267  -2.5112  -2.5079
    -2.4362  -2.2389  -2.2284  -2.1692  -2.1651  -2.1332  -2.1236  -2.0788
    -1.9368  -1.9330  -1.8640  -1.8565  -1.8112  -1.7926  -1.7238  -1.5379
    -1.4794  -1.4620  -1.4123  -1.3918  -1.3730  -1.3156  -1.3136  -1.2849
    -1.2651  -1.2502  -1.2122  -1.1855  -1.1387  -1.1133  -1.0926  -1.0767
    -1.0441  -1.0202  -1.0051  -0.9205  -0.9139  -0.8981  -0.8466  -0.8136
    -0.8109  -0.7971  -0.7695  -0.7103  -0.7028  -0.6970  -0.6836  -0.6585
    -0.6458  -0.6134  -0.5823  -0.5613  -0.5277  -0.5114  -0.4963  -0.4925
    -0.4599  -0.4333  -0.4253  -0.4165  -0.3140  -0.2641  -0.2613  -0.2459
    -0.2448  -0.2207  -0.2130  -0.2021  -0.1556  -0.1515  -0.1281  -0.1174
     0.0294   0.1192   0.1910   0.2236   0.2635   0.2717   0.2855   0.3035
     0.3230   0.3435   0.4714   0.4793   0.4908   0.5867   0.6134   0.6529
     0.6746   0.6944   0.7234   0.7435   0.7651   0.7685   0.8535   0.8758
     0.8786   0.8910   0.8961   1.0727   1.0782   1.1148   1.1271   1.1377
     1.1555   1.1876   1.2344   1.2684   1.2832   1.2955   1.3319   1.3688
     1.3735   1.3817   1.4130   1.4898   1.4976   1.5260   1.5617   1.6203
     1.6524   1.6576   1.6647   1.6778   1.6855   1.7318   1.7801   1.8118
     1.8138   1.8646   1.8775   1.8836   1.9206   1.9265   1.9313   1.9362
     1.9436   1.9860   1.9960   2.1150   2.1426   2.1756   2.1956   2.1979
     2.2119   2.2415   2.2776   2.2811   2.2957   2.3646   2.3952   2.4042
     2.4166   2.5761   2.5824   2.5945   2.6156   2.9270   3.0393   3.4439
     3.7506   3.7528   3.8847   4.5266   4.9886   5.2010   5.7127   5.9351
     5.9392   6.0436   6.2478   6.6285   6.9023   6.9385   7.2316   7.3001
     7.3120

          k = 0.0000 0.4619 0.0000 ( 44748 PWs)   bands (ev):

    -6.0652  -5.4287  -4.8130  -4.3669  -4.3456  -4.2563  -3.9984  -3.8401
    -3.7516  -3.7006  -3.6630  -3.6181  -3.5501  -3.4612  -3.4229  -3.4096
    -3.4022  -3.3055  -3.2579  -3.2301  -3.2072  -3.1899  -3.1622  -3.1372
    -3.0628  -3.0536  -3.0516  -2.9533  -2.7884  -2.7811  -2.7760  -2.7613
    -2.7520  -2.7060  -2.5364  -2.5187  -2.5014  -2.4959  -2.4745  -2.4056
    -2.2579  -2.2054  -2.1895  -2.1764  -2.1383  -2.1287  -2.1217  -2.0480
    -2.0429  -1.9946  -1.9846  -1.9504  -1.8268  -1.8194  -1.7901  -1.7838
    -1.6731  -1.6203  -1.6032  -1.6017  -1.5257  -1.4554  -1.3964  -1.3903
    -1.3848  -1.3664  -1.2934  -1.2714  -1.2534  -1.1706  -1.1643  -1.1482
    -1.1302  -1.0263  -1.0041  -0.9881  -0.9865  -0.9632  -0.9250  -0.9034
    -0.8938  -0.8696  -0.8674  -0.8645  -0.8570  -0.8378  -0.8086  -0.7371
    -0.7151  -0.6952  -0.6927  -0.6792  -0.6669  -0.5814  -0.5388  -0.5205
    -0.5070  -0.4652  -0.4456  -0.4205  -0.4075  -0.4037  -0.3366  -0.2569
    -0.2277  -0.2007  -0.1748  -0.1466  -0.1290   0.0044   0.0094   0.0499
     0.0964   0.1553   0.1773   0.1866   0.2143   0.2180   0.2416   0.2824
     0.3121   0.3171   0.3320   0.3363   0.3539   0.3621   0.3820   0.3965
     0.4449   0.5221   0.5531   0.5746   0.5853   0.6556   0.7279   0.7604
     0.7777   0.8743   0.8909   0.9845   1.0331   1.0436   1.0805   1.0969
     1.1035   1.1481   1.1537   1.2141   1.2310   1.2570   1.2952   1.3134
     1.3774   1.4017   1.4211   1.4308   1.4471   1.4584   1.5532   1.6183
     1.6680   1.6923   1.7113   1.7242   1.7290   1.8158   1.8383   1.8414
     1.9152   1.9198   1.9295   1.9873   2.0007   2.0148   2.0362   2.1117
     2.1533   2.1736   2.1769   2.1943   2.2027   2.2264   2.2322   2.3984
     2.4170   2.4371   2.4516   2.4539   2.6250   2.6638   2.8275   3.0487
     3.0902   3.2251   3.4935   3.4956   3.8062   3.8831   3.9140   4.2301
     4.4135   4.7172   4.7207   4.7440   4.8959   4.9667   5.0345   5.0984
     5.3609   5.3745   5.7419   6.0108   6.3242   6.5381   6.7062   7.0149
     7.2277

          k = 0.2000-0.1155 0.0000 ( 44694 PWs)   bands (ev):

    -6.4897  -5.2183  -4.7218  -4.3367  -4.3141  -4.1384  -4.0780  -4.0221
    -3.9800  -3.9672  -3.8198  -3.7482  -3.6462  -3.5855  -3.5837  -3.5708
    -3.3169  -3.2577  -3.1576  -3.1453  -3.1333  -3.0987  -3.0629  -3.0478
    -3.0034  -2.9815  -2.9675  -2.9334  -2.8947  -2.8649  -2.8347  -2.7648
    -2.7567  -2.7278  -2.7234  -2.6097  -2.5300  -2.5265  -2.5168  -2.4984
    -2.4641  -2.2420  -2.2235  -2.2143  -2.1578  -2.1441  -2.1227  -2.0660
    -1.9426  -1.9197  -1.8647  -1.8445  -1.8224  -1.7893  -1.7169  -1.5641
    -1.4782  -1.4539  -1.4307  -1.4073  -1.3790  -1.3184  -1.2945  -1.2812
    -1.2537  -1.2481  -1.2286  -1.1874  -1.1434  -1.1265  -1.0973  -1.0749
    -1.0053  -0.9920  -0.9867  -0.9228  -0.9152  -0.8950  -0.8477  -0.8356
    -0.8172  -0.7820  -0.7684  -0.7079  -0.7053  -0.6857  -0.6813  -0.6684
    -0.6469  -0.6271  -0.5767  -0.5470  -0.5259  -0.5195  -0.4990  -0.4841
    -0.4755  -0.4362  -0.4234  -0.4101  -0.3174  -0.2686  -0.2494  -0.2410
    -0.2350  -0.2261  -0.2163  -0.2021  -0.1628  -0.1471  -0.1347  -0.1231
    -0.0257   0.1484   0.1907   0.2362   0.2600   0.2735   0.2851   0.3010
     0.3264   0.3493   0.4720   0.4886   0.5031   0.5973   0.6236   0.6370
     0.6892   0.6964   0.7344   0.7402   0.7666   0.8006   0.8531   0.8606
     0.8795   0.8898   0.8995   1.0593   1.0924   1.1138   1.1266   1.1390
     1.1585   1.1839   1.2370   1.2628   1.2719   1.2960   1.3146   1.3655
     1.3685   1.3867   1.4066   1.4881   1.4956   1.5206   1.5653   1.6245
     1.6492   1.6552   1.6694   1.6883   1.6996   1.7318   1.7867   1.8129
     1.8175   1.8677   1.8756   1.8840   1.9184   1.9286   1.9333   1.9372
     1.9394   1.9942   2.0089   2.1330   2.1419   2.1690   2.1814   2.1929
     2.2029   2.2232   2.2471   2.2703   2.2946   2.3546   2.3971   2.4163
     2.4274   2.5638   2.5855   2.5909   2.6283   2.9058   3.0209   3.4561
     3.7520   3.7628   3.8866   4.5375   4.9919   5.1876   5.7051   5.9363
     5.9416   6.0401   6.2442   6.6392   6.9061   6.9429   7.2453   7.2863
     7.3090

          k = 0.2000 0.1155 0.0000 ( 44694 PWs)   bands (ev):

    -6.4897  -5.2183  -4.7223  -4.3363  -4.3139  -4.1382  -4.0782  -4.0227
    -3.9804  -3.9660  -3.8208  -3.7481  -3.6433  -3.5874  -3.5853  -3.5700
    -3.3166  -3.2574  -3.1579  -3.1453  -3.1322  -3.0999  -3.0627  -3.0475
    -3.0040  -2.9820  -2.9673  -2.9347  -2.8966  -2.8640  -2.8323  -2.7664
    -2.7568  -2.7265  -2.7228  -2.6100  -2.5322  -2.5259  -2.5165  -2.4979
    -2.4625  -2.2425  -2.2227  -2.2144  -2.1585  -2.1427  -2.1218  -2.0681
    -1.9422  -1.9197  -1.8655  -1.8443  -1.8223  -1.7894  -1.7158  -1.5626
    -1.4773  -1.4528  -1.4314  -1.4052  -1.3776  -1.3170  -1.2971  -1.2822
    -1.2555  -1.2483  -1.2290  -1.1867  -1.1422  -1.1262  -1.0970  -1.0741
    -1.0064  -0.9954  -0.9893  -0.9224  -0.9149  -0.8940  -0.8481  -0.8322
    -0.8149  -0.7799  -0.7690  -0.7095  -0.7064  -0.6870  -0.6804  -0.6688
    -0.6471  -0.6269  -0.5768  -0.5474  -0.5259  -0.5193  -0.4976  -0.4849
    -0.4761  -0.4380  -0.4237  -0.4104  -0.3178  -0.2700  -0.2497  -0.2409
    -0.2372  -0.2249  -0.2169  -0.1995  -0.1613  -0.1494  -0.1357  -0.1228
    -0.0239   0.1489   0.1917   0.2345   0.2590   0.2744   0.2860   0.2993
     0.3271   0.3504   0.4716   0.4878   0.5030   0.5941   0.6232   0.6377
     0.6894   0.6956   0.7339   0.7397   0.7661   0.8006   0.8515   0.8637
     0.8816   0.8885   0.8998   1.0616   1.0903   1.1137   1.1247   1.1391
     1.1580   1.1844   1.2368   1.2639   1.2723   1.2944   1.3131   1.3650
     1.3700   1.3849   1.4096   1.4889   1.4957   1.5213   1.5667   1.6233
     1.6486   1.6540   1.6692   1.6876   1.6984   1.7315   1.7873   1.8131
     1.8191   1.8675   1.8740   1.8846   1.9189   1.9279   1.9325   1.9381
     1.9396   1.9928   2.0074   2.1332   2.1402   2.1696   2.1828   2.1937
     2.2044   2.2244   2.2491   2.2721   2.2947   2.3540   2.3983   2.4153
     2.4268   2.5653   2.5852   2.5913   2.6270   2.9081   3.0229   3.4552
     3.7507   3.7624   3.8865   4.5359   4.9936   5.1895   5.7039   5.9355
     5.9415   6.0404   6.2453   6.6377   6.9056   6.9415   7.2440   7.2871
     7.3094

          k = 0.2000 0.3464 0.0000 ( 44714 PWs)   bands (ev):

    -6.2028  -4.9899  -4.9630  -4.9325  -3.9958  -3.8984  -3.8851  -3.8691
    -3.8449  -3.8198  -3.8138  -3.7989  -3.7061  -3.7038  -3.4264  -3.3216
    -3.3115  -3.3011  -3.2429  -3.2284  -3.1133  -3.0699  -3.0559  -3.0517
    -3.0488  -3.0029  -2.9225  -2.9046  -2.8942  -2.8898  -2.8600  -2.8123
    -2.7925  -2.7749  -2.7334  -2.6680  -2.5784  -2.3997  -2.3095  -2.2947
    -2.2681  -2.2511  -2.2487  -2.2368  -2.1845  -2.1728  -2.0723  -2.0150
    -2.0024  -1.9867  -1.9019  -1.8744  -1.8298  -1.8138  -1.7972  -1.7286
    -1.6817  -1.5645  -1.5593  -1.5153  -1.4626  -1.4478  -1.4209  -1.4106
    -1.3675  -1.3438  -1.3301  -1.2104  -1.1900  -1.1714  -1.1534  -1.1203
    -1.1069  -1.0556  -1.0384  -1.0254  -0.9923  -0.8894  -0.8822  -0.8622
    -0.8442  -0.8386  -0.8229  -0.8137  -0.7792  -0.7625  -0.7435  -0.7176
    -0.6892  -0.6414  -0.5961  -0.5827  -0.5683  -0.5294  -0.5059  -0.4942
    -0.4797  -0.4468  -0.4369  -0.4216  -0.4099  -0.4000  -0.3930  -0.3749
    -0.3345  -0.3133  -0.2516  -0.2159  -0.1717  -0.1618  -0.1061  -0.0919
    -0.0790  -0.0016   0.1123   0.1474   0.2159   0.2480   0.2699   0.2815
     0.3066   0.3405   0.3519   0.3777   0.3998   0.4088   0.4563   0.4908
     0.5247   0.6084   0.6730   0.6988   0.7322   0.7429   0.7704   0.8033
     0.8179   0.9212   0.9361   0.9537   1.0025   1.0181   1.0614   1.1344
     1.1579   1.1597   1.1794   1.2237   1.2344   1.2545   1.2567   1.2746
     1.2857   1.2914   1.3072   1.3902   1.4621   1.5034   1.5575   1.6232
     1.6442   1.7241   1.8044   1.8157   1.8207   1.8555   1.9240   1.9442
     1.9613   1.9741   1.9891   2.0108   2.0211   2.0231   2.0351   2.0650
     2.0934   2.1128   2.1683   2.1910   2.2191   2.2474   2.2579   2.2897
     2.3981   2.4516   2.4914   2.5022   2.5599   2.5696   2.5789   2.7051
     2.7199   2.9707   3.2374   3.2548   3.6098   3.7824   3.8004   3.8160
     4.1176   4.4926   4.5071   4.7105   4.7324   4.7648   5.3754   5.5736
     5.9206   5.9412   6.1606   6.2386   6.6317   6.6913   6.7090   6.7323
     6.7560

          k = 0.2000-0.5774 0.0000 ( 44692 PWs)   bands (ev):

    -5.6693  -5.6623  -5.0536  -4.4721  -4.4271  -3.9481  -3.8951  -3.7566
    -3.7161  -3.6415  -3.5989  -3.5055  -3.4965  -3.4536  -3.3882  -3.3840
    -3.3533  -3.3352  -3.3238  -3.3087  -3.2448  -3.1661  -3.1642  -3.1414
    -3.1158  -3.0529  -2.9619  -2.9493  -2.9052  -2.8397  -2.7648  -2.7584
    -2.7456  -2.7375  -2.6822  -2.6285  -2.5906  -2.5125  -2.4408  -2.3338
    -2.3155  -2.2208  -2.1862  -2.1825  -2.1293  -2.0995  -2.0075  -1.9500
    -1.9333  -1.9121  -1.8810  -1.8288  -1.8163  -1.7852  -1.7139  -1.7037
    -1.6849  -1.6715  -1.6688  -1.6569  -1.6097  -1.5947  -1.5470  -1.4755
    -1.4492  -1.3961  -1.3803  -1.2954  -1.2497  -1.2340  -1.2186  -1.1838
    -1.1778  -1.1595  -1.1012  -1.0575  -1.0377  -1.0246  -1.0048  -0.9821
    -0.9245  -0.9026  -0.8594  -0.8151  -0.8080  -0.7930  -0.7566  -0.6995
    -0.6232  -0.6168  -0.5918  -0.5893  -0.5547  -0.5511  -0.5410  -0.5164
    -0.5055  -0.4936  -0.4723  -0.4613  -0.4173  -0.4041  -0.3834  -0.3724
    -0.3682  -0.3470  -0.3200  -0.3033  -0.2875  -0.1829  -0.0834  -0.0516
     0.0292   0.0446   0.1313   0.1532   0.1702   0.1959   0.2160   0.2263
     0.2491   0.2698   0.3060   0.3657   0.3801   0.4035   0.4365   0.4614
     0.5133   0.5287   0.5651   0.6516   0.7278   0.7874   0.8020   0.8096
     0.8317   0.9021   0.9191   0.9354   0.9502   0.9623   0.9869   1.0031
     1.0318   1.0967   1.1264   1.1620   1.1847   1.2026   1.2069   1.2310
     1.2343   1.3276   1.4008   1.4533   1.4967   1.5654   1.6274   1.6447
     1.6577   1.7315   1.7758   1.7859   1.8128   1.8783   1.9347   1.9538
     1.9690   2.0005   2.0100   2.0262   2.0554   2.0932   2.1567   2.1669
     2.1699   2.1861   2.2195   2.2228   2.2264   2.2899   2.4130   2.4243
     2.4424   2.4499   2.4549   2.5106   2.5496   2.6357   2.7602   3.3396
     3.6059   3.6068   3.7850   3.8574   3.9794   3.9842   3.9989   4.2855
     4.6144   4.6235   4.8254   5.0640   5.0921   5.1947   5.2181   5.2957
     5.4564   5.5255   5.5770   5.8299   6.0165   6.0477   6.3222   6.6723
     6.6968

          k = 0.2000-0.3464 0.0000 ( 44714 PWs)   bands (ev):

    -6.2028  -4.9851  -4.9670  -4.9334  -3.9924  -3.8982  -3.8830  -3.8743
    -3.8437  -3.8200  -3.8154  -3.7994  -3.7062  -3.7036  -3.4257  -3.3183
    -3.3130  -3.3021  -3.2421  -3.2278  -3.1162  -3.0673  -3.0583  -3.0538
    -3.0462  -3.0017  -2.9226  -2.9057  -2.8935  -2.8897  -2.8612  -2.8129
    -2.7902  -2.7748  -2.7358  -2.6658  -2.5788  -2.4000  -2.3060  -2.2964
    -2.2717  -2.2511  -2.2468  -2.2372  -2.1850  -2.1722  -2.0737  -2.0181
    -2.0004  -1.9873  -1.9015  -1.8744  -1.8291  -1.8182  -1.7927  -1.7272
    -1.6829  -1.5677  -1.5595  -1.5155  -1.4643  -1.4498  -1.4218  -1.4115
    -1.3651  -1.3432  -1.3315  -1.2120  -1.1893  -1.1683  -1.1532  -1.1193
    -1.1060  -1.0584  -1.0390  -1.0256  -0.9910  -0.8914  -0.8834  -0.8622
    -0.8447  -0.8396  -0.8229  -0.8125  -0.7804  -0.7613  -0.7436  -0.7154
    -0.6871  -0.6397  -0.5952  -0.5814  -0.5684  -0.5278  -0.5053  -0.4914
    -0.4811  -0.4467  -0.4370  -0.4220  -0.4119  -0.3980  -0.3934  -0.3742
    -0.3350  -0.3131  -0.2522  -0.2153  -0.1707  -0.1623  -0.1051  -0.0919
    -0.0785  -0.0018   0.1168   0.1416   0.2179   0.2487   0.2714   0.2811
     0.3071   0.3384   0.3514   0.3793   0.3988   0.4062   0.4559   0.4903
     0.5237   0.6114   0.6728   0.6977   0.7319   0.7443   0.7716   0.8038
     0.8176   0.9228   0.9401   0.9504   1.0022   1.0167   1.0607   1.1325
     1.1575   1.1610   1.1801   1.2244   1.2348   1.2553   1.2575   1.2743
     1.2845   1.2907   1.3073   1.3889   1.4646   1.5023   1.5569   1.6246
     1.6440   1.7237   1.8058   1.8148   1.8203   1.8563   1.9245   1.9425
     1.9619   1.9740   1.9884   2.0109   2.0224   2.0233   2.0364   2.0661
     2.0935   2.1100   2.1690   2.1904   2.2204   2.2475   2.2577   2.2908
     2.3962   2.4496   2.4898   2.5010   2.5592   2.5701   2.5763   2.7063
     2.7192   2.9719   3.2381   3.2555   3.6097   3.7808   3.8002   3.8160
     4.1177   4.4924   4.5055   4.7115   4.7322   4.7647   5.3750   5.5729
     5.9205   5.9408   6.1613   6.2375   6.6329   6.6890   6.7112   6.7335
     6.7557

          k = 0.4000-0.2309 0.0000 ( 44748 PWs)   bands (ev):

    -6.0644  -5.4259  -4.8147  -4.3728  -4.3453  -4.2552  -3.9953  -3.8386
    -3.7419  -3.6963  -3.6486  -3.6263  -3.5535  -3.4552  -3.4186  -3.4066
    -3.3957  -3.3025  -3.2598  -3.2354  -3.2137  -3.1855  -3.1644  -3.1303
    -3.0892  -3.0553  -3.0503  -2.9233  -2.7876  -2.7839  -2.7772  -2.7706
    -2.7626  -2.6973  -2.5374  -2.5168  -2.5059  -2.5007  -2.4761  -2.4129
    -2.3084  -2.2007  -2.1932  -2.1850  -2.1634  -2.1254  -2.0921  -2.0613
    -2.0395  -2.0208  -1.9794  -1.9173  -1.8358  -1.8235  -1.7914  -1.7763
    -1.6818  -1.6439  -1.6203  -1.6064  -1.5757  -1.4561  -1.4090  -1.3803
    -1.3683  -1.3547  -1.2885  -1.2791  -1.2423  -1.1512  -1.1281  -1.1239
    -1.0936  -1.0222  -1.0129  -0.9947  -0.9874  -0.9662  -0.9381  -0.9112
    -0.8940  -0.8810  -0.8667  -0.8562  -0.8452  -0.8376  -0.7912  -0.7299
    -0.7164  -0.7094  -0.7050  -0.6930  -0.6822  -0.5874  -0.5234  -0.5152
    -0.4762  -0.4565  -0.4420  -0.4332  -0.3973  -0.3825  -0.3071  -0.2559
    -0.2319  -0.2184  -0.1834  -0.1403  -0.1233   0.0007   0.0112   0.0288
     0.1023   0.1479   0.1801   0.1870   0.2052   0.2159   0.2253   0.2372
     0.3098   0.3186   0.3304   0.3507   0.3591   0.3788   0.4006   0.4191
     0.4300   0.5410   0.5721   0.5791   0.6071   0.6595   0.7528   0.7729
     0.7837   0.8761   0.8828   0.9520   1.0214   1.0522   1.0875   1.1029
     1.1186   1.1332   1.1500   1.2098   1.2215   1.2506   1.2770   1.3123
     1.3719   1.3967   1.4221   1.4241   1.4505   1.4849   1.5430   1.6200
     1.6656   1.6968   1.7180   1.7296   1.7355   1.8157   1.8397   1.8440
     1.9223   1.9239   1.9346   1.9845   2.0105   2.0262   2.0425   2.1168
     2.1458   2.1701   2.1790   2.1894   2.1949   2.2095   2.2184   2.3936
     2.4016   2.4255   2.4282   2.4471   2.6270   2.6644   2.8285   3.0285
     3.1120   3.2234   3.4884   3.5001   3.8177   3.8856   3.9143   4.2103
     4.4041   4.7094   4.7219   4.7337   4.9116   4.9749   5.0272   5.0848
     5.3613   5.3763   5.7433   5.9898   6.3326   6.5488   6.7125   7.0158
     7.2279

          k = 0.4000 0.0000 0.0000 ( 44714 PWs)   bands (ev):

    -6.2023  -4.9782  -4.9710  -4.9345  -3.9915  -3.8854  -3.8827  -3.8795
    -3.8412  -3.8283  -3.8165  -3.8045  -3.7084  -3.7007  -3.4120  -3.3127
    -3.3078  -3.2967  -3.2515  -3.2155  -3.1279  -3.0720  -3.0575  -3.0533
    -3.0472  -3.0086  -2.9433  -2.9040  -2.8989  -2.8880  -2.8598  -2.8101
    -2.7849  -2.7691  -2.7388  -2.6467  -2.5621  -2.3935  -2.3086  -2.2948
    -2.2803  -2.2576  -2.2448  -2.2429  -2.2328  -2.1752  -2.1285  -2.0081
    -1.9980  -1.9342  -1.9064  -1.8759  -1.8295  -1.8198  -1.7872  -1.7305
    -1.7014  -1.5736  -1.5487  -1.5119  -1.4910  -1.4500  -1.4242  -1.4207
    -1.3669  -1.3425  -1.3384  -1.1938  -1.1915  -1.1603  -1.1382  -1.1115
    -1.0858  -1.0570  -1.0499  -1.0108  -0.9976  -0.9019  -0.8755  -0.8683
    -0.8509  -0.8259  -0.8238  -0.8138  -0.7721  -0.7654  -0.7414  -0.7028
    -0.6800  -0.6453  -0.5919  -0.5831  -0.5604  -0.5387  -0.5043  -0.4834
    -0.4735  -0.4531  -0.4435  -0.4233  -0.4176  -0.4057  -0.3933  -0.3790
    -0.3248  -0.3147  -0.2860  -0.2125  -0.1752  -0.1687  -0.0946  -0.0801
    -0.0774   0.0229   0.1122   0.1342   0.2388   0.2499   0.2861   0.2929
     0.3039   0.3298   0.3665   0.3696   0.3969   0.4098   0.4467   0.4877
     0.5232   0.6324   0.6794   0.7068   0.7257   0.7443   0.7760   0.8119
     0.8242   0.9166   0.9444   0.9534   0.9964   1.0175   1.0664   1.1263
     1.1425   1.1567   1.1818   1.2239   1.2380   1.2462   1.2557   1.2728
     1.2756   1.2859   1.3014   1.3753   1.4847   1.4998   1.5455   1.6342
     1.6485   1.7244   1.8071   1.8138   1.8194   1.8735   1.9235   1.9381
     1.9626   1.9682   1.9955   2.0116   2.0225   2.0337   2.0448   2.0692
     2.0892   2.0950   2.1749   2.2058   2.2166   2.2475   2.2559   2.2958
     2.3651   2.4312   2.4771   2.4884   2.5477   2.5694   2.5756   2.7099
     2.7241   2.9923   3.2496   3.2606   3.6021   3.7733   3.7849   3.8087
     4.1198   4.4947   4.5095   4.7173   4.7309   4.7609   5.3872   5.5575
     5.9176   5.9281   6.1578   6.2391   6.6381   6.7002   6.7033   6.7334
     6.7539

          k = 0.4000 0.2309 0.0000 ( 44748 PWs)   bands (ev):

    -6.0644  -5.4264  -4.8140  -4.3721  -4.3453  -4.2566  -3.9962  -3.8388
    -3.7417  -3.6966  -3.6463  -3.6261  -3.5530  -3.4558  -3.4204  -3.4071
    -3.3957  -3.3035  -3.2592  -3.2350  -3.2154  -3.1855  -3.1633  -3.1324
    -3.0896  -3.0554  -3.0506  -2.9193  -2.7888  -2.7793  -2.7786  -2.7739
    -2.7589  -2.6984  -2.5361  -2.5167  -2.5080  -2.5018  -2.4754  -2.4111
    -2.3089  -2.2013  -2.1908  -2.1861  -2.1638  -2.1252  -2.0908  -2.0598
    -2.0399  -2.0188  -1.9794  -1.9206  -1.8347  -1.8235  -1.7905  -1.7761
    -1.6799  -1.6418  -1.6199  -1.6054  -1.5729  -1.4579  -1.4078  -1.3832
    -1.3679  -1.3526  -1.2878  -1.2796  -1.2443  -1.1529  -1.1311  -1.1248
    -1.0938  -1.0253  -1.0119  -0.9935  -0.9854  -0.9670  -0.9373  -0.9100
    -0.8909  -0.8804  -0.8657  -0.8555  -0.8456  -0.8378  -0.7919  -0.7280
    -0.7196  -0.7103  -0.7036  -0.6928  -0.6756  -0.5903  -0.5259  -0.5163
    -0.4808  -0.4588  -0.4399  -0.4354  -0.3970  -0.3864  -0.3081  -0.2533
    -0.2338  -0.2204  -0.1856  -0.1389  -0.1249   0.0002   0.0109   0.0304
     0.1011   0.1479   0.1798   0.1877   0.2037   0.2188   0.2255   0.2404
     0.3091   0.3213   0.3302   0.3504   0.3600   0.3789   0.3961   0.4184
     0.4327   0.5402   0.5703   0.5790   0.6068   0.6584   0.7513   0.7721
     0.7839   0.8771   0.8816   0.9549   1.0221   1.0517   1.0858   1.1037
     1.1155   1.1336   1.1506   1.2095   1.2199   1.2507   1.2800   1.3135
     1.3729   1.3971   1.4230   1.4256   1.4487   1.4833   1.5415   1.6199
     1.6638   1.6962   1.7173   1.7296   1.7348   1.8158   1.8398   1.8459
     1.9218   1.9230   1.9340   1.9848   2.0086   2.0260   2.0421   2.1163
     2.1468   2.1703   2.1787   2.1897   2.1961   2.2122   2.2195   2.3948
     2.4021   2.4277   2.4294   2.4496   2.6268   2.6638   2.8306   3.0307
     3.1086   3.2224   3.4883   3.5001   3.8166   3.8854   3.9138   4.2115
     4.4058   4.7104   4.7218   4.7355   4.9099   4.9741   5.0292   5.0869
     5.3609   5.3763   5.7418   5.9910   6.3329   6.5481   6.7108   7.0156
     7.2282

          k = 0.4000-0.6928 0.0000 ( 44692 PWs)   bands (ev):

    -5.6696  -5.6597  -5.0555  -4.4808  -4.4189  -3.9505  -3.8869  -3.7561
    -3.7151  -3.6278  -3.6067  -3.5130  -3.4981  -3.4283  -3.3906  -3.3743
    -3.3575  -3.3320  -3.3232  -3.3135  -3.2627  -3.1716  -3.1654  -3.1354
    -3.1145  -3.0519  -2.9928  -2.9126  -2.9045  -2.8407  -2.7653  -2.7578
    -2.7422  -2.7380  -2.6790  -2.6332  -2.6010  -2.5198  -2.4541  -2.3263
    -2.3070  -2.2901  -2.1898  -2.1559  -2.1231  -2.0927  -1.9994  -1.9455
    -1.9245  -1.9068  -1.8752  -1.8435  -1.8242  -1.7998  -1.7172  -1.7093
    -1.6879  -1.6783  -1.6704  -1.6616  -1.6163  -1.5997  -1.5706  -1.4672
    -1.4406  -1.3957  -1.3577  -1.2893  -1.2666  -1.2310  -1.2188  -1.1744
    -1.1572  -1.1463  -1.0893  -1.0570  -1.0430  -1.0315  -1.0029  -0.9792
    -0.9331  -0.9173  -0.8478  -0.8226  -0.8152  -0.7991  -0.7422  -0.6683
    -0.6481  -0.6133  -0.6054  -0.5935  -0.5513  -0.5425  -0.5317  -0.5129
    -0.5067  -0.4713  -0.4552  -0.4404  -0.4247  -0.4049  -0.3856  -0.3816
    -0.3700  -0.3626  -0.3276  -0.2916  -0.2783  -0.2306  -0.0679  -0.0081
     0.0324   0.0376   0.1384   0.1501   0.1607   0.1808   0.2105   0.2390
     0.2470   0.2625   0.3075   0.3572   0.3782   0.4003   0.4488   0.4570
     0.5122   0.5361   0.5830   0.6708   0.7411   0.7850   0.7938   0.8109
     0.8281   0.8824   0.9088   0.9335   0.9490   0.9577   0.9869   0.9991
     1.0391   1.1011   1.1199   1.1658   1.1803   1.2019   1.2072   1.2291
     1.2441   1.3581   1.3876   1.4506   1.4970   1.5647   1.6173   1.6435
     1.6626   1.7328   1.7738   1.7826   1.8219   1.8820   1.9381   1.9570
     1.9826   2.0044   2.0078   2.0225   2.0528   2.0827   2.1525   2.1657
     2.1740   2.2020   2.2154   2.2224   2.2306   2.2924   2.4002   2.4179
     2.4303   2.4377   2.4527   2.5065   2.5312   2.6338   2.7608   3.3515
     3.6058   3.6094   3.7982   3.8487   3.9880   3.9935   4.0075   4.2659
     4.6016   4.6214   4.8398   5.0627   5.0917   5.1921   5.2146   5.2718
     5.4092   5.5213   5.5943   5.8338   6.0217   6.0608   6.3228   6.6810
     6.7155

          k = 0.4000-0.4619 0.0000 ( 44692 PWs)   bands (ev):

    -5.6729  -5.6560  -5.0560  -4.4855  -4.4132  -3.9516  -3.8861  -3.7560
    -3.7145  -3.6300  -3.6065  -3.5132  -3.4976  -3.4263  -3.3939  -3.3743
    -3.3569  -3.3323  -3.3194  -3.3143  -3.2617  -3.1723  -3.1660  -3.1350
    -3.1129  -3.0525  -2.9916  -2.9130  -2.9087  -2.8403  -2.7654  -2.7576
    -2.7416  -2.7360  -2.6831  -2.6327  -2.6015  -2.5189  -2.4547  -2.3267
    -2.3064  -2.2895  -2.1905  -2.1554  -2.1204  -2.0950  -1.9998  -1.9451
    -1.9246  -1.9046  -1.8767  -1.8480  -1.8223  -1.8017  -1.7185  -1.7080
    -1.6889  -1.6765  -1.6720  -1.6636  -1.6131  -1.6045  -1.5671  -1.4689
    -1.4399  -1.3945  -1.3584  -1.2897  -1.2691  -1.2304  -1.2172  -1.1752
    -1.1547  -1.1460  -1.0888  -1.0562  -1.0426  -1.0335  -1.0014  -0.9793
    -0.9355  -0.9186  -0.8473  -0.8238  -0.8175  -0.7976  -0.7423  -0.6654
    -0.6469  -0.6141  -0.6060  -0.5950  -0.5497  -0.5433  -0.5314  -0.5099
    -0.5050  -0.4687  -0.4552  -0.4422  -0.4270  -0.4036  -0.3843  -0.3808
    -0.3705  -0.3638  -0.3251  -0.2904  -0.2795  -0.2289  -0.0668  -0.0064
     0.0265   0.0443   0.1359   0.1507   0.1618   0.1804   0.2085   0.2386
     0.2476   0.2625   0.3074   0.3546   0.3782   0.4017   0.4478   0.4563
     0.5074   0.5415   0.5854   0.6721   0.7413   0.7845   0.7940   0.8121
     0.8277   0.8798   0.9095   0.9347   0.9492   0.9566   0.9866   0.9965
     1.0384   1.0995   1.1198   1.1665   1.1807   1.2021   1.2081   1.2296
     1.2460   1.3576   1.3875   1.4537   1.4989   1.5639   1.6178   1.6426
     1.6617   1.7319   1.7734   1.7805   1.8229   1.8831   1.9389   1.9564
     1.9854   2.0042   2.0082   2.0230   2.0514   2.0818   2.1522   2.1662
     2.1736   2.2038   2.2163   2.2224   2.2297   2.2924   2.3987   2.4166
     2.4303   2.4367   2.4500   2.5065   2.5299   2.6335   2.7612   3.3518
     3.6059   3.6093   3.8011   3.8471   3.9873   3.9936   4.0104   4.2634
     4.6012   4.6211   4.8389   5.0643   5.0915   5.1948   5.2114   5.2716
     5.4031   5.5171   5.6001   5.8318   6.0226   6.0615   6.3228   6.6834
     6.7169

     the Fermi energy is     2.2048 ev

!    total energy              =  -27755.49637762 Ry
     total all-electron energy =  -1326642.261794 Ry
     estimated scf accuracy    <       0.00000086 Ry
     smearing contrib. (-TS)   =       0.00290030 Ry
     internal energy E=F+TS    =  -27755.49927792 Ry

     The total energy is F=E-TS. E is the sum of the following terms:
     one-electron contribution =  -22802.21642821 Ry
     hartree contribution      =   11703.99496909 Ry
     xc contribution           =    -890.77357639 Ry
     ewald contribution        =    9707.49404292 Ry
     one-center paw contrib.   =  -25473.99828533 Ry

     convergence has been achieved in  17 iterations

     negative rho (up, down):  3.398E-03 0.000E+00

     Forces acting on atoms (cartesian axes, Ry/au):

     atom    1 type  1   force =     0.00213033    0.00210598   -0.00584909
     atom    2 type  1   force =     0.00074524    0.00290736   -0.00443827
     atom    3 type  1   force =    -0.00159620    0.00439412   -0.00820353
     atom    4 type  1   force =     0.00217101   -0.00019798   -0.00486955
     atom    5 type  1   force =     0.00031167    0.00007943   -0.00330559
     atom    6 type  1   force =    -0.00227895    0.00071702   -0.00389194
     atom    7 type  1   force =     0.00146075   -0.00225613   -0.00471127
     atom    8 type  1   force =    -0.00043681   -0.00169409   -0.00375186
     atom    9 type  1   force =    -0.00203857   -0.00074742   -0.00391068
     atom   10 type  1   force =     0.00303307    0.00135959    0.00732038
     atom   11 type  1   force =     0.00229879    0.00060468   -0.00068182
     atom   12 type  1   force =    -0.00398555    0.00157604    0.00076740
     atom   13 type  1   force =     0.00083848   -0.00143300    0.00849128
     atom   14 type  1   force =    -0.00004866   -0.00117724    0.00240492
     atom   15 type  1   force =    -0.00100328    0.00037049    0.00942207
     atom   16 type  1   force =     0.00184798   -0.00465799    0.00446956
     atom   17 type  1   force =    -0.00030349   -0.00374534    0.00403321
     atom   18 type  1   force =    -0.00312338   -0.00191198    0.00367109
     atom   19 type  1   force =     0.00005693   -0.00000372    0.00004506
     atom   20 type  1   force =    -0.00005626   -0.00001651    0.00005184
     atom   21 type  1   force =     0.00000491   -0.00001322   -0.00004327
     atom   22 type  1   force =    -0.00001719   -0.00003243   -0.00004276
     atom   23 type  1   force =    -0.00002941   -0.00010857    0.00005121
     atom   24 type  1   force =     0.00004188   -0.00010816    0.00006332
     atom   25 type  1   force =     0.00001765   -0.00004877   -0.00001810
     atom   26 type  1   force =     0.00000590   -0.00004665   -0.00009541
     atom   27 type  1   force =    -0.00002563   -0.00004918    0.00000330
     atom   28 type  1   force =     0.00009992   -0.00019807    0.00000466
     atom   29 type  1   force =    -0.00011595   -0.00019879   -0.00000722
     atom   30 type  1   force =     0.00000227   -0.00009407   -0.00000757
     atom   31 type  1   force =    -0.00001466   -0.00018936    0.00006948
     atom   32 type  1   force =    -0.00002285   -0.00026950    0.00014185
     atom   33 type  1   force =     0.00002097   -0.00026428    0.00013112
     atom   34 type  1   force =    -0.00009237   -0.00027022    0.00010589
     atom   35 type  1   force =    -0.00000147    0.00002430    0.00002412
     atom   36 type  1   force =     0.00008615   -0.00027541    0.00009151
     atom   37 type  2   force =     0.00001677    0.00586905    0.00246465
     The non-local contrib.  to forces
     atom    1 type  1   force =     0.00225799    0.00097268   -0.01675436
     atom    2 type  1   force =     0.00055358    0.00155683   -0.01734329
     atom    3 type  1   force =    -0.00086634    0.00085776   -0.01446102
     atom    4 type  1   force =     0.00193662   -0.00096487   -0.01821443
     atom    5 type  1   force =     0.00015980    0.00011108   -0.01813519
     atom    6 type  1   force =    -0.00172011    0.00032132   -0.01723932
     atom    7 type  1   force =     0.00191807   -0.00128397   -0.01710880
     atom    8 type  1   force =    -0.00056934   -0.00157171   -0.01793066
     atom    9 type  1   force =    -0.00234417   -0.00047797   -0.01679492
     atom   10 type  1   force =     0.00180231   -0.00060502    0.00088691
     atom   11 type  1   force =    -0.00135706    0.00118962    0.00019857
     atom   12 type  1   force =     0.00085414    0.00161958    0.00063243
     atom   13 type  1   force =     0.00145221   -0.00113940    0.00212984
     atom   14 type  1   force =     0.00008418   -0.00051214   -0.00004411
     atom   15 type  1   force =    -0.00172950   -0.00058219    0.00264298
     atom   16 type  1   force =     0.00163178   -0.00313858    0.00029702
     atom   17 type  1   force =    -0.00115925   -0.00303550    0.00033727
     atom   18 type  1   force =    -0.00200317   -0.00480126    0.00107317
     atom   19 type  1   force =    -0.00785867   -0.00600048    0.00012357
     atom   20 type  1   force =     0.00768136   -0.00585051    0.00058578
     atom   21 type  1   force =     0.00007008   -0.00005257    0.00342922
     atom   22 type  1   force =     0.00002654    0.01520115   -0.00830218
     atom   23 type  1   force =     0.00182242    0.00091149    0.00197208
     atom   24 type  1   force =    -0.00189291    0.00074929    0.00232255
     atom   25 type  1   force =     0.00089201    0.00007540    0.00325975
     atom   26 type  1   force =    -0.00020795   -0.00262402    0.00004774
     atom   27 type  1   force =    -0.00083206    0.00005724    0.00410392
     atom   28 type  1   force =     0.00919425    0.01005757    0.02222937
     atom   29 type  1   force =    -0.00932741    0.00994801    0.02204967
     atom   30 type  1   force =     0.00008744    0.00088592    0.01569878
     atom   31 type  1   force =    -0.00017580    0.01347727   -0.12709035
     atom   32 type  1   force =    -0.00579538    0.00020285    0.01868997
     atom   33 type  1   force =     0.00559133    0.00020120    0.01879612
     atom   34 type  1   force =    -0.00077504   -0.00297831    0.01728725
     atom   35 type  1   force =    -0.00008332    0.00181316    0.01550928
     atom   36 type  1   force =     0.00068921   -0.00309279    0.01723943
     atom   37 type  2   force =    -0.00001863    0.01070669   -0.04075880
     The ionic contribution  to forces
     atom    1 type  1   force =     0.13690097    0.08504884  -96.28418375
     atom    2 type  1   force =     0.01686654    0.14828294  -96.22292059
     atom    3 type  1   force =    -0.13335254    0.21515366  -96.23594560
     atom    4 type  1   force =     0.13165639   -0.04777972  -96.20116030
     atom    5 type  1   force =     0.00244946    0.00826720  -96.15983685
     atom    6 type  1   force =    -0.12711353    0.08629004  -96.17118408
     atom    7 type  1   force =     0.11267591   -0.23406400  -96.22142183
     atom    8 type  1   force =     0.00524017   -0.16279044  -96.18100882
     atom    9 type  1   force =    -0.13329501   -0.09198103  -96.17168686
     atom   10 type  1   force =     0.13988439    0.13690359  -32.44369712
     atom   11 type  1   force =    -0.05544445    0.16716423  -32.48616480
     atom   12 type  1   force =    -0.06478326    0.22390588  -32.40803709
     atom   13 type  1   force =     0.03023557   -0.07000915  -32.41658109
     atom   14 type  1   force =    -0.01410597   -0.02337946  -32.56034795
     atom   15 type  1   force =    -0.02055930    0.06036417  -32.36261085
     atom   16 type  1   force =     0.10055686   -0.22559576  -32.46161379
     atom   17 type  1   force =     0.00646620   -0.14954249  -32.48538749
     atom   18 type  1   force =    -0.12815867   -0.23843624  -32.27872373
     atom   19 type  1   force =     0.09042016    0.08345738   32.24408555
     atom   20 type  1   force =    -0.07402424    0.06183437   32.13308304
     atom   21 type  1   force =    -0.01815519   -0.01327866   31.66324402
     atom   22 type  1   force =    -0.00805027   -0.01473183   32.69312898
     atom   23 type  1   force =    -0.03434851   -0.05058370   31.73538900
     atom   24 type  1   force =     0.04118653   -0.02556260   31.71263266
     atom   25 type  1   force =    -0.08474722   -0.03220405   31.83599173
     atom   26 type  1   force =     0.02804088    0.00989377   31.86250207
     atom   27 type  1   force =     0.05835650   -0.02953219   31.70120326
     atom   28 type  1   force =    -0.08935378   -0.27361559   95.09089441
     atom   29 type  1   force =     0.09766230   -0.27421949   95.03431048
     atom   30 type  1   force =    -0.00802881    0.02516368   95.47332564
     atom   31 type  1   force =     0.00437046    0.57997370   95.27450142
     atom   32 type  1   force =     0.25108649    0.06450042   95.14756526
     atom   33 type  1   force =    -0.25952020    0.07293392   95.17076978
     atom   34 type  1   force =     0.11584339    0.12598173   95.41045750
     atom   35 type  1   force =     0.00459463    0.00689566   95.46178357
     atom   36 type  1   force =    -0.12250957    0.13299385   95.38234290
     atom   37 type  2   force =     0.00105675   -0.33770266   12.72530134
     The local contribution  to forces
     atom    1 type  1   force =    -0.13650750   -0.08361465   96.27698883
     atom    2 type  1   force =    -0.01669038   -0.14663856   96.21786026
     atom    3 type  1   force =     0.13222051   -0.21095596   96.22383642
     atom    4 type  1   force =    -0.13117262    0.04832089   96.19652351
     atom    5 type  1   force =    -0.00226292   -0.00828807   96.15683699
     atom    6 type  1   force =     0.12630197   -0.08557202   96.16669990
     atom    7 type  1   force =    -0.11285746    0.23254636   96.21590492
     atom    8 type  1   force =    -0.00494201    0.16233964   96.17744260
     atom    9 type  1   force =     0.13305909    0.09147761   96.16678205
     atom   10 type  1   force =    -0.13825859   -0.13470974   32.44841068
     atom   11 type  1   force =     0.05905289   -0.16749541   32.48340342
     atom   12 type  1   force =     0.05970538   -0.22340814   32.40651270
     atom   13 type  1   force =    -0.03076824    0.06961003   32.42143405
     atom   14 type  1   force =     0.01409430    0.02285973   32.56078479
     atom   15 type  1   force =     0.02104884   -0.05910952   32.36794854
     atom   16 type  1   force =    -0.09983275    0.22345838   32.46400519
     atom   17 type  1   force =    -0.00573779    0.14827537   32.48715023
     atom   18 type  1   force =     0.12651030    0.24050392   32.28020340
     atom   19 type  1   force =    -0.08196368   -0.07727782  -32.24184233
     atom   20 type  1   force =     0.06572570   -0.05587873  -32.13128003
     atom   21 type  1   force =     0.01811686    0.01318934  -31.66505217
     atom   22 type  1   force =     0.00794527   -0.00081972  -32.68311967
     atom   23 type  1   force =     0.03259183    0.04962215  -31.73570162
     atom   24 type  1   force =    -0.03928472    0.02477289  -31.71333088
     atom   25 type  1   force =     0.08368854    0.03194894  -31.83760327
     atom   26 type  1   force =    -0.02777901   -0.00748673  -31.86105338
     atom   27 type  1   force =    -0.05740426    0.02921934  -31.70367885
     atom   28 type  1   force =     0.08056031    0.26299885  -95.09605913
     atom   29 type  1   force =    -0.08875349    0.26372272  -95.03933651
     atom   30 type  1   force =     0.00795297   -0.02611561  -95.47157987
     atom   31 type  1   force =    -0.00419057   -0.58744376  -95.14905458
     atom   32 type  1   force =    -0.24533148   -0.06472582  -95.14887961
     atom   33 type  1   force =     0.25393687   -0.07313372  -95.17222435
     atom   34 type  1   force =    -0.11502536   -0.12348539  -95.41013706
     atom   35 type  1   force =    -0.00450760   -0.00850512  -95.45986216
     atom   36 type  1   force =     0.12175295   -0.13039608  -95.38203977
     atom   37 type  2   force =    -0.00102057    0.33286497  -12.68196408
     The core correction contribution to forces
     atom    1 type  1   force =    -0.00041084   -0.00024258    0.01752447
     atom    2 type  1   force =    -0.00002222   -0.00043074    0.01739131
     atom    3 type  1   force =     0.00033045   -0.00067179    0.01780739
     atom    4 type  1   force =    -0.00037996    0.00020047    0.01734089
     atom    5 type  1   force =     0.00000236   -0.00003683    0.01724321
     atom    6 type  1   force =     0.00034416   -0.00019172    0.01724496
     atom    7 type  1   force =    -0.00031430    0.00054839    0.01734914
     atom    8 type  1   force =     0.00003887    0.00037528    0.01722616
     atom    9 type  1   force =     0.00037065    0.00020098    0.01721820
     atom   10 type  1   force =    -0.00039182   -0.00033735    0.00106318
     atom   11 type  1   force =    -0.00001622   -0.00033420    0.00116678
     atom   12 type  1   force =     0.00029579   -0.00050266    0.00095861
     atom   13 type  1   force =    -0.00009283    0.00012500    0.00094076
     atom   14 type  1   force =     0.00000907    0.00003962    0.00141447
     atom   15 type  1   force =     0.00011552   -0.00018829    0.00079250
     atom   16 type  1   force =    -0.00033034    0.00060510    0.00123114
     atom   17 type  1   force =     0.00006493    0.00044659    0.00128332
     atom   18 type  1   force =     0.00041181    0.00077456    0.00045552
     atom   19 type  1   force =    -0.00042940   -0.00006582   -0.00250323
     atom   20 type  1   force =     0.00041717   -0.00004559   -0.00247712
     atom   21 type  1   force =     0.00000483    0.00027603   -0.00186820
     atom   22 type  1   force =     0.00000270    0.00020755   -0.00185146
     atom   23 type  1   force =     0.00003047    0.00006969   -0.00178195
     atom   24 type  1   force =    -0.00003373    0.00006290   -0.00181492
     atom   25 type  1   force =     0.00030901    0.00001495   -0.00185252
     atom   26 type  1   force =    -0.00002536   -0.00003489   -0.00183825
     atom   27 type  1   force =    -0.00029469    0.00002999   -0.00185036
     atom   28 type  1   force =    -0.00030153    0.00018982   -0.01631155
     atom   29 type  1   force =     0.00030432    0.00019452   -0.01626748
     atom   30 type  1   force =    -0.00000950   -0.00009772   -0.01653138
     atom   31 type  1   force =     0.00000004   -0.00606809    0.00206364
     atom   32 type  1   force =     0.00006476   -0.00014094   -0.01644206
     atom   33 type  1   force =    -0.00005275   -0.00013934   -0.01646006
     atom   34 type  1   force =    -0.00007562    0.00022917   -0.01673937
     atom   35 type  1   force =     0.00000570   -0.00017086   -0.01668532
     atom   36 type  1   force =     0.00008112    0.00023634   -0.01671482
     atom   37 type  2   force =     0.00000000    0.00000000    0.00000000
     The Hubbard contrib.    to forces
     atom    1 type  1   force =     0.00000000    0.00000000    0.00000000
     atom    2 type  1   force =     0.00000000    0.00000000    0.00000000
     atom    3 type  1   force =     0.00000000    0.00000000    0.00000000
     atom    4 type  1   force =     0.00000000    0.00000000    0.00000000
     atom    5 type  1   force =     0.00000000    0.00000000    0.00000000
     atom    6 type  1   force =     0.00000000    0.00000000    0.00000000
     atom    7 type  1   force =     0.00000000    0.00000000    0.00000000
     atom    8 type  1   force =     0.00000000    0.00000000    0.00000000
     atom    9 type  1   force =     0.00000000    0.00000000    0.00000000
     atom   10 type  1   force =     0.00000000    0.00000000    0.00000000
     atom   11 type  1   force =     0.00000000    0.00000000    0.00000000
     atom   12 type  1   force =     0.00000000    0.00000000    0.00000000
     atom   13 type  1   force =     0.00000000    0.00000000    0.00000000
     atom   14 type  1   force =     0.00000000    0.00000000    0.00000000
     atom   15 type  1   force =     0.00000000    0.00000000    0.00000000
     atom   16 type  1   force =     0.00000000    0.00000000    0.00000000
     atom   17 type  1   force =     0.00000000    0.00000000    0.00000000
     atom   18 type  1   force =     0.00000000    0.00000000    0.00000000
     atom   19 type  1   force =     0.00000000    0.00000000    0.00000000
     atom   20 type  1   force =     0.00000000    0.00000000    0.00000000
     atom   21 type  1   force =     0.00000000    0.00000000    0.00000000
     atom   22 type  1   force =     0.00000000    0.00000000    0.00000000
     atom   23 type  1   force =     0.00000000    0.00000000    0.00000000
     atom   24 type  1   force =     0.00000000    0.00000000    0.00000000
     atom   25 type  1   force =     0.00000000    0.00000000    0.00000000
     atom   26 type  1   force =     0.00000000    0.00000000    0.00000000
     atom   27 type  1   force =     0.00000000    0.00000000    0.00000000
     atom   28 type  1   force =     0.00000000    0.00000000    0.00000000
     atom   29 type  1   force =     0.00000000    0.00000000    0.00000000
     atom   30 type  1   force =     0.00000000    0.00000000    0.00000000
     atom   31 type  1   force =     0.00000000    0.00000000    0.00000000
     atom   32 type  1   force =     0.00000000    0.00000000    0.00000000
     atom   33 type  1   force =     0.00000000    0.00000000    0.00000000
     atom   34 type  1   force =     0.00000000    0.00000000    0.00000000
     atom   35 type  1   force =     0.00000000    0.00000000    0.00000000
     atom   36 type  1   force =     0.00000000    0.00000000    0.00000000
     atom   37 type  2   force =     0.00000000    0.00000000    0.00000000
     The SCF correction term to forces
     atom    1 type  1   force =    -0.00000000   -0.00000000    0.00000000
     atom    2 type  1   force =     0.00000000    0.00000000    0.00000000
     atom    3 type  1   force =     0.00000000    0.00000000    0.00000000
     atom    4 type  1   force =     0.00000000    0.00000000    0.00000000
     atom    5 type  1   force =    -0.00000000    0.00000000    0.00000000
     atom    6 type  1   force =    -0.00000000   -0.00000000    0.00000000
     atom    7 type  1   force =     0.00000000   -0.00000000    0.00000000
     atom    8 type  1   force =    -0.00000000   -0.00000000    0.00000000
     atom    9 type  1   force =     0.00000000    0.00000000    0.00000000
     atom   10 type  1   force =    -0.00000000    0.00000000    0.00000000
     atom   11 type  1   force =     0.00000000    0.00000000    0.00000000
     atom   12 type  1   force =    -0.00000000   -0.00000000    0.00000000
     atom   13 type  1   force =     0.00000000   -0.00000000    0.00000000
     atom   14 type  1   force =    -0.00000000   -0.00000000    0.00000000
     atom   15 type  1   force =     0.00000000   -0.00000000    0.00000000
     atom   16 type  1   force =    -0.00000000    0.00000000    0.00000000
     atom   17 type  1   force =     0.00000000    0.00000000    0.00000000
     atom   18 type  1   force =     0.00000000    0.00000000    0.00000000
     atom   19 type  1   force =    -0.00011219   -0.00011712    0.00024215
     atom   20 type  1   force =     0.00014304   -0.00007620    0.00020080
     atom   21 type  1   force =    -0.00003238   -0.00014751    0.00026449
     atom   22 type  1   force =     0.00005787    0.00011027    0.00016222
     atom   23 type  1   force =    -0.00012633   -0.00012834    0.00023433
     atom   24 type  1   force =     0.00006601   -0.00013080    0.00031455
     atom   25 type  1   force =    -0.00012540    0.00011584    0.00024685
     atom   26 type  1   force =    -0.00002337    0.00020506    0.00030705
     atom   27 type  1   force =     0.00014817    0.00017629    0.00028598
     atom   28 type  1   force =    -0.00000004    0.00017113   -0.00068780
     atom   29 type  1   force =    -0.00000238    0.00015530   -0.00070274
     atom   30 type  1   force =    -0.00000055    0.00006952   -0.00086012
     atom   31 type  1   force =    -0.00001950   -0.00012863   -0.00029002
     atom   32 type  1   force =    -0.00004795   -0.00010616   -0.00073107
     atom   33 type  1   force =     0.00006501   -0.00012650   -0.00068974
     atom   34 type  1   force =    -0.00006045   -0.00001757   -0.00070179
     atom   35 type  1   force =    -0.00001158   -0.00000868   -0.00066061
     atom   36 type  1   force =     0.00007173   -0.00001687   -0.00067559
     atom   37 type  2   force =    -0.00000149   -0.00000010   -0.00005318

     Total force =     0.006411     Total SCF correction =     0.002272
     SCF correction compared to forces is large: reduce conv_thr to get better values

     Writing all to output data dir ./pwscf.save/

     init_run     :     16.23s CPU     16.58s WALL (       1 calls)
     electrons    :    363.91s CPU    374.83s WALL (       1 calls)
     forces       :      9.87s CPU     10.53s WALL (       1 calls)

     Called by init_run:
     wfcinit      :      5.77s CPU      5.94s WALL (       1 calls)
     potinit      :      8.99s CPU      9.12s WALL (       1 calls)
     hinit0       :      0.86s CPU      0.87s WALL (       1 calls)

     Called by electrons:
     c_bands      :    302.51s CPU    309.78s WALL (      18 calls)
     sum_band     :     41.47s CPU     42.76s WALL (      18 calls)
     v_of_rho     :     14.25s CPU     15.64s WALL (      18 calls)
     newd         :      5.67s CPU      6.35s WALL (      18 calls)
     PAW_pot      :      3.83s CPU      3.90s WALL (      18 calls)
     mix_rho      :      4.08s CPU      4.20s WALL (      18 calls)
     vdW_kernel   :      7.56s CPU      7.62s WALL (       1 calls)

     Called by c_bands:
     init_us_2    :      2.60s CPU      2.65s WALL (     494 calls)
     init_us_2:cp :      2.60s CPU      2.64s WALL (     494 calls)
     cegterg      :    293.76s CPU    300.54s WALL (     234 calls)

     Called by *egterg:
     cdiaghg      :     65.95s CPU     66.64s WALL (    1147 calls)
     h_psi        :    143.26s CPU    147.44s WALL (    1173 calls)
     s_psi        :     14.07s CPU     14.37s WALL (    1173 calls)
     g_psi        :      0.45s CPU      0.53s WALL (     926 calls)

     Called by h_psi:
     h_psi:calbec :     19.10s CPU     19.60s WALL (    1173 calls)
     vloc_psi     :    109.01s CPU    112.26s WALL (    1173 calls)
     add_vuspsi   :     14.01s CPU     14.42s WALL (    1173 calls)

     General routines
     calbec       :     34.45s CPU     35.17s WALL (    1459 calls)
     fft          :      5.59s CPU      6.93s WALL (    1194 calls)
     ffts         :      2.63s CPU      2.71s WALL (    4738 calls)
     fftw         :    118.12s CPU    121.16s WALL (  305836 calls)
     interpolate  :      0.77s CPU      0.79s WALL (      18 calls)

     Parallel routines

     PWSCF        :   6m31.75s CPU   6m46.81s WALL


   This run was terminated on:   9:27:23  27Jan2025            

=------------------------------------------------------------------------------=
   JOB DONE.
=------------------------------------------------------------------------------=
