  37  37   0   0
  0.4190497E+02  0.8468310E-09  0.8468310E-09  0.2496566E-08  0.5000000E-15
  1.000000000000000E-004
  CAR 
 unknown system                          
      8.62157703     -9.90178946  301     -0.07469255      1.00000000
     -9.902  0.0000E+00  0.0000E+00
     -9.840  0.0000E+00  0.0000E+00
     -9.778  0.0000E+00  0.0000E+00
     -9.717 -0.4401E-28 -0.2717E-29
     -9.655 -0.6507E-24 -0.4018E-25
     -9.593 -0.4458E-20 -0.2753E-21
     -9.531 -0.1413E-16 -0.8728E-18
     -9.470 -0.2005E-13 -0.1239E-14
     -9.408 -0.1343E-10 -0.8304E-12
     -9.346 -0.4112E-08 -0.2547E-09
     -9.284 -0.5714E-06 -0.3553E-07
     -9.223 -0.3549E-04 -0.2227E-05
     -9.161 -0.9557E-03 -0.6123E-04
     -9.099 -0.1034E-01 -0.6996E-03
     -9.037 -0.3355E-01 -0.2771E-02
     -8.976  0.5137E-01  0.4008E-03
     -8.914  0.3301E+00  0.2078E-01
     -8.852  0.6090E+00  0.5838E-01
     -8.790  0.2053E+01  0.1852E+00
     -8.729  0.3811E+01  0.4205E+00
     -8.667  0.2246E+01  0.5592E+00
     -8.605 -0.2334E-01  0.5577E+00
     -8.543  0.2024E+00  0.5702E+00
     -8.482  0.2584E+01  0.7298E+00
     -8.420  0.3819E+01  0.9656E+00
     -8.358  0.3581E+01  0.1187E+01
     -8.296  0.3738E+01  0.1418E+01
     -8.235  0.1828E+01  0.1530E+01
     -8.173 -0.2388E-01  0.1529E+01
     -8.111 -0.3788E+00  0.1506E+01
     -8.049 -0.7282E-01  0.1501E+01
     -7.988  0.2525E+01  0.1657E+01
     -7.926  0.6367E+01  0.2050E+01
     -7.864  0.5599E+01  0.2396E+01
     -7.802  0.2080E+01  0.2524E+01
     -7.741  0.3355E+01  0.2731E+01
     -7.679  0.7159E+01  0.3173E+01
     -7.617  0.5118E+01  0.3489E+01
     -7.555  0.2040E+01  0.3615E+01
     -7.494  0.2998E+01  0.3801E+01
     -7.432  0.4501E+01  0.4078E+01
     -7.370  0.6875E+01  0.4503E+01
     -7.309  0.5919E+01  0.4868E+01
     -7.247  0.5405E+01  0.5202E+01
     -7.185  0.1005E+02  0.5823E+01
     -7.123  0.9103E+01  0.6385E+01
     -7.062  0.5038E+01  0.6696E+01
     -7.000  0.3288E+01  0.6899E+01
     -6.938  0.3004E+01  0.7085E+01
     -6.876  0.6311E+01  0.7474E+01
     -6.815  0.9013E+01  0.8031E+01
     -6.753  0.5798E+01  0.8389E+01
     -6.691  0.3120E+01  0.8581E+01
     -6.629  0.6714E+01  0.8996E+01
     -6.568  0.1375E+02  0.9845E+01
     -6.506  0.1500E+02  0.1077E+02
     -6.444  0.1201E+02  0.1151E+02
     -6.382  0.1099E+02  0.1219E+02
     -6.321  0.8273E+01  0.1270E+02
     -6.259  0.9069E+01  0.1326E+02
     -6.197  0.1802E+02  0.1438E+02
     -6.135  0.3118E+02  0.1630E+02
     -6.074  0.3731E+02  0.1860E+02
     -6.012  0.3179E+02  0.2057E+02
     -5.950  0.2934E+02  0.2238E+02
     -5.888  0.3228E+02  0.2437E+02
     -5.827  0.3627E+02  0.2661E+02
     -5.765  0.3119E+02  0.2854E+02
     -5.703  0.2607E+02  0.3015E+02
     -5.641  0.3240E+02  0.3215E+02
     -5.580  0.3954E+02  0.3459E+02
     -5.518  0.4238E+02  0.3720E+02
     -5.456  0.5065E+02  0.4033E+02
     -5.394  0.6303E+02  0.4422E+02
     -5.333  0.6425E+02  0.4819E+02
     -5.271  0.5521E+02  0.5160E+02
     -5.209  0.4605E+02  0.5444E+02
     -5.147  0.4223E+02  0.5705E+02
     -5.086  0.4965E+02  0.6012E+02
     -5.024  0.6931E+02  0.6440E+02
     -4.962  0.6349E+02  0.6832E+02
     -4.900  0.3306E+02  0.7036E+02
     -4.839  0.2331E+02  0.7180E+02
     -4.777  0.3862E+02  0.7418E+02
     -4.715  0.4022E+02  0.7666E+02
     -4.654  0.2400E+02  0.7815E+02
     -4.592  0.2414E+02  0.7964E+02
     -4.530  0.4077E+02  0.8215E+02
     -4.468  0.5658E+02  0.8565E+02
     -4.407  0.6235E+02  0.8950E+02
     -4.345  0.5448E+02  0.9286E+02
     -4.283  0.4432E+02  0.9560E+02
     -4.221  0.3888E+02  0.9800E+02
     -4.160  0.4585E+02  0.1008E+03
     -4.098  0.6145E+02  0.1046E+03
     -4.036  0.6009E+02  0.1083E+03
     -3.974  0.4954E+02  0.1114E+03
     -3.913  0.4494E+02  0.1142E+03
     -3.851  0.4200E+02  0.1168E+03
     -3.789  0.3672E+02  0.1190E+03
     -3.727  0.4222E+02  0.1216E+03
     -3.666  0.5995E+02  0.1253E+03
     -3.604  0.6221E+02  0.1292E+03
     -3.542  0.5468E+02  0.1326E+03
     -3.480  0.5581E+02  0.1360E+03
     -3.419  0.6821E+02  0.1402E+03
     -3.357  0.7659E+02  0.1449E+03
     -3.295  0.7142E+02  0.1494E+03
     -3.233  0.6489E+02  0.1534E+03
     -3.172  0.7134E+02  0.1578E+03
     -3.110  0.8751E+02  0.1632E+03
     -3.048  0.8573E+02  0.1685E+03
     -2.986  0.7818E+02  0.1733E+03
     -2.925  0.7938E+02  0.1782E+03
     -2.863  0.7508E+02  0.1828E+03
     -2.801  0.8447E+02  0.1880E+03
     -2.739  0.1029E+03  0.1944E+03
     -2.678  0.1037E+03  0.2008E+03
     -2.616  0.8362E+02  0.2060E+03
     -2.554  0.6257E+02  0.2098E+03
     -2.492  0.6302E+02  0.2137E+03
     -2.431  0.6126E+02  0.2175E+03
     -2.369  0.4431E+02  0.2202E+03
     -2.307  0.2924E+02  0.2220E+03
     -2.245  0.2407E+02  0.2235E+03
     -2.184  0.3000E+02  0.2254E+03
     -2.122  0.4408E+02  0.2281E+03
     -2.060  0.6451E+02  0.2321E+03
     -1.998  0.8702E+02  0.2375E+03
     -1.937  0.9257E+02  0.2432E+03
     -1.875  0.8129E+02  0.2482E+03
     -1.813  0.6103E+02  0.2520E+03
     -1.752  0.4375E+02  0.2547E+03
     -1.690  0.4162E+02  0.2572E+03
     -1.628  0.4804E+02  0.2602E+03
     -1.566  0.5786E+02  0.2638E+03
     -1.505  0.5788E+02  0.2673E+03
     -1.443  0.5215E+02  0.2706E+03
     -1.381  0.5818E+02  0.2742E+03
     -1.319  0.6102E+02  0.2779E+03
     -1.258  0.5136E+02  0.2811E+03
     -1.196  0.5457E+02  0.2845E+03
     -1.134  0.7433E+02  0.2891E+03
     -1.072  0.8543E+02  0.2943E+03
     -1.011  0.8550E+02  0.2996E+03
     -0.949  0.7122E+02  0.3040E+03
     -0.887  0.5734E+02  0.3075E+03
     -0.825  0.5676E+02  0.3110E+03
     -0.764  0.5164E+02  0.3142E+03
     -0.702  0.4286E+02  0.3169E+03
     -0.640  0.5086E+02  0.3200E+03
     -0.578  0.6272E+02  0.3239E+03
     -0.517  0.5996E+02  0.3276E+03
     -0.455  0.5910E+02  0.3312E+03
     -0.393  0.6937E+02  0.3355E+03
     -0.331  0.8892E+02  0.3410E+03
     -0.270  0.9535E+02  0.3469E+03
     -0.208  0.7126E+02  0.3513E+03
     -0.146  0.5593E+02  0.3548E+03
     -0.084  0.8504E+02  0.3600E+03
     -0.023  0.9641E+02  0.3660E+03
      0.039  0.5572E+02  0.3694E+03
      0.101  0.3256E+02  0.3714E+03
      0.163  0.5139E+02  0.3746E+03
      0.224  0.5603E+02  0.3780E+03
      0.286  0.4371E+02  0.3807E+03
      0.348  0.3875E+02  0.3831E+03
      0.410  0.2733E+02  0.3848E+03
      0.471  0.1276E+02  0.3856E+03
      0.533  0.3486E+01  0.3858E+03
      0.595  0.1140E+01  0.3859E+03
      0.657  0.4622E+01  0.3862E+03
      0.718  0.1190E+02  0.3869E+03
      0.780  0.1709E+02  0.3880E+03
      0.842  0.1253E+02  0.3887E+03
      0.904  0.7595E+01  0.3892E+03
      0.965  0.1051E+02  0.3899E+03
      1.027  0.9845E+01  0.3905E+03
      1.089  0.2495E+01  0.3906E+03
      1.150  0.1571E+01  0.3907E+03
      1.212  0.1010E+02  0.3913E+03
      1.274  0.1527E+02  0.3923E+03
      1.336  0.1337E+02  0.3931E+03
      1.397  0.1080E+02  0.3938E+03
      1.459  0.1463E+02  0.3947E+03
      1.521  0.2621E+02  0.3963E+03
      1.583  0.2621E+02  0.3979E+03
      1.644  0.1805E+02  0.3990E+03
      1.706  0.1528E+02  0.4000E+03
      1.768  0.1039E+02  0.4006E+03
      1.830  0.2567E+01  0.4008E+03
      1.891  0.1611E+01  0.4009E+03
      1.953  0.3982E+01  0.4011E+03
      2.015  0.5942E+01  0.4015E+03
      2.077  0.6549E+01  0.4019E+03
      2.138  0.5371E+01  0.4022E+03
      2.200  0.8716E+01  0.4028E+03
      2.262  0.1145E+02  0.4035E+03
      2.324  0.1069E+02  0.4041E+03
      2.385  0.1441E+02  0.4050E+03
      2.447  0.2113E+02  0.4063E+03
      2.509  0.2090E+02  0.4076E+03
      2.571  0.1188E+02  0.4084E+03
      2.632  0.6552E+01  0.4088E+03
      2.694  0.6389E+01  0.4092E+03
      2.756  0.1043E+02  0.4098E+03
      2.818  0.1871E+02  0.4110E+03
      2.879  0.1933E+02  0.4121E+03
      2.941  0.1307E+02  0.4130E+03
      3.003  0.8035E+01  0.4134E+03
      3.065  0.1106E+02  0.4141E+03
      3.126  0.1413E+02  0.4150E+03
      3.188  0.1117E+02  0.4157E+03
      3.250  0.9921E+01  0.4163E+03
      3.312  0.8399E+01  0.4168E+03
      3.373  0.3294E+01  0.4170E+03
      3.435 -0.1315E+00  0.4170E+03
      3.497  0.2880E+01  0.4172E+03
      3.559  0.1156E+02  0.4179E+03
      3.620  0.2098E+02  0.4192E+03
      3.682  0.2583E+02  0.4208E+03
      3.744  0.2159E+02  0.4221E+03
      3.806  0.1170E+02  0.4229E+03
      3.867  0.4942E+01  0.4232E+03
      3.929  0.3230E+01  0.4234E+03
      3.991  0.3418E+01  0.4236E+03
      4.052  0.3864E+01  0.4238E+03
      4.114  0.6617E+01  0.4242E+03
      4.176  0.9157E+01  0.4248E+03
      4.238  0.7992E+01  0.4253E+03
      4.299  0.5750E+01  0.4256E+03
      4.361  0.1172E+02  0.4264E+03
      4.423  0.2405E+02  0.4278E+03
      4.485  0.2138E+02  0.4292E+03
      4.546  0.8334E+01  0.4297E+03
      4.608  0.7219E+01  0.4301E+03
      4.670  0.1278E+02  0.4309E+03
      4.732  0.1525E+02  0.4319E+03
      4.793  0.1274E+02  0.4326E+03
      4.855  0.7921E+01  0.4331E+03
      4.917  0.5592E+01  0.4335E+03
      4.979  0.8284E+01  0.4340E+03
      5.040  0.9643E+01  0.4346E+03
      5.102  0.5586E+01  0.4349E+03
      5.164  0.5742E+01  0.4353E+03
      5.226  0.1167E+02  0.4360E+03
      5.287  0.1516E+02  0.4369E+03
      5.349  0.1286E+02  0.4377E+03
      5.411  0.1013E+02  0.4384E+03
      5.473  0.1409E+02  0.4392E+03
      5.534  0.2110E+02  0.4405E+03
      5.596  0.2623E+02  0.4422E+03
      5.658  0.2562E+02  0.4437E+03
      5.720  0.2241E+02  0.4451E+03
      5.781  0.2046E+02  0.4464E+03
      5.843  0.1801E+02  0.4475E+03
      5.905  0.1553E+02  0.4484E+03
      5.967  0.2128E+02  0.4498E+03
      6.028  0.3274E+02  0.4518E+03
      6.090  0.2978E+02  0.4536E+03
      6.152  0.1484E+02  0.4545E+03
      6.214  0.1246E+02  0.4553E+03
      6.275  0.2108E+02  0.4566E+03
      6.337  0.3001E+02  0.4585E+03
      6.399  0.2818E+02  0.4602E+03
      6.461  0.1825E+02  0.4613E+03
      6.522  0.1629E+02  0.4623E+03
      6.584  0.2174E+02  0.4637E+03
      6.646  0.2450E+02  0.4652E+03
      6.707  0.2507E+02  0.4667E+03
      6.769  0.2576E+02  0.4683E+03
      6.831  0.2200E+02  0.4697E+03
      6.893  0.1768E+02  0.4708E+03
      6.954  0.1292E+02  0.4716E+03
      7.016  0.9253E+01  0.4721E+03
      7.078  0.1667E+02  0.4732E+03
      7.140  0.2549E+02  0.4748E+03
      7.201  0.2417E+02  0.4762E+03
      7.263  0.1894E+02  0.4774E+03
      7.325  0.1169E+02  0.4781E+03
      7.387  0.5073E+01  0.4784E+03
      7.448  0.3257E+01  0.4787E+03
      7.510  0.4696E+01  0.4789E+03
      7.572  0.6407E+01  0.4793E+03
      7.634  0.7137E+01  0.4798E+03
      7.695  0.3739E+01  0.4800E+03
      7.757  0.2492E+00  0.4800E+03
      7.819 -0.2989E+00  0.4800E+03
      7.881 -0.7207E-01  0.4800E+03
      7.942 -0.5835E-02  0.4800E+03
      8.004 -0.1966E-03  0.4800E+03
      8.066 -0.2922E-05  0.4800E+03
      8.128 -0.1962E-07  0.4800E+03
      8.189 -0.6022E-10  0.4800E+03
      8.251 -0.8516E-13  0.4800E+03
      8.313  0.0000E+00  0.4800E+03
      8.375  0.0000E+00  0.4800E+03
      8.436  0.0000E+00  0.4800E+03
      8.498  0.0000E+00  0.4800E+03
      8.560  0.0000E+00  0.4800E+03
      8.622  0.0000E+00  0.4800E+03
