   37   37    1    1
  0.4190497E+02  0.8468310E-09  0.8468310E-09  0.2496566E-08  0.5000000E-15
  1.000000000000000E-004
  CAR 
 unknown system                          
    361     13    240
 
  0.1276756E-14  0.1276756E-14  0.1276756E-14  0.4000000E-01
      1         -8.901789   1.000000
      2         -7.807060   1.000000
      3         -7.088694   1.000000
      4         -6.501933   1.000000
      5         -6.471153   1.000000
      6         -6.457616   1.000000
      7         -6.454022   1.000000
      8         -6.438067   1.000000
      9         -6.435239   1.000000
     10         -6.424913   1.000000
     11         -6.134626   1.000000
     12         -5.916297   1.000000
     13         -5.911759   1.000000
     14         -5.908684   1.000000
     15         -5.905713   1.000000
     16         -5.898404   1.000000
     17         -5.823876   1.000000
     18         -5.472226   1.000000
     19         -5.464740   1.000000
     20         -5.452259   1.000000
     21         -5.448156   1.000000
     22         -5.440086   1.000000
     23         -5.349325   1.000000
     24         -5.231810   1.000000
     25         -5.225032   1.000000
     26         -5.224869   1.000000
     27         -5.218943   1.000000
     28         -5.216924   1.000000
     29         -5.122119   1.000000
     30         -5.035301   1.000000
     31         -5.030928   1.000000
     32         -5.024241   1.000000
     33         -5.020096   1.000000
     34         -5.010642   1.000000
     35         -4.970777   1.000000
     36         -4.958520   1.000000
     37         -4.951961   1.000000
     38         -4.948435   1.000000
     39         -4.915664   1.000000
     40         -4.910950   1.000000
     41         -4.584843   1.000000
     42         -4.380477   1.000000
     43         -4.379925   1.000000
     44         -4.349893   1.000000
     45         -4.338396   1.000000
     46         -4.325158   1.000000
     47         -4.315149   1.000000
     48         -4.293363   1.000000
     49         -4.291087   1.000000
     50         -4.287708   1.000000
     51         -4.135221   1.000000
     52         -4.132915   1.000000
     53         -4.067984   1.000000
     54         -4.033665   1.000000
     55         -4.031153   1.000000
     56         -3.585433   1.000000
     57         -3.581055   1.000000
     58         -3.572289   1.000000
     59         -3.561283   1.000000
     60         -3.553991   1.000000
     61         -3.501826   1.000000
     62         -3.476531   1.000000
     63         -3.392321   1.000000
     64         -3.374785   1.000000
     65         -3.371949   1.000000
     66         -3.370942   1.000000
     67         -3.363113   1.000000
     68         -3.357507   1.000000
     69         -3.352303   1.000000
     70         -3.317317   1.000000
     71         -3.308907   1.000000
     72         -3.303933   1.000000
     73         -3.300765   1.000000
     74         -3.298384   1.000000
     75         -3.265834   1.000000
     76         -3.260101   1.000000
     77         -3.253037   1.000000
     78         -3.154190   1.000000
     79         -3.148946   1.000000
     80         -3.146646   1.000000
     81         -3.144735   1.000000
     82         -3.135201   1.000000
     83         -3.133407   1.000000
     84         -2.942477   1.000000
     85         -2.930662   1.000000
     86         -2.927709   1.000000
     87         -2.921335   1.000000
     88         -2.914231   1.000000
     89         -2.903139   1.000000
     90         -2.896641   1.000000
     91         -2.886624   1.000000
     92         -2.838104   1.000000
     93         -2.829689   1.000000
     94         -2.776563   1.000000
     95         -2.767482   1.000000
     96         -2.744493   1.000000
     97         -2.732194   1.000000
     98         -2.711863   1.000000
     99         -2.693598   1.000000
    100         -2.688264   1.000000
    101         -2.629122   1.000000
    102         -2.526092   1.000000
    103         -2.516127   1.000000
    104         -2.514751   1.000000
    105         -2.505650   1.000000
    106         -2.501765   1.000000
    107         -2.493699   1.000000
    108         -2.267552   1.000000
    109         -2.025389   1.000000
    110         -2.004362   1.000000
    111         -1.999272   1.000000
    112         -1.990349   1.000000
    113         -1.985828   1.000000
    114         -1.983577   1.000000
    115         -1.977536   1.000000
    116         -1.973757   1.000000
    117         -1.956861   1.000000
    118         -1.952900   1.000000
    119         -1.945859   1.000000
    120         -1.871203   1.000000
    121         -1.862729   1.000000
    122         -1.807753   1.000000
    123         -1.735980   1.000000
    124         -1.733236   1.000000
    125         -1.722790   1.000000
    126         -1.716647   1.000000
    127         -1.709986   1.000000
    128         -1.599075   1.000000
    129         -1.590296   1.000000
    130         -1.538926   1.000000
    131         -1.536349   1.000000
    132         -1.522242   1.000000
    133         -1.490100   1.000000
    134         -1.294572   1.000000
    135         -1.278388   1.000000
    136         -1.275294   1.000000
    137         -1.254940   1.000000
    138         -1.250011   1.000000
    139         -1.247864   1.000000
    140         -1.185509   1.000000
    141         -1.175690   1.000000
    142         -1.051019   1.000000
    143         -1.047464   1.000000
    144         -1.029108   1.000000
    145         -1.026446   1.000000
    146         -1.022220   1.000000
    147         -1.020585   1.000000
    148         -0.908696   1.000000
    149         -0.885119   1.000000
    150         -0.865870   1.000000
    151         -0.844809   1.000000
    152         -0.830585   1.000000
    153         -0.826087   1.000000
    154         -0.821031   1.000000
    155         -0.816952   1.000000
    156         -0.807438   1.000000
    157         -0.805125   1.000000
    158         -0.800195   1.000000
    159         -0.795359   1.000000
    160         -0.733354   1.000000
    161         -0.722702   1.000000
    162         -0.696846   1.000000
    163         -0.681805   1.000000
    164         -0.666306   1.000000
    165         -0.656629   1.000000
    166         -0.645061   1.000000
    167         -0.642994   1.000000
    168         -0.604494   1.000000
    169         -0.591773   1.000000
    170         -0.584485   1.000000
    171         -0.556847   1.000000
    172         -0.551348   1.000000
    173         -0.544722   1.000000
    174         -0.537814   1.000000
    175         -0.534714   1.000000
    176         -0.457041   1.000000
    177         -0.447221   1.000001
    178         -0.442645   1.000001
    179         -0.439245   1.000002
    180         -0.431011   1.000003
    181         -0.428936   1.000003
    182         -0.384875   1.000052
    183         -0.346244   1.000419
    184         -0.337019   1.000656
    185         -0.322900   1.001254
    186         -0.319950   1.001428
    187         -0.311072   1.002082
    188         -0.305353   1.002629
    189         -0.117174   0.826054
    190         -0.105872   0.750180
    191         -0.018766   0.099105
    192         -0.014934   0.081070
    193         -0.010561   0.062305
    194          0.005815   0.008664
    195          0.008305   0.002675
    196          0.011232  -0.003690
    197          0.539292  -0.000000
    198          0.820452  -0.000000
    199          0.843555  -0.000000
    200          0.871369  -0.000000
    201          0.891371  -0.000000
    202          0.901575  -0.000000
    203          0.903109  -0.000000
    204          2.860622   0.000000
    205          3.125275   0.000000
    206          3.156020   0.000000
    207          3.199720   0.000000
    208          3.217014   0.000000
    209          3.219449   0.000000
    210          4.624833   0.000000
    211          4.715356   0.000000
    212          4.788728   0.000000
    213          4.813294   0.000000
    214          4.817996   0.000000
    215          4.826000   0.000000
    216          4.934732   0.000000
    217          5.101179   0.000000
    218          5.211452   0.000000
    219          5.434547   0.000000
    220          5.511585   0.000000
    221          5.788955   0.000000
    222          5.811516   0.000000
    223          5.849119   0.000000
    224          5.857838   0.000000
    225          5.872054   0.000000
    226          6.080435   0.000000
    227          6.382597   0.000000
    228          6.600744   0.000000
    229          6.610200   0.000000
    230          6.625420   0.000000
    231          6.846884   0.000000
    232          7.036749   0.000000
    233          7.139683   0.000000
    234          7.149249   0.000000
    235          7.168090   0.000000
    236          7.174696   0.000000
    237          7.178526   0.000000
    238          7.222388   0.000000
    239          7.261384   0.000000
    240          7.480856   0.000000
 
  0.2000000E+00  0.1278043E-14  0.1276756E-14  0.8000000E-01
      1         -8.753733   1.000000
      2         -7.684214   1.000000
      3         -7.044229   1.000000
      4         -6.922825   1.000000
      5         -6.558977   1.000000
      6         -6.545420   1.000000
      7         -6.359448   1.000000
      8         -6.268264   1.000000
      9         -6.224060   1.000000
     10         -6.209313   1.000000
     11         -6.104088   1.000000
     12         -5.999241   1.000000
     13         -5.974661   1.000000
     14         -5.845467   1.000000
     15         -5.839521   1.000000
     16         -5.827882   1.000000
     17         -5.741128   1.000000
     18         -5.534746   1.000000
     19         -5.423321   1.000000
     20         -5.416769   1.000000
     21         -5.410593   1.000000
     22         -5.384174   1.000000
     23         -5.334548   1.000000
     24         -5.303381   1.000000
     25         -5.276488   1.000000
     26         -5.231521   1.000000
     27         -5.220569   1.000000
     28         -5.210334   1.000000
     29         -5.156788   1.000000
     30         -5.114717   1.000000
     31         -5.107223   1.000000
     32         -5.039768   1.000000
     33         -5.018769   1.000000
     34         -5.010446   1.000000
     35         -5.007659   1.000000
     36         -4.866648   1.000000
     37         -4.812964   1.000000
     38         -4.781977   1.000000
     39         -4.768334   1.000000
     40         -4.748667   1.000000
     41         -4.586544   1.000000
     42         -4.497235   1.000000
     43         -4.491402   1.000000
     44         -4.444570   1.000000
     45         -4.416600   1.000000
     46         -4.402615   1.000000
     47         -4.388491   1.000000
     48         -4.293342   1.000000
     49         -4.211283   1.000000
     50         -4.148059   1.000000
     51         -4.127940   1.000000
     52         -4.111547   1.000000
     53         -4.070245   1.000000
     54         -4.049555   1.000000
     55         -3.999410   1.000000
     56         -3.828456   1.000000
     57         -3.736684   1.000000
     58         -3.729310   1.000000
     59         -3.681114   1.000000
     60         -3.664178   1.000000
     61         -3.636347   1.000000
     62         -3.581178   1.000000
     63         -3.567260   1.000000
     64         -3.561156   1.000000
     65         -3.530009   1.000000
     66         -3.525874   1.000000
     67         -3.451577   1.000000
     68         -3.441678   1.000000
     69         -3.405543   1.000000
     70         -3.372442   1.000000
     71         -3.362321   1.000000
     72         -3.323815   1.000000
     73         -3.273881   1.000000
     74         -3.266056   1.000000
     75         -3.259671   1.000000
     76         -3.179279   1.000000
     77         -3.175159   1.000000
     78         -3.157413   1.000000
     79         -3.131394   1.000000
     80         -3.093635   1.000000
     81         -3.078092   1.000000
     82         -3.059278   1.000000
     83         -3.032422   1.000000
     84         -3.007057   1.000000
     85         -2.964397   1.000000
     86         -2.952490   1.000000
     87         -2.941264   1.000000
     88         -2.936111   1.000000
     89         -2.917577   1.000000
     90         -2.905638   1.000000
     91         -2.864107   1.000000
     92         -2.824432   1.000000
     93         -2.801432   1.000000
     94         -2.783921   1.000000
     95         -2.772773   1.000000
     96         -2.765640   1.000000
     97         -2.752751   1.000000
     98         -2.726493   1.000000
     99         -2.698938   1.000000
    100         -2.691643   1.000000
    101         -2.611640   1.000000
    102         -2.565796   1.000000
    103         -2.549275   1.000000
    104         -2.524299   1.000000
    105         -2.508153   1.000000
    106         -2.504404   1.000000
    107         -2.497550   1.000000
    108         -2.483831   1.000000
    109         -2.444927   1.000000
    110         -2.437724   1.000000
    111         -2.426384   1.000000
    112         -2.413516   1.000000
    113         -2.189671   1.000000
    114         -2.072582   1.000000
    115         -2.029720   1.000000
    116         -2.013924   1.000000
    117         -1.995833   1.000000
    118         -1.989350   1.000000
    119         -1.984959   1.000000
    120         -1.944736   1.000000
    121         -1.941354   1.000000
    122         -1.876492   1.000000
    123         -1.802933   1.000000
    124         -1.781392   1.000000
    125         -1.710184   1.000000
    126         -1.657997   1.000000
    127         -1.649829   1.000000
    128         -1.599439   1.000000
    129         -1.591961   1.000000
    130         -1.573138   1.000000
    131         -1.542375   1.000000
    132         -1.531255   1.000000
    133         -1.526198   1.000000
    134         -1.445718   1.000000
    135         -1.407999   1.000000
    136         -1.396229   1.000000
    137         -1.386689   1.000000
    138         -1.375576   1.000000
    139         -1.268021   1.000000
    140         -1.195894   1.000000
    141         -1.177239   1.000000
    142         -1.162227   1.000000
    143         -1.149981   1.000000
    144         -1.139892   1.000000
    145         -1.120905   1.000000
    146         -1.064494   1.000000
    147         -1.032728   1.000000
    148         -1.003255   1.000000
    149         -0.989488   1.000000
    150         -0.980426   1.000000
    151         -0.931620   1.000000
    152         -0.919503   1.000000
    153         -0.907624   1.000000
    154         -0.894471   1.000000
    155         -0.817553   1.000000
    156         -0.794120   1.000000
    157         -0.774591   1.000000
    158         -0.759607   1.000000
    159         -0.727965   1.000000
    160         -0.671174   1.000000
    161         -0.644117   1.000000
    162         -0.617774   1.000000
    163         -0.603687   1.000000
    164         -0.591030   1.000000
    165         -0.567857   1.000000
    166         -0.545509   1.000000
    167         -0.481911   1.000000
    168         -0.474430   1.000000
    169         -0.418988   1.000006
    170         -0.404162   1.000016
    171         -0.395268   1.000028
    172         -0.383930   1.000055
    173         -0.359541   1.000212
    174         -0.352112   1.000312
    175         -0.344149   1.000465
    176         -0.337458   1.000642
    177         -0.327645   1.001014
    178         -0.273766   1.008237
    179         -0.271266   1.008916
    180         -0.135630   0.924175
    181         -0.122119   0.855636
    182         -0.100920   0.713714
    183         -0.087679   0.608878
    184         -0.071731   0.474947
    185         -0.066844   0.433807
    186         -0.035686   0.196093
    187         -0.021129   0.110959
    188         -0.001857   0.030617
    189          0.006969   0.005822
    190          0.076314  -0.027200
    191          0.105607  -0.014317
    192          0.129575  -0.006948
    193          0.185486  -0.000726
    194          0.292413  -0.000001
    195          0.305250  -0.000001
    196          0.313099  -0.000000
    197          0.353082  -0.000000
    198          0.701966  -0.000000
    199          0.751656  -0.000000
    200          1.253836  -0.000000
    201          1.463425  -0.000000
    202          1.480377  -0.000000
    203          1.596735  -0.000000
    204          2.401453  -0.000000
    205          2.810969   0.000000
    206          2.908073   0.000000
    207          3.559068   0.000000
    208          3.648656   0.000000
    209          3.664142   0.000000
    210          3.741829   0.000000
    211          3.982032   0.000000
    212          4.434656   0.000000
    213          4.606201   0.000000
    214          4.749526   0.000000
    215          4.952036   0.000000
    216          4.996483   0.000000
    217          5.028995   0.000000
    218          5.224247   0.000000
    219          5.291658   0.000000
    220          5.471420   0.000000
    221          5.656719   0.000000
    222          5.694202   0.000000
    223          5.819841   0.000000
    224          5.915865   0.000000
    225          6.073750   0.000000
    226          6.190260   0.000000
    227          6.207160   0.000000
    228          6.339583   0.000000
    229          6.356803   0.000000
    230          6.537125   0.000000
    231          6.704313   0.000000
    232          6.766488   0.000000
    233          6.801591   0.000000
    234          6.859259   0.000000
    235          6.944102   0.000000
    236          7.077452   0.000000
    237          7.275454   0.000000
    238          7.473965   0.000000
    239          7.568569   0.000000
    240          7.609312   0.000000
 
  0.2000000E+00  0.2000000E+00  0.1276756E-14  0.8000000E-01
      1         -8.754640   1.000000
      2         -7.693317   1.000000
      3         -7.075453   1.000000
      4         -6.888073   1.000000
      5         -6.560963   1.000000
      6         -6.549253   1.000000
      7         -6.359939   1.000000
      8         -6.271691   1.000000
      9         -6.216505   1.000000
     10         -6.210177   1.000000
     11         -6.135693   1.000000
     12         -6.000429   1.000000
     13         -5.911497   1.000000
     14         -5.845663   1.000000
     15         -5.839145   1.000000
     16         -5.829974   1.000000
     17         -5.777865   1.000000
     18         -5.531206   1.000000
     19         -5.416951   1.000000
     20         -5.413785   1.000000
     21         -5.411290   1.000000
     22         -5.355498   1.000000
     23         -5.334475   1.000000
     24         -5.308756   1.000000
     25         -5.274046   1.000000
     26         -5.252866   1.000000
     27         -5.223179   1.000000
     28         -5.211558   1.000000
     29         -5.124566   1.000000
     30         -5.112615   1.000000
     31         -5.107922   1.000000
     32         -5.033321   1.000000
     33         -5.017880   1.000000
     34         -5.010498   1.000000
     35         -5.006232   1.000000
     36         -4.849205   1.000000
     37         -4.811829   1.000000
     38         -4.780742   1.000000
     39         -4.773951   1.000000
     40         -4.756010   1.000000
     41         -4.577092   1.000000
     42         -4.494777   1.000000
     43         -4.490707   1.000000
     44         -4.444002   1.000000
     45         -4.416629   1.000000
     46         -4.408881   1.000000
     47         -4.391095   1.000000
     48         -4.304486   1.000000
     49         -4.213579   1.000000
     50         -4.150925   1.000000
     51         -4.126843   1.000000
     52         -4.115701   1.000000
     53         -4.067807   1.000000
     54         -4.046963   1.000000
     55         -3.984086   1.000000
     56         -3.825735   1.000000
     57         -3.735531   1.000000
     58         -3.729481   1.000000
     59         -3.675963   1.000000
     60         -3.668207   1.000000
     61         -3.637621   1.000000
     62         -3.579561   1.000000
     63         -3.573329   1.000000
     64         -3.558169   1.000000
     65         -3.529652   1.000000
     66         -3.525311   1.000000
     67         -3.469524   1.000000
     68         -3.439212   1.000000
     69         -3.390118   1.000000
     70         -3.377087   1.000000
     71         -3.364448   1.000000
     72         -3.330907   1.000000
     73         -3.277625   1.000000
     74         -3.267122   1.000000
     75         -3.265618   1.000000
     76         -3.181425   1.000000
     77         -3.169993   1.000000
     78         -3.159739   1.000000
     79         -3.131225   1.000000
     80         -3.087856   1.000000
     81         -3.072698   1.000000
     82         -3.063346   1.000000
     83         -3.036642   1.000000
     84         -3.002464   1.000000
     85         -2.966128   1.000000
     86         -2.958048   1.000000
     87         -2.935374   1.000000
     88         -2.931878   1.000000
     89         -2.911560   1.000000
     90         -2.911251   1.000000
     91         -2.859021   1.000000
     92         -2.829697   1.000000
     93         -2.801181   1.000000
     94         -2.788436   1.000000
     95         -2.776083   1.000000
     96         -2.764070   1.000000
     97         -2.762594   1.000000
     98         -2.731364   1.000000
     99         -2.702336   1.000000
    100         -2.684900   1.000000
    101         -2.615543   1.000000
    102         -2.561922   1.000000
    103         -2.546568   1.000000
    104         -2.537630   1.000000
    105         -2.516733   1.000000
    106         -2.502139   1.000000
    107         -2.497530   1.000000
    108         -2.492653   1.000000
    109         -2.448115   1.000000
    110         -2.435088   1.000000
    111         -2.430267   1.000000
    112         -2.420837   1.000000
    113         -2.176460   1.000000
    114         -2.076002   1.000000
    115         -2.038469   1.000000
    116         -2.011814   1.000000
    117         -2.000039   1.000000
    118         -1.989753   1.000000
    119         -1.982447   1.000000
    120         -1.948011   1.000000
    121         -1.934388   1.000000
    122         -1.911025   1.000000
    123         -1.815500   1.000000
    124         -1.784695   1.000000
    125         -1.708296   1.000000
    126         -1.661161   1.000000
    127         -1.652088   1.000000
    128         -1.604411   1.000000
    129         -1.595320   1.000000
    130         -1.574611   1.000000
    131         -1.547703   1.000000
    132         -1.533272   1.000000
    133         -1.531073   1.000000
    134         -1.445992   1.000000
    135         -1.398124   1.000000
    136         -1.393918   1.000000
    137         -1.381574   1.000000
    138         -1.374655   1.000000
    139         -1.207575   1.000000
    140         -1.200624   1.000000
    141         -1.180137   1.000000
    142         -1.156289   1.000000
    143         -1.153917   1.000000
    144         -1.140695   1.000000
    145         -1.125810   1.000000
    146         -1.052701   1.000000
    147         -1.038600   1.000000
    148         -1.015532   1.000000
    149         -0.991989   1.000000
    150         -0.979266   1.000000
    151         -0.935500   1.000000
    152         -0.923253   1.000000
    153         -0.907906   1.000000
    154         -0.903170   1.000000
    155         -0.820583   1.000000
    156         -0.799923   1.000000
    157         -0.768693   1.000000
    158         -0.759392   1.000000
    159         -0.714970   1.000000
    160         -0.669118   1.000000
    161         -0.667845   1.000000
    162         -0.620115   1.000000
    163         -0.606493   1.000000
    164         -0.605962   1.000000
    165         -0.564276   1.000000
    166         -0.543644   1.000000
    167         -0.484573   1.000000
    168         -0.473826   1.000000
    169         -0.408879   1.000012
    170         -0.404953   1.000016
    171         -0.390728   1.000037
    172         -0.374215   1.000096
    173         -0.359659   1.000211
    174         -0.348745   1.000370
    175         -0.345457   1.000436
    176         -0.337404   1.000644
    177         -0.326926   1.001047
    178         -0.275772   1.007719
    179         -0.271133   1.008954
    180         -0.129682   0.896261
    181         -0.123505   0.863508
    182         -0.103070   0.729767
    183         -0.082207   0.563398
    184         -0.068279   0.445849
    185         -0.062631   0.398742
    186         -0.036824   0.203584
    187         -0.011707   0.067037
    188         -0.005049   0.041378
    189          0.007824   0.003791
    190          0.094679  -0.018822
    191          0.103457  -0.015153
    192          0.127830  -0.007363
    193          0.189534  -0.000599
    194          0.295053  -0.000001
    195          0.303390  -0.000001
    196          0.311511  -0.000000
    197          0.354550  -0.000000
    198          0.707658  -0.000000
    199          0.743336  -0.000000
    200          1.265657  -0.000000
    201          1.454359  -0.000000
    202          1.479912  -0.000000
    203          1.601895  -0.000000
    204          2.377373  -0.000000
    205          2.860536   0.000000
    206          2.904114   0.000000
    207          3.532807   0.000000
    208          3.650867   0.000000
    209          3.685860   0.000000
    210          3.733821   0.000000
    211          3.950190   0.000000
    212          4.422364   0.000000
    213          4.607319   0.000000
    214          4.738849   0.000000
    215          4.972946   0.000000
    216          5.001531   0.000000
    217          5.027894   0.000000
    218          5.240750   0.000000
    219          5.342025   0.000000
    220          5.456980   0.000000
    221          5.599703   0.000000
    222          5.702447   0.000000
    223          5.867766   0.000000
    224          5.891472   0.000000
    225          6.077097   0.000000
    226          6.197049   0.000000
    227          6.253904   0.000000
    228          6.343981   0.000000
    229          6.352711   0.000000
    230          6.606891   0.000000
    231          6.696400   0.000000
    232          6.744041   0.000000
    233          6.790524   0.000000
    234          6.798320   0.000000
    235          6.946041   0.000000
    236          7.065463   0.000000
    237          7.238136   0.000000
    238          7.462902   0.000000
    239          7.609631   0.000000
    240          7.621577   0.000000
 
  0.1276756E-14  0.2000000E+00  0.1276756E-14  0.8000000E-01
      1         -8.753642   1.000000
      2         -7.684263   1.000000
      3         -7.042910   1.000000
      4         -6.920135   1.000000
      5         -6.562231   1.000000
      6         -6.547288   1.000000
      7         -6.359240   1.000000
      8         -6.262841   1.000000
      9         -6.223964   1.000000
     10         -6.215004   1.000000
     11         -6.104542   1.000000
     12         -6.000348   1.000000
     13         -5.975200   1.000000
     14         -5.843032   1.000000
     15         -5.837580   1.000000
     16         -5.826024   1.000000
     17         -5.740588   1.000000
     18         -5.537464   1.000000
     19         -5.422811   1.000000
     20         -5.415451   1.000000
     21         -5.408326   1.000000
     22         -5.383596   1.000000
     23         -5.336755   1.000000
     24         -5.303572   1.000000
     25         -5.278399   1.000000
     26         -5.231585   1.000000
     27         -5.216200   1.000000
     28         -5.211761   1.000000
     29         -5.156078   1.000000
     30         -5.117989   1.000000
     31         -5.108640   1.000000
     32         -5.033345   1.000000
     33         -5.019193   1.000000
     34         -5.010803   1.000000
     35         -5.008868   1.000000
     36         -4.866539   1.000000
     37         -4.813523   1.000000
     38         -4.779930   1.000000
     39         -4.770998   1.000000
     40         -4.753214   1.000000
     41         -4.586506   1.000000
     42         -4.499284   1.000000
     43         -4.494327   1.000000
     44         -4.444558   1.000000
     45         -4.414940   1.000000
     46         -4.401287   1.000000
     47         -4.387822   1.000000
     48         -4.293599   1.000000
     49         -4.213463   1.000000
     50         -4.149163   1.000000
     51         -4.125580   1.000000
     52         -4.113894   1.000000
     53         -4.069715   1.000000
     54         -4.048248   1.000000
     55         -3.998972   1.000000
     56         -3.835791   1.000000
     57         -3.734408   1.000000
     58         -3.729097   1.000000
     59         -3.688661   1.000000
     60         -3.671004   1.000000
     61         -3.639745   1.000000
     62         -3.590569   1.000000
     63         -3.559129   1.000000
     64         -3.554948   1.000000
     65         -3.527998   1.000000
     66         -3.521575   1.000000
     67         -3.450870   1.000000
     68         -3.442130   1.000000
     69         -3.408781   1.000000
     70         -3.373680   1.000000
     71         -3.363279   1.000000
     72         -3.324225   1.000000
     73         -3.266382   1.000000
     74         -3.254377   1.000000
     75         -3.247880   1.000000
     76         -3.181393   1.000000
     77         -3.177727   1.000000
     78         -3.159666   1.000000