unknown system                          
           1
     8.468310    0.000000    0.000000
     4.234155    7.333772    0.000000
     0.000000    0.000000   24.965662
   Pt   H 
    36     1
Direct configuration=     1
   0.00000000  0.00000000  0.34046764
   0.33400137  0.00000000  0.34046764
   0.66800274  0.00000000  0.34046764
   0.00000000  0.33400137  0.34046764
   0.33400137  0.33400137  0.34046764
   0.66800274  0.33400137  0.34046764
   0.00000000  0.66800274  0.34046764
   0.33400137  0.66800274  0.34046764
   0.66800274  0.66800274  0.34046764
   0.11133379  0.11133379  0.43297074
   0.44533516  0.11133379  0.43297074
   0.77933653  0.11133379  0.43297074
   0.11133379  0.44533516  0.43297074
   0.44533516  0.44533516  0.43297074
   0.77933653  0.44533516  0.43297074
   0.11133379  0.77933653  0.43297074
   0.44533516  0.77933653  0.43297074
   0.77933653  0.77933653  0.43297074
   0.88933036  0.22517101  0.52520545
   0.22212373  0.22446945  0.52550163
   0.55586895  0.22468662  0.52416132
   0.88968147  0.55672013  0.52505530
   0.22209064  0.55858453  0.52412571
   0.55578874  0.55856518  0.52426288
   0.88895133  0.89154462  0.52449637
   0.22223761  0.89244570  0.52506924
   0.55475999  0.89183282  0.52501284
   0.99681962  0.00138866  0.61839042
   0.33810793  0.00109418  0.62026641
   0.66656598  0.00431479  0.61780742
   0.99776119  0.34116816  0.62053737
   0.33469741  0.33920765  0.61746017
   0.66471926  0.33813030  0.61758794
   0.99993559  0.67075141  0.61788543
   0.33359746  0.66932660  0.61746689
   0.66671169  0.67028069  0.61792738
   0.13403078  0.13717910  0.65728408
