
     Program PWSCF v.7.1 starts on 20Nov2025 at 15:38:55 
        Git branch: heads/qe-7.1
        Last git commit: 48ba0178f8fede6d020eb786884699a9f063f55d-dirty
        Last git commit date: Fri Jan 27 14:22:33 2023 +0000
        Last git commit subject: Merge branch 'fix_hubbard' into 'develop'

     This program is part of the open-source Quantum ESPRESSO suite
     for quantum simulation of materials; please cite
         "P. Giannozzi et al., J. Phys.:Condens. Matter 21 395502 (2009);
         "P. Giannozzi et al., J. Phys.:Condens. Matter 29 465901 (2017);
         "P. Giannozzi et al., J. Chem. Phys. 152 154105 (2020);
          URL http://www.quantum-espresso.org", 
     in publications or presentations arising from this work. More details at
     http://www.quantum-espresso.org/quote

     Parallel version (MPI), running on    96 processors

     MPI processes distributed on     2 nodes
     51351 MiB available memory on the printing compute node when the environment starts

     Reading input from espresso.pwi
Warning: card &CELL ignored
Warning: card / ignored
Warning: card &FCP ignored
Warning: card / ignored
Warning: card &RISM ignored
Warning: card / ignored

     Current dimensions of program PWSCF are:
     Max number of different atomic species (ntypx) = 10
     Max number of k-points (npk) =  40000
     Max angular momentum in pseudopotentials (lmaxx) =  4
     file Co.pbe-n-kjpaw_psl.1.0.0.UPF: wavefunction(s)  4S 3D renormalized
     file C.pbe-n-kjpaw_psl.1.0.0.UPF: wavefunction(s)  2S 2P renormalized
     file O.pbe-nl-kjpaw_psl.1.0.0.UPF: wavefunction(s)  2S 2P renormalized
     file H.pbe-kjpaw_psl.1.0.0.UPF: wavefunction(s)  1S renormalized

     **************************************************************************
     Initializing libbeef V0.1.2 with the BEEF-vdW functional.
     Citation: Wellendorff et al., PRB 85, 235149 (2012).
     **************************************************************************


     IMPORTANT: XC functional enforced from input :
     Exchange-correlation= BEEF-VDW
                           (   1   4  43  14   2   0   0)
     Any further DFT definition will be discarded
     Please, verify this is what you really want


     R & G space division:  proc/nbgrp/npool/nimage =      96
     Subspace diagonalization in iterative solution of the eigenvalue problem:
     one sub-group per band group will be used
     custom distributed-memory algorithm (size of sub-group:  2*  2 procs)


     Parallelization info
     --------------------
     sticks:   dense  smooth     PW     G-vecs:    dense   smooth      PW
     Min          43      23      6                 7829     3049     440
     Max          44      24      7                 7845     3068     465
     Sum        4153    2221    613               752179   293251   42993

     Using Slab Decomposition



     bravais-lattice index     =            0
     lattice parameter (alat)  =      14.1729  a.u.
     unit-cell volume          =    8574.3059 (a.u.)^3
     number of atoms/cell      =           39
     number of atomic types    =            4
     number of electrons       =       335.00
     number of Kohn-Sham states=          202
     kinetic-energy cutoff     =      40.0000  Ry
     charge density cutoff     =     300.0000  Ry
     scf convergence threshold =      1.0E-06
     mixing beta               =       0.7000
     number of iterations used =            8  local-TF  mixing
     Exchange-correlation= BEEF-VDW
                           (   1   4  43  14   2   0   0)

     celldm(1)=  14.172946  celldm(2)=   0.000000  celldm(3)=   0.000000
     celldm(4)=   0.000000  celldm(5)=   0.000000  celldm(6)=   0.000000

     crystal axes: (cart. coord. in units of alat)
               a(1) = (   1.000000   0.000000   0.000000 )  
               a(2) = (   0.500000   0.866025   0.000000 )  
               a(3) = (   0.000000   0.000000   3.477667 )  

     reciprocal axes: (cart. coord. in units 2 pi/alat)
               b(1) = (  1.000000 -0.577350  0.000000 )  
               b(2) = (  0.000000  1.154701  0.000000 )  
               b(3) = (  0.000000  0.000000  0.287549 )  


     PseudoPot. # 1 for Co read from file:
     /users/kbadger1/espresso/pseudo/pslibrary.1.0.0/pbe/PSEUDOPOTENTIALS/Co.pbe-n-kjpaw_psl.1.0.0.UPF
     MD5 check sum: 88af6ec42553d4236c267fdfcb472151
     Pseudo is Projector augmented-wave + core cor, Zval =  9.0
     Generated using 'atomic' code by A. Dal Corso  v.7.0
     Shape of augmentation charge: PSQ
     Using radial grid of 1193 points,  6 beta functions with: 
                l(1) =   0
                l(2) =   0
                l(3) =   1
                l(4) =   1
                l(5) =   2
                l(6) =   2
     Q(r) pseudized with 0 coefficients 


     PseudoPot. # 2 for C  read from file:
     /users/kbadger1/espresso/pseudo/pslibrary.1.0.0/pbe/PSEUDOPOTENTIALS/C.pbe-n-kjpaw_psl.1.0.0.UPF
     MD5 check sum: 6408e75cdba28732cea38a4db8498ce4
     Pseudo is Projector augmented-wave + core cor, Zval =  4.0
     Generated using 'atomic' code by A. Dal Corso  v.7.0
     Shape of augmentation charge: PSQ
     Using radial grid of 1073 points,  4 beta functions with: 
                l(1) =   0
                l(2) =   0
                l(3) =   1
                l(4) =   1
     Q(r) pseudized with 0 coefficients 


     PseudoPot. # 3 for O  read from file:
     /users/kbadger1/espresso/pseudo/pslibrary.1.0.0/pbe/PSEUDOPOTENTIALS/O.pbe-nl-kjpaw_psl.1.0.0.UPF
     MD5 check sum: f0439fab3598ca4e468f064226030408
     Pseudo is Projector augmented-wave + core cor, Zval =  6.0
     Generated using 'atomic' code by A. Dal Corso  v.7.0
     Shape of augmentation charge: PSQ
     Using radial grid of 1095 points,  4 beta functions with: 
                l(1) =   0
                l(2) =   0
                l(3) =   1
                l(4) =   1
     Q(r) pseudized with 0 coefficients 


     PseudoPot. # 4 for H  read from file:
     /users/kbadger1/espresso/pseudo/pslibrary.1.0.0/pbe/PSEUDOPOTENTIALS/H.pbe-kjpaw_psl.1.0.0.UPF
     MD5 check sum: fe4c6fa958fa6d3815bf5d2419cbf1df
     Pseudo is Projector augmented-wave, Zval =  1.0
     Generated using 'atomic' code by A. Dal Corso  v.7.0
     Shape of augmentation charge: PSQ
     Using radial grid of  929 points,  2 beta functions with: 
                l(1) =   0
                l(2) =   0
     Q(r) pseudized with 0 coefficients 


     atomic species   valence    mass     pseudopotential
        Co             9.00    58.93319     Co( 1.00)
        C              4.00    12.00000     C ( 1.00)
        O              6.00    15.99491     O ( 1.00)
        H              1.00     1.00783     H ( 1.00)

     Starting magnetic structure 
     atomic species   magnetization
        Co           1.000
        C            1.000
        O            0.000
        H            0.000

     No symmetry found



   Cartesian axes

     site n.     atom                  positions (alat units)
         1           Co  tau(   1) = (   0.0000000   0.1924501   1.3333333  )
         2           Co  tau(   2) = (   0.3333333   0.1924501   1.3333333  )
         3           Co  tau(   3) = (   0.6666667   0.1924501   1.3333333  )
         4           Co  tau(   4) = (   0.1666667   0.4811252   1.3333333  )
         5           Co  tau(   5) = (   0.5000000   0.4811252   1.3333333  )
         6           Co  tau(   6) = (   0.8333333   0.4811252   1.3333333  )
         7           Co  tau(   7) = (   0.3333333   0.7698004   1.3333333  )
         8           Co  tau(   8) = (   0.6666667   0.7698004   1.3333333  )
         9           Co  tau(   9) = (   1.0000000   0.7698004   1.3333333  )
        10           Co  tau(  10) = (   0.0000000   0.0000000   1.6036667  )
        11           Co  tau(  11) = (   0.3333333   0.0000000   1.6036667  )
        12           Co  tau(  12) = (   0.6666667   0.0000000   1.6036667  )
        13           Co  tau(  13) = (   0.1666667   0.2886751   1.6036667  )
        14           Co  tau(  14) = (   0.5000000   0.2886751   1.6036667  )
        15           Co  tau(  15) = (   0.8333333   0.2886751   1.6036667  )
        16           Co  tau(  16) = (   0.3333333   0.5773503   1.6036667  )
        17           Co  tau(  17) = (   0.6666667   0.5773503   1.6036667  )
        18           Co  tau(  18) = (   1.0000000   0.5773503   1.6036667  )
        19           Co  tau(  19) = (   0.0000000   0.1924501   1.8740000  )
        20           Co  tau(  20) = (   0.3333333   0.1924501   1.8740000  )
        21           Co  tau(  21) = (   0.6666667   0.1924501   1.8740000  )
        22           Co  tau(  22) = (   0.1666667   0.4811252   1.8740000  )
        23           Co  tau(  23) = (   0.5000000   0.4811252   1.8740000  )
        24           Co  tau(  24) = (   0.8333333   0.4811252   1.8740000  )
        25           Co  tau(  25) = (   0.3333333   0.7698004   1.8740000  )
        26           Co  tau(  26) = (   0.6666667   0.7698004   1.8740000  )
        27           Co  tau(  27) = (   1.0000000   0.7698004   1.8740000  )
        28           Co  tau(  28) = (   0.0000000   0.0000000   2.1443333  )
        29           Co  tau(  29) = (   0.3333333   0.0000000   2.1443333  )
        30           Co  tau(  30) = (   0.6666667   0.0000000   2.1443333  )
        31           Co  tau(  31) = (   0.1666667   0.2886751   2.1443333  )
        32           Co  tau(  32) = (   0.5000000   0.2886751   2.1443333  )
        33           Co  tau(  33) = (   0.8333333   0.2886751   2.1443333  )
        34           Co  tau(  34) = (   0.3333333   0.5773503   2.1443333  )
        35           Co  tau(  35) = (   0.6666667   0.5773503   2.1443333  )
        36           Co  tau(  36) = (   1.0000000   0.5773503   2.1443333  )
        37           C   tau(  37) = (   0.3875120   0.1670608   2.3330506  )
        38           O   tau(  38) = (   0.3457763   0.1214351   2.4809254  )
        39           H   tau(  39) = (   0.5280044   0.3195122   2.3456816  )

     number of k points=    13  Marzari-Vanderbilt smearing, width (Ry)=  0.0010
                       cart. coord. in units 2pi/alat
        k(    1) = (   0.0000000   0.0000000   0.0000000), wk =   0.0400000
        k(    2) = (   0.0000000   0.2309401   0.0000000), wk =   0.0800000
        k(    3) = (   0.0000000   0.4618802   0.0000000), wk =   0.0800000
        k(    4) = (   0.2000000  -0.1154701   0.0000000), wk =   0.0800000
        k(    5) = (   0.2000000   0.1154701   0.0000000), wk =   0.0800000
        k(    6) = (   0.2000000   0.3464102   0.0000000), wk =   0.0800000
        k(    7) = (   0.2000000  -0.5773503   0.0000000), wk =   0.0800000
        k(    8) = (   0.2000000  -0.3464102   0.0000000), wk =   0.0800000
        k(    9) = (   0.4000000  -0.2309401   0.0000000), wk =   0.0800000
        k(   10) = (   0.4000000   0.0000000   0.0000000), wk =   0.0800000
        k(   11) = (   0.4000000   0.2309401   0.0000000), wk =   0.0800000
        k(   12) = (   0.4000000  -0.6928203   0.0000000), wk =   0.0800000
        k(   13) = (   0.4000000  -0.4618802   0.0000000), wk =   0.0800000

     Dense  grid:   752179 G-vectors     FFT dimensions: (  80,  80, 288)

     Smooth grid:   293251 G-vectors     FFT dimensions: (  60,  60, 200)

     Estimated max dynamical RAM per process >      84.82 MB

     Estimated total dynamical RAM >       7.95 GB
     Generating pointlists ...
     new r_m :   0.0848 (alat units)  1.2021 (a.u.) for type    1
     new r_m :   0.0661 (alat units)  0.9371 (a.u.) for type    2
     new r_m :   0.0661 (alat units)  0.9371 (a.u.) for type    3
     new r_m :   0.0848 (alat units)  1.2021 (a.u.) for type    4

     Initial potential from superposition of free atoms

     starting charge     334.9897, renormalised to     335.0000

     negative rho (up, down):  3.048E-03 4.630E-04


     %%%%%%%%%%%%%%%%%%%%%%%%%%%%%%%%%%%%%%%%%%%%%%%%%%%%%%%%%%%%%%%%%%%%%%%%
     %                                                                      %
     % You are using vdW-DF, which was implemented by the Thonhauser group. %
     % Please cite the following two papers that made this development      %
     % possible and the two reviews that describe the various versions:     %
     %                                                                      %
     %   T. Thonhauser et al., PRL 115, 136402 (2015).                      %
     %   T. Thonhauser et al., PRB 76, 125112 (2007).                       %
     %   K. Berland et al., Rep. Prog. Phys. 78, 066501 (2015).             %
     %   D.C. Langreth et al., J. Phys.: Condens. Matter 21, 084203 (2009). %
     %                                                                      %
     % If you are calculating stress with vdW-DF, please also cite:         %
     %                                                                      %
     %   R. Sabatini et al., J. Phys.: Condens. Matter 24, 424209 (2012).   %
     %   C.M. Frostenson et al., Electr. Struct. 4, 014001 (2022).          %
     %                                                                      %
     %%%%%%%%%%%%%%%%%%%%%%%%%%%%%%%%%%%%%%%%%%%%%%%%%%%%%%%%%%%%%%%%%%%%%%%%

     %%%%%%%%%%%%%%%%%%%%%%%%%%%%%%%%%%%%%%%%%%%%%%%%%%%%%%%%%%%%%%%%%%%%%%%%
     %                                                                      %
     %  vdW-DF NEWS:                                                        %
     %                                                                      %
     %  * vdW-DF3 is now available. DOI: 10.1021/acs.jctc.0c00471           %
     %    use with input_dft = 'vdW-DF3-opt1' or 'vdW-DF3-opt2'             %
     %                                                                      %
     %  * Unscreened and range-separated hybrid vdW-DF-cx functionals       %
     %    DOI: 10.1063/1.4986522 and 10.1088/1361-648X/ac2ad2               %
     %    use with input_dft = 'vdW-DF-cx0'    and 'vdW-DF-ahcx'            %
     %  * Unscreened and range-separated hybrid vdW-DF2-b86r functionals    %
     %    DOI: 10.1063/1.4986522 and DOI: 10.1103/PhysRevX.12.041003        %
     %    use with input_dft = 'vdW-DF2-br0' and 'vdW-DF2-ahbr'             %
     %                                                                      %
     %%%%%%%%%%%%%%%%%%%%%%%%%%%%%%%%%%%%%%%%%%%%%%%%%%%%%%%%%%%%%%%%%%%%%%%%


     Starting wfcs are  333 randomized atomic wfcs
     Checking if some PAW data can be deallocated... 

     total cpu time spent up to now is       16.2 secs

     per-process dynamical memory:   212.4 Mb

     Self-consistent Calculation

     iteration #  1     ecut=    40.00 Ry     beta= 0.70
     Davidson diagonalization with overlap
     ethr =  1.00E-02,  avg # of iterations =  2.0

     negative rho (up, down):  6.304E-05 1.297E-06

     total cpu time spent up to now is       30.9 secs

     total energy              =   -6052.93570362 Ry
     estimated scf accuracy    <      39.49371164 Ry

     total magnetization       =    69.00 Bohr mag/cell
     absolute magnetization    =    81.30 Bohr mag/cell

     iteration #  2     ecut=    40.00 Ry     beta= 0.70
     Davidson diagonalization with overlap
     ethr =  1.00E-02,  avg # of iterations =  1.0

     negative rho (up, down):  2.627E-05 8.631E-07

     total cpu time spent up to now is       47.8 secs

     total energy              =   -6052.40944215 Ry
     estimated scf accuracy    <      24.92708980 Ry

     total magnetization       =    68.66 Bohr mag/cell
     absolute magnetization    =    76.66 Bohr mag/cell

     iteration #  3     ecut=    40.00 Ry     beta= 0.70
     Davidson diagonalization with overlap
     ethr =  7.44E-03,  avg # of iterations =  1.1

     negative rho (up, down):  1.382E-06 2.514E-06

     total cpu time spent up to now is       59.8 secs

     total energy              =   -6054.98018518 Ry
     estimated scf accuracy    <      84.46910436 Ry

     total magnetization       =    66.19 Bohr mag/cell
     absolute magnetization    =    73.45 Bohr mag/cell

     iteration #  4     ecut=    40.00 Ry     beta= 0.70
     Davidson diagonalization with overlap
     ethr =  7.44E-03,  avg # of iterations =  1.0

     negative rho (up, down):  1.450E-06 6.962E-07

     total cpu time spent up to now is       76.5 secs

     total energy              =   -6056.24275411 Ry
     estimated scf accuracy    <       5.06018373 Ry

     total magnetization       =    60.61 Bohr mag/cell
     absolute magnetization    =    70.37 Bohr mag/cell

     iteration #  5     ecut=    40.00 Ry     beta= 0.70
     Davidson diagonalization with overlap
     ethr =  1.51E-03,  avg # of iterations =  1.3

     negative rho (up, down):  1.484E-06 6.256E-07

     total cpu time spent up to now is       89.1 secs

     total energy              =   -6056.26923638 Ry
     estimated scf accuracy    <       2.55162611 Ry

     total magnetization       =    59.90 Bohr mag/cell
     absolute magnetization    =    69.33 Bohr mag/cell

     iteration #  6     ecut=    40.00 Ry     beta= 0.70
     Davidson diagonalization with overlap
     ethr =  7.62E-04,  avg # of iterations =  1.5

     negative rho (up, down):  1.387E-06 6.149E-07

     total cpu time spent up to now is      105.5 secs

     total energy              =   -6056.37512710 Ry
     estimated scf accuracy    <       0.54937466 Ry

     total magnetization       =    59.58 Bohr mag/cell
     absolute magnetization    =    68.81 Bohr mag/cell

     iteration #  7     ecut=    40.00 Ry     beta= 0.70
     Davidson diagonalization with overlap
     c_bands:  1 eigenvalues not converged
     ethr =  1.64E-04,  avg # of iterations =  7.0

     negative rho (up, down):  1.063E-06 5.206E-07

     total cpu time spent up to now is      122.9 secs

     total energy              =   -6056.41816671 Ry
     estimated scf accuracy    <       0.92554983 Ry

     total magnetization       =    60.06 Bohr mag/cell
     absolute magnetization    =    68.73 Bohr mag/cell

     iteration #  8     ecut=    40.00 Ry     beta= 0.70
     Davidson diagonalization with overlap
     ethr =  1.64E-04,  avg # of iterations =  2.0

     negative rho (up, down):  4.442E-07 2.067E-07

     total cpu time spent up to now is      140.6 secs

     total energy              =   -6056.43129898 Ry
     estimated scf accuracy    <       0.13534855 Ry

     total magnetization       =    60.12 Bohr mag/cell
     absolute magnetization    =    68.62 Bohr mag/cell

     iteration #  9     ecut=    40.00 Ry     beta= 0.70
     Davidson diagonalization with overlap
     c_bands:  3 eigenvalues not converged
     c_bands:  2 eigenvalues not converged
     c_bands:  1 eigenvalues not converged
     c_bands:  1 eigenvalues not converged
     ethr =  4.04E-05,  avg # of iterations = 10.1

     negative rho (up, down):  3.489E-07 1.856E-07

     total cpu time spent up to now is      167.1 secs

     total energy              =   -6056.43105462 Ry
     estimated scf accuracy    <       0.19574265 Ry

     total magnetization       =    60.13 Bohr mag/cell
     absolute magnetization    =    68.36 Bohr mag/cell

     iteration # 10     ecut=    40.00 Ry     beta= 0.70
     Davidson diagonalization with overlap
     ethr =  4.04E-05,  avg # of iterations =  2.6

     negative rho (up, down):  1.749E-07 9.879E-08

     total cpu time spent up to now is      181.6 secs

     total energy              =   -6056.43807222 Ry
     estimated scf accuracy    <       0.19796586 Ry

     total magnetization       =    60.62 Bohr mag/cell
     absolute magnetization    =    68.52 Bohr mag/cell

     iteration # 11     ecut=    40.00 Ry     beta= 0.70
     Davidson diagonalization with overlap
     ethr =  4.04E-05,  avg # of iterations =  2.0

     negative rho (up, down):  8.983E-08 4.905E-08

     total cpu time spent up to now is      198.5 secs

     total energy              =   -6056.43574594 Ry
     estimated scf accuracy    <       0.13579948 Ry

     total magnetization       =    60.69 Bohr mag/cell
     absolute magnetization    =    68.44 Bohr mag/cell

     iteration # 12     ecut=    40.00 Ry     beta= 0.70
     Davidson diagonalization with overlap
     ethr =  4.04E-05,  avg # of iterations =  1.7

     negative rho (up, down):  9.069E-07 7.975E-08

     total cpu time spent up to now is      210.7 secs

     total energy              =   -6056.43913243 Ry
     estimated scf accuracy    <       0.08436838 Ry

     total magnetization       =    60.50 Bohr mag/cell
     absolute magnetization    =    68.17 Bohr mag/cell

     iteration # 13     ecut=    40.00 Ry     beta= 0.70
     Davidson diagonalization with overlap
     ethr =  2.52E-05,  avg # of iterations =  1.7

     total cpu time spent up to now is      227.5 secs

     total energy              =   -6056.43811517 Ry
     estimated scf accuracy    <       0.08631577 Ry

     total magnetization       =    60.51 Bohr mag/cell
     absolute magnetization    =    68.12 Bohr mag/cell

     iteration # 14     ecut=    40.00 Ry     beta= 0.70
     Davidson diagonalization with overlap
     ethr =  2.52E-05,  avg # of iterations =  1.8

     negative rho (up, down):  3.045E-08 1.063E-09

     total cpu time spent up to now is      240.6 secs

     total energy              =   -6056.43399164 Ry
     estimated scf accuracy    <       0.07694527 Ry

     total magnetization       =    60.40 Bohr mag/cell
     absolute magnetization    =    68.07 Bohr mag/cell

     iteration # 15     ecut=    40.00 Ry     beta= 0.70
     Davidson diagonalization with overlap
     ethr =  2.30E-05,  avg # of iterations =  1.8

     negative rho (up, down):  7.915E-03 6.407E-03

     total cpu time spent up to now is      257.6 secs

     total energy              =   -6056.42929416 Ry
     estimated scf accuracy    <       0.14060195 Ry

     total magnetization       =    60.66 Bohr mag/cell
     absolute magnetization    =    68.20 Bohr mag/cell

     iteration # 16     ecut=    40.00 Ry     beta= 0.70
     Davidson diagonalization with overlap
     ethr =  2.30E-05,  avg # of iterations =  1.9

     negative rho (up, down):  2.177E-02 1.992E-02

     total cpu time spent up to now is      269.8 secs

     total energy              =   -6056.43187746 Ry
     estimated scf accuracy    <       0.02987611 Ry

     total magnetization       =    60.40 Bohr mag/cell
     absolute magnetization    =    67.94 Bohr mag/cell

     iteration # 17     ecut=    40.00 Ry     beta= 0.70
     Davidson diagonalization with overlap
     c_bands:  1 eigenvalues not converged
     c_bands:  2 eigenvalues not converged
     c_bands:  2 eigenvalues not converged
     c_bands:  3 eigenvalues not converged
     c_bands:  2 eigenvalues not converged
     ethr =  8.92E-06,  avg # of iterations =  8.7

     negative rho (up, down):  3.093E-02 2.912E-02

     total cpu time spent up to now is      294.5 secs

     total energy              =   -6056.43233136 Ry
     estimated scf accuracy    <       0.02877587 Ry

     total magnetization       =    60.46 Bohr mag/cell
     absolute magnetization    =    67.93 Bohr mag/cell

     iteration # 18     ecut=    40.00 Ry     beta= 0.70
     Davidson diagonalization with overlap
     c_bands:  1 eigenvalues not converged
     ethr =  8.59E-06,  avg # of iterations =  2.7

     negative rho (up, down):  2.102E-02 1.944E-02

     total cpu time spent up to now is      307.7 secs

     total energy              =   -6056.43309153 Ry
     estimated scf accuracy    <       0.02493304 Ry

     total magnetization       =    60.59 Bohr mag/cell
     absolute magnetization    =    67.99 Bohr mag/cell

     iteration # 19     ecut=    40.00 Ry     beta= 0.70
     Davidson diagonalization with overlap
     ethr =  7.44E-06,  avg # of iterations =  1.3

     negative rho (up, down):  1.438E-02 1.308E-02

     total cpu time spent up to now is      324.3 secs

     total energy              =   -6056.43273718 Ry
     estimated scf accuracy    <       0.00722182 Ry

     total magnetization       =    60.59 Bohr mag/cell
     absolute magnetization    =    67.99 Bohr mag/cell

     iteration # 20     ecut=    40.00 Ry     beta= 0.70
     Davidson diagonalization with overlap
     c_bands:  1 eigenvalues not converged
     ethr =  2.16E-06,  avg # of iterations =  8.4

     negative rho (up, down):  1.241E-02 1.150E-02

     total cpu time spent up to now is      347.6 secs

     total energy              =   -6056.43227961 Ry
     estimated scf accuracy    <       0.01389982 Ry

     total magnetization       =    60.73 Bohr mag/cell
     absolute magnetization    =    68.07 Bohr mag/cell

     iteration # 21     ecut=    40.00 Ry     beta= 0.70
     Davidson diagonalization with overlap
     ethr =  2.16E-06,  avg # of iterations =  1.9

     negative rho (up, down):  1.482E-02 1.394E-02

     total cpu time spent up to now is      361.0 secs

     total energy              =   -6056.43281102 Ry
     estimated scf accuracy    <       0.00640351 Ry

     total magnetization       =    60.77 Bohr mag/cell
     absolute magnetization    =    68.10 Bohr mag/cell

     iteration # 22     ecut=    40.00 Ry     beta= 0.70
     Davidson diagonalization with overlap
     ethr =  1.91E-06,  avg # of iterations =  1.2

     negative rho (up, down):  1.760E-02 1.674E-02

     total cpu time spent up to now is      377.5 secs

     total energy              =   -6056.43291784 Ry
     estimated scf accuracy    <       0.00603328 Ry

     total magnetization       =    60.77 Bohr mag/cell
     absolute magnetization    =    68.10 Bohr mag/cell

     iteration # 23     ecut=    40.00 Ry     beta= 0.70
     Davidson diagonalization with overlap
     ethr =  1.80E-06,  avg # of iterations =  1.6

     negative rho (up, down):  1.459E-02 1.377E-02

     total cpu time spent up to now is      389.4 secs

     total energy              =   -6056.43290737 Ry
     estimated scf accuracy    <       0.00774337 Ry

     total magnetization       =    60.81 Bohr mag/cell
     absolute magnetization    =    68.13 Bohr mag/cell

     iteration # 24     ecut=    40.00 Ry     beta= 0.70
     Davidson diagonalization with overlap
     ethr =  1.80E-06,  avg # of iterations =  1.1

     negative rho (up, down):  1.176E-02 1.100E-02

     total cpu time spent up to now is      402.9 secs

     total energy              =   -6056.43319771 Ry
     estimated scf accuracy    <       0.00086971 Ry

     total magnetization       =    60.78 Bohr mag/cell
     absolute magnetization    =    68.11 Bohr mag/cell

     iteration # 25     ecut=    40.00 Ry     beta= 0.70
     Davidson diagonalization with overlap
     ethr =  2.60E-07,  avg # of iterations =  4.3

     negative rho (up, down):  8.803E-03 8.061E-03

     total cpu time spent up to now is      421.1 secs

     total energy              =   -6056.43323863 Ry
     estimated scf accuracy    <       0.00109280 Ry

     total magnetization       =    60.76 Bohr mag/cell
     absolute magnetization    =    68.10 Bohr mag/cell

     iteration # 26     ecut=    40.00 Ry     beta= 0.70
     Davidson diagonalization with overlap
     ethr =  2.60E-07,  avg # of iterations =  1.6

     negative rho (up, down):  8.180E-03 7.453E-03

     total cpu time spent up to now is      437.9 secs

     total energy              =   -6056.43336851 Ry
     estimated scf accuracy    <       0.00119278 Ry

     total magnetization       =    60.81 Bohr mag/cell
     absolute magnetization    =    68.14 Bohr mag/cell

     iteration # 27     ecut=    40.00 Ry     beta= 0.70
     Davidson diagonalization with overlap
     ethr =  2.60E-07,  avg # of iterations =  1.2

     negative rho (up, down):  6.069E-03 5.303E-03

     total cpu time spent up to now is      449.4 secs

     total energy              =   -6056.43338801 Ry
     estimated scf accuracy    <       0.00020135 Ry

     total magnetization       =    60.79 Bohr mag/cell
     absolute magnetization    =    68.13 Bohr mag/cell

     iteration # 28     ecut=    40.00 Ry     beta= 0.70
     Davidson diagonalization with overlap
     ethr =  6.01E-08,  avg # of iterations =  3.4

     negative rho (up, down):  3.115E-03 2.086E-03

     total cpu time spent up to now is      467.8 secs

     total energy              =   -6056.43341068 Ry
     estimated scf accuracy    <       0.00016553 Ry

     total magnetization       =    60.79 Bohr mag/cell
     absolute magnetization    =    68.13 Bohr mag/cell

     iteration # 29     ecut=    40.00 Ry     beta= 0.70
     Davidson diagonalization with overlap
     ethr =  4.94E-08,  avg # of iterations =  2.1

     negative rho (up, down):  1.794E-03 7.639E-04

     total cpu time spent up to now is      481.7 secs

     total energy              =   -6056.43341695 Ry
     estimated scf accuracy    <       0.00033915 Ry

     total magnetization       =    60.79 Bohr mag/cell
     absolute magnetization    =    68.13 Bohr mag/cell

     iteration # 30     ecut=    40.00 Ry     beta= 0.70
     Davidson diagonalization with overlap
     ethr =  4.94E-08,  avg # of iterations =  1.6

     negative rho (up, down):  1.940E-03 9.229E-04

     total cpu time spent up to now is      498.6 secs

     total energy              =   -6056.43341138 Ry
     estimated scf accuracy    <       0.00005236 Ry

     total magnetization       =    60.79 Bohr mag/cell
     absolute magnetization    =    68.13 Bohr mag/cell

     iteration # 31     ecut=    40.00 Ry     beta= 0.70
     Davidson diagonalization with overlap
     c_bands:  1 eigenvalues not converged
     ethr =  1.56E-08,  avg # of iterations =  4.8

     negative rho (up, down):  1.774E-03 7.578E-04

     total cpu time spent up to now is      513.4 secs

     total energy              =   -6056.43344564 Ry
     estimated scf accuracy    <       0.00021336 Ry

     total magnetization       =    60.79 Bohr mag/cell
     absolute magnetization    =    68.13 Bohr mag/cell

     iteration # 32     ecut=    40.00 Ry     beta= 0.70
     Davidson diagonalization with overlap
     ethr =  1.56E-08,  avg # of iterations =  2.8

     negative rho (up, down):  1.859E-03 8.132E-04

     total cpu time spent up to now is      531.4 secs

     total energy              =   -6056.43345042 Ry
     estimated scf accuracy    <       0.00006754 Ry

     total magnetization       =    60.79 Bohr mag/cell
     absolute magnetization    =    68.13 Bohr mag/cell

     iteration # 33     ecut=    40.00 Ry     beta= 0.70
     Davidson diagonalization with overlap
     ethr =  1.56E-08,  avg # of iterations =  1.1

     negative rho (up, down):  1.794E-03 7.878E-04

     total cpu time spent up to now is      544.0 secs

     total energy              =   -6056.43345109 Ry
     estimated scf accuracy    <       0.00004729 Ry

     total magnetization       =    60.79 Bohr mag/cell
     absolute magnetization    =    68.13 Bohr mag/cell

     iteration # 34     ecut=    40.00 Ry     beta= 0.70
     Davidson diagonalization with overlap
     ethr =  1.41E-08,  avg # of iterations =  1.4

     negative rho (up, down):  1.999E-03 9.539E-04

     total cpu time spent up to now is      560.5 secs

     total energy              =   -6056.43345552 Ry
     estimated scf accuracy    <       0.00001006 Ry

     total magnetization       =    60.79 Bohr mag/cell
     absolute magnetization    =    68.13 Bohr mag/cell

     iteration # 35     ecut=    40.00 Ry     beta= 0.70
     Davidson diagonalization with overlap
     ethr =  3.00E-09,  avg # of iterations =  6.0

     negative rho (up, down):  2.106E-03 1.041E-03

     total cpu time spent up to now is      576.3 secs

     total energy              =   -6056.43345667 Ry
     estimated scf accuracy    <       0.00001349 Ry

     total magnetization       =    60.79 Bohr mag/cell
     absolute magnetization    =    68.12 Bohr mag/cell

     iteration # 36     ecut=    40.00 Ry     beta= 0.70
     Davidson diagonalization with overlap
     ethr =  3.00E-09,  avg # of iterations =  1.4

     negative rho (up, down):  2.096E-03 1.046E-03

     total cpu time spent up to now is      592.8 secs

     total energy              =   -6056.43345660 Ry
     estimated scf accuracy    <       0.00000242 Ry

     total magnetization       =    60.79 Bohr mag/cell
     absolute magnetization    =    68.13 Bohr mag/cell

     iteration # 37     ecut=    40.00 Ry     beta= 0.70
     Davidson diagonalization with overlap
     ethr =  7.24E-10,  avg # of iterations =  6.1

     negative rho (up, down):  2.099E-03 1.036E-03

     total cpu time spent up to now is      615.6 secs

     total energy              =   -6056.43345738 Ry
     estimated scf accuracy    <       0.00000349 Ry

     total magnetization       =    60.79 Bohr mag/cell
     absolute magnetization    =    68.13 Bohr mag/cell

     iteration # 38     ecut=    40.00 Ry     beta= 0.70
     Davidson diagonalization with overlap
     ethr =  7.24E-10,  avg # of iterations =  2.0

     negative rho (up, down):  2.144E-03 1.073E-03

     total cpu time spent up to now is      627.9 secs

     total energy              =   -6056.43345773 Ry
     estimated scf accuracy    <       0.00000466 Ry

     total magnetization       =    60.79 Bohr mag/cell
     absolute magnetization    =    68.12 Bohr mag/cell

     iteration # 39     ecut=    40.00 Ry     beta= 0.70
     Davidson diagonalization with overlap
     ethr =  7.24E-10,  avg # of iterations =  1.0

     negative rho (up, down):  2.210E-03 1.132E-03

     total cpu time spent up to now is      639.5 secs

     total energy              =   -6056.43345807 Ry
     estimated scf accuracy    <       0.00000107 Ry

     total magnetization       =    60.79 Bohr mag/cell
     absolute magnetization    =    68.12 Bohr mag/cell

     iteration # 40     ecut=    40.00 Ry     beta= 0.70
     Davidson diagonalization with overlap
     ethr =  3.19E-10,  avg # of iterations =  1.9

     negative rho (up, down):  2.228E-03 1.146E-03

     Magnetic moment per site  (integrated on atomic sphere of radius R)
     atom   1 (R=0.085)  charge=  5.3793  magn=  1.5957
     atom   2 (R=0.085)  charge=  5.3820  magn=  1.5793
     atom   3 (R=0.085)  charge=  5.3810  magn=  1.5869
     atom   4 (R=0.085)  charge=  5.3808  magn=  1.5930
     atom   5 (R=0.085)  charge=  5.3809  magn=  1.5895
     atom   6 (R=0.085)  charge=  5.3807  magn=  1.5953
     atom   7 (R=0.085)  charge=  5.3791  magn=  1.5983
     atom   8 (R=0.085)  charge=  5.3793  magn=  1.5949
     atom   9 (R=0.085)  charge=  5.3807  magn=  1.5929
     atom  10 (R=0.085)  charge=  5.3731  magn=  1.5275
     atom  11 (R=0.085)  charge=  5.3748  magn=  1.5337
     atom  12 (R=0.085)  charge=  5.3742  magn=  1.5408
     atom  13 (R=0.085)  charge=  5.3745  magn=  1.5383
     atom  14 (R=0.085)  charge=  5.3757  magn=  1.5234
     atom  15 (R=0.085)  charge=  5.3746  magn=  1.5402
     atom  16 (R=0.085)  charge=  5.3745  magn=  1.5353
     atom  17 (R=0.085)  charge=  5.3750  magn=  1.5405
     atom  18 (R=0.085)  charge=  5.3748  magn=  1.5315
     atom  19 (R=0.085)  charge=  5.3735  magn=  1.5301
     atom  20 (R=0.085)  charge=  5.3727  magn=  1.5331
     atom  21 (R=0.085)  charge=  5.3738  magn=  1.5191
     atom  22 (R=0.085)  charge=  5.3745  magn=  1.5370
     atom  23 (R=0.085)  charge=  5.3729  magn=  1.5174
     atom  24 (R=0.085)  charge=  5.3742  magn=  1.5483
     atom  25 (R=0.085)  charge=  5.3735  magn=  1.5370
     atom  26 (R=0.085)  charge=  5.3727  magn=  1.5311
     atom  27 (R=0.085)  charge=  5.3747  magn=  1.5305
     atom  28 (R=0.085)  charge=  5.3777  magn=  1.6108
     atom  29 (R=0.085)  charge=  5.3914  magn=  1.2617
     atom  30 (R=0.085)  charge=  5.3838  magn=  1.6064
     atom  31 (R=0.085)  charge=  5.3864  magn=  1.5339
     atom  32 (R=0.085)  charge=  5.3839  magn=  0.7576
     atom  33 (R=0.085)  charge=  5.3807  magn=  1.6037
     atom  34 (R=0.085)  charge=  5.3815  magn=  1.6168
     atom  35 (R=0.085)  charge=  5.3808  magn=  1.5893
     atom  36 (R=0.085)  charge=  5.3796  magn=  1.6039
     atom  37 (R=0.066)  charge=  1.0653  magn= -0.0183
     atom  38 (R=0.066)  charge=  2.9654  magn= -0.0262
     atom  39 (R=0.085)  charge=  0.7353  magn= -0.0108

     total cpu time spent up to now is      656.3 secs

     End of self-consistent calculation

 ------ SPIN UP ------------


          k = 0.0000 0.0000 0.0000 ( 36693 PWs)   bands (ev):

   -21.9477  -9.8027  -7.6188  -6.5161  -6.3811  -5.8288  -5.4654  -4.8036
    -4.7781  -4.7761  -4.7728  -4.7537  -4.7488  -4.7122  -4.4013  -4.2417
    -4.2396  -4.2366  -4.2086  -4.1998  -4.1684  -3.7226  -3.7193  -3.7140
    -3.7034  -3.6955  -3.6581  -3.5944  -3.5850  -3.5829  -3.5758  -3.5732
    -3.5171  -3.5101  -3.5050  -3.2141  -3.1993  -3.1980  -3.1942  -3.1921
    -3.1351  -3.1327  -3.1274  -3.1258  -3.1192  -3.1152  -3.1092  -3.0268
    -2.9692  -2.9668  -2.8983  -2.8952  -2.8915  -2.8840  -2.8805  -2.8658
    -2.8614  -2.8577  -2.8574  -2.8119  -2.7590  -2.7533  -2.7451  -2.7395
    -2.6731  -2.6268  -2.2374  -2.2212  -2.2136  -2.2122  -2.2060  -2.1122
    -2.0891  -2.0848  -2.0627  -2.0575  -2.0509  -2.0389  -2.0352  -2.0289
    -1.9937  -1.9817  -1.9741  -1.9360  -1.9274  -1.9238  -1.9087  -1.9051
    -1.9005  -1.8968  -1.8890  -1.8879  -1.8851  -1.8620  -1.8588  -1.8520
    -1.8510  -1.8464  -1.8441  -1.8430  -1.8391  -1.8377  -1.8354  -1.8325
    -1.8211  -1.8101  -1.7827  -1.7556  -1.7447  -1.6803  -1.6748  -1.5795
    -1.4805  -1.3950  -1.3904  -1.3877  -1.3848  -1.3796  -1.3665  -1.3531
    -1.3511  -1.3437  -1.3206  -1.2992  -1.2942  -1.2618  -1.1739  -1.1718
    -1.1419  -1.1341  -1.0531  -0.9980  -0.9780  -0.9619  -0.9567  -0.9323
    -0.9075  -0.9004  -0.8955  -0.8914  -0.8844  -0.8446  -0.7797  -0.7642
    -0.6795  -0.6518  -0.6502  -0.6459  -0.6232  -0.6106  -0.5886  -0.5865
    -0.5844  -0.5811  -0.5783  -0.5739  -0.5659  -0.5595  -0.5575  -0.5524
    -0.5443  -0.5408  -0.5278  -0.5212  -0.5074  -0.5040  -0.4966  -0.4924
    -0.4778  -0.4677  -0.4634  -0.4574  -0.4528  -0.4414  -0.4369  -0.4297
    -0.4242  -0.4209  -0.4009  -0.3784  -0.3587  -0.3527  -0.3497  -0.3421
    -0.3360  -0.3309  -0.3186  -0.3017  -0.2939  -0.2650  -0.2550  -0.2541
    -0.2521  -0.2432  -0.1889  -0.1856  -0.1787  -0.1683  -0.1398  -0.1123
     0.4276   0.9470

          k = 0.0000 0.2309 0.0000 ( 36641 PWs)   bands (ev):

   -21.9477  -9.7970  -7.4745  -6.5333  -6.2731  -5.8087  -5.5453  -5.4139
    -5.0180  -5.0107  -4.6480  -4.5193  -4.4331  -4.4279  -4.3627  -4.3127
    -4.2664  -4.2283  -4.1607  -4.1053  -4.0923  -3.8381  -3.7287  -3.7156
    -3.6435  -3.6189  -3.6011  -3.5945  -3.5911  -3.5848  -3.5651  -3.5404
    -3.5134  -3.4748  -3.4503  -3.4423  -3.4380  -3.2536  -3.2223  -3.2142
    -3.1923  -3.1588  -3.1540  -3.1441  -3.0941  -3.0699  -3.0245  -3.0092
    -2.9907  -2.9797  -2.9765  -2.9466  -2.8929  -2.8486  -2.8398  -2.8128
    -2.7798  -2.7570  -2.7469  -2.7369  -2.7165  -2.6990  -2.6812  -2.6698
    -2.6210  -2.5895  -2.3417  -2.3276  -2.3050  -2.2929  -2.2650  -2.1873
    -2.1825  -2.1756  -2.1620  -2.1545  -2.1474  -2.1303  -2.0988  -2.0627
    -2.0473  -2.0363  -2.0172  -1.9792  -1.9755  -1.9729  -1.9677  -1.9440
    -1.9405  -1.9352  -1.9304  -1.9246  -1.9118  -1.9004  -1.8485  -1.8417
    -1.8260  -1.7957  -1.7792  -1.7483  -1.7430  -1.7373  -1.7263  -1.7182
    -1.7112  -1.6970  -1.6908  -1.6866  -1.6747  -1.6645  -1.6418  -1.6341
    -1.6238  -1.6125  -1.5957  -1.5367  -1.5171  -1.4627  -1.4162  -1.4121
    -1.4027  -1.3922  -1.3841  -1.3823  -1.3704  -1.3591  -1.2697  -1.2449
    -1.2153  -1.1928  -1.1271  -1.1188  -1.0974  -1.0599  -1.0337  -1.0198
    -0.9676  -0.9512  -0.9282  -0.9153  -0.8873  -0.8760  -0.8487  -0.8440
    -0.8277  -0.7976  -0.7833  -0.7529  -0.7495  -0.7380  -0.7309  -0.7185
    -0.6960  -0.6568  -0.6498  -0.6461  -0.6210  -0.6047  -0.5866  -0.5821
    -0.5727  -0.5662  -0.5604  -0.5508  -0.5323  -0.5250  -0.5097  -0.5025
    -0.4530  -0.4385  -0.4266  -0.4037  -0.3884  -0.3696  -0.3456  -0.3315
    -0.3224  -0.3105  -0.3037  -0.3005  -0.2801  -0.2731  -0.2673  -0.2259
    -0.1890  -0.1804  -0.1761  -0.1548  -0.1487  -0.1305  -0.1068  -0.0915
    -0.0342  -0.0011   0.1681   0.1988   0.2723   0.3615   0.4473   0.4789
     0.5074   0.7916

          k = 0.0000 0.4619 0.0000 ( 36606 PWs)   bands (ev):

   -21.9477  -9.7880  -7.0559  -6.5697  -6.3398  -6.0650  -5.6418  -5.4300
    -5.1602  -5.1383  -5.0358  -4.3287  -4.2658  -4.2601  -4.2193  -4.1853
    -4.0737  -4.0689  -4.0252  -3.9379  -3.9335  -3.9261  -3.8274  -3.7571
    -3.7508  -3.7424  -3.7372  -3.6838  -3.6375  -3.6302  -3.6084  -3.4777
    -3.4656  -3.4539  -3.4377  -3.4211  -3.4054  -3.3151  -3.3112  -3.3006
    -3.2979  -3.2872  -3.1768  -3.1579  -3.0766  -3.0508  -2.9825  -2.9726
    -2.9482  -2.9290  -2.9050  -2.9035  -2.8867  -2.8676  -2.8202  -2.8046
    -2.7877  -2.7488  -2.7291  -2.6829  -2.5937  -2.5863  -2.5678  -2.5349
    -2.4997  -2.4755  -2.4571  -2.4406  -2.4129  -2.3603  -2.3097  -2.3059
    -2.3017  -2.2931  -2.2768  -2.2648  -2.2575  -2.2445  -2.2365  -2.1871
    -2.1680  -2.1441  -2.1339  -2.1098  -2.0880  -2.0655  -2.0433  -1.9850
    -1.9751  -1.9716  -1.9444  -1.9316  -1.9032  -1.8723  -1.8680  -1.8591
    -1.8464  -1.8254  -1.8203  -1.8009  -1.7942  -1.7773  -1.7666  -1.7532
    -1.7374  -1.7140  -1.6742  -1.6580  -1.6058  -1.5954  -1.5702  -1.5592
    -1.5435  -1.5235  -1.5104  -1.4657  -1.4536  -1.4403  -1.4302  -1.4251
    -1.4202  -1.4137  -1.4047  -1.4010  -1.3946  -1.3828  -1.3711  -1.3531
    -1.3307  -1.3195  -1.2684  -1.2218  -1.2029  -1.1865  -1.1760  -1.1440
    -1.1355  -1.0857  -1.0644  -1.0479  -1.0381  -1.0026  -0.9729  -0.9368
    -0.9224  -0.8879  -0.8715  -0.8638  -0.8331  -0.8106  -0.7804  -0.7607
    -0.7244  -0.6749  -0.6675  -0.6474  -0.6459  -0.6416  -0.6285  -0.6242
    -0.6026  -0.5983  -0.5112  -0.4945  -0.4903  -0.4816  -0.4663  -0.4608
    -0.4440  -0.4277  -0.4253  -0.4139  -0.3818  -0.3620  -0.3135  -0.3025
    -0.2909  -0.2778  -0.2520  -0.2107  -0.1976  -0.1716  -0.1571  -0.1247
    -0.0844  -0.0772  -0.0728  -0.0552  -0.0531  -0.0497  -0.0349   0.0090
     0.0587   0.1042   0.4098   0.7517   0.9775   1.1292   1.1787   1.3346
     1.4502   1.5476

          k = 0.2000-0.1155 0.0000 ( 36641 PWs)   bands (ev):

   -21.9477  -9.7977  -7.4731  -6.5190  -6.2833  -5.8278  -5.5325  -5.4136
    -5.0190  -5.0108  -4.6509  -4.5094  -4.4321  -4.4290  -4.3625  -4.3055
    -4.2620  -4.2451  -4.1529  -4.1053  -4.1000  -3.8339  -3.7264  -3.7187
    -3.6477  -3.6173  -3.6025  -3.5936  -3.5908  -3.5736  -3.5643  -3.5497
    -3.5014  -3.4749  -3.4521  -3.4412  -3.4384  -3.2554  -3.2222  -3.2109
    -3.1833  -3.1563  -3.1550  -3.1479  -3.1093  -3.0505  -3.0246  -3.0138
    -2.9896  -2.9852  -2.9671  -2.9475  -2.8979  -2.8534  -2.8368  -2.8160
    -2.7813  -2.7685  -2.7490  -2.7414  -2.7215  -2.7010  -2.6804  -2.6694
    -2.6159  -2.5886  -2.3366  -2.3293  -2.3091  -2.3033  -2.2659  -2.1890
    -2.1815  -2.1740  -2.1620  -2.1509  -2.1467  -2.1337  -2.1154  -2.0628
    -2.0446  -2.0363  -2.0156  -1.9797  -1.9776  -1.9741  -1.9578  -1.9500
    -1.9384  -1.9308  -1.9274  -1.9224  -1.9144  -1.8932  -1.8680  -1.8412
    -1.8228  -1.8090  -1.7570  -1.7518  -1.7385  -1.7344  -1.7271  -1.7220
    -1.7068  -1.6976  -1.6882  -1.6869  -1.6736  -1.6674  -1.6431  -1.6394
    -1.6200  -1.6112  -1.5924  -1.5260  -1.5137  -1.4563  -1.4192  -1.4128
    -1.4063  -1.3962  -1.3871  -1.3783  -1.3683  -1.3517  -1.3082  -1.2270
    -1.2164  -1.1962  -1.1251  -1.1182  -1.1011  -1.0550  -1.0310  -1.0197
    -0.9954  -0.9342  -0.9228  -0.9031  -0.8807  -0.8741  -0.8437  -0.8313
    -0.8200  -0.8073  -0.7934  -0.7563  -0.7480  -0.7345  -0.7292  -0.7206
    -0.6965  -0.6598  -0.6516  -0.6457  -0.6383  -0.6113  -0.5902  -0.5830
    -0.5729  -0.5639  -0.5604  -0.5499  -0.5284  -0.5236  -0.5112  -0.4922
    -0.4622  -0.4523  -0.4335  -0.4020  -0.3861  -0.3675  -0.3499  -0.3305
    -0.3230  -0.3097  -0.3057  -0.3014  -0.2792  -0.2747  -0.2663  -0.2294
    -0.1899  -0.1847  -0.1770  -0.1557  -0.1499  -0.1379  -0.1094  -0.0920
    -0.0285   0.0138   0.1832   0.2000   0.2924   0.3900   0.4516   0.4766
     0.4931   0.7974

          k = 0.2000 0.1155 0.0000 ( 36641 PWs)   bands (ev):

   -21.9477  -9.7968  -7.4753  -6.5417  -6.2679  -5.7996  -5.5174  -5.4506
    -5.0167  -5.0064  -4.6482  -4.5221  -4.4324  -4.4272  -4.3645  -4.3125
    -4.2657  -4.2273  -4.1637  -4.1043  -4.0903  -3.8391  -3.7263  -3.7162
    -3.6407  -3.6229  -3.6001  -3.5962  -3.5907  -3.5853  -3.5641  -3.5438
    -3.5089  -3.4750  -3.4533  -3.4402  -3.4340  -3.2728  -3.2213  -3.2130
    -3.1882  -3.1588  -3.1528  -3.1453  -3.1081  -3.0437  -3.0259  -3.0108
    -2.9852  -2.9770  -2.9660  -2.9447  -2.9202  -2.8549  -2.8422  -2.8057
    -2.7816  -2.7605  -2.7463  -2.7272  -2.7150  -2.6984  -2.6806  -2.6665
    -2.6356  -2.5819  -2.3402  -2.3345  -2.3026  -2.2911  -2.2654  -2.1870
    -2.1840  -2.1750  -2.1621  -2.1575  -2.1452  -2.1267  -2.1018  -2.0594
    -2.0520  -2.0343  -2.0109  -1.9794  -1.9744  -1.9714  -1.9662  -1.9460
    -1.9408  -1.9357  -1.9303  -1.9255  -1.9102  -1.8903  -1.8552  -1.8449
    -1.8282  -1.7985  -1.7645  -1.7481  -1.7427  -1.7317  -1.7245  -1.7205
    -1.7127  -1.7020  -1.6932  -1.6862  -1.6823  -1.6626  -1.6403  -1.6355
    -1.6234  -1.6099  -1.5919  -1.5378  -1.5117  -1.4762  -1.4145  -1.4085
    -1.4050  -1.3962  -1.3842  -1.3809  -1.3674  -1.3605  -1.2577  -1.2342
    -1.2228  -1.1918  -1.1278  -1.1209  -1.0921  -1.0649  -1.0343  -1.0293
    -0.9729  -0.9440  -0.9319  -0.9054  -0.8966  -0.8786  -0.8466  -0.8425
    -0.8233  -0.7973  -0.7863  -0.7515  -0.7471  -0.7424  -0.7381  -0.7179
    -0.6976  -0.6565  -0.6468  -0.6447  -0.6228  -0.5941  -0.5896  -0.5825
    -0.5689  -0.5668  -0.5605  -0.5520  -0.5343  -0.5213  -0.5155  -0.5121
    -0.4510  -0.4338  -0.4225  -0.4062  -0.3847  -0.3803  -0.3432  -0.3305
    -0.3259  -0.3115  -0.3040  -0.2988  -0.2790  -0.2725  -0.2661  -0.2222
    -0.1876  -0.1804  -0.1765  -0.1523  -0.1506  -0.1217  -0.1032  -0.0923
    -0.0358  -0.0091   0.1757   0.1999   0.2402   0.3637   0.4458   0.4723
     0.5102   0.7780

          k = 0.2000 0.3464 0.0000 ( 36608 PWs)   bands (ev):

   -21.9477  -9.7892  -7.1959  -6.5528  -6.1472  -5.8800  -5.8126  -5.6259
    -5.4450  -4.7327  -4.6770  -4.4442  -4.4385  -4.3783  -4.2172  -4.2125
    -4.1166  -4.1143  -4.1025  -3.9850  -3.9569  -3.8400  -3.8296  -3.7682
    -3.7247  -3.6348  -3.6313  -3.6035  -3.5838  -3.5759  -3.5664  -3.5496
    -3.5287  -3.5100  -3.4766  -3.4549  -3.4188  -3.3868  -3.3675  -3.2750
    -3.2445  -3.1702  -3.1509  -3.1239  -3.1099  -3.0950  -3.0332  -2.9937
    -2.9564  -2.9259  -2.9194  -2.9112  -2.8733  -2.8592  -2.8367  -2.8293
    -2.8066  -2.7309  -2.7012  -2.6401  -2.6257  -2.6229  -2.6027  -2.5687
    -2.5637  -2.5031  -2.4484  -2.3690  -2.3600  -2.3273  -2.3131  -2.2873
    -2.2712  -2.2596  -2.2560  -2.2310  -2.2220  -2.2078  -2.2031  -2.1832
    -2.1633  -2.1514  -2.1074  -2.0650  -2.0120  -2.0048  -1.9904  -1.9701
    -1.9490  -1.9419  -1.9225  -1.8964  -1.8890  -1.8584  -1.8481  -1.8411
    -1.8315  -1.8295  -1.8159  -1.7994  -1.7947  -1.7796  -1.7701  -1.7548
    -1.7308  -1.7094  -1.6896  -1.6699  -1.6614  -1.6513  -1.6167  -1.6105
    -1.5935  -1.5821  -1.5675  -1.5451  -1.5097  -1.4985  -1.4748  -1.4532
    -1.4424  -1.4370  -1.4248  -1.4024  -1.3950  -1.3880  -1.3656  -1.3376
    -1.2829  -1.2770  -1.2668  -1.2072  -1.1415  -1.1355  -1.1190  -1.0505
    -1.0096  -0.9979  -0.9894  -0.9818  -0.9671  -0.9606  -0.9451  -0.9411
    -0.9162  -0.8969  -0.8755  -0.8371  -0.8227  -0.8155  -0.7908  -0.7840
    -0.7648  -0.7483  -0.7236  -0.7176  -0.7110  -0.6974  -0.6071  -0.5506
    -0.5446  -0.5191  -0.5091  -0.5040  -0.4904  -0.4774  -0.4621  -0.4544
    -0.4385  -0.4006  -0.3777  -0.3600  -0.3480  -0.3331  -0.2949  -0.2898
    -0.2764  -0.2746  -0.2649  -0.2444  -0.2332  -0.2284  -0.2225  -0.1967
    -0.1875  -0.1153  -0.0994  -0.0967  -0.0557  -0.0498  -0.0067   0.0470
     0.2842   0.2913   0.3511   0.4804   0.6082   0.6656   1.0138   1.1674
     1.2530   1.3635

          k = 0.2000-0.5774 0.0000 ( 36660 PWs)   bands (ev):

   -21.9477  -9.7855  -6.7234  -6.6303  -6.4594  -6.0765  -5.9002  -5.5392
    -5.2742  -5.1854  -4.7493  -4.4241  -4.1789  -4.1343  -4.0439  -4.0032
    -3.9961  -3.9769  -3.9701  -3.9444  -3.8976  -3.8894  -3.8858  -3.8767
    -3.8066  -3.7607  -3.7365  -3.7296  -3.7051  -3.6952  -3.5802  -3.5551
    -3.5525  -3.5358  -3.5230  -3.4683  -3.3874  -3.3558  -3.2900  -3.2602
    -3.2521  -3.2138  -3.1657  -3.1514  -3.1273  -3.0870  -3.0420  -3.0342
    -2.9926  -2.9657  -2.9145  -2.8605  -2.8311  -2.8128  -2.7979  -2.7551
    -2.7271  -2.6749  -2.6660  -2.6535  -2.6464  -2.6170  -2.6024  -2.5471
    -2.5035  -2.4581  -2.4461  -2.4371  -2.4322  -2.3746  -2.3563  -2.3166
    -2.2982  -2.2666  -2.2597  -2.2526  -2.2458  -2.2308  -2.1982  -2.1830
    -2.1725  -2.1589  -2.1470  -2.1305  -2.1222  -2.0840  -2.0557  -2.0384
    -2.0247  -2.0165  -1.9580  -1.9348  -1.9046  -1.8860  -1.8691  -1.8603
    -1.8446  -1.8330  -1.8268  -1.8139  -1.8096  -1.7847  -1.7693  -1.7603
    -1.7066  -1.6892  -1.6779  -1.6711  -1.6597  -1.6520  -1.6464  -1.6391
    -1.6246  -1.6222  -1.6003  -1.5723  -1.5524  -1.5291  -1.5157  -1.4969
    -1.4415  -1.4329  -1.3990  -1.3760  -1.3698  -1.3545  -1.3443  -1.3069
    -1.2759  -1.2642  -1.2475  -1.1902  -1.1628  -1.1380  -1.1258  -1.1012
    -1.0868  -1.0756  -1.0573  -1.0452  -1.0216  -1.0060  -0.9779  -0.9672
    -0.9236  -0.9148  -0.9048  -0.8932  -0.8672  -0.8464  -0.8089  -0.8003
    -0.7882  -0.7741  -0.7533  -0.7433  -0.7392  -0.7080  -0.6780  -0.5734
    -0.5155  -0.5068  -0.4981  -0.4912  -0.4795  -0.4735  -0.4623  -0.4400
    -0.4179  -0.4145  -0.4026  -0.3873  -0.3392  -0.2971  -0.2726  -0.2663
    -0.2490  -0.2440  -0.2262  -0.2061  -0.1850  -0.1688  -0.1636  -0.1477
    -0.1392  -0.0841  -0.0727  -0.0673  -0.0528  -0.0387  -0.0167   0.0322
     0.1990   0.3266   0.5941   0.8088   1.0753   1.2295   1.3432   1.6127
     1.7287   1.7691

          k = 0.2000-0.3464 0.0000 ( 36608 PWs)   bands (ev):

   -21.9477  -9.7907  -7.1874  -6.5369  -6.1529  -5.9051  -5.8331  -5.6311
    -5.4117  -4.7469  -4.6674  -4.4423  -4.4282  -4.3830  -4.2152  -4.2138
    -4.1208  -4.1126  -4.0895  -3.9838  -3.9687  -3.8382  -3.8268  -3.7733
    -3.7280  -3.6435  -3.6322  -3.6049  -3.5823  -3.5753  -3.5700  -3.5372
    -3.5289  -3.5121  -3.4652  -3.4388  -3.4200  -3.3788  -3.3612  -3.2564
    -3.2458  -3.1821  -3.1540  -3.1359  -3.1080  -3.0938  -3.0312  -2.9780
    -2.9475  -2.9416  -2.9197  -2.9013  -2.8893  -2.8570  -2.8370  -2.8195
    -2.8019  -2.7680  -2.6880  -2.6745  -2.6298  -2.6189  -2.5868  -2.5696
    -2.5611  -2.5356  -2.4408  -2.3730  -2.3564  -2.3238  -2.3128  -2.2840
    -2.2693  -2.2641  -2.2579  -2.2323  -2.2169  -2.2125  -2.1957  -2.1841
    -2.1710  -2.1588  -2.1051  -2.0796  -2.0116  -2.0046  -1.9819  -1.9658
    -1.9558  -1.9421  -1.9265  -1.8957  -1.8855  -1.8631  -1.8539  -1.8480
    -1.8349  -1.8230  -1.8184  -1.8029  -1.7915  -1.7857  -1.7671  -1.7509
    -1.7402  -1.7257  -1.7020  -1.6807  -1.6628  -1.6501  -1.6142  -1.6106
    -1.6017  -1.5736  -1.5673  -1.5354  -1.5053  -1.4906  -1.4807  -1.4526
    -1.4359  -1.4311  -1.4255  -1.4045  -1.3991  -1.3763  -1.3658  -1.3195
    -1.2903  -1.2606  -1.2519  -1.2128  -1.1520  -1.1261  -1.1220  -1.0308
    -1.0131  -0.9975  -0.9856  -0.9770  -0.9657  -0.9621  -0.9428  -0.9258
    -0.9166  -0.9005  -0.8760  -0.8395  -0.8307  -0.8210  -0.7981  -0.7793
    -0.7671  -0.7513  -0.7309  -0.7134  -0.7072  -0.6952  -0.6015  -0.5559
    -0.5452  -0.5240  -0.5152  -0.5036  -0.4897  -0.4752  -0.4651  -0.4571
    -0.4347  -0.4035  -0.3619  -0.3593  -0.3494  -0.3411  -0.3043  -0.2908
    -0.2766  -0.2740  -0.2679  -0.2422  -0.2350  -0.2277  -0.2191  -0.2008
    -0.1950  -0.1198  -0.0971  -0.0953  -0.0525  -0.0469  -0.0281   0.0621
     0.2526   0.2896   0.3379   0.5213   0.5773   0.6898   1.1255   1.1652
     1.2851   1.3526

          k = 0.4000-0.2309 0.0000 ( 36606 PWs)   bands (ev):

   -21.9477  -9.7898  -7.0466  -6.5249  -6.3850  -6.0738  -5.6785  -5.3933
    -5.1650  -5.1421  -5.0230  -4.3196  -4.2598  -4.2561  -4.2414  -4.1813
    -4.0734  -4.0699  -4.0225  -3.9391  -3.9325  -3.9275  -3.8224  -3.7581
    -3.7538  -3.7408  -3.7383  -3.6839  -3.6334  -3.6278  -3.5806  -3.4798
    -3.4655  -3.4533  -3.4385  -3.4179  -3.4115  -3.3284  -3.3052  -3.2999
    -3.2936  -3.2856  -3.1922  -3.1052  -3.0834  -3.0473  -2.9858  -2.9799
    -2.9486  -2.9358  -2.9079  -2.9010  -2.8873  -2.8604  -2.8443  -2.8056
    -2.7879  -2.7452  -2.7330  -2.7154  -2.5973  -2.5863  -2.5651  -2.5431
    -2.5131  -2.4780  -2.4533  -2.4424  -2.4190  -2.3636  -2.3115  -2.3083
    -2.2997  -2.2956  -2.2858  -2.2652  -2.2580  -2.2442  -2.2229  -2.2048
    -2.1735  -2.1404  -2.1332  -2.1112  -2.0821  -2.0671  -2.0251  -1.9860
    -1.9735  -1.9713  -1.9437  -1.9270  -1.9127  -1.8758  -1.8659  -1.8541
    -1.8500  -1.8312  -1.8257  -1.7996  -1.7825  -1.7763  -1.7675  -1.7548
    -1.7368  -1.7140  -1.6734  -1.6694  -1.6057  -1.5925  -1.5793  -1.5711
    -1.5404  -1.5224  -1.5013  -1.4678  -1.4533  -1.4315  -1.4295  -1.4240
    -1.4223  -1.4157  -1.4068  -1.3974  -1.3915  -1.3708  -1.3650  -1.3617
    -1.3528  -1.3168  -1.2520  -1.2280  -1.2015  -1.1822  -1.1739  -1.1557
    -1.1202  -1.0817  -1.0571  -1.0496  -1.0362  -1.0005  -0.9643  -0.9225
    -0.9052  -0.8862  -0.8754  -0.8528  -0.8363  -0.8200  -0.7960  -0.7528
    -0.7045  -0.6823  -0.6681  -0.6651  -0.6492  -0.6433  -0.6337  -0.6251
    -0.6113  -0.6004  -0.5105  -0.4981  -0.4865  -0.4780  -0.4699  -0.4632
    -0.4518  -0.4409  -0.4171  -0.4111  -0.3832  -0.3715  -0.3192  -0.3025
    -0.2943  -0.2730  -0.2621  -0.2135  -0.1968  -0.1727  -0.1599  -0.1238
    -0.0951  -0.0799  -0.0767  -0.0578  -0.0539  -0.0491  -0.0379   0.0179
     0.0586   0.1059   0.4353   0.7440   0.9993   1.1603   1.1825   1.3947
     1.4886   1.5485

          k = 0.4000 0.0000 0.0000 ( 36608 PWs)   bands (ev):

   -21.9477  -9.7903  -7.1906  -6.5430  -6.1522  -5.8931  -5.8265  -5.6262
    -5.4263  -4.7460  -4.6692  -4.4405  -4.4289  -4.3820  -4.2174  -4.2132
    -4.1216  -4.1132  -4.0907  -3.9835  -3.9656  -3.8381  -3.8277  -3.7701
    -3.7247  -3.6444  -3.6330  -3.6081  -3.5825  -3.5732  -3.5664  -3.5370
    -3.5313  -3.5113  -3.4640  -3.4369  -3.4224  -3.3849  -3.3661  -3.2743
    -3.2420  -3.1759  -3.1526  -3.1288  -3.1128  -3.0931  -3.0167  -2.9895
    -2.9514  -2.9379  -2.9188  -2.9082  -2.8841  -2.8577  -2.8436  -2.8265
    -2.8037  -2.7422  -2.6947  -2.6638  -2.6332  -2.6192  -2.6034  -2.5713
    -2.5602  -2.5227  -2.4470  -2.3727  -2.3625  -2.3291  -2.3103  -2.2863
    -2.2728  -2.2600  -2.2550  -2.2344  -2.2181  -2.2054  -2.1946  -2.1875
    -2.1807  -2.1487  -2.1027  -2.0634  -2.0122  -2.0058  -1.9799  -1.9704
    -1.9590  -1.9357  -1.9255  -1.8966  -1.8858  -1.8610  -1.8489  -1.8460
    -1.8358  -1.8244  -1.8076  -1.8032  -1.7940  -1.7856  -1.7663  -1.7556
    -1.7405  -1.7268  -1.6989  -1.6737  -1.6606  -1.6452  -1.6104  -1.6082
    -1.5970  -1.5802  -1.5691  -1.5363  -1.5033  -1.4986  -1.4798  -1.4497
    -1.4408  -1.4314  -1.4253  -1.4063  -1.3967  -1.3760  -1.3637  -1.3298
    -1.2876  -1.2685  -1.2542  -1.2076  -1.1528  -1.1300  -1.1151  -1.0462
    -1.0106  -0.9970  -0.9916  -0.9768  -0.9679  -0.9611  -0.9406  -0.9335
    -0.9138  -0.8976  -0.8756  -0.8393  -0.8337  -0.8190  -0.7925  -0.7860
    -0.7697  -0.7515  -0.7232  -0.7142  -0.7074  -0.6970  -0.6061  -0.5507
    -0.5465  -0.5205  -0.5103  -0.5014  -0.4928  -0.4776  -0.4620  -0.4566
    -0.4362  -0.4036  -0.3704  -0.3631  -0.3479  -0.3372  -0.3003  -0.2914
    -0.2785  -0.2721  -0.2684  -0.2439  -0.2334  -0.2281  -0.2251  -0.1954
    -0.1888  -0.1157  -0.0997  -0.0957  -0.0533  -0.0435  -0.0262   0.0483
     0.2662   0.2903   0.3418   0.4991   0.5989   0.6853   1.0822   1.1565
     1.2755   1.3823

          k = 0.4000 0.2309 0.0000 ( 36606 PWs)   bands (ev):

   -21.9477  -9.7873  -7.0616  -6.5893  -6.3200  -6.0591  -5.6023  -5.4702
    -5.1611  -5.1287  -5.0441  -4.3281  -4.2672  -4.2618  -4.2160  -4.1885
    -4.0737  -4.0676  -4.0239  -3.9360  -3.9316  -3.9262  -3.8288  -3.7551
    -3.7497  -3.7428  -3.7361  -3.6819  -3.6345  -3.6303  -3.6142  -3.4784
    -3.4699  -3.4554  -3.4438  -3.4184  -3.4060  -3.3345  -3.3069  -3.3019
    -3.2920  -3.2887  -3.2043  -3.1178  -3.0776  -3.0315  -2.9826  -2.9675
    -2.9461  -2.9415  -2.9056  -2.9024  -2.8947  -2.8762  -2.8110  -2.8027
    -2.7935  -2.7516  -2.7326  -2.6683  -2.5888  -2.5817  -2.5723  -2.5428
    -2.5097  -2.4649  -2.4552  -2.4468  -2.4257  -2.3595  -2.3163  -2.3049
    -2.3013  -2.2983  -2.2791  -2.2641  -2.2523  -2.2487  -2.2260  -2.1820
    -2.1624  -2.1480  -2.1321  -2.1074  -2.0833  -2.0707  -2.0298  -1.9921
    -1.9769  -1.9723  -1.9433  -1.9304  -1.8969  -1.8720  -1.8649  -1.8607
    -1.8477  -1.8279  -1.8203  -1.7970  -1.7894  -1.7771  -1.7707  -1.7539
    -1.7344  -1.7168  -1.6732  -1.6524  -1.6117  -1.5969  -1.5682  -1.5602
    -1.5409  -1.5292  -1.5036  -1.4595  -1.4494  -1.4457  -1.4358  -1.4270
    -1.4191  -1.4133  -1.4040  -1.3984  -1.3926  -1.3889  -1.3700  -1.3501
    -1.3316  -1.3069  -1.2763  -1.2209  -1.1980  -1.1896  -1.1803  -1.1369
    -1.1276  -1.0928  -1.0681  -1.0471  -1.0416  -0.9944  -0.9856  -0.9442
    -0.9238  -0.8879  -0.8724  -0.8663  -0.8363  -0.8068  -0.7790  -0.7644
    -0.7262  -0.6787  -0.6680  -0.6506  -0.6437  -0.6364  -0.6293  -0.6190
    -0.6055  -0.5999  -0.5036  -0.4981  -0.4939  -0.4784  -0.4654  -0.4542
    -0.4450  -0.4311  -0.4191  -0.4090  -0.3905  -0.3636  -0.3116  -0.2984
    -0.2923  -0.2813  -0.2504  -0.2102  -0.1970  -0.1683  -0.1584  -0.1229
    -0.0850  -0.0769  -0.0735  -0.0543  -0.0526  -0.0503  -0.0294   0.0123
     0.0574   0.0988   0.3812   0.8293   0.9401   1.0970   1.1810   1.2416
     1.4748   1.5554

          k = 0.4000-0.6928 0.0000 ( 36660 PWs)   bands (ev):

   -21.9477  -9.7851  -6.7475  -6.6289  -6.4300  -6.0836  -5.9104  -5.4921
    -5.3120  -5.1878  -4.7454  -4.4232  -4.1816  -4.1365  -4.0417  -4.0002
    -3.9963  -3.9780  -3.9679  -3.9433  -3.8962  -3.8899  -3.8865  -3.8756
    -3.8034  -3.7663  -3.7369  -3.7289  -3.7036  -3.6987  -3.5751  -3.5565
    -3.5517  -3.5400  -3.5218  -3.4675  -3.3921  -3.3599  -3.3045  -3.2565
    -3.2535  -3.2059  -3.1691  -3.1558  -3.1267  -3.0552  -3.0433  -3.0332
    -2.9870  -2.9654  -2.9423  -2.8669  -2.8367  -2.8155  -2.7817  -2.7536
    -2.7124  -2.6759  -2.6616  -2.6580  -2.6491  -2.6217  -2.5845  -2.5593
    -2.5199  -2.4577  -2.4489  -2.4382  -2.4208  -2.3794  -2.3675  -2.3143
    -2.3014  -2.2666  -2.2627  -2.2516  -2.2370  -2.2313  -2.1930  -2.1804
    -2.1707  -2.1617  -2.1496  -2.1275  -2.1201  -2.0777  -2.0611  -2.0400
    -2.0213  -2.0142  -1.9519  -1.9392  -1.8999  -1.8881  -1.8772  -1.8644
    -1.8392  -1.8362  -1.8179  -1.8111  -1.8046  -1.7757  -1.7690  -1.7621
    -1.7025  -1.6869  -1.6794  -1.6733  -1.6562  -1.6525  -1.6496  -1.6375
    -1.6298  -1.6230  -1.6000  -1.5847  -1.5542  -1.5268  -1.5119  -1.5010
    -1.4372  -1.4300  -1.4023  -1.3787  -1.3632  -1.3542  -1.3387  -1.3130
    -1.2764  -1.2670  -1.2520  -1.1982  -1.1596  -1.1355  -1.1255  -1.1000
    -1.0872  -1.0680  -1.0595  -1.0487  -1.0249  -1.0072  -0.9706  -0.9587
    -0.9246  -0.9158  -0.9080  -0.8841  -0.8726  -0.8497  -0.8126  -0.8079
    -0.7872  -0.7760  -0.7604  -0.7449  -0.7287  -0.7084  -0.6806  -0.5763
    -0.5148  -0.5061  -0.5001  -0.4865  -0.4818  -0.4721  -0.4569  -0.4381
    -0.4216  -0.4082  -0.4054  -0.3951  -0.3352  -0.2839  -0.2732  -0.2680
    -0.2611  -0.2431  -0.2233  -0.2033  -0.1803  -0.1682  -0.1610  -0.1461
    -0.1443  -0.0928  -0.0740  -0.0666  -0.0521  -0.0373  -0.0186   0.0281
     0.1957   0.3283   0.6212   0.8106   1.0415   1.2273   1.3158   1.6459
     1.7145   1.7627

          k = 0.4000-0.4619 0.0000 ( 36660 PWs)   bands (ev):

   -21.9477  -9.7866  -6.6657  -6.6407  -6.5139  -6.0620  -5.8931  -5.5932
    -5.2273  -5.1807  -4.7622  -4.4241  -4.1783  -4.1342  -4.0322  -4.0078
    -3.9971  -3.9729  -3.9692  -3.9473  -3.8985  -3.8898  -3.8867  -3.8720
    -3.8028  -3.7564  -3.7401  -3.7312  -3.7057  -3.6956  -3.5992  -3.5567
    -3.5464  -3.5255  -3.5101  -3.4531  -3.3977  -3.3715  -3.2788  -3.2568
    -3.2476  -3.2118  -3.1704  -3.1546  -3.1256  -3.0691  -3.0416  -3.0350
    -2.9942  -2.9689  -2.9191  -2.8598  -2.8299  -2.8193  -2.8007  -2.7568
    -2.7403  -2.6778  -2.6630  -2.6498  -2.6421  -2.6250  -2.6081  -2.5627
    -2.5081  -2.4615  -2.4444  -2.4391  -2.4315  -2.3752  -2.3654  -2.3148
    -2.3018  -2.2695  -2.2618  -2.2560  -2.2471  -2.2194  -2.1973  -2.1878
    -2.1743  -2.1654  -2.1438  -2.1246  -2.1220  -2.0988  -2.0482  -2.0240
    -2.0175  -1.9986  -1.9598  -1.9397  -1.9111  -1.8924  -1.8767  -1.8625
    -1.8435  -1.8291  -1.8231  -1.8221  -1.8041  -1.7967  -1.7758  -1.7658
    -1.7115  -1.6866  -1.6755  -1.6689  -1.6566  -1.6542  -1.6445  -1.6378
    -1.6303  -1.6200  -1.6026  -1.5648  -1.5602  -1.5258  -1.5152  -1.4848
    -1.4311  -1.4273  -1.3929  -1.3813  -1.3668  -1.3612  -1.3402  -1.2995
    -1.2779  -1.2644  -1.2419  -1.1996  -1.1752  -1.1330  -1.1191  -1.1049
    -1.0802  -1.0754  -1.0622  -1.0386  -1.0173  -0.9978  -0.9816  -0.9733
    -0.9295  -0.9044  -0.8988  -0.8914  -0.8805  -0.8429  -0.8086  -0.7929
    -0.7850  -0.7752  -0.7565  -0.7499  -0.7382  -0.7141  -0.6752  -0.5697
    -0.5164  -0.5088  -0.5028  -0.4930  -0.4822  -0.4768  -0.4565  -0.4485
    -0.4180  -0.4043  -0.3996  -0.3894  -0.3456  -0.2973  -0.2761  -0.2690
    -0.2536  -0.2441  -0.2253  -0.2119  -0.1821  -0.1690  -0.1633  -0.1471
    -0.1369  -0.0805  -0.0752  -0.0672  -0.0523  -0.0381  -0.0185   0.0304
     0.2053   0.3144   0.5498   0.8158   1.1832   1.2272   1.4062   1.5534
     1.7298   1.7785

 ------ SPIN DOWN ----------


          k = 0.0000 0.0000 0.0000 ( 36693 PWs)   bands (ev):

   -22.0040  -9.8724  -7.7440  -6.5247  -6.4518  -5.8256  -5.4882  -4.6031
    -4.5763  -4.5731  -4.5700  -4.5498  -4.5394  -4.4406  -3.7050  -3.6981
    -3.6951  -3.6740  -3.6633  -3.6499  -3.5213  -2.8856  -2.7594  -2.7538
    -2.7444  -2.7358  -2.6432  -2.6126  -2.2970  -2.2901  -2.2832  -2.2748
    -2.2647  -2.2306  -2.0853  -2.0780  -2.0173  -2.0016  -1.9859  -1.9811
    -1.9057  -1.8996  -1.8496  -1.8454  -1.8106  -1.7770  -1.7618  -1.7340
    -1.7176  -1.6710  -1.5262  -1.5001  -1.4839  -1.4698  -1.4531  -1.4509
    -1.4439  -1.4423  -1.4122  -1.4060  -1.3847  -1.3671  -1.3637  -1.3625
    -1.2792  -1.2648  -0.8855  -0.8205  -0.8061  -0.7871  -0.7846  -0.6613
    -0.6201  -0.5710  -0.4914  -0.4815  -0.4683  -0.4605  -0.4515  -0.4420
    -0.4185  -0.3973  -0.3730  -0.3647  -0.3630  -0.3616  -0.3331  -0.3069
    -0.2981  -0.2709  -0.2607  -0.2602  -0.2336  -0.2198  -0.2114  -0.2082
    -0.2025  -0.1937  -0.1842  -0.1819  -0.1746  -0.1712  -0.1098  -0.0812
    -0.0707  -0.0467  -0.0329  -0.0257   0.0367   0.0390   0.0500   0.0516
     0.0557   0.0578   0.0621   0.0655   0.1313   0.1336   0.1847   0.2107
     0.2180   0.2271   0.2362   0.2509   0.3271   0.4385   0.4504   0.4840
     0.5103   0.5297   0.5404   0.5431   0.6028   0.7628   0.8241   0.8622
     0.8767   0.9340   1.0034   1.0481   1.0620   1.0973   1.1060   1.1086
     1.2011   1.2470   1.2588   1.2601   1.2734   1.2826   1.2882   1.3109
     1.3271   1.3408   1.3552   1.3662   1.3771   1.3836   1.3925   1.4201
     1.4267   1.4298   1.4328   1.4419   1.4764   1.4923   1.4991   1.5119
     1.5210   1.5388   1.5463   1.5486   1.5583   1.5636   1.5649   1.5988
     1.6033   1.6245   1.6286   1.6364   1.6453   1.6524   1.6570   1.6892
     1.6913   1.6986   1.7007   1.7053   1.7101   1.7148   1.7222   1.7259
     1.7341   1.7795   1.7802   1.9122   1.9303   1.9328   1.9354   1.9380
     1.9398   1.9526

          k = 0.0000 0.2309 0.0000 ( 36641 PWs)   bands (ev):

   -22.0040  -9.8668  -7.5988  -6.5467  -6.3328  -5.8224  -5.5605  -5.4358
    -4.9465  -4.9378  -4.4271  -4.3123  -4.0260  -4.0180  -3.9190  -3.8722
    -3.7331  -3.4766  -3.3507  -3.3272  -3.2461  -2.9930  -2.8513  -2.7381
    -2.7109  -2.6892  -2.6084  -2.5860  -2.4083  -2.3243  -2.3153  -2.3070
    -2.2761  -2.2532  -2.2263  -2.2219  -2.1868  -2.1653  -2.0476  -2.0366
    -1.9614  -1.9552  -1.9325  -1.8145  -1.7854  -1.7618  -1.7374  -1.6653
    -1.6265  -1.6009  -1.5514  -1.5288  -1.5032  -1.4809  -1.4594  -1.4573
    -1.4503  -1.4262  -1.3751  -1.3338  -1.3191  -1.2994  -1.2812  -1.2539
    -1.1996  -1.1223  -0.9506  -0.8796  -0.8465  -0.8407  -0.8003  -0.7273
    -0.7114  -0.6896  -0.6341  -0.6005  -0.5577  -0.5116  -0.4910  -0.4790
    -0.4404  -0.4306  -0.4269  -0.4157  -0.3983  -0.3787  -0.3732  -0.3476
    -0.2941  -0.2693  -0.2548  -0.2516  -0.2420  -0.2225  -0.1933  -0.1854
    -0.1730  -0.1626  -0.1609  -0.1518  -0.1502  -0.1469  -0.1337  -0.1061
    -0.0802  -0.0651  -0.0519  -0.0477  -0.0386  -0.0114  -0.0050   0.0226
     0.0539   0.0633   0.0900   0.1103   0.1381   0.1606   0.1688   0.1988
     0.2936   0.3277   0.3584   0.3963   0.4244   0.4442   0.4620   0.4768
     0.4922   0.4991   0.5183   0.5236   0.6342   0.7624   0.8161   0.8405
     0.8471   0.8623   0.8786   0.8910   0.9317   0.9443   1.0102   1.0302
     1.0578   1.0981   1.1146   1.1507   1.1675   1.1844   1.2084   1.2271
     1.2699   1.2934   1.3132   1.3270   1.3365   1.3511   1.3854   1.3968
     1.4180   1.4404   1.4660   1.4862   1.5043   1.5213   1.5315   1.5624
     1.5786   1.5898   1.5974   1.5998   1.6186   1.6556   1.6753   1.6811
     1.6882   1.6986   1.7223   1.7454   1.7499   1.7622   1.7717   1.7837
     1.7948   1.8367   1.8393   1.8592   1.8654   1.8708   1.8821   1.8991
     1.9121   1.9222   1.9314   1.9382   2.0173   2.0323   2.0408   2.0852
     2.1113   2.1520

          k = 0.0000 0.4619 0.0000 ( 36606 PWs)   bands (ev):

   -22.0040  -9.8579  -7.1732  -6.6052  -6.4142  -6.0976  -5.6793  -5.4581
    -5.1646  -5.1344  -5.0194  -4.0929  -4.0405  -3.9392  -3.4746  -3.4062
    -3.3951  -3.2926  -3.1375  -3.0894  -2.9758  -2.9501  -2.8485  -2.8000
    -2.7968  -2.7265  -2.6902  -2.6697  -2.6294  -2.5521  -2.5418  -2.5105
    -2.4625  -2.4384  -2.2662  -2.2546  -2.1882  -2.1743  -2.0772  -2.0622
    -2.0580  -2.0482  -1.9994  -1.7857  -1.7674  -1.7477  -1.7120  -1.6707
    -1.5474  -1.5333  -1.5219  -1.5067  -1.4981  -1.4781  -1.4669  -1.4622
    -1.4150  -1.3644  -1.3515  -1.3306  -1.3129  -1.2909  -1.1676  -1.1417
    -1.0398  -0.9980  -0.9804  -0.9018  -0.8735  -0.8359  -0.8101  -0.8034
    -0.7801  -0.7646  -0.7420  -0.7031  -0.6813  -0.6353  -0.6244  -0.5935
    -0.5572  -0.5392  -0.5120  -0.5043  -0.4770  -0.4515  -0.4135  -0.3687
    -0.3424  -0.3150  -0.2887  -0.2731  -0.2394  -0.2088  -0.2003  -0.1777
    -0.1470  -0.1427  -0.1320  -0.1086  -0.0994  -0.0920  -0.0795  -0.0693
    -0.0397  -0.0166  -0.0065   0.0058   0.0112   0.0160   0.0387   0.0410
     0.0641   0.0859   0.1083   0.1807   0.2128   0.2152   0.2342   0.2653
     0.2715   0.2858   0.2921   0.3410   0.3606   0.3767   0.3946   0.4172
     0.4446   0.4658   0.4761   0.4894   0.5230   0.5766   0.6571   0.6750
     0.7005   0.7511   0.7854   0.8682   0.8896   0.9137   0.9405   0.9562
     0.9730   1.0049   1.0203   1.0372   1.0561   1.1506   1.1669   1.2296
     1.2483   1.2771   1.3061   1.3196   1.3553   1.3703   1.3866   1.4076
     1.4352   1.4453   1.4630   1.5230   1.5515   1.5646   1.5805   1.5958
     1.6078   1.6116   1.6467   1.6567   1.6774   1.6885   1.6973   1.7319
     1.7378   1.7793   1.8247   1.8314   1.8443   1.8594   1.8729   1.8844
     1.8966   1.9176   1.9290   1.9373   1.9579   1.9630   1.9680   1.9727
     2.0081   2.0198   2.0908   2.1842   2.2168   2.2810   2.5477   2.6450
     2.7011   2.7352

          k = 0.2000-0.1155 0.0000 ( 36641 PWs)   bands (ev):

   -22.0040  -9.8675  -7.5975  -6.5290  -6.3459  -5.8447  -5.5478  -5.4287
    -4.9493  -4.9398  -4.4358  -4.2870  -4.0258  -4.0195  -3.9119  -3.8979
    -3.7282  -3.4740  -3.3512  -3.3405  -3.2356  -2.9842  -2.8572  -2.7498
    -2.7080  -2.6805  -2.6124  -2.5882  -2.3920  -2.3278  -2.3132  -2.3085
    -2.2711  -2.2680  -2.2242  -2.2192  -2.1885  -2.1655  -2.0493  -2.0359
    -1.9607  -1.9546  -1.9202  -1.8365  -1.7943  -1.7613  -1.7497  -1.6548
    -1.6282  -1.6051  -1.5541  -1.5260  -1.5018  -1.4862  -1.4609  -1.4562
    -1.4506  -1.4396  -1.3612  -1.3360  -1.3206  -1.3009  -1.2729  -1.2395
    -1.2090  -1.1229  -0.9457  -0.8815  -0.8465  -0.8383  -0.7901  -0.7305
    -0.7110  -0.6735  -0.6285  -0.6032  -0.5586  -0.5125  -0.4978  -0.4853
    -0.4377  -0.4281  -0.4243  -0.4176  -0.4062  -0.3884  -0.3612  -0.3354
    -0.3036  -0.2738  -0.2538  -0.2523  -0.2362  -0.2147  -0.2015  -0.1809
    -0.1746  -0.1686  -0.1588  -0.1527  -0.1495  -0.1469  -0.1288  -0.1079
    -0.0842  -0.0663  -0.0589  -0.0502  -0.0225  -0.0051   0.0088   0.0201
     0.0446   0.0659   0.0819   0.1061   0.1440   0.1584   0.1674   0.1986
     0.3004   0.3238   0.3551   0.4005   0.4195   0.4333   0.4715   0.4805
     0.4950   0.4989   0.5130   0.5233   0.6494   0.7377   0.8262   0.8439
     0.8488   0.8639   0.8801   0.8870   0.9351   0.9504   1.0103   1.0244
     1.0557   1.0690   1.1148   1.1403   1.1629   1.1828   1.2058   1.2478
     1.2666   1.2961   1.3123   1.3356   1.3414   1.3486   1.3852   1.3967
     1.4271   1.4398   1.4717   1.4830   1.5058   1.5151   1.5271   1.5398
     1.5805   1.5897   1.5955   1.6016   1.6247   1.6671   1.6776   1.6862
     1.6917   1.6957   1.7254   1.7421   1.7468   1.7648   1.7719   1.7773
     1.7978   1.8351   1.8400   1.8566   1.8650   1.8704   1.8840   1.9004
     1.9172   1.9234   1.9338   1.9419   2.0185   2.0324   2.0391   2.0906
     2.1125   2.1411

          k = 0.2000 0.1155 0.0000 ( 36641 PWs)   bands (ev):

   -22.0040  -9.8666  -7.5995  -6.5566  -6.3259  -5.8118  -5.5336  -5.4730
    -4.9407  -4.9389  -4.4260  -4.3181  -4.0248  -4.0189  -3.9191  -3.8681
    -3.7327  -3.4765  -3.3488  -3.3230  -3.2525  -3.0046  -2.8390  -2.7618
    -2.7078  -2.6579  -2.6269  -2.5812  -2.4089  -2.3225  -2.3146  -2.3078
    -2.2794  -2.2494  -2.2248  -2.2179  -2.1876  -2.1689  -2.0481  -2.0423
    -1.9598  -1.9556  -1.9081  -1.8255  -1.7807  -1.7641  -1.7544  -1.6451
    -1.6344  -1.6086  -1.5503  -1.5328  -1.5061  -1.4761  -1.4638  -1.4568
    -1.4511  -1.4046  -1.3723  -1.3468  -1.3232  -1.3074  -1.2801  -1.2481
    -1.2133  -1.1080  -0.9543  -0.8791  -0.8443  -0.8256  -0.7874  -0.7508
    -0.7203  -0.6832  -0.6291  -0.5990  -0.5541  -0.5117  -0.4998  -0.4673
    -0.4510  -0.4311  -0.4256  -0.4170  -0.4020  -0.3906  -0.3744  -0.3419
    -0.2877  -0.2693  -0.2539  -0.2524  -0.2434  -0.2176  -0.1928  -0.1829
    -0.1727  -0.1653  -0.1604  -0.1523  -0.1502  -0.1496  -0.1215  -0.1065
    -0.0750  -0.0679  -0.0541  -0.0498  -0.0360  -0.0097   0.0010   0.0131
     0.0555   0.0603   0.1078   0.1127   0.1311   0.1551   0.1693   0.2004
     0.2795   0.3284   0.3591   0.3930   0.4124   0.4396   0.4606   0.4773
     0.4883   0.5047   0.5183   0.5225   0.6628   0.7583   0.8168   0.8348
     0.8467   0.8567   0.8836   0.8944   0.9196   0.9501   0.9872   1.0194
     1.0373   1.1096   1.1229   1.1509   1.1666   1.1924   1.2085   1.2233
     1.2668   1.2993   1.3253   1.3323   1.3382   1.3531   1.3870   1.3944
     1.4193   1.4408   1.4687   1.4967   1.5010   1.5209   1.5352   1.5533
     1.5738   1.5861   1.5959   1.6018   1.6168   1.6574   1.6688   1.6773
     1.6905   1.6970   1.7279   1.7464   1.7500   1.7638   1.7708   1.7821
     1.7956   1.8375   1.8401   1.8567   1.8638   1.8716   1.8767   1.8975
     1.9107   1.9274   1.9325   1.9343   2.0171   2.0297   2.0413   2.0785
     2.1148   2.1559

          k = 0.2000 0.3464 0.0000 ( 36608 PWs)   bands (ev):

   -22.0040  -9.8592  -7.3159  -6.5700  -6.1893  -5.9488  -5.8776  -5.6434
    -5.4719  -4.6799  -4.5842  -4.2243  -4.2104  -4.0902  -3.3864  -3.3847
    -3.3682  -3.3621  -3.2640  -3.1724  -3.0773  -3.0694  -3.0427  -2.7990
    -2.6992  -2.6239  -2.6179  -2.5812  -2.5324  -2.5076  -2.4850  -2.4232
    -2.4076  -2.3934  -2.3821  -2.3521  -2.2491  -2.1982  -2.0375  -2.0180
    -1.9926  -1.9700  -1.9071  -1.8910  -1.8682  -1.7339  -1.6855  -1.6678
    -1.5956  -1.5471  -1.5052  -1.5000  -1.4941  -1.4808  -1.4560  -1.4449
    -1.4234  -1.4008  -1.3628  -1.3335  -1.2821  -1.2461  -1.1789  -1.1220
    -1.0579  -1.0244  -0.9738  -0.9098  -0.8575  -0.8213  -0.8009  -0.7650
    -0.7532  -0.7353  -0.7052  -0.6852  -0.6323  -0.6244  -0.6130  -0.5875
    -0.5682  -0.5459  -0.5268  -0.5188  -0.4834  -0.4211  -0.3651  -0.3521
    -0.3414  -0.3263  -0.3070  -0.2762  -0.2586  -0.2446  -0.2223  -0.2098
    -0.1887  -0.1718  -0.1560  -0.1470  -0.1355  -0.1149  -0.0961  -0.0785
    -0.0637  -0.0520  -0.0390  -0.0242  -0.0120  -0.0027   0.0105   0.0220
     0.0551   0.0839   0.1175   0.1351   0.2228   0.2390   0.2591   0.2754
     0.3108   0.3186   0.3478   0.3643   0.4166   0.4343   0.4445   0.4479
     0.4595   0.4722   0.5232   0.5522   0.5954   0.6404   0.7229   0.7582
     0.8102   0.8461   0.8649   0.8948   0.9036   0.9100   0.9180   0.9544
     0.9681   0.9807   0.9883   1.0099   1.0429   1.0909   1.1502   1.1610
     1.1895   1.2028   1.2365   1.2497   1.2627   1.3013   1.3169   1.3498
     1.4067   1.4644   1.5134   1.5528   1.5746   1.5861   1.6051   1.6152
     1.6235   1.6396   1.6560   1.6663   1.6942   1.7265   1.7384   1.7463
     1.7572   1.7883   1.7956   1.8054   1.8166   1.8377   1.8495   1.8689
     1.8774   1.8852   1.8906   1.9081   1.9182   1.9413   1.9668   2.0009
     2.0056   2.0236   2.1120   2.1432   2.2511   2.2820   2.3397   2.4723
     2.5895   2.6099

          k = 0.2000-0.5774 0.0000 ( 36660 PWs)   bands (ev):

   -22.0040  -9.8555  -6.8096  -6.7378  -6.4984  -6.1243  -5.9508  -5.5749
    -5.3093  -5.1971  -4.7030  -4.2681  -3.7517  -3.6115  -3.4100  -3.4042
    -3.3707  -3.1889  -3.1469  -3.0121  -2.9894  -2.9825  -2.8947  -2.8560
    -2.8480  -2.8268  -2.8098  -2.7699  -2.6927  -2.5982  -2.4628  -2.4541
    -2.4287  -2.4205  -2.3831  -2.3581  -2.3428  -2.2452  -2.2304  -2.0220
    -1.9313  -1.9099  -1.9024  -1.8689  -1.8147  -1.7413  -1.6677  -1.6571
    -1.6190  -1.6073  -1.5989  -1.5090  -1.4592  -1.4451  -1.4288  -1.4113
    -1.3760  -1.3242  -1.2896  -1.2623  -1.2143  -1.1988  -1.1809  -1.1037
    -1.0758  -1.0240  -0.9539  -0.8943  -0.8795  -0.8361  -0.8142  -0.8005
    -0.7662  -0.7438  -0.7248  -0.6892  -0.6613  -0.6334  -0.6082  -0.5878
    -0.5841  -0.5532  -0.5405  -0.5321  -0.5169  -0.5119  -0.4819  -0.4520
    -0.4471  -0.4125  -0.3948  -0.3688  -0.3279  -0.3133  -0.2783  -0.2403
    -0.2138  -0.1829  -0.1631  -0.1368  -0.1152  -0.1002  -0.0904  -0.0705
    -0.0469  -0.0048   0.0019   0.0188   0.0382   0.0455   0.0983   0.1372
     0.1640   0.1813   0.1888   0.2032   0.2213   0.2425   0.2712   0.2854
     0.3058   0.3085   0.3566   0.3954   0.4075   0.4203   0.4387   0.4753
     0.4850   0.4916   0.5107   0.5450   0.5532   0.5605   0.5752   0.5939
     0.6710   0.7351   0.7832   0.8283   0.8476   0.8641   0.8957   0.9120
     0.9182   0.9397   0.9589   1.0005   1.0434   1.0959   1.1116   1.1334
     1.1680   1.1826   1.2035   1.2357   1.2612   1.2767   1.3098   1.3531
     1.3968   1.4844   1.5164   1.5341   1.5839   1.6131   1.6400   1.6559
     1.6622   1.6739   1.6812   1.6963   1.7239   1.7431   1.7491   1.7611
     1.8078   1.8208   1.8279   1.8432   1.8477   1.8530   1.8620   1.8644
     1.8823   1.9156   1.9232   1.9497   1.9589   1.9739   1.9816   2.0052
     2.0642   2.1379   2.1922   2.3295   2.4636   2.7097   2.8020   2.8579
     2.8841   2.9501

          k = 0.2000-0.3464 0.0000 ( 36608 PWs)   bands (ev):

   -22.0040  -9.8606  -7.3088  -6.5505  -6.1946  -5.9760  -5.8991  -5.6476
    -5.4369  -4.6891  -4.5772  -4.2195  -4.1997  -4.0987  -3.3885  -3.3804
    -3.3714  -3.3681  -3.2574  -3.1946  -3.0917  -3.0706  -3.0087  -2.7851
    -2.6975  -2.6335  -2.6187  -2.5921  -2.5258  -2.5159  -2.4818  -2.4165
    -2.4107  -2.4002  -2.3822  -2.3348  -2.2517  -2.1912  -2.0448  -2.0241
    -1.9971  -1.9589  -1.9458  -1.8932  -1.8650  -1.7306  -1.6857  -1.6751
    -1.6088  -1.5336  -1.5121  -1.5024  -1.4934  -1.4811  -1.4676  -1.4493
    -1.4326  -1.4115  -1.3564  -1.3389  -1.2821  -1.2275  -1.1583  -1.1265
    -1.0590  -1.0319  -0.9450  -0.9045  -0.8423  -0.8124  -0.7933  -0.7790
    -0.7548  -0.7269  -0.7102  -0.6682  -0.6426  -0.6212  -0.6048  -0.5923
    -0.5715  -0.5526  -0.5307  -0.5253  -0.4900  -0.4226  -0.3614  -0.3543
    -0.3474  -0.3351  -0.3052  -0.2688  -0.2596  -0.2405  -0.2253  -0.2040
    -0.1898  -0.1823  -0.1671  -0.1456  -0.1294  -0.1031  -0.0943  -0.0811
    -0.0614  -0.0580  -0.0491  -0.0190  -0.0071   0.0044   0.0137   0.0217
     0.0525   0.1115   0.1170   0.1266   0.2122   0.2376   0.2618   0.2867
     0.3096   0.3245   0.3646   0.3761   0.4210   0.4286   0.4386   0.4475
     0.4587   0.4714   0.5154   0.5422   0.5897   0.6259   0.7468   0.7532
     0.7876   0.8291   0.8838   0.9040   0.9129   0.9190   0.9318   0.9478
     0.9514   0.9796   1.0008   1.0140   1.0446   1.0930   1.1091   1.1514
     1.1871   1.2060   1.2315   1.2579   1.2645   1.3018   1.3295   1.3714
     1.3889   1.4484   1.5257   1.5534   1.5655   1.5964   1.6036   1.6090
     1.6304   1.6406   1.6608   1.6632   1.7000   1.7274   1.7369   1.7450
     1.7600   1.7801   1.7907   1.8022   1.8183   1.8364   1.8505   1.8666
     1.8784   1.8835   1.8884   1.9109   1.9168   1.9342   1.9680   2.0009
     2.0158   2.0482   2.1079   2.1396   2.2334   2.2809   2.4292   2.4491
     2.5286   2.6130

          k = 0.4000-0.2309 0.0000 ( 36606 PWs)   bands (ev):

   -22.0040  -9.8596  -7.1658  -6.5415  -6.4744  -6.1092  -5.7149  -5.4169
    -5.1689  -5.1390  -5.0075  -4.0900  -4.0342  -3.9538  -3.4626  -3.4101
    -3.3989  -3.2866  -3.1399  -3.0825  -2.9890  -2.9529  -2.8654  -2.8021
    -2.7936  -2.7349  -2.6840  -2.6704  -2.6179  -2.5555  -2.5360  -2.5020
    -2.4608  -2.4241  -2.2690  -2.2493  -2.1931  -2.1811  -2.0728  -2.0627
    -2.0514  -2.0425  -2.0178  -1.8218  -1.7656  -1.7500  -1.7137  -1.6992
    -1.5496  -1.5302  -1.5222  -1.5165  -1.5070  -1.4738  -1.4681  -1.4566
    -1.4299  -1.3610  -1.3470  -1.3320  -1.3233  -1.2932  -1.1682  -1.1186
    -1.0437  -0.9833  -0.9164  -0.8990  -0.8711  -0.8377  -0.8119  -0.7935
    -0.7810  -0.7672  -0.7419  -0.7111  -0.6793  -0.6352  -0.6280  -0.5929
    -0.5567  -0.5374  -0.5144  -0.5058  -0.4761  -0.4589  -0.4065  -0.3486
    -0.3364  -0.3171  -0.2937  -0.2727  -0.2487  -0.2304  -0.1976  -0.1870
    -0.1467  -0.1419  -0.1259  -0.1058  -0.0995  -0.0939  -0.0849  -0.0496
    -0.0417  -0.0147  -0.0061  -0.0007   0.0114   0.0180   0.0387   0.0466
     0.0613   0.0888   0.1121   0.1753   0.2072   0.2124   0.2342   0.2620
     0.2701   0.2875   0.2955   0.3395   0.3669   0.3853   0.3897   0.4143
     0.4488   0.4522   0.4777   0.4891   0.5243   0.5920   0.6578   0.6762
     0.7149   0.7471   0.7771   0.8634   0.8918   0.9152   0.9374   0.9490
     0.9672   0.9924   1.0191   1.0360   1.0517   1.1121   1.1812   1.2392
     1.2517   1.2792   1.2998   1.3296   1.3592   1.3704   1.3918   1.4107
     1.4401   1.4546   1.4670   1.5113   1.5393   1.5551   1.5850   1.6019
     1.6103   1.6169   1.6474   1.6651   1.6771   1.6894   1.6992   1.7267
     1.7371   1.7885   1.7947   1.8343   1.8464   1.8667   1.8735   1.8881
     1.8951   1.9162   1.9235   1.9362   1.9546   1.9614   1.9699   1.9730
     2.0165   2.0227   2.0935   2.1792   2.1845   2.2906   2.5954   2.6654
     2.6930   2.7471

          k = 0.4000 0.0000 0.0000 ( 36608 PWs)   bands (ev):

   -22.0040  -9.8602  -7.3115  -6.5579  -6.1936  -5.9640  -5.8918  -5.6430
    -5.4518  -4.6893  -4.5780  -4.2192  -4.2009  -4.0974  -3.3862  -3.3823
    -3.3690  -3.3639  -3.2592  -3.1935  -3.0899  -3.0740  -3.0120  -2.8092
    -2.6986  -2.6251  -2.6136  -2.5839  -2.5243  -2.5129  -2.4897  -2.4158
[...]
     atom    8 type  1   force =    -0.00014435   -0.00255682   -0.10303520
     atom    9 type  1   force =    -0.00072783    0.00395763   -0.10256016
     atom   10 type  1   force =     0.00129232   -0.00073420   -0.01544380
     atom   11 type  1   force =     0.00024492   -0.00073723   -0.01044706
     atom   12 type  1   force =    -0.00075635    0.00099808   -0.01097038
     atom   13 type  1   force =     0.00035772    0.00193239   -0.00919256
     atom   14 type  1   force =    -0.00018405    0.00010803   -0.00707931
     atom   15 type  1   force =    -0.00114194    0.00059357   -0.01106189
     atom   16 type  1   force =     0.00043859   -0.00174198   -0.01201840
     atom   17 type  1   force =     0.00090421   -0.00014450   -0.00940916
     atom   18 type  1   force =    -0.00066147   -0.00046786   -0.01332037
     atom   19 type  1   force =    -0.00202049   -0.00018611    0.01517124
     atom   20 type  1   force =    -0.01462077   -0.00441562   -0.00432899
     atom   21 type  1   force =     0.01730818   -0.01030728   -0.00482767
     atom   22 type  1   force =     0.00208970   -0.00101845    0.01386933
     atom   23 type  1   force =     0.00074596    0.01992296   -0.00444044
     atom   24 type  1   force =    -0.00318288   -0.00199711    0.01716033
     atom   25 type  1   force =     0.00018837   -0.00080364    0.01977806
     atom   26 type  1   force =    -0.00373455   -0.00347392    0.01008393
     atom   27 type  1   force =     0.00439315    0.00137384    0.01065598
     atom   28 type  1   force =     0.00352002    0.00047899    0.11104125
     atom   29 type  1   force =     0.00605511    0.04282369    0.13149930
     atom   30 type  1   force =    -0.02067787    0.01637894    0.13760637
     atom   31 type  1   force =     0.03797207   -0.02240617    0.13975714
     atom   32 type  1   force =    -0.06212149   -0.06229787    0.12190895
     atom   33 type  1   force =    -0.00276821    0.00095866    0.12047702
     atom   34 type  1   force =     0.00554780   -0.00438487    0.12354852
     atom   35 type  1   force =    -0.00047863   -0.00002678    0.12428869
     atom   36 type  1   force =    -0.00124276   -0.00104276    0.10145349
     atom   37 type  2   force =    -0.01678732    0.02765426    0.37066882
     atom   38 type  3   force =     0.72344775    0.79554876   -2.49915434
     atom   39 type  4   force =    -0.01000418   -0.01105656   -0.02580520
     The ionic contribution  to forces
     atom    1 type  1   force =    -0.00649291    0.00077142 -111.13290974
     atom    2 type  1   force =    -0.00361722    0.00162083 -111.15318587
     atom    3 type  1   force =     0.01011001    0.00041883 -111.14008585
     atom    4 type  1   force =    -0.00430977    0.00561299 -111.13265381
     atom    5 type  1   force =     0.00223232    0.00855832 -111.13684620
     atom    6 type  1   force =     0.00207748   -0.00058843 -111.12827224
     atom    7 type  1   force =     0.00147560   -0.00099943 -111.12756830
     atom    8 type  1   force =    -0.00575669   -0.00605593 -111.13603667
     atom    9 type  1   force =     0.00428115   -0.00933859 -111.13902596
     atom   10 type  1   force =    -0.04005278   -0.01864319  -40.06710250
     atom   11 type  1   force =    -0.01830286   -0.06211110  -40.18449352
     atom   12 type  1   force =     0.05833884   -0.03723377  -40.10173234
     atom   13 type  1   force =    -0.06579033    0.03755271  -40.14091541
     atom   14 type  1   force =     0.04137502    0.04453452  -40.19210215
     atom   15 type  1   force =     0.02443319    0.01271266  -40.06097262
     atom   16 type  1   force =    -0.00700438    0.04624428  -40.06772549
     atom   17 type  1   force =     0.00635460    0.00058329  -40.06777459
     atom   18 type  1   force =     0.00064988   -0.02364112  -40.05499163
     atom   19 type  1   force =    -0.31102965    0.03718901   31.54562796
     atom   20 type  1   force =    -0.21131909    0.09709318   30.44086430
     atom   21 type  1   force =     0.51765861    0.01463381   31.20179762
     atom   22 type  1   force =    -0.20107345    0.26615963   31.56112469
     atom   23 type  1   force =     0.10982962    0.42482008   31.35644978
     atom   24 type  1   force =     0.09162484   -0.02381033   31.73242494
     atom   25 type  1   force =     0.06124514   -0.04310168   31.76400153
     atom   26 type  1   force =    -0.27867454   -0.30183827   31.39805115
     atom   27 type  1   force =     0.21871978   -0.46930236   31.25390818
     atom   28 type  1   force =    -1.39799909   -0.59724187  104.01710173
     atom   29 type  1   force =    -1.28403867   -4.55860069   98.59421164
     atom   30 type  1   force =     2.33013084   -1.43956309  103.26265494
     atom   31 type  1   force =    -3.34476424    2.01770346  101.67692319
     atom   32 type  1   force =     2.96088547    3.19401710   97.64640216
     atom   33 type  1   force =     0.83372201    0.31551086  104.26268493
     atom   34 type  1   force =    -0.28997647    1.50427377  104.13523509
     atom   35 type  1   force =     0.20360295    0.08674339  104.10684802
     atom   36 type  1   force =     0.09385004   -0.74262447  104.34895467
     atom   37 type  2   force =     1.54063440    1.95836972   51.90320029
     atom   38 type  3   force =    -2.70466467   -2.89282674   89.65552416
     atom   39 type  4   force =     1.06163501    1.15239719   15.30040394
     The local contribution  to forces
     atom    1 type  1   force =     0.00698383   -0.00161893  111.23825636
     atom    2 type  1   force =     0.00793385    0.00106604  111.25645705
     atom    3 type  1   force =    -0.01490171    0.00379701  111.24177668
     atom    4 type  1   force =     0.00267871   -0.00325923  111.23717961
     atom    5 type  1   force =    -0.00323466   -0.01614745  111.23884160
     atom    6 type  1   force =     0.00095585    0.00184996  111.23057408
     atom    7 type  1   force =    -0.00216146    0.00087870  111.23238850
     atom    8 type  1   force =     0.00702917    0.00844378  111.24206096
     atom    9 type  1   force =    -0.00448643    0.00534752  111.24274803
     atom   10 type  1   force =     0.03980607    0.01877748   40.06142355
     atom   11 type  1   force =     0.01636209    0.06244058   40.17419648
     atom   12 type  1   force =    -0.05671910    0.03629677   40.09650054
     atom   13 type  1   force =     0.06509792   -0.03988361   40.13401469
     atom   14 type  1   force =    -0.04150691   -0.04359940   40.17696573
     atom   15 type  1   force =    -0.02372282   -0.01389308   40.05212452
     atom   16 type  1   force =     0.00797698   -0.04403620   40.06070397
     atom   17 type  1   force =    -0.00727982   -0.00021618   40.05835929
     atom   18 type  1   force =    -0.00009826    0.02448857   40.04729143
     atom   19 type  1   force =     0.31184007   -0.03658936  -31.53731948
     atom   20 type  1   force =     0.22473316   -0.09147971  -30.42618251
     atom   21 type  1   force =    -0.53320636   -0.00517439  -31.18056901
     atom   22 type  1   force =     0.19853932   -0.26471114  -31.55425160
     atom   23 type  1   force =    -0.11065296   -0.44541035  -31.33492927
     atom   24 type  1   force =    -0.08758637    0.02596367  -31.72645242
     atom   25 type  1   force =    -0.06258534    0.04364330  -31.75781821
     atom   26 type  1   force =     0.27993084    0.30363355  -31.39008283
     atom   27 type  1   force =    -0.22055179    0.46709695  -31.24623085
     atom   28 type  1   force =     1.39131982    0.59551294 -104.13598634
     atom   29 type  1   force =     1.26896917    4.48757209  -98.74035512
     atom   30 type  1   force =    -2.29841896    1.41050611 -103.41052241
     atom   31 type  1   force =     3.28953055   -1.99071257 -101.82313834
     atom   32 type  1   force =    -2.89016137   -3.11826110  -97.73872493
     atom   33 type  1   force =    -0.82358419   -0.31625154 -104.39304077
     atom   34 type  1   force =     0.28014818   -1.48980523 -104.26707771
     atom   35 type  1   force =    -0.20125837   -0.08338335 -104.24030556
     atom   36 type  1   force =    -0.09211432    0.74201253 -104.45959796
     atom   37 type  2   force =    -1.52689425   -1.98640932  -52.27480102
     atom   38 type  3   force =     1.99248737    2.11613249  -87.17003179
     atom   39 type  4   force =    -1.03977684   -1.12895646  -15.28876706
     The core correction contribution to forces
     atom    1 type  1   force =     0.00012821    0.00009745    0.01008946
     atom    2 type  1   force =     0.00053363    0.00027137    0.01005292
     atom    3 type  1   force =    -0.00021352    0.00023580    0.01022375
     atom    4 type  1   force =    -0.00005774    0.00009619    0.00992962
     atom    5 type  1   force =    -0.00021014   -0.00049583    0.01025716
     atom    6 type  1   force =     0.00013524    0.00010322    0.00970197
     atom    7 type  1   force =     0.00004414    0.00009224    0.01039478
     atom    8 type  1   force =    -0.00000257    0.00005142    0.01020109
     atom    9 type  1   force =     0.00005719   -0.00008179    0.00990355
     atom   10 type  1   force =    -0.00016691   -0.00017167   -0.00187716
     atom   11 type  1   force =    -0.00012026   -0.00039133   -0.00183829
     atom   12 type  1   force =     0.00025583   -0.00045433   -0.00175334
     atom   13 type  1   force =    -0.00037033   -0.00011755   -0.00165257
     atom   14 type  1   force =     0.00015790    0.00007071   -0.00153461
     atom   15 type  1   force =     0.00032120   -0.00001196   -0.00188384
     atom   16 type  1   force =    -0.00014677    0.00041187   -0.00183520
     atom   17 type  1   force =     0.00009303    0.00019360   -0.00160044
     atom   18 type  1   force =     0.00000591    0.00006215   -0.00164381
     atom   19 type  1   force =     0.00004348   -0.00014915    0.00200062
     atom   20 type  1   force =    -0.00008838   -0.00002210    0.00068573
     atom   21 type  1   force =     0.00039329   -0.00013222    0.00000806
     atom   22 type  1   force =    -0.00027816    0.00060627    0.00134268
     atom   23 type  1   force =     0.00016169    0.00047498    0.00053896
     atom   24 type  1   force =     0.00027843    0.00022740    0.00183084
     atom   25 type  1   force =     0.00047450    0.00019256    0.00211114
     atom   26 type  1   force =     0.00001344    0.00061815    0.00192962
     atom   27 type  1   force =     0.00016562   -0.00025458    0.00111295
     atom   28 type  1   force =     0.00113591    0.00020206   -0.00952114
     atom   29 type  1   force =     0.00332404    0.00957875   -0.00252152
     atom   30 type  1   force =    -0.00458641    0.00427735   -0.00761174
     atom   31 type  1   force =     0.00748798   -0.00319963   -0.00610141
     atom   32 type  1   force =    -0.01300298   -0.01445852    0.01480906
     atom   33 type  1   force =    -0.00385571    0.00040978   -0.00776701
     atom   34 type  1   force =     0.00244729   -0.00366556   -0.00804442
     atom   35 type  1   force =    -0.00208597   -0.00373925   -0.00774927
     atom   36 type  1   force =    -0.00052727    0.00042517   -0.01056389
     atom   37 type  2   force =    -0.00106105   -0.00201722   -0.00267663
     atom   38 type  3   force =    -0.00554211   -0.00610514    0.01882757
     atom   39 type  4   force =     0.00000000    0.00000000    0.00000000
     The Hubbard contrib.    to forces
     atom    1 type  1   force =     0.00000000    0.00000000    0.00000000
     atom    2 type  1   force =     0.00000000    0.00000000    0.00000000
     atom    3 type  1   force =     0.00000000    0.00000000    0.00000000
     atom    4 type  1   force =     0.00000000    0.00000000    0.00000000
     atom    5 type  1   force =     0.00000000    0.00000000    0.00000000
     atom    6 type  1   force =     0.00000000    0.00000000    0.00000000
     atom    7 type  1   force =     0.00000000    0.00000000    0.00000000
     atom    8 type  1   force =     0.00000000    0.00000000    0.00000000
     atom    9 type  1   force =     0.00000000    0.00000000    0.00000000
     atom   10 type  1   force =     0.00000000    0.00000000    0.00000000
     atom   11 type  1   force =     0.00000000    0.00000000    0.00000000
     atom   12 type  1   force =     0.00000000    0.00000000    0.00000000
     atom   13 type  1   force =     0.00000000    0.00000000    0.00000000
     atom   14 type  1   force =     0.00000000    0.00000000    0.00000000
     atom   15 type  1   force =     0.00000000    0.00000000    0.00000000
     atom   16 type  1   force =     0.00000000    0.00000000    0.00000000
     atom   17 type  1   force =     0.00000000    0.00000000    0.00000000
     atom   18 type  1   force =     0.00000000    0.00000000    0.00000000
     atom   19 type  1   force =     0.00000000    0.00000000    0.00000000
     atom   20 type  1   force =     0.00000000    0.00000000    0.00000000
     atom   21 type  1   force =     0.00000000    0.00000000    0.00000000
     atom   22 type  1   force =     0.00000000    0.00000000    0.00000000
     atom   23 type  1   force =     0.00000000    0.00000000    0.00000000
     atom   24 type  1   force =     0.00000000    0.00000000    0.00000000
     atom   25 type  1   force =     0.00000000    0.00000000    0.00000000
     atom   26 type  1   force =     0.00000000    0.00000000    0.00000000
     atom   27 type  1   force =     0.00000000    0.00000000    0.00000000
     atom   28 type  1   force =     0.00000000    0.00000000    0.00000000
     atom   29 type  1   force =     0.00000000    0.00000000    0.00000000
     atom   30 type  1   force =     0.00000000    0.00000000    0.00000000
     atom   31 type  1   force =     0.00000000    0.00000000    0.00000000
     atom   32 type  1   force =     0.00000000    0.00000000    0.00000000
     atom   33 type  1   force =     0.00000000    0.00000000    0.00000000
     atom   34 type  1   force =     0.00000000    0.00000000    0.00000000
     atom   35 type  1   force =     0.00000000    0.00000000    0.00000000
     atom   36 type  1   force =     0.00000000    0.00000000    0.00000000
     atom   37 type  2   force =     0.00000000    0.00000000    0.00000000
     atom   38 type  3   force =     0.00000000    0.00000000    0.00000000
     atom   39 type  4   force =     0.00000000    0.00000000    0.00000000
     The SCF correction term to forces
     atom    1 type  1   force =     0.00000000   -0.00000000    0.00000000
     atom    2 type  1   force =     0.00000000   -0.00000000    0.00000000
     atom    3 type  1   force =    -0.00000000   -0.00000000    0.00000000
     atom    4 type  1   force =     0.00000000   -0.00000000    0.00000000
     atom    5 type  1   force =     0.00000000   -0.00000000    0.00000000
     atom    6 type  1   force =    -0.00000000   -0.00000000    0.00000000
     atom    7 type  1   force =     0.00000000    0.00000000    0.00000000
     atom    8 type  1   force =     0.00000000    0.00000000    0.00000000
     atom    9 type  1   force =    -0.00000000    0.00000000    0.00000000
     atom   10 type  1   force =     0.00000000    0.00000000    0.00000000
     atom   11 type  1   force =    -0.00000000    0.00000000    0.00000000
     atom   12 type  1   force =    -0.00000000    0.00000000    0.00000000
     atom   13 type  1   force =     0.00000000   -0.00000000    0.00000000
     atom   14 type  1   force =    -0.00000000   -0.00000000    0.00000000
     atom   15 type  1   force =     0.00000000   -0.00000000    0.00000000
     atom   16 type  1   force =     0.00000000   -0.00000000    0.00000000
     atom   17 type  1   force =     0.00000000    0.00000000    0.00000000
     atom   18 type  1   force =    -0.00000000    0.00000000    0.00000000
     atom   19 type  1   force =     0.00000000   -0.00000000   -0.00000000
     atom   20 type  1   force =     0.00000000   -0.00000000   -0.00000000
     atom   21 type  1   force =    -0.00000000   -0.00000000   -0.00000000
     atom   22 type  1   force =    -0.00000000   -0.00000000   -0.00000000
     atom   23 type  1   force =     0.00000000   -0.00000000   -0.00000000
     atom   24 type  1   force =     0.00000000    0.00000000   -0.00000000
     atom   25 type  1   force =     0.00000000    0.00000000   -0.00000000
     atom   26 type  1   force =     0.00000000    0.00000000   -0.00000000
     atom   27 type  1   force =    -0.00000000    0.00000000   -0.00000000
     atom   28 type  1   force =     0.00000000    0.00000000   -0.00000000
     atom   29 type  1   force =     0.00000000    0.00000000   -0.00000000
     atom   30 type  1   force =    -0.00000000    0.00000000   -0.00000000
     atom   31 type  1   force =     0.00000000   -0.00000000   -0.00000000
     atom   32 type  1   force =    -0.00000000   -0.00000000   -0.00000000
     atom   33 type  1   force =    -0.00000000   -0.00000000   -0.00000000
     atom   34 type  1   force =     0.00000000    0.00000000   -0.00000000
     atom   35 type  1   force =    -0.00000000    0.00000000   -0.00000000
     atom   36 type  1   force =     0.00000000    0.00000000   -0.00000000
     atom   37 type  2   force =    -0.00000667   -0.00001522    0.00009672
     atom   38 type  3   force =     0.00000814    0.00000590    0.00009551
     atom   39 type  4   force =    -0.00000798   -0.00001369    0.00002311

     Total force =     0.027415     Total SCF correction =     0.000140

     Writing all to output data dir ./pwscf.save/

     init_run     :     15.43s CPU     15.85s WALL (       1 calls)
     electrons    :    633.04s CPU    640.34s WALL (       1 calls)
     forces       :      3.45s CPU      3.52s WALL (       1 calls)

     Called by init_run:
     wfcinit      :     12.18s CPU     12.49s WALL (       1 calls)
     potinit      :      2.14s CPU      2.22s WALL (       1 calls)
     hinit0       :      0.86s CPU      0.87s WALL (       1 calls)

     Called by electrons:
     c_bands      :    505.19s CPU    510.49s WALL (      40 calls)
     sum_band     :     88.97s CPU     89.99s WALL (      40 calls)
     v_of_rho     :     11.14s CPU     11.63s WALL (      41 calls)
     newd         :      4.37s CPU      4.42s WALL (      41 calls)
     PAW_pot      :     15.15s CPU     15.31s WALL (      41 calls)
     mix_rho      :      9.35s CPU      9.50s WALL (      40 calls)
     vdW_kernel   :      1.09s CPU      1.10s WALL (       1 calls)

     Called by c_bands:
     init_us_2    :      4.97s CPU      5.04s WALL (    2132 calls)
     init_us_2:cp :      4.96s CPU      5.04s WALL (    2132 calls)
     cegterg      :    489.37s CPU    494.24s WALL (    1040 calls)

     Called by *egterg:
     cdiaghg      :    166.22s CPU    167.23s WALL (    3899 calls)
     h_psi        :    226.86s CPU    229.97s WALL (    3925 calls)
     s_psi        :     22.46s CPU     22.69s WALL (    3925 calls)
     g_psi        :      0.43s CPU      0.44s WALL (    2859 calls)

     Called by h_psi:
     h_psi:calbec :     34.96s CPU     35.46s WALL (    3925 calls)
     vloc_psi     :    167.30s CPU    169.62s WALL (    3925 calls)
     add_vuspsi   :     23.46s CPU     23.74s WALL (    3925 calls)

     General routines
     calbec       :     55.42s CPU     56.13s WALL (    5069 calls)
     fft          :     10.96s CPU     11.44s WALL (    3726 calls)
     ffts         :      5.74s CPU      5.84s WALL (   14117 calls)
     fftw         :    212.47s CPU    215.21s WALL ( 1086478 calls)
     interpolate  :      0.75s CPU      0.76s WALL (      82 calls)

     Parallel routines

     PWSCF        :  10m57.03s CPU  11m 9.43s WALL


   This run was terminated on:  15:50: 4  20Nov2025            

=------------------------------------------------------------------------------=
   JOB DONE.
=------------------------------------------------------------------------------=
