
     Program PWSCF v.7.1 starts on 11Dec2025 at  6:54:49 
        Git branch: heads/qe-7.1
        Last git commit: 48ba0178f8fede6d020eb786884699a9f063f55d-dirty
        Last git commit date: Fri Jan 27 14:22:33 2023 +0000
        Last git commit subject: Merge branch 'fix_hubbard' into 'develop'

     This program is part of the open-source Quantum ESPRESSO suite
     for quantum simulation of materials; please cite
         "P. Giannozzi et al., J. Phys.:Condens. Matter 21 395502 (2009);
         "P. Giannozzi et al., J. Phys.:Condens. Matter 29 465901 (2017);
         "P. Giannozzi et al., J. Chem. Phys. 152 154105 (2020);
          URL http://www.quantum-espresso.org", 
     in publications or presentations arising from this work. More details at
     http://www.quantum-espresso.org/quote

     Parallel version (MPI), running on    96 processors

     MPI processes distributed on     2 nodes
     55081 MiB available memory on the printing compute node when the environment starts

     Reading input from espresso.pwi
Warning: card &CELL ignored
Warning: card / ignored
Warning: card &FCP ignored
Warning: card / ignored
Warning: card &RISM ignored
Warning: card / ignored

     Current dimensions of program PWSCF are:
     Max number of different atomic species (ntypx) = 10
     Max number of k-points (npk) =  40000
     Max angular momentum in pseudopotentials (lmaxx) =  4
     file Co.pbe-n-kjpaw_psl.1.0.0.UPF: wavefunction(s)  4S 3D renormalized
     file C.pbe-n-kjpaw_psl.1.0.0.UPF: wavefunction(s)  2S 2P renormalized
     file O.pbe-nl-kjpaw_psl.1.0.0.UPF: wavefunction(s)  2S 2P renormalized
     file H.pbe-kjpaw_psl.1.0.0.UPF: wavefunction(s)  1S renormalized

     **************************************************************************
     Initializing libbeef V0.1.2 with the BEEF-vdW functional.
     Citation: Wellendorff et al., PRB 85, 235149 (2012).
     **************************************************************************


     IMPORTANT: XC functional enforced from input :
     Exchange-correlation= BEEF-VDW
                           (   1   4  43  14   2   0   0)
     Any further DFT definition will be discarded
     Please, verify this is what you really want


     R & G space division:  proc/nbgrp/npool/nimage =      96
     Subspace diagonalization in iterative solution of the eigenvalue problem:
     one sub-group per band group will be used
     custom distributed-memory algorithm (size of sub-group:  2*  2 procs)


     Parallelization info
     --------------------
     sticks:   dense  smooth     PW     G-vecs:    dense   smooth      PW
     Min          43      28      7                 7829     4248     595
     Max          44      29      8                 7845     4281     630
     Sum        4153    2773    757               752179   409445   59217

     Using Slab Decomposition



     bravais-lattice index     =            0
     lattice parameter (alat)  =      14.1729  a.u.
     unit-cell volume          =    8574.3059 (a.u.)^3
     number of atoms/cell      =           39
     number of atomic types    =            4
     number of electrons       =       335.00
     number of Kohn-Sham states=          202
     kinetic-energy cutoff     =      50.0000  Ry
     charge density cutoff     =     300.0000  Ry
     scf convergence threshold =      1.0E-08
     mixing beta               =       0.7000
     number of iterations used =            8  local-TF  mixing
     Exchange-correlation= BEEF-VDW
                           (   1   4  43  14   2   0   0)

     celldm(1)=  14.172946  celldm(2)=   0.000000  celldm(3)=   0.000000
     celldm(4)=   0.000000  celldm(5)=   0.000000  celldm(6)=   0.000000

     crystal axes: (cart. coord. in units of alat)
               a(1) = (   1.000000   0.000000   0.000000 )  
               a(2) = (   0.500000   0.866025   0.000000 )  
               a(3) = (   0.000000   0.000000   3.477667 )  

     reciprocal axes: (cart. coord. in units 2 pi/alat)
               b(1) = (  1.000000 -0.577350  0.000000 )  
               b(2) = (  0.000000  1.154701  0.000000 )  
               b(3) = (  0.000000  0.000000  0.287549 )  


     PseudoPot. # 1 for Co read from file:
     /users/kbadger1/espresso/pseudo/pslibrary.1.0.0/pbe/PSEUDOPOTENTIALS/Co.pbe-n-kjpaw_psl.1.0.0.UPF
     MD5 check sum: 88af6ec42553d4236c267fdfcb472151
     Pseudo is Projector augmented-wave + core cor, Zval =  9.0
     Generated using 'atomic' code by A. Dal Corso  v.7.0
     Shape of augmentation charge: PSQ
     Using radial grid of 1193 points,  6 beta functions with: 
                l(1) =   0
                l(2) =   0
                l(3) =   1
                l(4) =   1
                l(5) =   2
                l(6) =   2
     Q(r) pseudized with 0 coefficients 


     PseudoPot. # 2 for C  read from file:
     /users/kbadger1/espresso/pseudo/pslibrary.1.0.0/pbe/PSEUDOPOTENTIALS/C.pbe-n-kjpaw_psl.1.0.0.UPF
     MD5 check sum: 6408e75cdba28732cea38a4db8498ce4
     Pseudo is Projector augmented-wave + core cor, Zval =  4.0
     Generated using 'atomic' code by A. Dal Corso  v.7.0
     Shape of augmentation charge: PSQ
     Using radial grid of 1073 points,  4 beta functions with: 
                l(1) =   0
                l(2) =   0
                l(3) =   1
                l(4) =   1
     Q(r) pseudized with 0 coefficients 


     PseudoPot. # 3 for O  read from file:
     /users/kbadger1/espresso/pseudo/pslibrary.1.0.0/pbe/PSEUDOPOTENTIALS/O.pbe-nl-kjpaw_psl.1.0.0.UPF
     MD5 check sum: f0439fab3598ca4e468f064226030408
     Pseudo is Projector augmented-wave + core cor, Zval =  6.0
     Generated using 'atomic' code by A. Dal Corso  v.7.0
     Shape of augmentation charge: PSQ
     Using radial grid of 1095 points,  4 beta functions with: 
                l(1) =   0
                l(2) =   0
                l(3) =   1
                l(4) =   1
     Q(r) pseudized with 0 coefficients 


     PseudoPot. # 4 for H  read from file:
     /users/kbadger1/espresso/pseudo/pslibrary.1.0.0/pbe/PSEUDOPOTENTIALS/H.pbe-kjpaw_psl.1.0.0.UPF
     MD5 check sum: fe4c6fa958fa6d3815bf5d2419cbf1df
     Pseudo is Projector augmented-wave, Zval =  1.0
     Generated using 'atomic' code by A. Dal Corso  v.7.0
     Shape of augmentation charge: PSQ
     Using radial grid of  929 points,  2 beta functions with: 
                l(1) =   0
                l(2) =   0
     Q(r) pseudized with 0 coefficients 


     atomic species   valence    mass     pseudopotential
        Co             9.00    58.93319     Co( 1.00)
        C              4.00    12.01100     C ( 1.00)
        O              6.00    15.99900     O ( 1.00)
        H              1.00     1.00800     H ( 1.00)

     Starting magnetic structure 
     atomic species   magnetization
        Co           1.000
        C            1.000
        O            0.000
        H            0.000

     No symmetry found



   Cartesian axes

     site n.     atom                  positions (alat units)
         1           Co  tau(   1) = (   0.0000000   0.1924501   1.3333333  )
         2           Co  tau(   2) = (   0.3333333   0.1924501   1.3333333  )
         3           Co  tau(   3) = (   0.6666667   0.1924501   1.3333333  )
         4           Co  tau(   4) = (   0.1666667   0.4811252   1.3333333  )
         5           Co  tau(   5) = (   0.5000000   0.4811252   1.3333333  )
         6           Co  tau(   6) = (   0.8333333   0.4811252   1.3333333  )
         7           Co  tau(   7) = (   0.3333333   0.7698004   1.3333333  )
         8           Co  tau(   8) = (   0.6666667   0.7698004   1.3333333  )
         9           Co  tau(   9) = (   1.0000000   0.7698004   1.3333333  )
        10           Co  tau(  10) = (   0.0000000   0.0000000   1.6036667  )
        11           Co  tau(  11) = (   0.3333333   0.0000000   1.6036667  )
        12           Co  tau(  12) = (   0.6666667   0.0000000   1.6036667  )
        13           Co  tau(  13) = (   0.1666667   0.2886751   1.6036667  )
        14           Co  tau(  14) = (   0.5000000   0.2886751   1.6036667  )
        15           Co  tau(  15) = (   0.8333333   0.2886751   1.6036667  )
        16           Co  tau(  16) = (   0.3333333   0.5773503   1.6036667  )
        17           Co  tau(  17) = (   0.6666667   0.5773503   1.6036667  )
        18           Co  tau(  18) = (   1.0000000   0.5773503   1.6036667  )
        19           Co  tau(  19) = (   0.0000000   0.1924501   1.8740000  )
        20           Co  tau(  20) = (   0.3333333   0.1924501   1.8740000  )
        21           Co  tau(  21) = (   0.6666667   0.1924501   1.8740000  )
        22           Co  tau(  22) = (   0.1666667   0.4811252   1.8740000  )
        23           Co  tau(  23) = (   0.5000000   0.4811252   1.8740000  )
        24           Co  tau(  24) = (   0.8333333   0.4811252   1.8740000  )
        25           Co  tau(  25) = (   0.3333333   0.7698004   1.8740000  )
        26           Co  tau(  26) = (   0.6666667   0.7698004   1.8740000  )
        27           Co  tau(  27) = (   1.0000000   0.7698004   1.8740000  )
        28           Co  tau(  28) = (   0.0000000   0.0000000   2.1443333  )
        29           Co  tau(  29) = (   0.3333333   0.0000000   2.1443333  )
        30           Co  tau(  30) = (   0.6666667   0.0000000   2.1443333  )
        31           Co  tau(  31) = (   0.1666667   0.2886751   2.1443333  )
        32           Co  tau(  32) = (   0.5000000   0.2886751   2.1443333  )
        33           Co  tau(  33) = (   0.8333333   0.2886751   2.1443333  )
        34           Co  tau(  34) = (   0.3333333   0.5773503   2.1443333  )
        35           Co  tau(  35) = (   0.6666667   0.5773503   2.1443333  )
        36           Co  tau(  36) = (   1.0000000   0.5773503   2.1443333  )
        37           C   tau(  37) = (   0.1801892  -0.0270192   2.3410397  )
        38           O   tau(  38) = (   0.0851740  -0.0427402   2.4718764  )
        39           H   tau(  39) = (   0.3409199   0.0014163   2.3712948  )

     number of k points=    13  Marzari-Vanderbilt smearing, width (Ry)=  0.0010
                       cart. coord. in units 2pi/alat
        k(    1) = (   0.0000000   0.0000000   0.0000000), wk =   0.0400000
        k(    2) = (   0.0000000   0.2309401   0.0000000), wk =   0.0800000
        k(    3) = (   0.0000000   0.4618802   0.0000000), wk =   0.0800000
        k(    4) = (   0.2000000  -0.1154701   0.0000000), wk =   0.0800000
        k(    5) = (   0.2000000   0.1154701   0.0000000), wk =   0.0800000
        k(    6) = (   0.2000000   0.3464102   0.0000000), wk =   0.0800000
        k(    7) = (   0.2000000  -0.5773503   0.0000000), wk =   0.0800000
        k(    8) = (   0.2000000  -0.3464102   0.0000000), wk =   0.0800000
        k(    9) = (   0.4000000  -0.2309401   0.0000000), wk =   0.0800000
        k(   10) = (   0.4000000   0.0000000   0.0000000), wk =   0.0800000
        k(   11) = (   0.4000000   0.2309401   0.0000000), wk =   0.0800000
        k(   12) = (   0.4000000  -0.6928203   0.0000000), wk =   0.0800000
        k(   13) = (   0.4000000  -0.4618802   0.0000000), wk =   0.0800000

     Dense  grid:   752179 G-vectors     FFT dimensions: (  80,  80, 288)

     Smooth grid:   409445 G-vectors     FFT dimensions: (  64,  64, 225)

     Estimated max dynamical RAM per process >      99.02 MB

     Estimated total dynamical RAM >       9.28 GB
     Generating pointlists ...
     new r_m :   0.0937 (alat units)  1.3277 (a.u.) for type    1
     new r_m :   0.0670 (alat units)  0.9498 (a.u.) for type    2
     new r_m :   0.0670 (alat units)  0.9498 (a.u.) for type    3
     new r_m :   0.0685 (alat units)  0.9705 (a.u.) for type    4

     Initial potential from superposition of free atoms

     starting charge     334.9897, renormalised to     335.0000

     negative rho (up, down):  3.047E-03 4.676E-04


     %%%%%%%%%%%%%%%%%%%%%%%%%%%%%%%%%%%%%%%%%%%%%%%%%%%%%%%%%%%%%%%%%%%%%%%%
     %                                                                      %
     % You are using vdW-DF, which was implemented by the Thonhauser group. %
     % Please cite the following two papers that made this development      %
     % possible and the two reviews that describe the various versions:     %
     %                                                                      %
     %   T. Thonhauser et al., PRL 115, 136402 (2015).                      %
     %   T. Thonhauser et al., PRB 76, 125112 (2007).                       %
     %   K. Berland et al., Rep. Prog. Phys. 78, 066501 (2015).             %
     %   D.C. Langreth et al., J. Phys.: Condens. Matter 21, 084203 (2009). %
     %                                                                      %
     % If you are calculating stress with vdW-DF, please also cite:         %
     %                                                                      %
     %   R. Sabatini et al., J. Phys.: Condens. Matter 24, 424209 (2012).   %
     %   C.M. Frostenson et al., Electr. Struct. 4, 014001 (2022).          %
     %                                                                      %
     %%%%%%%%%%%%%%%%%%%%%%%%%%%%%%%%%%%%%%%%%%%%%%%%%%%%%%%%%%%%%%%%%%%%%%%%

     %%%%%%%%%%%%%%%%%%%%%%%%%%%%%%%%%%%%%%%%%%%%%%%%%%%%%%%%%%%%%%%%%%%%%%%%
     %                                                                      %
     %  vdW-DF NEWS:                                                        %
     %                                                                      %
     %  * vdW-DF3 is now available. DOI: 10.1021/acs.jctc.0c00471           %
     %    use with input_dft = 'vdW-DF3-opt1' or 'vdW-DF3-opt2'             %
     %                                                                      %
     %  * Unscreened and range-separated hybrid vdW-DF-cx functionals       %
     %    DOI: 10.1063/1.4986522 and 10.1088/1361-648X/ac2ad2               %
     %    use with input_dft = 'vdW-DF-cx0'    and 'vdW-DF-ahcx'            %
     %  * Unscreened and range-separated hybrid vdW-DF2-b86r functionals    %
     %    DOI: 10.1063/1.4986522 and DOI: 10.1103/PhysRevX.12.041003        %
     %    use with input_dft = 'vdW-DF2-br0' and 'vdW-DF2-ahbr'             %
     %                                                                      %
     %%%%%%%%%%%%%%%%%%%%%%%%%%%%%%%%%%%%%%%%%%%%%%%%%%%%%%%%%%%%%%%%%%%%%%%%


     Starting wfcs are  333 randomized atomic wfcs
     Checking if some PAW data can be deallocated... 

     total cpu time spent up to now is       12.5 secs

     per-process dynamical memory:   230.6 Mb

     Self-consistent Calculation

     iteration #  1     ecut=    50.00 Ry     beta= 0.70
     Davidson diagonalization with overlap
     ethr =  1.00E-02,  avg # of iterations =  2.0

     negative rho (up, down):  2.816E-05 5.931E-08

     total cpu time spent up to now is       29.8 secs

     total energy              =   -6053.07194336 Ry
     estimated scf accuracy    <      39.53483006 Ry

     total magnetization       =    69.00 Bohr mag/cell
     absolute magnetization    =    81.31 Bohr mag/cell

     iteration #  2     ecut=    50.00 Ry     beta= 0.70
     Davidson diagonalization with overlap
     ethr =  1.00E-02,  avg # of iterations =  1.0

     negative rho (up, down):  3.760E-06 1.894E-08

     total cpu time spent up to now is       44.1 secs

     total energy              =   -6052.58390673 Ry
     estimated scf accuracy    <      24.15325810 Ry

     total magnetization       =    68.52 Bohr mag/cell
     absolute magnetization    =    76.67 Bohr mag/cell

     iteration #  3     ecut=    50.00 Ry     beta= 0.70
     Davidson diagonalization with overlap
     ethr =  7.21E-03,  avg # of iterations =  1.1

     negative rho (up, down):  2.332E-08 0.000E+00

     total cpu time spent up to now is       57.2 secs

     total energy              =   -6055.08360433 Ry
     estimated scf accuracy    <      87.45553429 Ry

     total magnetization       =    65.78 Bohr mag/cell
     absolute magnetization    =    73.13 Bohr mag/cell

     iteration #  4     ecut=    50.00 Ry     beta= 0.70
     Davidson diagonalization with overlap
     ethr =  7.21E-03,  avg # of iterations =  1.0

     total cpu time spent up to now is       70.7 secs

     total energy              =   -6056.34424710 Ry
     estimated scf accuracy    <       5.50290144 Ry

     total magnetization       =    60.51 Bohr mag/cell
     absolute magnetization    =    70.43 Bohr mag/cell

     iteration #  5     ecut=    50.00 Ry     beta= 0.70
     Davidson diagonalization with overlap
     ethr =  1.64E-03,  avg # of iterations =  1.3

     total cpu time spent up to now is       84.8 secs

     total energy              =   -6056.35117448 Ry
     estimated scf accuracy    <       2.47365378 Ry

     total magnetization       =    60.24 Bohr mag/cell
     absolute magnetization    =    69.73 Bohr mag/cell

     iteration #  6     ecut=    50.00 Ry     beta= 0.70
     Davidson diagonalization with overlap
     ethr =  7.38E-04,  avg # of iterations =  1.6

     total cpu time spent up to now is       98.6 secs

     total energy              =   -6056.47428465 Ry
     estimated scf accuracy    <       0.59941340 Ry

     total magnetization       =    60.20 Bohr mag/cell
     absolute magnetization    =    69.47 Bohr mag/cell

     iteration #  7     ecut=    50.00 Ry     beta= 0.70
     Davidson diagonalization with overlap
     ethr =  1.79E-04,  avg # of iterations =  5.7

     total cpu time spent up to now is      117.6 secs

     total energy              =   -6056.51167673 Ry
     estimated scf accuracy    <       0.90622699 Ry

     total magnetization       =    60.20 Bohr mag/cell
     absolute magnetization    =    69.10 Bohr mag/cell

     iteration #  8     ecut=    50.00 Ry     beta= 0.70
     Davidson diagonalization with overlap
     ethr =  1.79E-04,  avg # of iterations =  1.6

     total cpu time spent up to now is      131.7 secs

     total energy              =   -6056.52505833 Ry
     estimated scf accuracy    <       0.13389830 Ry

     total magnetization       =    60.35 Bohr mag/cell
     absolute magnetization    =    69.06 Bohr mag/cell

     iteration #  9     ecut=    50.00 Ry     beta= 0.70
     Davidson diagonalization with overlap
     c_bands:  1 eigenvalues not converged
     c_bands:  3 eigenvalues not converged
     c_bands:  1 eigenvalues not converged
     c_bands:  4 eigenvalues not converged
     ethr =  4.00E-05,  avg # of iterations = 12.3

     total cpu time spent up to now is      159.4 secs

     total energy              =   -6056.53967855 Ry
     estimated scf accuracy    <       0.20838389 Ry

     total magnetization       =    61.12 Bohr mag/cell
     absolute magnetization    =    69.13 Bohr mag/cell

     iteration # 10     ecut=    50.00 Ry     beta= 0.70
     Davidson diagonalization with overlap
     ethr =  4.00E-05,  avg # of iterations =  1.9

     total cpu time spent up to now is      173.7 secs

     total energy              =   -6056.54739209 Ry
     estimated scf accuracy    <       0.21917729 Ry

     total magnetization       =    61.14 Bohr mag/cell
     absolute magnetization    =    69.01 Bohr mag/cell

     iteration # 11     ecut=    50.00 Ry     beta= 0.70
     Davidson diagonalization with overlap
     ethr =  4.00E-05,  avg # of iterations =  1.1

     total cpu time spent up to now is      187.7 secs

     total energy              =   -6056.53491677 Ry
     estimated scf accuracy    <       0.11978435 Ry

     total magnetization       =    61.09 Bohr mag/cell
     absolute magnetization    =    68.90 Bohr mag/cell

     iteration # 12     ecut=    50.00 Ry     beta= 0.70
     Davidson diagonalization with overlap
     ethr =  3.58E-05,  avg # of iterations =  2.0

     total cpu time spent up to now is      202.2 secs

     total energy              =   -6056.53878952 Ry
     estimated scf accuracy    <       0.08059232 Ry

     total magnetization       =    61.10 Bohr mag/cell
     absolute magnetization    =    68.68 Bohr mag/cell

     iteration # 13     ecut=    50.00 Ry     beta= 0.70
     Davidson diagonalization with overlap
     ethr =  2.41E-05,  avg # of iterations =  1.5

     total cpu time spent up to now is      215.6 secs

     total energy              =   -6056.53803518 Ry
     estimated scf accuracy    <       0.08145595 Ry

     total magnetization       =    61.10 Bohr mag/cell
     absolute magnetization    =    68.60 Bohr mag/cell

     iteration # 14     ecut=    50.00 Ry     beta= 0.70
     Davidson diagonalization with overlap
     ethr =  2.41E-05,  avg # of iterations =  2.1

     total cpu time spent up to now is      229.8 secs

     total energy              =   -6056.53441929 Ry
     estimated scf accuracy    <       0.08304549 Ry

     total magnetization       =    61.09 Bohr mag/cell
     absolute magnetization    =    68.63 Bohr mag/cell

     iteration # 15     ecut=    50.00 Ry     beta= 0.70
     Davidson diagonalization with overlap
     ethr =  2.41E-05,  avg # of iterations =  1.2

     negative rho (up, down):  1.529E-03 1.016E-03

     total cpu time spent up to now is      244.1 secs

     total energy              =   -6056.53106377 Ry
     estimated scf accuracy    <       0.12494889 Ry

     total magnetization       =    61.09 Bohr mag/cell
     absolute magnetization    =    68.60 Bohr mag/cell

     iteration # 16     ecut=    50.00 Ry     beta= 0.70
     Davidson diagonalization with overlap
     ethr =  2.41E-05,  avg # of iterations =  1.5

     negative rho (up, down):  1.747E-02 1.626E-02

     total cpu time spent up to now is      258.0 secs

     total energy              =   -6056.52748385 Ry
     estimated scf accuracy    <       0.08888823 Ry

     total magnetization       =    61.09 Bohr mag/cell
     absolute magnetization    =    68.52 Bohr mag/cell

     iteration # 17     ecut=    50.00 Ry     beta= 0.70
     Davidson diagonalization with overlap
     ethr =  2.41E-05,  avg # of iterations =  1.4

     negative rho (up, down):  2.986E-02 2.828E-02

     total cpu time spent up to now is      271.7 secs

     total energy              =   -6056.52790774 Ry
     estimated scf accuracy    <       0.03221528 Ry

     total magnetization       =    61.09 Bohr mag/cell
     absolute magnetization    =    68.48 Bohr mag/cell

     iteration # 18     ecut=    50.00 Ry     beta= 0.70
     Davidson diagonalization with overlap
     c_bands:  1 eigenvalues not converged
     c_bands:  2 eigenvalues not converged
     ethr =  9.62E-06,  avg # of iterations =  6.3

     negative rho (up, down):  2.161E-02 2.014E-02

     total cpu time spent up to now is      290.3 secs

     total energy              =   -6056.52729832 Ry
     estimated scf accuracy    <       0.01781740 Ry

     total magnetization       =    61.09 Bohr mag/cell
     absolute magnetization    =    68.43 Bohr mag/cell

     iteration # 19     ecut=    50.00 Ry     beta= 0.70
     Davidson diagonalization with overlap
     ethr =  5.32E-06,  avg # of iterations =  2.5

     negative rho (up, down):  2.625E-02 2.469E-02

     total cpu time spent up to now is      305.9 secs

     total energy              =   -6056.52723035 Ry
     estimated scf accuracy    <       0.02037715 Ry

     total magnetization       =    61.09 Bohr mag/cell
     absolute magnetization    =    68.47 Bohr mag/cell

     iteration # 20     ecut=    50.00 Ry     beta= 0.70
     Davidson diagonalization with overlap
     ethr =  5.32E-06,  avg # of iterations =  1.2

     negative rho (up, down):  1.753E-02 1.649E-02

     total cpu time spent up to now is      319.3 secs

     total energy              =   -6056.52573326 Ry
     estimated scf accuracy    <       0.01148617 Ry

     total magnetization       =    61.09 Bohr mag/cell
     absolute magnetization    =    68.46 Bohr mag/cell

     iteration # 21     ecut=    50.00 Ry     beta= 0.70
     Davidson diagonalization with overlap
     c_bands:  1 eigenvalues not converged
     ethr =  3.43E-06,  avg # of iterations =  2.4

     negative rho (up, down):  1.439E-02 1.331E-02

     total cpu time spent up to now is      333.9 secs

     total energy              =   -6056.52555275 Ry
     estimated scf accuracy    <       0.01024356 Ry

     total magnetization       =    61.09 Bohr mag/cell
     absolute magnetization    =    68.49 Bohr mag/cell

     iteration # 22     ecut=    50.00 Ry     beta= 0.70
     Davidson diagonalization with overlap
     ethr =  3.06E-06,  avg # of iterations =  1.5

     negative rho (up, down):  4.682E-03 4.093E-03

     total cpu time spent up to now is      347.8 secs

     total energy              =   -6056.52480276 Ry
     estimated scf accuracy    <       0.01129112 Ry

     total magnetization       =    61.09 Bohr mag/cell
     absolute magnetization    =    68.49 Bohr mag/cell

     iteration # 23     ecut=    50.00 Ry     beta= 0.70
     Davidson diagonalization with overlap
     ethr =  3.06E-06,  avg # of iterations =  1.7

     negative rho (up, down):  1.139E-02 1.088E-02

     total cpu time spent up to now is      362.7 secs

     total energy              =   -6056.52516455 Ry
     estimated scf accuracy    <       0.01174956 Ry

     total magnetization       =    61.10 Bohr mag/cell
     absolute magnetization    =    68.53 Bohr mag/cell

     iteration # 24     ecut=    50.00 Ry     beta= 0.70
     Davidson diagonalization with overlap
     ethr =  3.06E-06,  avg # of iterations =  1.1

     negative rho (up, down):  8.510E-03 7.942E-03

     total cpu time spent up to now is      376.0 secs

     total energy              =   -6056.52551093 Ry
     estimated scf accuracy    <       0.00078058 Ry

     total magnetization       =    61.09 Bohr mag/cell
     absolute magnetization    =    68.53 Bohr mag/cell

     iteration # 25     ecut=    50.00 Ry     beta= 0.70
     Davidson diagonalization with overlap
     ethr =  2.33E-07,  avg # of iterations =  4.9

     negative rho (up, down):  6.037E-03 5.439E-03

     total cpu time spent up to now is      393.6 secs

     total energy              =   -6056.52535895 Ry
     estimated scf accuracy    <       0.00115991 Ry

     total magnetization       =    61.09 Bohr mag/cell
     absolute magnetization    =    68.52 Bohr mag/cell

     iteration # 26     ecut=    50.00 Ry     beta= 0.70
     Davidson diagonalization with overlap
     ethr =  2.33E-07,  avg # of iterations =  1.5

     negative rho (up, down):  4.701E-03 4.020E-03

     total cpu time spent up to now is      407.6 secs

     total energy              =   -6056.52563599 Ry
     estimated scf accuracy    <       0.00071385 Ry

     total magnetization       =    61.09 Bohr mag/cell
     absolute magnetization    =    68.52 Bohr mag/cell

     iteration # 27     ecut=    50.00 Ry     beta= 0.70
     Davidson diagonalization with overlap
     ethr =  2.13E-07,  avg # of iterations =  1.6

     negative rho (up, down):  4.211E-03 3.403E-03

     total cpu time spent up to now is      422.5 secs

     total energy              =   -6056.52568280 Ry
     estimated scf accuracy    <       0.00042774 Ry

     total magnetization       =    61.09 Bohr mag/cell
     absolute magnetization    =    68.52 Bohr mag/cell

     iteration # 28     ecut=    50.00 Ry     beta= 0.70
     Davidson diagonalization with overlap
     ethr =  1.28E-07,  avg # of iterations =  1.4

     negative rho (up, down):  3.722E-03 2.819E-03

     total cpu time spent up to now is      436.4 secs

     total energy              =   -6056.52569408 Ry
     estimated scf accuracy    <       0.00012999 Ry

     total magnetization       =    61.09 Bohr mag/cell
     absolute magnetization    =    68.52 Bohr mag/cell

     iteration # 29     ecut=    50.00 Ry     beta= 0.70
     Davidson diagonalization with overlap
     ethr =  3.88E-08,  avg # of iterations =  4.5

     negative rho (up, down):  3.601E-03 2.611E-03

     total cpu time spent up to now is      453.2 secs

     total energy              =   -6056.52571027 Ry
     estimated scf accuracy    <       0.00007696 Ry

     total magnetization       =    61.09 Bohr mag/cell
     absolute magnetization    =    68.52 Bohr mag/cell

     iteration # 30     ecut=    50.00 Ry     beta= 0.70
     Davidson diagonalization with overlap
                                                                                                                                                                                                                                                                                                                                                                                                                                                                                                     ethr =  2.30E-08,  avg # of iterations =  1.2

     negative rho (up, down):  2.935E-03 1.850E-03

     total cpu time spent up to now is     3364.3 secs

     total energy              =   -6056.52571168 Ry
     estimated scf accuracy    <       0.00001312 Ry

     total magnetization       =    61.09 Bohr mag/cell
     absolute magnetization    =    68.52 Bohr mag/cell

     iteration # 32     ecut=    50.00 Ry     beta= 0.70
     Davidson diagonalization with overlap
     ethr =  3.92E-09,  avg # of iterations =  7.0

     negative rho (up, down):  2.739E-03 1.641E-03

     total cpu time spent up to now is     3385.7 secs

     total energy              =   -6056.52571173 Ry
     estimated scf accuracy    <       0.00002687 Ry

     total magnetization       =    61.09 Bohr mag/cell
     absolute magnetization    =    68.52 Bohr mag/cell

     iteration # 33     ecut=    50.00 Ry     beta= 0.70
     Davidson diagonalization with overlap
     ethr =  3.92E-09,  avg # of iterations =  1.5

     negative rho (up, down):  2.756E-03 1.640E-03

     total cpu time spent up to now is     3400.6 secs

     total energy              =   -6056.52571797 Ry
     estimated scf accuracy    <       0.00001622 Ry

     total magnetization       =    61.09 Bohr mag/cell
     absolute magnetization    =    68.52 Bohr mag/cell

     iteration # 34     ecut=    50.00 Ry     beta= 0.70
     Davidson diagonalization with overlap
     ethr =  3.92E-09,  avg # of iterations =  1.8

     negative rho (up, down):  2.235E-03 1.126E-03

     total cpu time spent up to now is     3415.1 secs

     total energy              =   -6056.52571892 Ry
     estimated scf accuracy    <       0.00001922 Ry

     total magnetization       =    61.09 Bohr mag/cell
     absolute magnetization    =    68.52 Bohr mag/cell

     iteration # 35     ecut=    50.00 Ry     beta= 0.70
     Davidson diagonalization with overlap
     ethr =  3.92E-09,  avg # of iterations =  2.0

     negative rho (up, down):  2.359E-03 1.253E-03

     total cpu time spent up to now is     3429.9 secs

     total energy              =   -6056.52571968 Ry
     estimated scf accuracy    <       0.00001676 Ry

     total magnetization       =    61.09 Bohr mag/cell
     absolute magnetization    =    68.52 Bohr mag/cell

     iteration # 36     ecut=    50.00 Ry     beta= 0.70
     Davidson diagonalization with overlap
     ethr =  3.92E-09,  avg # of iterations =  1.0

     negative rho (up, down):  2.206E-03 1.130E-03

     total cpu time spent up to now is     3443.2 secs

     total energy              =   -6056.52571964 Ry
     estimated scf accuracy    <       0.00001220 Ry

     total magnetization       =    61.09 Bohr mag/cell
     absolute magnetization    =    68.52 Bohr mag/cell

     iteration # 37     ecut=    50.00 Ry     beta= 0.70
     Davidson diagonalization with overlap
     ethr =  3.64E-09,  avg # of iterations =  1.5

     negative rho (up, down):  2.184E-03 1.116E-03

     total cpu time spent up to now is     3457.8 secs

     total energy              =   -6056.52571948 Ry
     estimated scf accuracy    <       0.00000720 Ry

     total magnetization       =    61.09 Bohr mag/cell
     absolute magnetization    =    68.52 Bohr mag/cell

     iteration # 38     ecut=    50.00 Ry     beta= 0.70
     Davidson diagonalization with overlap
     ethr =  2.15E-09,  avg # of iterations =  1.4

     negative rho (up, down):  2.278E-03 1.183E-03

     total cpu time spent up to now is     3472.0 secs

     total energy              =   -6056.52572036 Ry
     estimated scf accuracy    <       0.00000319 Ry

     total magnetization       =    61.09 Bohr mag/cell
     absolute magnetization    =    68.52 Bohr mag/cell

     iteration # 39     ecut=    50.00 Ry     beta= 0.70
     Davidson diagonalization with overlap
     ethr =  9.52E-10,  avg # of iterations =  2.6

     negative rho (up, down):  2.263E-03 1.171E-03

     total cpu time spent up to now is     3487.3 secs

     total energy              =   -6056.52572039 Ry
     estimated scf accuracy    <       0.00000612 Ry

     total magnetization       =    61.09 Bohr mag/cell
     absolute magnetization    =    68.52 Bohr mag/cell

     iteration # 40     ecut=    50.00 Ry     beta= 0.70
     Davidson diagonalization with overlap
     ethr =  9.52E-10,  avg # of iterations =  1.2

     negative rho (up, down):  2.266E-03 1.174E-03

     total cpu time spent up to now is     3500.8 secs

     total energy              =   -6056.52572060 Ry
     estimated scf accuracy    <       0.00000514 Ry

     total magnetization       =    61.09 Bohr mag/cell
     absolute magnetization    =    68.52 Bohr mag/cell

     iteration # 41     ecut=    50.00 Ry     beta= 0.70
     Davidson diagonalization with overlap
     ethr =  9.52E-10,  avg # of iterations =  1.0

     negative rho (up, down):  2.247E-03 1.159E-03

     total cpu time spent up to now is     3514.5 secs

     total energy              =   -6056.52572067 Ry
     estimated scf accuracy    <       0.00000109 Ry

     total magnetization       =    61.09 Bohr mag/cell
     absolute magnetization    =    68.52 Bohr mag/cell

     iteration # 42     ecut=    50.00 Ry     beta= 0.70
     Davidson diagonalization with overlap
     ethr =  3.26E-10,  avg # of iterations =  2.9

     negative rho (up, down):  2.249E-03 1.161E-03

     total cpu time spent up to now is     3530.5 secs

     total energy              =   -6056.52572072 Ry
     estimated scf accuracy    <       0.00000034 Ry

     total magnetization       =    61.09 Bohr mag/cell
     absolute magnetization    =    68.52 Bohr mag/cell

     iteration # 43     ecut=    50.00 Ry     beta= 0.70
     Davidson diagonalization with overlap
     ethr =  1.01E-10,  avg # of iterations =  5.5

     negative rho (up, down):  2.248E-03 1.158E-03

     total cpu time spent up to now is     3548.1 secs

     total energy              =   -6056.52572075 Ry
     estimated scf accuracy    <       0.00000020 Ry

     total magnetization       =    61.09 Bohr mag/cell
     absolute magnetization    =    68.52 Bohr mag/cell

     iteration # 44     ecut=    50.00 Ry     beta= 0.70
     Davidson diagonalization with overlap
     ethr =  6.09E-11,  avg # of iterations =  2.5

     negative rho (up, down):  2.248E-03 1.157E-03

     total cpu time spent up to now is     3563.4 secs

     total energy              =   -6056.52572076 Ry
     estimated scf accuracy    <       0.00000006 Ry

     total magnetization       =    61.09 Bohr mag/cell
     absolute magnetization    =    68.52 Bohr mag/cell

     iteration # 45     ecut=    50.00 Ry     beta= 0.70
     Davidson diagonalization with overlap
     ethr =  1.82E-11,  avg # of iterations =  6.3

     negative rho (up, down):  2.247E-03 1.156E-03

     total cpu time spent up to now is     3584.6 secs

     total energy              =   -6056.52572076 Ry
     estimated scf accuracy    <       0.00000025 Ry

     total magnetization       =    61.09 Bohr mag/cell
     absolute magnetization    =    68.52 Bohr mag/cell

     iteration # 46     ecut=    50.00 Ry     beta= 0.70
     Davidson diagonalization with overlap
     ethr =  1.82E-11,  avg # of iterations =  1.8

     negative rho (up, down):  2.245E-03 1.153E-03

     total cpu time spent up to now is     3598.7 secs

     total energy              =   -6056.52572076 Ry
     estimated scf accuracy    <       0.00000002 Ry

     total magnetization       =    61.09 Bohr mag/cell
     absolute magnetization    =    68.52 Bohr mag/cell

     iteration # 47     ecut=    50.00 Ry     beta= 0.70
     Davidson diagonalization with overlap
     ethr =  5.70E-12,  avg # of iterations =  4.7

     negative rho (up, down):  2.243E-03 1.150E-03

     total cpu time spent up to now is     3616.6 secs

     total energy              =   -6056.52572076 Ry
     estimated scf accuracy    <       0.00000002 Ry

     total magnetization       =    61.09 Bohr mag/cell
     absolute magnetization    =    68.52 Bohr mag/cell

     iteration # 48     ecut=    50.00 Ry     beta= 0.70
     Davidson diagonalization with overlap
     ethr =  5.70E-12,  avg # of iterations =  1.8

     negative rho (up, down):  2.234E-03 1.142E-03

     Magnetic moment per site  (integrated on atomic sphere of radius R)
     atom   1 (R=0.094)  charge=  5.8296  magn=  1.6928
     atom   2 (R=0.094)  charge=  5.8302  magn=  1.6891
     atom   3 (R=0.094)  charge=  5.8300  magn=  1.6965
     atom   4 (R=0.094)  charge=  5.8308  magn=  1.6991
     atom   5 (R=0.094)  charge=  5.8302  magn=  1.6969
     atom   6 (R=0.094)  charge=  5.8308  magn=  1.6926
     atom   7 (R=0.094)  charge=  5.8299  magn=  1.6937
     atom   8 (R=0.094)  charge=  5.8305  magn=  1.6851
     atom   9 (R=0.094)  charge=  5.8307  magn=  1.6908
     atom  10 (R=0.094)  charge=  5.8274  magn=  1.6229
     atom  11 (R=0.094)  charge=  5.8282  magn=  1.6269
     atom  12 (R=0.094)  charge=  5.8279  magn=  1.6295
     atom  13 (R=0.094)  charge=  5.8274  magn=  1.6287
     atom  14 (R=0.094)  charge=  5.8279  magn=  1.6296
     atom  15 (R=0.094)  charge=  5.8275  magn=  1.6262
     atom  16 (R=0.094)  charge=  5.8279  magn=  1.6212
     atom  17 (R=0.094)  charge=  5.8275  magn=  1.6253
     atom  18 (R=0.094)  charge=  5.8280  magn=  1.6240
     atom  19 (R=0.094)  charge=  5.8261  magn=  1.6345
     atom  20 (R=0.094)  charge=  5.8264  magn=  1.6235
     atom  21 (R=0.094)  charge=  5.8267  magn=  1.6359
     atom  22 (R=0.094)  charge=  5.8275  magn=  1.6375
     atom  23 (R=0.094)  charge=  5.8273  magn=  1.6345
     atom  24 (R=0.094)  charge=  5.8271  magn=  1.6391
     atom  25 (R=0.094)  charge=  5.8252  magn=  1.6332
     atom  26 (R=0.094)  charge=  5.8238  magn=  1.6380
     atom  27 (R=0.094)  charge=  5.8259  magn=  1.6187
     atom  28 (R=0.094)  charge=  5.8452  magn=  1.3948
     atom  29 (R=0.094)  charge=  5.8501  magn=  1.0624
     atom  30 (R=0.094)  charge=  5.8310  magn=  1.6832
     atom  31 (R=0.094)  charge=  5.8341  magn=  1.6939
     atom  32 (R=0.094)  charge=  5.8314  magn=  1.6987
     atom  33 (R=0.094)  charge=  5.8290  magn=  1.7007
     atom  34 (R=0.094)  charge=  5.8308  magn=  1.6982
     atom  35 (R=0.094)  charge=  5.8372  magn=  1.6425
     atom  36 (R=0.094)  charge=  5.8322  magn=  1.7075
     atom  37 (R=0.067)  charge=  1.1072  magn= -0.0172
     atom  38 (R=0.067)  charge=  3.0315  magn= -0.0105
     atom  39 (R=0.068)  charge=  0.5527  magn=  0.0020

     total cpu time spent up to now is     3630.5 secs

     End of self-consistent calculation

 ------ SPIN UP ------------


          k = 0.0000 0.0000 0.0000 ( 51087 PWs)   bands (ev):

   -21.8544 -10.6813  -7.5773  -6.9359  -6.3374  -5.7989  -5.4130  -4.7362
    -4.7054  -4.7040  -4.7016  -4.6880  -4.6845  -4.6485  -4.3443  -4.1735
    -4.1710  -4.1687  -4.1468  -4.1422  -4.1062  -3.6562  -3.6531  -3.6502
    -3.6424  -3.6344  -3.6006  -3.5321  -3.5226  -3.5202  -3.5178  -3.5152
    -3.4810  -3.4515  -3.4498  -3.1418  -3.1373  -3.1322  -3.1312  -3.1171
    -3.0721  -3.0701  -3.0645  -3.0624  -3.0581  -3.0558  -3.0508  -2.9051
    -2.9037  -2.8817  -2.8434  -2.8338  -2.8273  -2.8253  -2.8200  -2.8045
    -2.7946  -2.7944  -2.7920  -2.7098  -2.6967  -2.6918  -2.6850  -2.6796
    -2.6414  -2.4600  -2.1653  -2.1610  -2.1536  -2.1460  -2.1409  -2.0504
    -2.0321  -2.0213  -2.0068  -1.9967  -1.9888  -1.9806  -1.9790  -1.9731
    -1.9508  -1.9218  -1.9184  -1.8744  -1.8659  -1.8623  -1.8466  -1.8408
    -1.8382  -1.8311  -1.8262  -1.8252  -1.8193  -1.7988  -1.7955  -1.7923
    -1.7885  -1.7855  -1.7843  -1.7832  -1.7801  -1.7746  -1.7739  -1.7733
    -1.7691  -1.7443  -1.7224  -1.6971  -1.6895  -1.6211  -1.6172  -1.5482
    -1.4061  -1.3306  -1.3260  -1.3243  -1.3235  -1.3213  -1.3151  -1.2956
    -1.2914  -1.2883  -1.2570  -1.2451  -1.2322  -1.2222  -1.1170  -1.1132
    -1.0810  -1.0774  -0.9837  -0.9307  -0.9152  -0.9028  -0.9012  -0.8842
    -0.8443  -0.8357  -0.8307  -0.8256  -0.8208  -0.8017  -0.7165  -0.7111
    -0.6157  -0.5883  -0.5862  -0.5832  -0.5650  -0.5495  -0.5266  -0.5246
    -0.5203  -0.5182  -0.5142  -0.5081  -0.5019  -0.5001  -0.4989  -0.4954
    -0.4909  -0.4867  -0.4696  -0.4608  -0.4490  -0.4396  -0.4381  -0.4314
    -0.4221  -0.4117  -0.3968  -0.3959  -0.3886  -0.3824  -0.3662  -0.3632
    -0.3601  -0.3539  -0.3436  -0.3273  -0.3079  -0.2938  -0.2890  -0.2836
    -0.2803  -0.2769  -0.2684  -0.2635  -0.2510  -0.2367  -0.2048  -0.2035
    -0.1916  -0.1911  -0.1291  -0.1258  -0.1224  -0.1108  -0.1091  -0.0875
     0.3585   1.0623

          k = 0.0000 0.2309 0.0000 ( 51134 PWs)   bands (ev):

   -21.8544 -10.6796  -7.4321  -6.9281  -6.2527  -5.7868  -5.4640  -5.3592
    -4.9481  -4.9448  -4.5873  -4.4382  -4.3632  -4.3616  -4.2953  -4.2431
    -4.1988  -4.1876  -4.0898  -4.0426  -4.0377  -3.7742  -3.6631  -3.6563
    -3.5825  -3.5516  -3.5377  -3.5337  -3.5308  -3.5128  -3.5036  -3.4895
    -3.4538  -3.4146  -3.4089  -3.3781  -3.3765  -3.1997  -3.1534  -3.1493
    -3.0977  -3.0951  -3.0904  -3.0861  -3.0287  -2.9781  -2.9641  -2.9446
    -2.9261  -2.9223  -2.8962  -2.8858  -2.7955  -2.7895  -2.7629  -2.7339
    -2.7213  -2.6991  -2.6900  -2.6765  -2.6665  -2.6433  -2.6173  -2.6129
    -2.5541  -2.4550  -2.2761  -2.2642  -2.2519  -2.2381  -2.1936  -2.1289
    -2.1198  -2.1143  -2.1017  -2.0906  -2.0856  -2.0709  -2.0558  -2.0050
    -1.9830  -1.9770  -1.9584  -1.9217  -1.9173  -1.9130  -1.9024  -1.8886
    -1.8777  -1.8721  -1.8685  -1.8648  -1.8580  -1.8332  -1.8040  -1.7813
    -1.7640  -1.7468  -1.6983  -1.6918  -1.6810  -1.6713  -1.6662  -1.6598
    -1.6459  -1.6346  -1.6274  -1.6270  -1.6190  -1.6029  -1.5821  -1.5793
    -1.5587  -1.5551  -1.5392  -1.4717  -1.4547  -1.4167  -1.3541  -1.3516
    -1.3432  -1.3352  -1.3268  -1.3191  -1.3151  -1.3054  -1.2399  -1.1740
    -1.1599  -1.1380  -1.0635  -1.0595  -1.0390  -0.9942  -0.9712  -0.9624
    -0.9292  -0.8732  -0.8593  -0.8396  -0.8287  -0.8152  -0.7821  -0.7751
    -0.7592  -0.7477  -0.7319  -0.6927  -0.6899  -0.6766  -0.6683  -0.6560
    -0.6348  -0.5962  -0.5896  -0.5797  -0.5768  -0.5521  -0.5256  -0.5228
    -0.5137  -0.5056  -0.5003  -0.4907  -0.4717  -0.4647  -0.4476  -0.4300
    -0.3983  -0.3896  -0.3730  -0.3481  -0.3291  -0.3207  -0.2923  -0.2700
    -0.2651  -0.2593  -0.2511  -0.2443  -0.2255  -0.2208  -0.2081  -0.1737
    -0.1582  -0.1263  -0.1192  -0.1110  -0.0931  -0.0916  -0.0559  -0.0400
    -0.0036   0.0156   0.2420   0.2559   0.3515   0.4555   0.5055   0.5358
     0.5562   0.8099

          k = 0.0000 0.4619 0.0000 ( 51204 PWs)   bands (ev):

   -21.8544 -10.6770  -7.0472  -6.8795  -6.3237  -6.0572  -5.6176  -5.3380
    -5.0920  -5.0790  -4.9551  -4.2486  -4.1956  -4.1915  -4.1802  -4.1180
    -4.0060  -4.0043  -3.9623  -3.8770  -3.8711  -3.8647  -3.7619  -3.6962
    -3.6921  -3.6760  -3.6748  -3.6255  -3.5679  -3.5647  -3.5472  -3.4072
    -3.4020  -3.3920  -3.3860  -3.3562  -3.3534  -3.2636  -3.2441  -3.2397
    -3.2323  -3.2272  -3.1218  -3.0271  -3.0174  -2.9359  -2.9210  -2.9011
    -2.8861  -2.8617  -2.8435  -2.8404  -2.8269  -2.8068  -2.7625  -2.7460
    -2.7231  -2.6799  -2.6723  -2.5982  -2.5334  -2.5222  -2.5110  -2.4844
    -2.4401  -2.4160  -2.3910  -2.3817  -2.3564  -2.2901  -2.2576  -2.2468
    -2.2408  -2.2360  -2.2261  -2.2067  -2.1978  -2.1918  -2.1570  -2.1435
    -2.1089  -2.0902  -2.0744  -2.0508  -2.0200  -2.0106  -1.9601  -1.9292
    -1.9164  -1.9124  -1.8825  -1.8685  -1.8433  -1.8134  -1.8056  -1.7966
    -1.7910  -1.7705  -1.7647  -1.7410  -1.7258  -1.7181  -1.7100  -1.6959
    -1.6752  -1.6596  -1.6166  -1.6070  -1.5523  -1.5360  -1.5196  -1.5112
    -1.4813  -1.4621  -1.4410  -1.4023  -1.3937  -1.3727  -1.3673  -1.3629
    -1.3604  -1.3529  -1.3437  -1.3370  -1.3292  -1.3210  -1.3103  -1.2985
    -1.2934  -1.2611  -1.1954  -1.1646  -1.1367  -1.1282  -1.1100  -1.0982
    -1.0625  -1.0315  -1.0030  -0.9885  -0.9788  -0.9358  -0.9082  -0.8631
    -0.8538  -0.8272  -0.8152  -0.7844  -0.7750  -0.7570  -0.7285  -0.6925
    -0.6421  -0.6098  -0.6066  -0.6001  -0.5867  -0.5823  -0.5707  -0.5639
    -0.5538  -0.5398  -0.4604  -0.4373  -0.4238  -0.4139  -0.4104  -0.4068
    -0.3956  -0.3837  -0.3597  -0.3553  -0.3406  -0.3285  -0.2569  -0.2411
    -0.2356  -0.2229  -0.2039  -0.1624  -0.1372  -0.1189  -0.0998  -0.0679
    -0.0584  -0.0225  -0.0182  -0.0002   0.0027   0.0091   0.0188   0.0614
     0.1195   0.1409   0.3262   0.8373   1.0726   1.2093   1.2443   1.3595
     1.4677   1.6011

          k = 0.2000-0.1155 0.0000 ( 51134 PWs)   bands (ev):

   -21.8544 -10.6796  -7.4334  -6.9297  -6.2477  -5.7712  -5.4801  -5.3613
    -4.9471  -4.9413  -4.5861  -4.4544  -4.3642  -4.3597  -4.2964  -4.2513
    -4.2014  -4.1663  -4.0996  -4.0434  -4.0277  -3.7775  -3.6647  -3.6540
    -3.5788  -3.5566  -3.5366  -3.5336  -3.5301  -3.5233  -3.5040  -3.4812
    -3.4594  -3.4160  -3.4058  -3.3793  -3.3763  -3.1894  -3.1545  -3.1493
    -3.1195  -3.0940  -3.0906  -3.0828  -3.0131  -3.0004  -2.9627  -2.9383
    -2.9261  -2.9186  -2.9020  -2.8872  -2.8055  -2.7873  -2.7668  -2.7360
    -2.7212  -2.6990  -2.6850  -2.6657  -2.6584  -2.6382  -2.6176  -2.6141
    -2.5572  -2.4564  -2.2801  -2.2668  -2.2412  -2.2282  -2.1911  -2.1286
    -2.1220  -2.1141  -2.1043  -2.0939  -2.0863  -2.0650  -2.0379  -2.0070
    -1.9830  -1.9782  -1.9601  -1.9196  -1.9150  -1.9129  -1.9072  -1.8838
    -1.8805  -1.8738  -1.8708  -1.8652  -1.8605  -1.8408  -1.7875  -1.7791
    -1.7662  -1.7396  -1.7099  -1.6885  -1.6828  -1.6778  -1.6645  -1.6577
    -1.6507  -1.6348  -1.6287  -1.6241  -1.6140  -1.6031  -1.5780  -1.5726
    -1.5649  -1.5494  -1.5366  -1.4850  -1.4612  -1.4226  -1.3530  -1.3505
    -1.3409  -1.3345  -1.3243  -1.3211  -1.3185  -1.3095  -1.2081  -1.1839
    -1.1580  -1.1374  -1.0644  -1.0600  -1.0386  -0.9987  -0.9716  -0.9607
    -0.8989  -0.8939  -0.8668  -0.8483  -0.8293  -0.8184  -0.7848  -0.7784
    -0.7635  -0.7411  -0.7295  -0.6920  -0.6897  -0.6773  -0.6702  -0.6608
    -0.6370  -0.5939  -0.5868  -0.5851  -0.5593  -0.5405  -0.5243  -0.5222
    -0.5143  -0.5067  -0.5016  -0.4907  -0.4713  -0.4620  -0.4529  -0.4391
    -0.3926  -0.3833  -0.3618  -0.3507  -0.3294  -0.3225  -0.2914  -0.2721
    -0.2663  -0.2595  -0.2514  -0.2426  -0.2223  -0.2201  -0.2090  -0.1704
    -0.1527  -0.1255  -0.1201  -0.1112  -0.0930  -0.0908  -0.0474  -0.0407
    -0.0203   0.0150   0.2234   0.2547   0.3308   0.4276   0.5033   0.5479
     0.5777   0.7779

          k = 0.2000 0.1155 0.0000 ( 51134 PWs)   bands (ev):

   -21.8544 -10.6796  -7.4342  -6.9308  -6.2456  -5.7659  -5.4587  -5.3916
    -4.9446  -4.9381  -4.5877  -4.4594  -4.3640  -4.3590  -4.2973  -4.2515
    -4.1985  -4.1641  -4.1027  -4.0412  -4.0276  -3.7782  -3.6627  -3.6560
    -3.5776  -3.5597  -3.5361  -3.5333  -3.5294  -3.5211  -3.5042  -3.4826
    -3.4571  -3.4148  -3.4069  -3.3791  -3.3742  -3.1888  -3.1551  -3.1505
    -3.1187  -3.0940  -3.0911  -3.0880  -3.0193  -2.9899  -2.9658  -2.9397
    -2.9233  -2.9174  -2.8989  -2.8883  -2.8100  -2.7919  -2.7759  -2.7345
    -2.7210  -2.6982  -2.6862  -2.6649  -2.6505  -2.6365  -2.6189  -2.6089
    -2.5658  -2.4544  -2.2819  -2.2717  -2.2456  -2.2243  -2.1902  -2.1260
    -2.1213  -2.1134  -2.1057  -2.0979  -2.0858  -2.0611  -2.0391  -2.0023
    -1.9916  -1.9754  -1.9547  -1.9226  -1.9149  -1.9113  -1.9058  -1.8849
    -1.8812  -1.8747  -1.8699  -1.8671  -1.8546  -1.8295  -1.7949  -1.7868
    -1.7650  -1.7377  -1.6997  -1.6883  -1.6802  -1.6753  -1.6602  -1.6566
    -1.6526  -1.6398  -1.6320  -1.6235  -1.6166  -1.6037  -1.5780  -1.5735
    -1.5613  -1.5538  -1.5306  -1.4900  -1.4563  -1.4318  -1.3521  -1.3485
    -1.3442  -1.3366  -1.3235  -1.3219  -1.3166  -1.3077  -1.1966  -1.1704
    -1.1656  -1.1350  -1.0660  -1.0607  -1.0351  -1.0006  -0.9730  -0.9635
    -0.9054  -0.8829  -0.8690  -0.8442  -0.8346  -0.8202  -0.7831  -0.7810
    -0.7587  -0.7430  -0.7291  -0.6906  -0.6862  -0.6834  -0.6752  -0.6600
    -0.6382  -0.5960  -0.5866  -0.5822  -0.5596  -0.5355  -0.5258  -0.5207
    -0.5106  -0.5068  -0.4972  -0.4922  -0.4751  -0.4620  -0.4548  -0.4477
    -0.3931  -0.3787  -0.3619  -0.3514  -0.3302  -0.3269  -0.2886  -0.2700
    -0.2667  -0.2585  -0.2517  -0.2439  -0.2219  -0.2208  -0.2091  -0.1701
    -0.1534  -0.1290  -0.1207  -0.1178  -0.0934  -0.0912  -0.0455  -0.0430
    -0.0049   0.0104   0.2258   0.2554   0.3070   0.4286   0.5003   0.5390
     0.5901   0.7639

          k = 0.2000 0.3464 0.0000 ( 51202 PWs)   bands (ev):

   -21.8544 -10.6774  -7.1649  -6.9068  -6.1419  -5.8220  -5.7720  -5.5715
    -5.3759  -4.6790  -4.6026  -4.3690  -4.3611  -4.3217  -4.1512  -4.1477
    -4.0617  -4.0530  -4.0320  -3.9156  -3.9021  -3.7768  -3.7687  -3.7101
    -3.6599  -3.5740  -3.5715  -3.5416  -3.5185  -3.5102  -3.5052  -3.4731
    -3.4668  -3.4488  -3.4260  -3.3966  -3.3550  -3.3180  -3.3119  -3.1988
    -3.1819  -3.0957  -3.0838  -3.0579  -3.0485  -3.0326  -2.9399  -2.9058
    -2.8884  -2.8726  -2.8562  -2.8516  -2.8064  -2.7937  -2.7780  -2.7649
    -2.7473  -2.6493  -2.6296  -2.5865  -2.5749  -2.5539  -2.5365  -2.5124
    -2.5052  -2.4240  -2.3858  -2.3114  -2.3020  -2.2607  -2.2426  -2.2234
    -2.2164  -2.2028  -2.1946  -2.1737  -2.1615  -2.1433  -2.1381  -2.1238
    -2.1196  -2.0963  -2.0370  -2.0036  -1.9528  -1.9467  -1.9227  -1.9126
    -1.9001  -1.8789  -1.8644  -1.8335  -1.8235  -1.8008  -1.7904  -1.7869
    -1.7735  -1.7655  -1.7506  -1.7435  -1.7341  -1.7276  -1.7083  -1.6905
    -1.6809  -1.6674  -1.6395  -1.6181  -1.5979  -1.5856  -1.5534  -1.5470
    -1.5356  -1.5209  -1.5135  -1.4726  -1.4469  -1.4424  -1.4208  -1.3876
    -1.3764  -1.3711  -1.3651  -1.3490  -1.3331  -1.3236  -1.3064  -1.2709
    -1.2262  -1.2045  -1.1943  -1.1526  -1.0843  -1.0700  -1.0578  -0.9753
    -0.9429  -0.9375  -0.9299  -0.9219  -0.9087  -0.8993  -0.8803  -0.8738
    -0.8518  -0.8371  -0.8141  -0.7789  -0.7716  -0.7615  -0.7386  -0.7270
    -0.7086  -0.6909  -0.6620  -0.6543  -0.6452  -0.6358  -0.5499  -0.4932
    -0.4873  -0.4570  -0.4486  -0.4413  -0.4340  -0.4129  -0.4021  -0.3971
    -0.3902  -0.3567  -0.3092  -0.3063  -0.2900  -0.2829  -0.2445  -0.2338
    -0.2179  -0.2131  -0.2098  -0.1866  -0.1781  -0.1708  -0.1679  -0.1426
    -0.1392  -0.0597  -0.0500  -0.0410  -0.0237   0.0077   0.0137   0.0372
     0.3237   0.3490   0.4206   0.5319   0.6281   0.7114   1.0895   1.1892
     1.2568   1.4286

          k = 0.2000-0.5774 0.0000 ( 51262 PWs)   bands (ev):

   -21.8544 -10.6761  -6.9716  -6.5673  -6.5500  -6.0470  -5.8468  -5.5340
    -5.1638  -5.1184  -4.7026  -4.3537  -4.1131  -4.0732  -3.9604  -3.9394
    -3.9334  -3.9130  -3.9064  -3.8810  -3.8327  -3.8225  -3.8200  -3.8115
    -3.7360  -3.7114  -3.6735  -3.6685  -3.6431  -3.6358  -3.5367  -3.4920
    -3.4832  -3.4663  -3.4593  -3.4215  -3.3306  -3.3181  -3.2181  -3.1943
    -3.1884  -3.1186  -3.1089  -3.0913  -3.0627  -2.9820  -2.9792  -2.9731
    -2.9092  -2.9048  -2.8382  -2.7938  -2.7577  -2.7515  -2.7182  -2.6947
    -2.6607  -2.6144  -2.6019  -2.5881  -2.5848  -2.5588  -2.5464  -2.4794
    -2.4410  -2.4019  -2.3821  -2.3758  -2.3553  -2.3180  -2.3057  -2.2548
    -2.2400  -2.2128  -2.2054  -2.1959  -2.1911  -2.1556  -2.1375  -2.1271
    -2.1137  -2.1064  -2.0835  -2.0682  -2.0612  -2.0492  -1.9898  -1.9713
    -1.9580  -1.9329  -1.9021  -1.8825  -1.8413  -1.8348  -1.8234  -1.8015
    -1.7806  -1.7698  -1.7662  -1.7616  -1.7484  -1.7356  -1.7115  -1.7074
    -1.6467  -1.6242  -1.6148  -1.6124  -1.5981  -1.5937  -1.5859  -1.5749
    -1.5685  -1.5603  -1.5445  -1.5096  -1.5036  -1.4632  -1.4573  -1.4266
    -1.3724  -1.3662  -1.3297  -1.3191  -1.3070  -1.3007  -1.2820  -1.2272
    -1.2109  -1.2075  -1.1951  -1.1345  -1.1184  -1.0724  -1.0563  -1.0434
    -1.0216  -1.0094  -1.0023  -0.9857  -0.9553  -0.9442  -0.9174  -0.9066
    -0.8713  -0.8513  -0.8432  -0.8291  -0.8131  -0.7797  -0.7500  -0.7318
    -0.7240  -0.7164  -0.7073  -0.6854  -0.6705  -0.6515  -0.6214  -0.5260
    -0.4561  -0.4434  -0.4392  -0.4314  -0.4239  -0.4168  -0.4035  -0.3901
    -0.3584  -0.3505  -0.3394  -0.3359  -0.2869  -0.2675  -0.2179  -0.2127
    -0.1977  -0.1877  -0.1684  -0.1578  -0.1243  -0.1098  -0.1042  -0.0929
    -0.0806  -0.0240  -0.0165  -0.0107   0.0074   0.0151   0.0388   0.0727
     0.2341   0.3676   0.5196   0.7219   1.2405   1.2840   1.4690   1.5857
     1.7740   1.8461

          k = 0.2000-0.3464 0.0000 ( 51202 PWs)   bands (ev):

   -21.8544 -10.6775  -7.1595  -6.9104  -6.1436  -5.8309  -5.7732  -5.5737
    -5.3636  -4.6816  -4.5988  -4.3706  -4.3607  -4.3205  -4.1502  -4.1479
    -4.0611  -4.0516  -4.0295  -3.9167  -3.9056  -3.7768  -3.7680  -3.7129
    -3.6613  -3.5733  -3.5702  -3.5408  -3.5174  -3.5108  -3.5092  -3.4749
    -3.4652  -3.4482  -3.4346  -3.3950  -3.3542  -3.3174  -3.3068  -3.1975
    -3.1841  -3.0938  -3.0836  -3.0617  -3.0477  -3.0310  -2.9450  -2.8957
    -2.8821  -2.8774  -2.8565  -2.8461  -2.8063  -2.7935  -2.7727  -2.7639
    -2.7463  -2.6501  -2.6287  -2.5996  -2.5729  -2.5554  -2.5278  -2.5135
    -2.5001  -2.4348  -2.3806  -2.3133  -2.2983  -2.2568  -2.2436  -2.2232
    -2.2109  -2.2058  -2.1959  -2.1689  -2.1591  -2.1509  -2.1391  -2.1243
    -2.1107  -2.1059  -2.0322  -2.0152  -1.9524  -1.9475  -1.9222  -1.9101
    -1.8995  -1.8850  -1.8640  -1.8320  -1.8283  -1.8010  -1.7927  -1.7866
    -1.7761  -1.7651  -1.7536  -1.7436  -1.7321  -1.7271  -1.7063  -1.6909
    -1.6796  -1.6659  -1.6444  -1.6219  -1.6013  -1.5892  -1.5546  -1.5515
    -1.5391  -1.5179  -1.5128  -1.4721  -1.4484  -1.4382  -1.4221  -1.3937
    -1.3751  -1.3706  -1.3676  -1.3446  -1.3371  -1.3231  -1.3072  -1.2641
    -1.2290  -1.2027  -1.1963  -1.1588  -1.0858  -1.0687  -1.0627  -0.9635
    -0.9467  -0.9361  -0.9281  -0.9164  -0.9066  -0.9022  -0.8842  -0.8615
    -0.8526  -0.8399  -0.8133  -0.7835  -0.7698  -0.7610  -0.7415  -0.7240
    -0.7084  -0.6836  -0.6685  -0.6517  -0.6430  -0.6369  -0.5455  -0.4961
    -0.4842  -0.4604  -0.4535  -0.4444  -0.4272  -0.4134  -0.4064  -0.3986
    -0.3856  -0.3583  -0.3070  -0.3044  -0.2879  -0.2857  -0.2469  -0.2330
    -0.2169  -0.2153  -0.2101  -0.1853  -0.1756  -0.1727  -0.1636  -0.1494
    -0.1381  -0.0631  -0.0447  -0.0392  -0.0206   0.0074   0.0145   0.0425
     0.3140   0.3493   0.4200   0.5439   0.6114   0.7122   1.1343   1.2047
     1.2407   1.4323

          k = 0.4000-0.2309 0.0000 ( 51204 PWs)   bands (ev):

   -21.8544 -10.6769  -7.0650  -6.8690  -6.3063  -6.0549  -5.5846  -5.3814
    -5.0892  -5.0707  -4.9745  -4.2626  -4.2003  -4.1934  -4.1527  -4.1250
    -4.0065  -4.0027  -3.9653  -3.8755  -3.8710  -3.8650  -3.7710  -3.6959
    -3.6884  -3.6773  -3.6735  -3.6275  -3.5754  -3.5673  -3.5569  -3.4083
    -3.4033  -3.3911  -3.3754  -3.3587  -3.3514  -3.2542  -3.2436  -3.2390
    -3.2368  -3.2281  -3.1152  -3.0557  -3.0153  -2.9570  -2.9213  -2.9067
    -2.8867  -2.8665  -2.8420  -2.8397  -2.8305  -2.8054  -2.7520  -2.7432
    -2.7218  -2.6808  -2.6743  -2.5770  -2.5313  -2.5258  -2.5147  -2.4724
    -2.4259  -2.4084  -2.3969  -2.3814  -2.3438  -2.2899  -2.2517  -2.2468
    -2.2395  -2.2358  -2.2095  -2.2064  -2.1960  -2.1880  -2.1686  -2.1256
    -2.1063  -2.0887  -2.0752  -2.0463  -2.0281  -2.0096  -1.9733  -1.9283
    -1.9162  -1.9086  -1.8857  -1.8730  -1.8356  -1.8116  -1.8068  -1.8017
    -1.7847  -1.7680  -1.7614  -1.7409  -1.7374  -1.7190  -1.6991  -1.6929
    -1.6761  -1.6587  -1.6171  -1.5828  -1.5528  -1.5366  -1.5103  -1.4994
    -1.4843  -1.4662  -1.4482  -1.4013  -1.3896  -1.3809  -1.3682  -1.3638
    -1.3552  -1.3526  -1.3457  -1.3400  -1.3306  -1.3267  -1.3129  -1.2965
    -1.2757  -1.2636  -1.2090  -1.1633  -1.1399  -1.1270  -1.1165  -1.0854
    -1.0742  -1.0314  -1.0094  -0.9868  -0.9802  -0.9358  -0.9133  -0.8686
    -0.8584  -0.8277  -0.8062  -0.8005  -0.7733  -0.7579  -0.7241  -0.6993
    -0.6616  -0.6117  -0.6042  -0.5861  -0.5822  -0.5769  -0.5687  -0.5647
    -0.5494  -0.5371  -0.4613  -0.4345  -0.4279  -0.4214  -0.4076  -0.4035
    -0.3927  -0.3682  -0.3671  -0.3569  -0.3382  -0.3192  -0.2572  -0.2416
    -0.2334  -0.2252  -0.2013  -0.1616  -0.1364  -0.1203  -0.0984  -0.0678
    -0.0461  -0.0202  -0.0163   0.0043   0.0059   0.0086   0.0260   0.0500
     0.1185   0.1405   0.3006   0.8413   1.0225   1.1553   1.2413   1.3215
     1.4453   1.6085

          k = 0.4000 0.0000 0.0000 ( 51202 PWs)   bands (ev):

   -21.8544 -10.6774  -7.1723  -6.9015  -6.1355  -5.8048  -5.7711  -5.5745
    -5.3953  -4.6613  -4.6181  -4.3766  -4.3671  -4.3174  -4.1521  -4.1467
    -4.0560  -4.0534  -4.0466  -3.9177  -3.8904  -3.7785  -3.7695  -3.7081
    -3.6603  -3.5732  -3.5642  -3.5381  -3.5194  -3.5127  -3.5068  -3.4835
    -3.4646  -3.4487  -3.4306  -3.4004  -3.3527  -3.3255  -3.3127  -3.1907
    -3.1817  -3.0950  -3.0821  -3.0568  -3.0426  -3.0368  -2.9591  -2.9352
    -2.8906  -2.8611  -2.8569  -2.8507  -2.8019  -2.7922  -2.7741  -2.7644
    -2.7481  -2.6573  -2.6336  -2.5756  -2.5658  -2.5509  -2.5423  -2.5095
    -2.5060  -2.3949  -2.3803  -2.3072  -2.2988  -2.2638  -2.2496  -2.2269
    -2.2126  -2.1983  -2.1933  -2.1717  -2.1635  -2.1486  -2.1410  -2.1234
    -2.1037  -2.0958  -2.0362  -2.0050  -1.9529  -1.9475  -1.9289  -1.9091
    -1.8929  -1.8797  -1.8622  -1.8353  -1.8282  -1.7974  -1.7887  -1.7822
    -1.7735  -1.7700  -1.7542  -1.7403  -1.7340  -1.7192  -1.7092  -1.6902
    -1.6758  -1.6487  -1.6354  -1.6123  -1.5984  -1.5912  -1.5574  -1.5507
    -1.5295  -1.5199  -1.5107  -1.4815  -1.4484  -1.4416  -1.4180  -1.3825
    -1.3795  -1.3733  -1.3662  -1.3442  -1.3324  -1.3277  -1.3080  -1.2764
    -1.2218  -1.2088  -1.2042  -1.1570  -1.0770  -1.0752  -1.0613  -0.9776
    -0.9486  -0.9359  -0.9288  -0.9185  -0.9092  -0.9022  -0.8857  -0.8786
    -0.8514  -0.8380  -0.8151  -0.7776  -0.7639  -0.7595  -0.7342  -0.7274
    -0.7073  -0.6931  -0.6625  -0.6557  -0.6484  -0.6375  -0.5551  -0.4886
    -0.4845  -0.4607  -0.4478  -0.4442  -0.4268  -0.4134  -0.4047  -0.3973
    -0.3874  -0.3521  -0.3205  -0.3019  -0.2907  -0.2813  -0.2419  -0.2349
    -0.2184  -0.2161  -0.2069  -0.1868  -0.1760  -0.1703  -0.1684  -0.1415
    -0.1392  -0.0572  -0.0448  -0.0406  -0.0191   0.0048   0.0098   0.0350
     0.3441   0.3476   0.4106   0.5284   0.6553   0.6960   1.0110   1.1826
     1.2521   1.3902

          k = 0.4000 0.2309 0.0000 ( 51204 PWs)   bands (ev):

   -21.8544 -10.6768  -7.0765  -6.8626  -6.2970  -6.0531  -5.5583  -5.4143
    -5.0899  -5.0622  -4.9853  -4.2647  -4.1979  -4.1936  -4.1486  -4.1288
    -4.0065  -4.0019  -3.9653  -3.8736  -3.8696  -3.8664  -3.7738  -3.6937
    -3.6887  -3.6773  -3.6730  -3.6275  -3.5740  -3.5677  -3.5565  -3.4075
    -3.4041  -3.3907  -3.3732  -3.3568  -3.3502  -3.2572  -3.2433  -3.2377
    -3.2353  -3.2293  -3.1211  -3.0513  -3.0209  -2.9506  -2.9243  -2.9032
    -2.8872  -2.8674  -2.8432  -2.8392  -2.8350  -2.8148  -2.7475  -2.7421
    -2.7247  -2.6858  -2.6736  -2.5702  -2.5279  -2.5241  -2.5190  -2.4725
    -2.4338  -2.4034  -2.3974  -2.3845  -2.3487  -2.2929  -2.2572  -2.2476
    -2.2411  -2.2381  -2.2155  -2.2034  -2.1944  -2.1913  -2.1674  -2.1234
    -2.1024  -2.0898  -2.0714  -2.0364  -2.0282  -2.0142  -1.9655  -1.9292
    -1.9182  -1.9137  -1.8860  -1.8700  -1.8315  -1.8103  -1.8036  -1.8017
    -1.7861  -1.7694  -1.7588  -1.7386  -1.7305  -1.7192  -1.6995  -1.6910
    -1.6776  -1.6608  -1.6157  -1.5715  -1.5518  -1.5376  -1.5143  -1.5057
    -1.4781  -1.4693  -1.4403  -1.3987  -1.3848  -1.3831  -1.3692  -1.3643
    -1.3587  -1.3510  -1.3430  -1.3377  -1.3338  -1.3263  -1.3092  -1.2941
    -1.2742  -1.2505  -1.2149  -1.1622  -1.1388  -1.1266  -1.1196  -1.0773
    -1.0619  -1.0344  -1.0108  -0.9892  -0.9820  -0.9317  -0.9226  -0.8775
    -0.8604  -0.8275  -0.8127  -0.8000  -0.7743  -0.7527  -0.7253  -0.7020
    -0.6661  -0.6172  -0.6055  -0.5871  -0.5824  -0.5738  -0.5662  -0.5611
    -0.5518  -0.5388  -0.4562  -0.4366  -0.4308  -0.4198  -0.4076  -0.4005
    -0.3897  -0.3698  -0.3621  -0.3551  -0.3425  -0.3216  -0.2543  -0.2383
    -0.2340  -0.2290  -0.1992  -0.1641  -0.1378  -0.1181  -0.1001  -0.0672
    -0.0556  -0.0199  -0.0178   0.0032   0.0046   0.0084   0.0290   0.0606
     0.1174   0.1365   0.2791   0.8902   0.9816   1.1269   1.2392   1.2773
     1.4656   1.6163

          k = 0.4000-0.6928 0.0000 ( 51262 PWs)   bands (ev):

   -21.8544 -10.6760  -6.9937  -6.5626  -6.5156  -6.0661  -5.8508  -5.4453
    -5.2635  -5.1262  -4.6758  -4.3518  -4.1157  -4.0762  -3.9747  -3.9367
    -3.9317  -3.9178  -3.9075  -3.8822  -3.8289  -3.8218  -3.8211  -3.8120
    -3.7388  -3.7159  -3.6724  -3.6652  -3.6421  -3.6386  -3.5163  -3.4972
    -3.4861  -3.4786  -3.4555  -3.4180  -3.3260  -3.3123  -3.2213  -3.1944
    -3.1923  -3.1269  -3.1064  -3.0934  -3.0638  -2.9930  -2.9806  -2.9710
    -2.9071  -2.8973  -2.8591  -2.7990  -2.7727  -2.7558  -2.7134  -2.6936
    -2.6391  -2.6152  -2.6008  -2.5934  -2.5884  -2.5511  -2.5368  -2.4734
    -2.4357  -2.3986  -2.3908  -2.3784  -2.3503  -2.3171  -2.2986  -2.2557
    -2.2386  -2.2096  -2.2037  -2.1950  -2.1825  -2.1697  -2.1323  -2.1228
    -2.1100  -2.1051  -2.0928  -2.0682  -2.0604  -2.0258  -1.9917  -1.9749
    -1.9629  -1.9551  -1.8892  -1.8848  -1.8445  -1.8223  -1.8105  -1.8004
    -1.7807  -1.7730  -1.7604  -1.7522  -1.7468  -1.7213  -1.7100  -1.6994
    -1.6339  -1.6269  -1.6192  -1.6122  -1.5963  -1.5905  -1.5885  -1.5765
    -1.5707  -1.5618  -1.5424  -1.5228  -1.4992  -1.4633  -1.4547  -1.4363
    -1.3761  -1.3632  -1.3352  -1.3166  -1.3039  -1.2973  -1.2817  -1.2409
    -1.2184  -1.2068  -1.1955  -1.1357  -1.0980  -1.0742  -1.0588  -1.0419
    -1.0275  -1.0055  -1.0006  -0.9890  -0.9591  -0.9466  -0.9096  -0.9005
    -0.8632  -0.8555  -0.8439  -0.8250  -0.8082  -0.7926  -0.7479  -0.7453
    -0.7334  -0.7185  -0.7031  -0.6897  -0.6738  -0.6468  -0.6216  -0.5326
    -0.4521  -0.4432  -0.4399  -0.4277  -0.4230  -0.4143  -0.4026  -0.3879
    -0.3615  -0.3509  -0.3455  -0.3347  -0.2809  -0.2621  -0.2165  -0.2111
    -0.2085  -0.1851  -0.1658  -0.1561  -0.1235  -0.1078  -0.1040  -0.0926
    -0.0896  -0.0201  -0.0153  -0.0062   0.0079   0.0153   0.0383   0.0707
     0.1922   0.3855   0.5596   0.7337   1.1165   1.2890   1.3927   1.6901
     1.7477   1.8069

          k = 0.4000-0.4619 0.0000 ( 51262 PWs)   bands (ev):

   -21.8544 -10.6761  -6.9849  -6.5665  -6.5266  -6.0605  -5.8474  -5.4814
    -5.2268  -5.1223  -4.6835  -4.3527  -4.1145  -4.0734  -3.9720  -3.9382
    -3.9311  -3.9172  -3.9101  -3.8805  -3.8307  -3.8228  -3.8199  -3.8131
    -3.7399  -3.7141  -3.6720  -3.6658  -3.6428  -3.6370  -3.5177  -3.5001
    -3.4857  -3.4775  -3.4594  -3.4203  -3.3230  -3.3146  -3.2166  -3.1978
    -3.1911  -3.1254  -3.1041  -3.0911  -3.0630  -2.9993  -2.9787  -2.9727
    -2.9092  -2.9026  -2.8474  -2.7933  -2.7690  -2.7517  -2.7193  -2.6959
    -2.6468  -2.6137  -2.6029  -2.5908  -2.5855  -2.5480  -2.5426  -2.4771
    -2.4266  -2.3999  -2.3872  -2.3770  -2.3561  -2.3135  -2.2886  -2.2572
    -2.2323  -2.2071  -2.2008  -2.1971  -2.1875  -2.1696  -2.1356  -2.1226
    -2.1153  -2.0997  -2.0907  -2.0676  -2.0608  -2.0310  -1.9924  -1.9757
    -1.9608  -1.9538  -1.9022  -1.8781  -1.8426  -1.8275  -1.8133  -1.7936
    -1.7861  -1.7703  -1.7654  -1.7578  -1.7543  -1.7270  -1.7070  -1.7009
    -1.6396  -1.6271  -1.6177  -1.6128  -1.5991  -1.5928  -1.5878  -1.5770
    -1.5636  -1.5601  -1.5431  -1.5145  -1.4989  -1.4645  -1.4575  -1.4339
    -1.3780  -1.3671  -1.3318  -1.3140  -1.3108  -1.2994  -1.2853  -1.2390
    -1.2143  -1.2059  -1.1923  -1.1381  -1.0967  -1.0757  -1.0626  -1.0397
    -1.0305  -1.0153  -0.9986  -0.9866  -0.9579  -0.9444  -0.9148  -0.9014
    -0.8635  -0.8542  -0.8442  -0.8289  -0.8091  -0.7882  -0.7468  -0.7428
    -0.7268  -0.7196  -0.7009  -0.6847  -0.6764  -0.6458  -0.6173  -0.5325
    -0.4516  -0.4431  -0.4366  -0.4323  -0.4209  -0.4169  -0.4080  -0.3849
    -0.3598  -0.3545  -0.3442  -0.3328  -0.2854  -0.2653  -0.2157  -0.2127
    -0.1975  -0.1875  -0.1689  -0.1564  -0.1258  -0.1101  -0.1038  -0.0928
    -0.0895  -0.0163  -0.0133  -0.0069   0.0084   0.0144   0.0406   0.0737
     0.2093   0.3845   0.5413   0.7252   1.1426   1.2891   1.4173   1.6454
     1.7738   1.8188

 ------ SPIN DOWN ----------


          k = 0.0000 0.0000 0.0000 ( 51087 PWs)   bands (ev):

   -21.8757 -10.7173  -7.7075  -6.8962  -6.4034  -5.7910  -5.4438  -4.5366
    -4.5094  -4.5059  -4.5051  -4.4871  -4.4828  -4.3844  -3.6383  -3.6319
    -3.6302  -3.6098  -3.5976  -3.5869  -3.4655  -2.6948  -2.6907  -2.6811
    -2.6712  -2.6666  -2.6015  -2.3591  -2.2337  -2.2227  -2.2189  -2.2128
    -2.2064  -2.0804  -2.0200  -2.0069  -1.9466  -1.9392  -1.9225  -1.9191
    -1.8399  -1.8340  -1.7846  -1.7796  -1.7448  -1.6944  -1.6889  -1.6702
    -1.6556  -1.5834  -1.4721  -1.4258  -1.4169  -1.4041  -1.3891  -1.3830
    -1.3813  -1.3788  -1.3555  -1.3387  -1.3225  -1.3039  -1.3005  -1.2998
    -1.2632  -1.1866  -0.8480  -0.7486  -0.7348  -0.7237  -0.7225  -0.5638
    -0.5284  -0.4762  -0.4168  -0.4152  -0.3998  -0.3991  -0.3914  -0.3798
    -0.3507  -0.3302  -0.3106  -0.3014  -0.3004  -0.2947  -0.2820  -0.2444
    -0.2280  -0.2070  -0.2010  -0.1993  -0.1685  -0.1545  -0.1466  -0.1453
    -0.1397  -0.1328  -0.1168  -0.1141  -0.1111  -0.1102  -0.0426  -0.0147
     0.0187   0.0312   0.0357   0.0489   0.0991   0.1059   0.1126   0.1145
     0.1168   0.1203   0.1211   0.1249   0.1946   0.1963   0.2528   0.2745
     0.2860   0.2949   0.3026   0.3120   0.4503   0.5035   0.5173   0.5532
     0.5780   0.5914   0.6027   0.6051   0.6590   0.8592   0.8921   0.9351
     0.9409   1.0379   1.0875   1.1179   1.1344   1.1584   1.1684   1.1721
     1.3046   1.3166   1.3240   1.3288   1.3348   1.3434   1.3508   1.3713
     1.3939   1.4103   1.4255   1.4304   1.4453   1.4507   1.4652   1.4825
     1.4901   1.4919   1.4956   1.5159   1.5456   1.5594   1.5675   1.5828
     1.5905   1.6043   1.6115   1.6152   1.6212   1.6234   1.6285   1.6628
     1.6670   1.6891   1.6925   1.7017   1.7090   1.7173   1.7197   1.7504
     1.7549   1.7584   1.7614   1.7686   1.7708   1.7727   1.7820   1.7836
     1.7966   1.8385   1.8424   1.8564   1.9906   1.9958   1.9974   1.9989
     2.0014   2.0032

          k = 0.0000 0.2309 0.0000 ( 51134 PWs)   bands (ev):

   -21.8757 -10.7156  -7.5601  -6.8888  -6.3086  -5.8034  -5.4905  -5.3787
    -4.8850  -4.8822  -4.3727  -4.2257  -3.9586  -3.9561  -3.8512  -3.8395
    -3.6634  -3.4127  -3.2829  -3.2740  -3.1700  -2.8963  -2.6975  -2.6892
    -2.6255  -2.5859  -2.5654  -2.3994  -2.2886  -2.2581  -2.2503  -2.2320
    -2.2088  -2.1857  -2.1603  -2.1519  -2.1252  -2.0613  -1.9832  -1.9636
    -1.8961  -1.8919  -1.8257  -1.7664  -1.7242  -1.6962  -1.6858  -1.5891
    -1.5552  -1.5294  -1.4912  -1.4649  -1.4362  -1.4188  -1.3986  -1.3910
    -1.3871  -1.3751  -1.3037  -1.2694  -1.2528  -1.2418  -1.2124  -1.1975
    -1.1383  -1.0645  -0.8937  -0.7992  -0.7815  -0.7721  -0.7262  -0.6604
    -0.6484  -0.6116  -0.5624  -0.5412  -0.4588  -0.4418  -0.4288  -0.4157
    -0.3724  -0.3668  -0.3589  -0.3513  -0.3424  -0.3318  -0.2888  -0.2688
    -0.2245  -0.2093  -0.1903  -0.1889  -0.1716  -0.1451  -0.1337  -0.1147
    -0.1121  -0.1052  -0.0944  -0.0886  -0.0864  -0.0830  -0.0670  -0.0436
    -0.0089  -0.0010   0.0068   0.0121   0.0430   0.0589   0.0747   0.0804
     0.1154   0.1358   0.1462   0.1742   0.2130   0.2222   0.2296   0.2614
     0.3837   0.4081   0.4372   0.4678   0.4865   0.4971   0.5369   0.5410
     0.5599   0.5638   0.5747   0.5853   0.7349   0.8322   0.8993   0.9085
     0.9118   0.9289   0.9470   0.9555   1.0012   1.0201   1.0885   1.0950
     1.1139   1.1509   1.1832   1.2131   1.2277   1.2537   1.2737   1.2970
     1.3319   1.3677   1.3803   1.4018   1.4075   1.4186   1.4468   1.4588
     1.4908   1.5103   1.5375   1.5473   1.5654   1.5773   1.5902   1.6107
     1.6471   1.6521   1.6579   1.6658   1.6875   1.6987   1.7378   1.7431
     1.7498   1.7544   1.7936   1.8016   1.8098   1.8290   1.8361   1.8441
     1.8619   1.8957   1.9014   1.9132   1.9295   1.9343   1.9419   1.9634
     1.9694   1.9867   1.9909   2.0046   2.0843   2.0960   2.1052   2.1451
     2.1710   2.1926

          k = 0.0000 0.4619 0.0000 ( 51204 PWs)   bands (ev):

   -21.8757 -10.7128  -7.1368  -6.8741  -6.4203  -6.0851  -5.6622  -5.3688
    -5.1032  -5.0861  -4.9490  -4.0205  -3.9771  -3.9004  -3.3966  -3.3416
    -3.3350  -3.2221  -3.0764  -3.0107  -2.8967  -2.8851  -2.7442  -2.7380
    -2.6827  -2.6695  -2.6203  -2.6053  -2.5076  -2.4900  -2.4535  -2.4300
    -2.4094  -2.2495  -2.2038  -2.1395  -2.1251  -2.1153  -2.0105  -2.0005
    -1.9872  -1.9782  -1.8863  -1.7549  -1.6949  -1.6806  -1.6492  -1.6332
    -1.4827  -1.4679  -1.4569  -1.4528  -1.4383  -1.4097  -1.4037  -1.3936
    -1.3611  -1.2965  -1.2835  -1.2745  -1.2617  -1.2231  -1.1133  -1.0507
    -0.9808  -0.9198  -0.8574  -0.8386  -0.8058  -0.7704  -0.7443  -0.7284
    -0.7161  -0.7036  -0.6728  -0.6422  -0.6167  -0.5704  -0.5644  -0.5287
    -0.4922  -0.4674  -0.4492  -0.4395  -0.4246  -0.3961  -0.3363  -0.2858
    -0.2642  -0.2508  -0.2219  -0.2004  -0.1706  -0.1531  -0.1331  -0.1074
    -0.0830  -0.0738  -0.0595  -0.0364  -0.0324  -0.0301  -0.0264   0.0131
     0.0225   0.0530   0.0593   0.0661   0.0775   0.0802   0.1056   0.1102
     0.1264   0.1496   0.1793   0.2654   0.2739   0.2826   0.3093   0.3254
     0.3322   0.3538   0.3578   0.4159   0.4359   0.4494   0.4645   0.4802
     0.5072   0.5187   0.5419   0.5499   0.5873   0.6677   0.7282   0.7477
     0.7756   0.8180   0.8402   0.9475   0.9679   0.9830   1.0066   1.0179
     1.0270   1.0737   1.0867   1.1041   1.1183   1.1738   1.2274   1.3027
     1.3147   1.3504   1.3662   1.3962   1.4174   1.4340   1.4478   1.4758
     1.5001   1.5182   1.5319   1.5826   1.6040   1.6233   1.6349   1.6620
     1.6720   1.6797   1.7145   1.7289   1.7399   1.7514   1.7581   1.7910
     1.8015   1.8439   1.8593   1.8957   1.9098   1.9326   1.9373   1.9493
     1.9567   1.9729   1.9858   1.9987   2.0036   2.0250   2.0309   2.0329
     2.0400   2.0795   2.1678   2.2466   2.2577   2.3631   2.5423   2.6973
     2.7575   2.8123

          k = 0.2000-0.1155 0.0000 ( 51134 PWs)   bands (ev):

   -21.8757 -10.7156  -7.5610  -6.8919  -6.3030  -5.7846  -5.5040  -5.3906
    -4.8838  -4.8744  -4.3661  -4.2568  -3.9605  -3.9533  -3.8572  -3.8094
    -3.6680  -3.4147  -3.2835  -3.2599  -3.1797  -2.9127  -2.6994  -2.6685
    -2.6298  -2.5920  -2.5572  -2.3732  -2.3282  -2.2557  -2.2523  -2.2435
    -2.2127  -2.1715  -2.1623  -2.1532  -2.1245  -2.0569  -1.9819  -1.9671
    -1.8965  -1.8894  -1.8599  -1.7402  -1.7116  -1.6952  -1.6608  -1.6026
    -1.5576  -1.5229  -1.4858  -1.4666  -1.4351  -1.4162  -1.3946  -1.3908
    -1.3861  -1.3581  -1.3175  -1.2695  -1.2525  -1.2417  -1.2218  -1.1978
    -1.1316  -1.0630  -0.8992  -0.7966  -0.7818  -0.7727  -0.7374  -0.6623
    -0.6485  -0.6166  -0.5642  -0.5398  -0.4657  -0.4363  -0.4217  -0.4100
    -0.3741  -0.3699  -0.3613  -0.3509  -0.3327  -0.3176  -0.2935  -0.2804
    -0.2306  -0.2027  -0.1906  -0.1865  -0.1742  -0.1504  -0.1302  -0.1185
    -0.1099  -0.1007  -0.0952  -0.0887  -0.0873  -0.0829  -0.0719  -0.0426
    -0.0099  -0.0007   0.0128   0.0161   0.0331   0.0531   0.0616   0.0841
     0.1205   0.1339   0.1498   0.1787   0.2072   0.2249   0.2317   0.2624
     0.3806   0.3958   0.4430   0.4625   0.4928   0.5097   0.5276   0.5352
     0.5549   0.5654   0.5811   0.5851   0.7215   0.8532   0.8850   0.9034
     0.9109   0.9268   0.9444   0.9544   0.9973   1.0109   1.0835   1.0994
     1.1182   1.1725   1.1838   1.2217   1.2315   1.2533   1.2760   1.2963
     1.3325   1.3674   1.3869   1.3970   1.3998   1.4211   1.4478   1.4639
     1.4810   1.5096   1.5316   1.5490   1.5708   1.5859   1.5901   1.6307
     1.6441   1.6541   1.6594   1.6647   1.6806   1.6912   1.7340   1.7430
     1.7464   1.7544   1.7912   1.8051   1.8103   1.8249   1.8365   1.8487
     1.8578   1.8975   1.9000   1.9163   1.9293   1.9343   1.9438   1.9612
     1.9659   1.9868   1.9906   2.0021   2.0827   2.0968   2.1038   2.1317
     2.1711   2.2010

          k = 0.2000 0.1155 0.0000 ( 51134 PWs)   bands (ev):

   -21.8757 -10.7155  -7.5615  -6.8937  -6.3004  -5.7780  -5.4839  -5.4213
    -4.8778  -4.8748  -4.3669  -4.2631  -3.9595  -3.9544  -3.8552  -3.8054
    -3.6679  -3.4144  -3.2833  -3.2579  -3.1821  -2.9168  -2.7004  -2.6608
    -2.6404  -2.5867  -2.5561  -2.3681  -2.3353  -2.2584  -2.2512  -2.2419
    -2.2162  -2.1668  -2.1608  -2.1523  -2.1261  -2.0539  -1.9817  -1.9747
    -1.8950  -1.8879  -1.8365  -1.7626  -1.6997  -1.6976  -1.6740  -1.5803
    -1.5704  -1.5291  -1.4910  -1.4667  -1.4393  -1.4084  -1.4008  -1.3906
    -1.3857  -1.3429  -1.3148  -1.2763  -1.2573  -1.2480  -1.2180  -1.1933
    -1.1467  -1.0487  -0.9061  -0.7926  -0.7795  -0.7594  -0.7319  -0.6702
    -0.6584  -0.6184  -0.5587  -0.5389  -0.4629  -0.4329  -0.4283  -0.4043
    -0.3785  -0.3661  -0.3608  -0.3538  -0.3306  -0.3239  -0.3018  -0.2803
    -0.2222  -0.2039  -0.1908  -0.1888  -0.1741  -0.1466  -0.1299  -0.1160
    -0.1099  -0.1021  -0.0986  -0.0891  -0.0876  -0.0821  -0.0647  -0.0431
    -0.0068   0.0011   0.0118   0.0134   0.0367   0.0589   0.0651   0.0755
     0.1218   0.1285   0.1626   0.1785   0.2052   0.2208   0.2318   0.2631
     0.3832   0.3970   0.4295   0.4614   0.4795   0.5113   0.5269   0.5398
     0.5504   0.5665   0.5806   0.5854   0.7351   0.8636   0.8848   0.9025
     0.9078   0.9210   0.9468   0.9561   0.9883   1.0195   1.0656   1.0901
     1.1019   1.1780   1.1870   1.2196   1.2349   1.2552   1.2746   1.2959
     1.3320   1.3702   1.3906   1.3974   1.4032   1.4221   1.4518   1.4584
     1.4877   1.5074   1.5333   1.5605   1.5652   1.5861   1.5954   1.6246
     1.6409   1.6502   1.6578   1.6660   1.6781   1.6902   1.7335   1.7373
     1.7485   1.7541   1.7942   1.8061   1.8102   1.8283   1.8337   1.8479
     1.8579   1.8986   1.9006   1.9127   1.9279   1.9346   1.9393   1.9599
     1.9661   1.9909   1.9946   2.0014   2.0837   2.0932   2.1039   2.1314
     2.1744   2.1999

          k = 0.2000 0.3464 0.0000 ( 51202 PWs)   bands (ev):

   -21.8757 -10.7133  -7.2766  -6.8821  -6.1700  -5.9027  -5.8498  -5.5938
    -5.4079  -4.6298  -4.5216  -4.1521  -4.1383  -4.0424  -3.3186  -3.3115
    -3.3049  -3.3002  -3.1921  -3.1118  -3.0282  -2.9991  -2.9543  -2.6394
    -2.5862  -2.5615  -2.5517  -2.4774  -2.4572  -2.4389  -2.3974  -2.3501
    -2.3429  -2.3348  -2.3269  -2.1962  -2.1653  -2.0989  -1.9842  -1.9606
    -1.9269  -1.8931  -1.8377  -1.8256  -1.7892  -1.6690  -1.6239  -1.6021
    -1.5523  -1.4798  -1.4459  -1.4405  -1.4270  -1.4123  -1.4047  -1.3768
    -1.3616  -1.3343  -1.2963  -1.2647  -1.2221  -1.1706  -1.1054  -1.0663
    -0.9871  -0.9700  -0.8829  -0.8436  -0.7701  -0.7458  -0.7240  -0.7012
    -0.6800  -0.6657  -0.6517  -0.6169  -0.5722  -0.5535  -0.5387  -0.5187
    -0.5095  -0.4771  -0.4692  -0.4646  -0.4207  -0.3410  -0.2950  -0.2808
    -0.2733  -0.2680  -0.2179  -0.2029  -0.1966  -0.1776  -0.1572  -0.1447
    -0.1246  -0.1097  -0.0997  -0.0787  -0.0665  -0.0595  -0.0249  -0.0083
    -0.0024   0.0107   0.0205   0.0459   0.0559   0.0610   0.0809   0.0872
     0.1035   0.1772   0.1805   0.1913   0.2985   0.3111   0.3311   0.3552
     0.3755   0.4055   0.4261   0.4527   0.4824   0.4949   0.5034   0.5140
     0.5230   0.5360   0.5807   0.5908   0.6579   0.7243   0.7875   0.8144
     0.8809   0.9132   0.9408   0.9693   0.9753   0.9847   0.9984   1.0080
     1.0207   1.0426   1.0638   1.0773   1.1083   1.1328   1.2103   1.2336
     1.2419   1.2680   1.3022   1.3190   1.3271   1.3476   1.3950   1.4206
     1.4735   1.5256   1.5920   1.6163   1.6333   1.6568   1.6669   1.6736
     1.6833   1.7022   1.7143   1.7245   1.7320   1.7959   1.8035   1.8066
     1.8110   1.8475   1.8597   1.8637   1.8816   1.9050   1.9111   1.9349
     1.9421   1.9494   1.9535   1.9727   1.9810   2.0105   2.0290   2.0561
     2.0795   2.0854   2.1724   2.2064   2.2954   2.3348   2.3735   2.4834
     2.6046   2.6744

          k = 0.2000-0.5774 0.0000 ( 51262 PWs)   bands (ev):

   -21.8757 -10.7120  -6.9423  -6.6883  -6.6477  -6.0775  -5.9119  -5.5833
    -5.2041  -5.1362  -4.6679  -4.2062  -3.6713  -3.5443  -3.3430  -3.3376
    -3.3110  -3.1206  -3.0916  -2.9337  -2.9256  -2.9203  -2.7874  -2.7801
    -2.7769  -2.7479  -2.7435  -2.7300  -2.5576  -2.4363  -2.4038  -2.3857
    -2.3652  -2.3613  -2.3136  -2.2933  -2.2137  -2.1850  -2.0805  -1.9334
    -1.8741  -1.8425  -1.8378  -1.8054  -1.7528  -1.6649  -1.6082  -1.5968
    -1.5627  -1.5446  -1.5354  -1.4342  -1.4200  -1.3803  -1.3674  -1.3599
    -1.3045  -1.2598  -1.2214  -1.2059  -1.1551  -1.1171  -1.1143  -1.0227
    -0.9991  -0.9503  -0.8541  -0.8182  -0.8126  -0.7984  -0.7510  -0.7403
    -0.6909  -0.6799  -0.6534  -0.6210  -0.5957  -0.5749  -0.5368  -0.5298
    -0.5191  -0.4779  -0.4740  -0.4609  -0.4547  -0.4452  -0.4124  -0.3852
    -0.3820  -0.3566  -0.3364  -0.2976  -0.2562  -0.2336  -0.2076  -0.1782
    -0.1430  -0.1153  -0.0912  -0.0755  -0.0501  -0.0342  -0.0251  -0.0077
     0.0254   0.0416   0.0721   0.0883   0.0987   0.1153   0.1771   0.1997
     0.2314   0.2485   0.2532   0.2716   0.2810   0.3149   0.3476   0.3607
     0.3643   0.3861   0.4312   0.4594   0.4660   0.4756   0.5142   0.5295
     0.5490   0.5598   0.5840   0.6065   0.6184   0.6317   0.6469   0.6699
     0.7314   0.7976   0.8625   0.9049   0.9170   0.9315   0.9559   0.9813
     0.9848   1.0059   1.0237   1.0563   1.1334   1.1585   1.1665   1.1930
     1.2203   1.2335   1.2693   1.2942   1.3207   1.3445   1.3918   1.4223
     1.4423   1.5484   1.5833   1.6018   1.6603   1.6714   1.7014   1.7195
     1.7259   1.7303   1.7459   1.7544   1.7917   1.8062   1.8176   1.8241
     1.8490   1.8805   1.9011   1.9074   1.9129   1.9168   1.9229   1.9268
     1.9422   1.9772   1.9887   2.0111   2.0217   2.0343   2.0462   2.0683
     2.0992   2.1312   2.2235   2.3845   2.6088   2.6982   2.8038   2.9164
     2.9238   2.9701

          k = 0.2000-0.3464 0.0000 ( 51202 PWs)   bands (ev):

   -21.8757 -10.7133  -7.2736  -6.8829  -6.1720  -5.9111  -5.8513  -5.5959
    -5.3951  -4.6325  -4.5185  -4.1529  -4.1373  -4.0416  -3.3196  -3.3123
    -3.3049  -3.3013  -3.1927  -3.1103  -3.0299  -2.9993  -2.9552  -2.6376
    -2.5706  -2.5625  -2.5502  -2.4792  -2.4660  -2.4429  -2.3876  -2.3501
    -2.3466  -2.3379  -2.3295  -2.1892  -2.1811  -2.0911  -1.9795  -1.9608
    -1.9314  -1.8875  -1.8580  -1.8294  -1.7827  -1.6665  -1.6252  -1.6020
    -1.5342  -1.4682  -1.4461  -1.4386  -1.4332  -1.4185  -1.4024  -1.3809
    -1.3622  -1.3403  -1.2917  -1.2737  -1.2165  -1.1648  -1.1058  -1.0618
    -0.9958  -0.9703  -0.8870  -0.8389  -0.7681  -0.7417  -0.7311  -0.7119
    -0.6839  -0.6634  -0.6466  -0.6007  -0.5806  -0.5495  -0.5379  -0.5226
    -0.5079  -0.4841  -0.4708  -0.4608  -0.4264  -0.3530  -0.2960  -0.2853
    -0.2800  -0.2699  -0.2205  -0.2012  -0.1903  -0.1754  -0.1560  -0.1385
    -0.1263  -0.1131  -0.1006  -0.0802  -0.0647  -0.0465  -0.0226  -0.0128
     0.0015   0.0080   0.0137   0.0444   0.0565   0.0694   0.0793   0.0866
     0.1037   0.1761   0.1874   0.1905   0.3034   0.3156   0.3250   0.3575
[...]
     atom    8 type  1   force =    -0.00163895   -0.00014905   -0.09988356
     atom    9 type  1   force =     0.00362596   -0.00045487   -0.10158011
     atom   10 type  1   force =    -0.00192088    0.00080961   -0.01053003
     atom   11 type  1   force =     0.00024444    0.00011654   -0.00707409
     atom   12 type  1   force =     0.00150205    0.00087157   -0.00962735
     atom   13 type  1   force =    -0.00063412   -0.00091085   -0.01041835
     atom   14 type  1   force =     0.00068894    0.00003933   -0.01081679
     atom   15 type  1   force =    -0.00005250   -0.00000307   -0.01111836
     atom   16 type  1   force =     0.00127611    0.00161606   -0.01126615
     atom   17 type  1   force =     0.00068573   -0.00187108   -0.01007179
     atom   18 type  1   force =    -0.00132797   -0.00015939   -0.01111776
     atom   19 type  1   force =     0.00291741    0.00394180    0.01009360
     atom   20 type  1   force =    -0.00075358    0.01561275   -0.00258158
     atom   21 type  1   force =    -0.00278661   -0.00151773    0.01795443
     atom   22 type  1   force =     0.00022291    0.00028277    0.01972389
     atom   23 type  1   force =    -0.00138859   -0.00040698    0.01512001
     atom   24 type  1   force =     0.00032212    0.00157216    0.01510495
     atom   25 type  1   force =    -0.00435662   -0.00245141    0.00951548
     atom   26 type  1   force =    -0.00853796   -0.00994081   -0.00420905
     atom   27 type  1   force =     0.01356758   -0.00672908   -0.00230058
     atom   28 type  1   force =     0.02378020   -0.01553654    0.15581614
     atom   29 type  1   force =    -0.05847038   -0.01294846    0.19920822
     atom   30 type  1   force =     0.00274995   -0.00060817    0.12585538
     atom   31 type  1   force =     0.00144161   -0.02762826    0.13600431
     atom   32 type  1   force =    -0.00125866   -0.00170370    0.11913342
     atom   33 type  1   force =     0.00015511   -0.00183909    0.10553129
     atom   34 type  1   force =     0.00472964    0.00630515    0.11549151
     atom   35 type  1   force =    -0.00385070    0.03927223    0.14242052
     atom   36 type  1   force =    -0.00392675    0.00471657    0.12118397
     atom   37 type  2   force =    -0.01280256   -0.01540596    0.29251879
     atom   38 type  3   force =     1.54985028    0.26971822   -2.19689406
     atom   39 type  4   force =    -0.04146869   -0.00723884   -0.02206665
     The ionic contribution  to forces
     atom    1 type  1   force =    -0.00576491    0.00828824 -111.13858082
     atom    2 type  1   force =     0.00570889    0.00805538 -111.13869749
     atom    3 type  1   force =     0.00005603    0.00213203 -111.12724164
     atom    4 type  1   force =    -0.00023642    0.00202068 -111.12677605
     atom    5 type  1   force =    -0.00221237   -0.00594742 -111.13160826
     atom    6 type  1   force =     0.00244879   -0.00587227 -111.13113721
     atom    7 type  1   force =    -0.00815315   -0.00213675 -111.13527941
     atom    8 type  1   force =     0.00017653   -0.00422874 -111.15131675
     atom    9 type  1   force =     0.00797660   -0.00231116 -111.13492278
     atom   10 type  1   force =    -0.05944055    0.01233228  -40.18595960
     atom   11 type  1   force =     0.06022062    0.01070249  -40.18468998
     atom   12 type  1   force =    -0.00077721    0.00455233  -40.06723148
     atom   13 type  1   force =    -0.00093611    0.06815091  -40.10436221
     atom   14 type  1   force =     0.02332977    0.01378117  -40.05911118
     atom   15 type  1   force =    -0.02239435    0.01519724  -40.05739745
     atom   16 type  1   force =    -0.03492668   -0.02547861  -40.06828157
     atom   17 type  1   force =     0.00178075   -0.07372717  -40.13515418
     atom   18 type  1   force =     0.03314502   -0.02550895  -40.06459960
     atom   19 type  1   force =    -0.28974222    0.42245870   31.21446905
     atom   20 type  1   force =     0.28849774    0.41643454   31.20777359
     atom   21 type  1   force =     0.00144185    0.09248170   31.72630478
     atom   22 type  1   force =    -0.01191914    0.08556313   31.74762744
     atom   23 type  1   force =    -0.10587125   -0.28420043   31.54890022
     atom   24 type  1   force =     0.11780162   -0.27590192   31.57386011
     atom   25 type  1   force =    -0.40242534   -0.10011696   31.37220272
     atom   26 type  1   force =     0.00691335   -0.24717567   30.48298750
     atom   27 type  1   force =     0.39498363   -0.11267754   31.39241734
     atom   28 type  1   force =    -4.27231808    0.93580312   98.33438099
     atom   29 type  1   force =     4.47841388    0.78815836   97.95728891
     atom   30 type  1   force =    -0.06378144    0.12887327  104.07539877
     atom   31 type  1   force =    -0.00941514    2.80830712  103.10078216
     atom   32 type  1   force =     0.69663589    0.49865913  104.27398862
     atom   33 type  1   force =    -0.68689386    0.57408765  104.24878552
     atom   34 type  1   force =    -1.19810537   -0.96210481  103.91857159
     atom   35 type  1   force =     0.15033157   -3.69861490  101.85213800
     atom   36 type  1   force =     1.05170369   -0.87973971  104.16310530
     atom   37 type  2   force =     3.55655110    0.46468902   52.76741863
     atom   38 type  3   force =    -5.71015419   -1.00868758   89.08824060
     atom   39 type  4   force =     2.00735047    0.35370210   15.09570585
     The local contribution  to forces
     atom    1 type  1   force =     0.00404198   -0.00867523  111.24473880
     atom    2 type  1   force =    -0.00462180   -0.01148695  111.24241941
     atom    3 type  1   force =     0.00058020   -0.00095498  111.23183793
     atom    4 type  1   force =    -0.00148819   -0.00309756  111.23381316
     atom    5 type  1   force =     0.00402524    0.00609802  111.23942936
     atom    6 type  1   force =    -0.00253006    0.00537755  111.23890341
     atom    7 type  1   force =     0.01073732    0.00397641  111.24374300
     atom    8 type  1   force =     0.00166857    0.00506349  111.25412286
     atom    9 type  1   force =    -0.01213757    0.00378212  111.23906266
     atom   10 type  1   force =     0.06104279   -0.01394308   40.17524970
     atom   11 type  1   force =    -0.06039238   -0.01144281   40.16924690
     atom   12 type  1   force =    -0.00080128   -0.00555430   40.05858684
     atom   13 type  1   force =     0.00240045   -0.06709401   40.09806739
     atom   14 type  1   force =    -0.02451742   -0.01415756   40.05006297
     atom   15 type  1   force =     0.02255440   -0.01556644   40.04774243
     atom   16 type  1   force =     0.03362032    0.02487283   40.05833550
     atom   17 type  1   force =    -0.00302015    0.07650229   40.12842394
     atom   18 type  1   force =    -0.03059879    0.02679988   40.05642859
     atom   19 type  1   force =     0.28653528   -0.42478851  -31.20432555
     atom   20 type  1   force =    -0.28699945   -0.43001980  -31.18692418
     atom   21 type  1   force =     0.00152802   -0.09019893  -31.72127109
     atom   22 type  1   force =     0.01124669   -0.08677381  -31.74165183
     atom   23 type  1   force =     0.10775157    0.28336283  -31.54098460
     atom   24 type  1   force =    -0.11831349    0.27314120  -31.56700989
     atom   25 type  1   force =     0.40462428    0.10220061  -31.36111530
     atom   26 type  1   force =     0.00216994    0.25544614  -30.46443456
     atom   27 type  1   force =    -0.40794633    0.11999387  -31.37071959
     atom   28 type  1   force =     4.22717588   -0.91510902  -98.50121606
     atom   29 type  1   force =    -4.39722914   -0.77321256  -98.14549352
     atom   30 type  1   force =     0.06509845   -0.12730848 -104.21396755
     atom   31 type  1   force =     0.00278667   -2.76363868 -103.24807659
     atom   32 type  1   force =    -0.68939398   -0.48946314 -104.40487173
     atom   33 type  1   force =     0.68396441   -0.56980122 -104.36414239
     atom   34 type  1   force =     1.18986713    0.95206350 -104.04288945
     atom   35 type  1   force =    -0.15023135    3.64129947 -102.00309085
     atom   36 type  1   force =    -1.04111863    0.86530665 -104.29387310
     atom   37 type  2   force =    -3.54380963   -0.45032155  -53.06191226
     atom   38 type  3   force =     4.17993539    0.74070585  -86.90101471
     atom   39 type  4   force =    -1.96286234   -0.34564170  -15.08736447
     The core correction contribution to forces
     atom    1 type  1   force =    -0.00006775   -0.00011566    0.00988217
     atom    2 type  1   force =     0.00004487   -0.00023651    0.01016031
     atom    3 type  1   force =     0.00008585    0.00004361    0.00956276
     atom    4 type  1   force =    -0.00008101   -0.00007261    0.01036412
     atom    5 type  1   force =     0.00026914    0.00003744    0.00995889
     atom    6 type  1   force =    -0.00010176   -0.00008008    0.00992627
     atom    7 type  1   force =     0.00015472    0.00009595    0.01010086
     atom    8 type  1   force =     0.00036857    0.00031451    0.01010511
     atom    9 type  1   force =    -0.00042471    0.00008801    0.01021349
     atom   10 type  1   force =    -0.00024487    0.00018286   -0.00186816
     atom   11 type  1   force =    -0.00001151    0.00002388   -0.00166811
     atom   12 type  1   force =     0.00016880    0.00003584   -0.00173699
     atom   13 type  1   force =    -0.00017297    0.00031535   -0.00193923
     atom   14 type  1   force =     0.00017215    0.00016647   -0.00192019
     atom   15 type  1   force =    -0.00001772   -0.00012339   -0.00159278
     atom   16 type  1   force =    -0.00022347   -0.00002890   -0.00188670
     atom   17 type  1   force =    -0.00018009   -0.00004148   -0.00169832
     atom   18 type  1   force =     0.00032933   -0.00026158   -0.00199228
     atom   19 type  1   force =    -0.00011578   -0.00014148    0.00125135
     atom   20 type  1   force =     0.00008883   -0.00031900    0.00038922
     atom   21 type  1   force =     0.00022440    0.00003839    0.00183799
     atom   22 type  1   force =     0.00035939    0.00023427    0.00224078
     atom   23 type  1   force =    -0.00004522    0.00000468    0.00177288
     atom   24 type  1   force =     0.00012985   -0.00030171    0.00154525
     atom   25 type  1   force =     0.00043733   -0.00003877    0.00157592
     atom   26 type  1   force =     0.00039591    0.00068026    0.00170574
     atom   27 type  1   force =     0.00014350    0.00015831    0.00071472
     atom   28 type  1   force =     0.01107019   -0.00213613    0.00107897
     atom   29 type  1   force =    -0.02130262   -0.00355174    0.02180440
     atom   30 type  1   force =    -0.00257321   -0.00020771   -0.00795076
     atom   31 type  1   force =     0.00141418   -0.00597836   -0.00786841
     atom   32 type  1   force =    -0.00136319   -0.00255042   -0.00841765
     atom   33 type  1   force =     0.00009281   -0.00062384   -0.01036551
     atom   34 type  1   force =     0.00043567    0.00083545   -0.00916557
     atom   35 type  1   force =     0.00102745    0.00726663   -0.00653532
     atom   36 type  1   force =    -0.00156149    0.00318239   -0.00862032
     atom   37 type  2   force =    -0.00228140    0.00049128   -0.00071206
     atom   38 type  3   force =    -0.01212908   -0.00216821    0.01733052
     atom   39 type  4   force =     0.00000000    0.00000000    0.00000000
     The Hubbard contrib.    to forces
     atom    1 type  1   force =     0.00000000    0.00000000    0.00000000
     atom    2 type  1   force =     0.00000000    0.00000000    0.00000000
     atom    3 type  1   force =     0.00000000    0.00000000    0.00000000
     atom    4 type  1   force =     0.00000000    0.00000000    0.00000000
     atom    5 type  1   force =     0.00000000    0.00000000    0.00000000
     atom    6 type  1   force =     0.00000000    0.00000000    0.00000000
     atom    7 type  1   force =     0.00000000    0.00000000    0.00000000
     atom    8 type  1   force =     0.00000000    0.00000000    0.00000000
     atom    9 type  1   force =     0.00000000    0.00000000    0.00000000
     atom   10 type  1   force =     0.00000000    0.00000000    0.00000000
     atom   11 type  1   force =     0.00000000    0.00000000    0.00000000
     atom   12 type  1   force =     0.00000000    0.00000000    0.00000000
     atom   13 type  1   force =     0.00000000    0.00000000    0.00000000
     atom   14 type  1   force =     0.00000000    0.00000000    0.00000000
     atom   15 type  1   force =     0.00000000    0.00000000    0.00000000
     atom   16 type  1   force =     0.00000000    0.00000000    0.00000000
     atom   17 type  1   force =     0.00000000    0.00000000    0.00000000
     atom   18 type  1   force =     0.00000000    0.00000000    0.00000000
     atom   19 type  1   force =     0.00000000    0.00000000    0.00000000
     atom   20 type  1   force =     0.00000000    0.00000000    0.00000000
     atom   21 type  1   force =     0.00000000    0.00000000    0.00000000
     atom   22 type  1   force =     0.00000000    0.00000000    0.00000000
     atom   23 type  1   force =     0.00000000    0.00000000    0.00000000
     atom   24 type  1   force =     0.00000000    0.00000000    0.00000000
     atom   25 type  1   force =     0.00000000    0.00000000    0.00000000
     atom   26 type  1   force =     0.00000000    0.00000000    0.00000000
     atom   27 type  1   force =     0.00000000    0.00000000    0.00000000
     atom   28 type  1   force =     0.00000000    0.00000000    0.00000000
     atom   29 type  1   force =     0.00000000    0.00000000    0.00000000
     atom   30 type  1   force =     0.00000000    0.00000000    0.00000000
     atom   31 type  1   force =     0.00000000    0.00000000    0.00000000
     atom   32 type  1   force =     0.00000000    0.00000000    0.00000000
     atom   33 type  1   force =     0.00000000    0.00000000    0.00000000
     atom   34 type  1   force =     0.00000000    0.00000000    0.00000000
     atom   35 type  1   force =     0.00000000    0.00000000    0.00000000
     atom   36 type  1   force =     0.00000000    0.00000000    0.00000000
     atom   37 type  2   force =     0.00000000    0.00000000    0.00000000
     atom   38 type  3   force =     0.00000000    0.00000000    0.00000000
     atom   39 type  4   force =     0.00000000    0.00000000    0.00000000
     The SCF correction term to forces
     atom    1 type  1   force =     0.00000000   -0.00000000    0.00000000
     atom    2 type  1   force =    -0.00000000   -0.00000000    0.00000000
     atom    3 type  1   force =     0.00000000    0.00000000    0.00000000
     atom    4 type  1   force =    -0.00000000   -0.00000000    0.00000000
     atom    5 type  1   force =     0.00000000    0.00000000    0.00000000
     atom    6 type  1   force =    -0.00000000    0.00000000    0.00000000
     atom    7 type  1   force =     0.00000000    0.00000000    0.00000000
     atom    8 type  1   force =     0.00000000    0.00000000    0.00000000
     atom    9 type  1   force =    -0.00000000    0.00000000    0.00000000
     atom   10 type  1   force =    -0.00000000   -0.00000000    0.00000000
     atom   11 type  1   force =     0.00000000   -0.00000000    0.00000000
     atom   12 type  1   force =    -0.00000000   -0.00000000    0.00000000
     atom   13 type  1   force =     0.00000000    0.00000000    0.00000000
     atom   14 type  1   force =    -0.00000000    0.00000000    0.00000000
     atom   15 type  1   force =    -0.00000000    0.00000000    0.00000000
     atom   16 type  1   force =     0.00000000    0.00000000    0.00000000
     atom   17 type  1   force =     0.00000000   -0.00000000    0.00000000
     atom   18 type  1   force =    -0.00000000    0.00000000    0.00000000
     atom   19 type  1   force =    -0.00000000    0.00000000   -0.00000000
     atom   20 type  1   force =     0.00000000    0.00000000    0.00000000
     atom   21 type  1   force =    -0.00000000   -0.00000000    0.00000000
     atom   22 type  1   force =     0.00000000    0.00000000   -0.00000000
     atom   23 type  1   force =    -0.00000000   -0.00000000    0.00000000
     atom   24 type  1   force =    -0.00000000    0.00000000   -0.00000000
     atom   25 type  1   force =    -0.00000000   -0.00000000    0.00000000
     atom   26 type  1   force =    -0.00000000   -0.00000000    0.00000000
     atom   27 type  1   force =     0.00000000    0.00000000   -0.00000000
     atom   28 type  1   force =    -0.00000000   -0.00000000   -0.00000000
     atom   29 type  1   force =     0.00000000    0.00000000   -0.00000000
     atom   30 type  1   force =     0.00000000    0.00000000   -0.00000000
     atom   31 type  1   force =     0.00000000   -0.00000000   -0.00000000
     atom   32 type  1   force =     0.00000000    0.00000000   -0.00000000
     atom   33 type  1   force =    -0.00000000   -0.00000000   -0.00000000
     atom   34 type  1   force =     0.00000000    0.00000000   -0.00000000
     atom   35 type  1   force =    -0.00000000   -0.00000000   -0.00000000
     atom   36 type  1   force =    -0.00000000    0.00000000   -0.00000000
     atom   37 type  2   force =    -0.00000582   -0.00000709   -0.00000161
     atom   38 type  3   force =    -0.00000063   -0.00000409   -0.00000843
     atom   39 type  4   force =    -0.00000059   -0.00000002   -0.00000029

     Total force =     0.018074     Total SCF correction =     0.000013

     Writing all to output data dir ./pwscf.save/

     init_run     :     11.74s CPU     12.19s WALL (       1 calls)
     electrons    :    724.30s CPU   3719.34s WALL (       1 calls)
     forces       :      3.34s CPU      3.46s WALL (       1 calls)

     Called by init_run:
     wfcinit      :      8.53s CPU      8.86s WALL (       1 calls)
     potinit      :      1.93s CPU      2.02s WALL (       1 calls)
     hinit0       :      1.03s CPU      1.04s WALL (       1 calls)

     Called by electrons:
     c_bands      :    614.24s CPU   3506.05s WALL (      48 calls)
     sum_band     :     74.16s CPU     75.20s WALL (      48 calls)
     v_of_rho     :      8.00s CPU      8.40s WALL (      49 calls)
     newd         :      2.70s CPU      2.75s WALL (      49 calls)
     PAW_pot      :     12.71s CPU     12.86s WALL (      49 calls)
     mix_rho      :     13.73s CPU     13.96s WALL (      48 calls)
     vdW_kernel   :      1.08s CPU      1.09s WALL (       1 calls)

     Called by c_bands:
     init_us_2    :      8.47s CPU      8.61s WALL (    2548 calls)
     init_us_2:cp :      8.45s CPU      8.60s WALL (    2548 calls)
     cegterg      :    592.35s CPU    601.23s WALL (    1248 calls)

     Called by *egterg:
     cdiaghg      :    190.48s CPU    192.91s WALL (    4408 calls)
     h_psi        :    267.99s CPU    272.39s WALL (    4434 calls)
     s_psi        :     35.01s CPU     35.58s WALL (    4434 calls)
     g_psi        :      0.87s CPU      0.89s WALL (    3160 calls)

     Called by h_psi:
     h_psi:calbec :     46.20s CPU     46.90s WALL (    4434 calls)
     vloc_psi     :    184.01s CPU    187.28s WALL (    4434 calls)
     add_vuspsi   :     35.63s CPU     36.03s WALL (    4434 calls)

     General routines
     calbec       :     67.20s CPU     68.13s WALL (    5786 calls)
     fft          :      5.29s CPU      5.71s WALL (    4438 calls)
     ffts         :      8.09s CPU      8.23s WALL (   19361 calls)
     fftw         :    208.89s CPU    212.47s WALL ( 1299364 calls)
     interpolate  :      0.39s CPU      0.40s WALL (      98 calls)

     Parallel routines

     PWSCF        :  12m24.55s CPU      1h 2m WALL


   This run was terminated on:   7:57:14  11Dec2025            

=------------------------------------------------------------------------------=
   JOB DONE.
=------------------------------------------------------------------------------=
