
     Program PWSCF v.7.1 starts on 20Nov2025 at 15:55:57 
        Git branch: heads/qe-7.1
        Last git commit: 48ba0178f8fede6d020eb786884699a9f063f55d-dirty
        Last git commit date: Fri Jan 27 14:22:33 2023 +0000
        Last git commit subject: Merge branch 'fix_hubbard' into 'develop'

     This program is part of the open-source Quantum ESPRESSO suite
     for quantum simulation of materials; please cite
         "P. Giannozzi et al., J. Phys.:Condens. Matter 21 395502 (2009);
         "P. Giannozzi et al., J. Phys.:Condens. Matter 29 465901 (2017);
         "P. Giannozzi et al., J. Chem. Phys. 152 154105 (2020);
          URL http://www.quantum-espresso.org", 
     in publications or presentations arising from this work. More details at
     http://www.quantum-espresso.org/quote

     Parallel version (MPI), running on    96 processors

     MPI processes distributed on     2 nodes
     86534 MiB available memory on the printing compute node when the environment starts

     Reading input from espresso.pwi
Warning: card &CELL ignored
Warning: card / ignored
Warning: card &FCP ignored
Warning: card / ignored
Warning: card &RISM ignored
Warning: card / ignored

     Current dimensions of program PWSCF are:
     Max number of different atomic species (ntypx) = 10
     Max number of k-points (npk) =  40000
     Max angular momentum in pseudopotentials (lmaxx) =  4
     file Co.pbe-n-kjpaw_psl.1.0.0.UPF: wavefunction(s)  4S 3D renormalized
     file C.pbe-n-kjpaw_psl.1.0.0.UPF: wavefunction(s)  2S 2P renormalized
     file O.pbe-nl-kjpaw_psl.1.0.0.UPF: wavefunction(s)  2S 2P renormalized
     file H.pbe-kjpaw_psl.1.0.0.UPF: wavefunction(s)  1S renormalized

     **************************************************************************
     Initializing libbeef V0.1.2 with the BEEF-vdW functional.
     Citation: Wellendorff et al., PRB 85, 235149 (2012).
     **************************************************************************


     IMPORTANT: XC functional enforced from input :
     Exchange-correlation= BEEF-VDW
                           (   1   4  43  14   2   0   0)
     Any further DFT definition will be discarded
     Please, verify this is what you really want


     R & G space division:  proc/nbgrp/npool/nimage =      96
     Subspace diagonalization in iterative solution of the eigenvalue problem:
     one sub-group per band group will be used
     custom distributed-memory algorithm (size of sub-group:  2*  2 procs)


     Parallelization info
     --------------------
     sticks:   dense  smooth     PW     G-vecs:    dense   smooth      PW
     Min          43      23      6                 7829     3049     440
     Max          44      24      7                 7845     3068     465
     Sum        4153    2221    613               752179   293251   42993

     Using Slab Decomposition



     bravais-lattice index     =            0
     lattice parameter (alat)  =      14.1729  a.u.
     unit-cell volume          =    8574.3059 (a.u.)^3
     number of atoms/cell      =           39
     number of atomic types    =            4
     number of electrons       =       335.00
     number of Kohn-Sham states=          202
     kinetic-energy cutoff     =      40.0000  Ry
     charge density cutoff     =     300.0000  Ry
     scf convergence threshold =      1.0E-06
     mixing beta               =       0.7000
     number of iterations used =            8  local-TF  mixing
     Exchange-correlation= BEEF-VDW
                           (   1   4  43  14   2   0   0)

     celldm(1)=  14.172946  celldm(2)=   0.000000  celldm(3)=   0.000000
     celldm(4)=   0.000000  celldm(5)=   0.000000  celldm(6)=   0.000000

     crystal axes: (cart. coord. in units of alat)
               a(1) = (   1.000000   0.000000   0.000000 )  
               a(2) = (   0.500000   0.866025   0.000000 )  
               a(3) = (   0.000000   0.000000   3.477667 )  

     reciprocal axes: (cart. coord. in units 2 pi/alat)
               b(1) = (  1.000000 -0.577350  0.000000 )  
               b(2) = (  0.000000  1.154701  0.000000 )  
               b(3) = (  0.000000  0.000000  0.287549 )  


     PseudoPot. # 1 for Co read from file:
     /users/kbadger1/espresso/pseudo/pslibrary.1.0.0/pbe/PSEUDOPOTENTIALS/Co.pbe-n-kjpaw_psl.1.0.0.UPF
     MD5 check sum: 88af6ec42553d4236c267fdfcb472151
     Pseudo is Projector augmented-wave + core cor, Zval =  9.0
     Generated using 'atomic' code by A. Dal Corso  v.7.0
     Shape of augmentation charge: PSQ
     Using radial grid of 1193 points,  6 beta functions with: 
                l(1) =   0
                l(2) =   0
                l(3) =   1
                l(4) =   1
                l(5) =   2
                l(6) =   2
     Q(r) pseudized with 0 coefficients 


     PseudoPot. # 2 for C  read from file:
     /users/kbadger1/espresso/pseudo/pslibrary.1.0.0/pbe/PSEUDOPOTENTIALS/C.pbe-n-kjpaw_psl.1.0.0.UPF
     MD5 check sum: 6408e75cdba28732cea38a4db8498ce4
     Pseudo is Projector augmented-wave + core cor, Zval =  4.0
     Generated using 'atomic' code by A. Dal Corso  v.7.0
     Shape of augmentation charge: PSQ
     Using radial grid of 1073 points,  4 beta functions with: 
                l(1) =   0
                l(2) =   0
                l(3) =   1
                l(4) =   1
     Q(r) pseudized with 0 coefficients 


     PseudoPot. # 3 for O  read from file:
     /users/kbadger1/espresso/pseudo/pslibrary.1.0.0/pbe/PSEUDOPOTENTIALS/O.pbe-nl-kjpaw_psl.1.0.0.UPF
     MD5 check sum: f0439fab3598ca4e468f064226030408
     Pseudo is Projector augmented-wave + core cor, Zval =  6.0
     Generated using 'atomic' code by A. Dal Corso  v.7.0
     Shape of augmentation charge: PSQ
     Using radial grid of 1095 points,  4 beta functions with: 
                l(1) =   0
                l(2) =   0
                l(3) =   1
                l(4) =   1
     Q(r) pseudized with 0 coefficients 


     PseudoPot. # 4 for H  read from file:
     /users/kbadger1/espresso/pseudo/pslibrary.1.0.0/pbe/PSEUDOPOTENTIALS/H.pbe-kjpaw_psl.1.0.0.UPF
     MD5 check sum: fe4c6fa958fa6d3815bf5d2419cbf1df
     Pseudo is Projector augmented-wave, Zval =  1.0
     Generated using 'atomic' code by A. Dal Corso  v.7.0
     Shape of augmentation charge: PSQ
     Using radial grid of  929 points,  2 beta functions with: 
                l(1) =   0
                l(2) =   0
     Q(r) pseudized with 0 coefficients 


     atomic species   valence    mass     pseudopotential
        Co             9.00    58.93319     Co( 1.00)
        C              4.00    12.00000     C ( 1.00)
        O              6.00    15.99491     O ( 1.00)
        H              1.00     1.00783     H ( 1.00)

     Starting magnetic structure 
     atomic species   magnetization
        Co           1.000
        C            1.000
        O            0.000
        H            0.000

     No symmetry found



   Cartesian axes

     site n.     atom                  positions (alat units)
         1           Co  tau(   1) = (   0.0000000   0.1924501   1.3333333  )
         2           Co  tau(   2) = (   0.3333333   0.1924501   1.3333333  )
         3           Co  tau(   3) = (   0.6666667   0.1924501   1.3333333  )
         4           Co  tau(   4) = (   0.1666667   0.4811252   1.3333333  )
         5           Co  tau(   5) = (   0.5000000   0.4811252   1.3333333  )
         6           Co  tau(   6) = (   0.8333333   0.4811252   1.3333333  )
         7           Co  tau(   7) = (   0.3333333   0.7698004   1.3333333  )
         8           Co  tau(   8) = (   0.6666667   0.7698004   1.3333333  )
         9           Co  tau(   9) = (   1.0000000   0.7698004   1.3333333  )
        10           Co  tau(  10) = (   0.0000000   0.0000000   1.6036667  )
        11           Co  tau(  11) = (   0.3333333   0.0000000   1.6036667  )
        12           Co  tau(  12) = (   0.6666667   0.0000000   1.6036667  )
        13           Co  tau(  13) = (   0.1666667   0.2886751   1.6036667  )
        14           Co  tau(  14) = (   0.5000000   0.2886751   1.6036667  )
        15           Co  tau(  15) = (   0.8333333   0.2886751   1.6036667  )
        16           Co  tau(  16) = (   0.3333333   0.5773503   1.6036667  )
        17           Co  tau(  17) = (   0.6666667   0.5773503   1.6036667  )
        18           Co  tau(  18) = (   1.0000000   0.5773503   1.6036667  )
        19           Co  tau(  19) = (   0.0000000   0.1924501   1.8740000  )
        20           Co  tau(  20) = (   0.3333333   0.1924501   1.8740000  )
        21           Co  tau(  21) = (   0.6666667   0.1924501   1.8740000  )
        22           Co  tau(  22) = (   0.1666667   0.4811252   1.8740000  )
        23           Co  tau(  23) = (   0.5000000   0.4811252   1.8740000  )
        24           Co  tau(  24) = (   0.8333333   0.4811252   1.8740000  )
        25           Co  tau(  25) = (   0.3333333   0.7698004   1.8740000  )
        26           Co  tau(  26) = (   0.6666667   0.7698004   1.8740000  )
        27           Co  tau(  27) = (   1.0000000   0.7698004   1.8740000  )
        28           Co  tau(  28) = (   0.0000000   0.0000000   2.1443333  )
        29           Co  tau(  29) = (   0.3333333   0.0000000   2.1443333  )
        30           Co  tau(  30) = (   0.6666667   0.0000000   2.1443333  )
        31           Co  tau(  31) = (   0.1666667   0.2886751   2.1443333  )
        32           Co  tau(  32) = (   0.5000000   0.2886751   2.1443333  )
        33           Co  tau(  33) = (   0.8333333   0.2886751   2.1443333  )
        34           Co  tau(  34) = (   0.3333333   0.5773503   2.1443333  )
        35           Co  tau(  35) = (   0.6666667   0.5773503   2.1443333  )
        36           Co  tau(  36) = (   1.0000000   0.5773503   2.1443333  )
        37           C   tau(  37) = (   0.3468116   0.1890361   2.3264944  )
        38           O   tau(  38) = (   0.3331969   0.1863474   2.4850346  )
        39           H   tau(  39) = (   0.6175338   0.4092840   2.2850540  )

     number of k points=    13  Marzari-Vanderbilt smearing, width (Ry)=  0.0010
                       cart. coord. in units 2pi/alat
        k(    1) = (   0.0000000   0.0000000   0.0000000), wk =   0.0400000
        k(    2) = (   0.0000000   0.2309401   0.0000000), wk =   0.0800000
        k(    3) = (   0.0000000   0.4618802   0.0000000), wk =   0.0800000
        k(    4) = (   0.2000000  -0.1154701   0.0000000), wk =   0.0800000
        k(    5) = (   0.2000000   0.1154701   0.0000000), wk =   0.0800000
        k(    6) = (   0.2000000   0.3464102   0.0000000), wk =   0.0800000
        k(    7) = (   0.2000000  -0.5773503   0.0000000), wk =   0.0800000
        k(    8) = (   0.2000000  -0.3464102   0.0000000), wk =   0.0800000
        k(    9) = (   0.4000000  -0.2309401   0.0000000), wk =   0.0800000
        k(   10) = (   0.4000000   0.0000000   0.0000000), wk =   0.0800000
        k(   11) = (   0.4000000   0.2309401   0.0000000), wk =   0.0800000
        k(   12) = (   0.4000000  -0.6928203   0.0000000), wk =   0.0800000
        k(   13) = (   0.4000000  -0.4618802   0.0000000), wk =   0.0800000

     Dense  grid:   752179 G-vectors     FFT dimensions: (  80,  80, 288)

     Smooth grid:   293251 G-vectors     FFT dimensions: (  60,  60, 200)

     Estimated max dynamical RAM per process >      84.82 MB

     Estimated total dynamical RAM >       7.95 GB
     Generating pointlists ...
     new r_m :   0.0905 (alat units)  1.2830 (a.u.) for type    1
     new r_m :   0.0656 (alat units)  0.9304 (a.u.) for type    2
     new r_m :   0.0656 (alat units)  0.9304 (a.u.) for type    3
     new r_m :   0.0905 (alat units)  1.2830 (a.u.) for type    4

     Initial potential from superposition of free atoms

     starting charge     334.9897, renormalised to     335.0000

     negative rho (up, down):  3.058E-03 4.524E-04


     %%%%%%%%%%%%%%%%%%%%%%%%%%%%%%%%%%%%%%%%%%%%%%%%%%%%%%%%%%%%%%%%%%%%%%%%
     %                                                                      %
     % You are using vdW-DF, which was implemented by the Thonhauser group. %
     % Please cite the following two papers that made this development      %
     % possible and the two reviews that describe the various versions:     %
     %                                                                      %
     %   T. Thonhauser et al., PRL 115, 136402 (2015).                      %
     %   T. Thonhauser et al., PRB 76, 125112 (2007).                       %
     %   K. Berland et al., Rep. Prog. Phys. 78, 066501 (2015).             %
     %   D.C. Langreth et al., J. Phys.: Condens. Matter 21, 084203 (2009). %
     %                                                                      %
     % If you are calculating stress with vdW-DF, please also cite:         %
     %                                                                      %
     %   R. Sabatini et al., J. Phys.: Condens. Matter 24, 424209 (2012).   %
     %   C.M. Frostenson et al., Electr. Struct. 4, 014001 (2022).          %
     %                                                                      %
     %%%%%%%%%%%%%%%%%%%%%%%%%%%%%%%%%%%%%%%%%%%%%%%%%%%%%%%%%%%%%%%%%%%%%%%%

     %%%%%%%%%%%%%%%%%%%%%%%%%%%%%%%%%%%%%%%%%%%%%%%%%%%%%%%%%%%%%%%%%%%%%%%%
     %                                                                      %
     %  vdW-DF NEWS:                                                        %
     %                                                                      %
     %  * vdW-DF3 is now available. DOI: 10.1021/acs.jctc.0c00471           %
     %    use with input_dft = 'vdW-DF3-opt1' or 'vdW-DF3-opt2'             %
     %                                                                      %
     %  * Unscreened and range-separated hybrid vdW-DF-cx functionals       %
     %    DOI: 10.1063/1.4986522 and 10.1088/1361-648X/ac2ad2               %
     %    use with input_dft = 'vdW-DF-cx0'    and 'vdW-DF-ahcx'            %
     %  * Unscreened and range-separated hybrid vdW-DF2-b86r functionals    %
     %    DOI: 10.1063/1.4986522 and DOI: 10.1103/PhysRevX.12.041003        %
     %    use with input_dft = 'vdW-DF2-br0' and 'vdW-DF2-ahbr'             %
     %                                                                      %
     %%%%%%%%%%%%%%%%%%%%%%%%%%%%%%%%%%%%%%%%%%%%%%%%%%%%%%%%%%%%%%%%%%%%%%%%


     Starting wfcs are  333 randomized atomic wfcs
     Checking if some PAW data can be deallocated... 

     total cpu time spent up to now is       11.1 secs

     per-process dynamical memory:   213.6 Mb

     Self-consistent Calculation

     iteration #  1     ecut=    40.00 Ry     beta= 0.70
     Davidson diagonalization with overlap
     ethr =  1.00E-02,  avg # of iterations =  2.0

     negative rho (up, down):  6.929E-05 1.567E-06

     total cpu time spent up to now is       25.9 secs

     total energy              =   -6053.01597617 Ry
     estimated scf accuracy    <      39.07424630 Ry

     total magnetization       =    69.00 Bohr mag/cell
     absolute magnetization    =    81.29 Bohr mag/cell

     iteration #  2     ecut=    40.00 Ry     beta= 0.70
     Davidson diagonalization with overlap
     ethr =  1.00E-02,  avg # of iterations =  1.0

     negative rho (up, down):  2.781E-05 9.960E-07

     total cpu time spent up to now is       38.5 secs

     total energy              =   -6052.54991895 Ry
     estimated scf accuracy    <      24.48361515 Ry

     total magnetization       =    69.00 Bohr mag/cell
     absolute magnetization    =    76.89 Bohr mag/cell

     iteration #  3     ecut=    40.00 Ry     beta= 0.70
     Davidson diagonalization with overlap
     ethr =  7.31E-03,  avg # of iterations =  1.1

     negative rho (up, down):  1.540E-06 3.065E-06

     total cpu time spent up to now is       50.2 secs

     total energy              =   -6055.09221583 Ry
     estimated scf accuracy    <      84.74903404 Ry

     total magnetization       =    66.12 Bohr mag/cell
     absolute magnetization    =    73.51 Bohr mag/cell

     iteration #  4     ecut=    40.00 Ry     beta= 0.70
     Davidson diagonalization with overlap
     ethr =  7.31E-03,  avg # of iterations =  1.0

     negative rho (up, down):  1.628E-06 7.811E-07

     total cpu time spent up to now is       62.7 secs

     total energy              =   -6056.35442295 Ry
     estimated scf accuracy    <       5.53544601 Ry

     total magnetization       =    60.35 Bohr mag/cell
     absolute magnetization    =    70.18 Bohr mag/cell

     iteration #  5     ecut=    40.00 Ry     beta= 0.70
     Davidson diagonalization with overlap
     ethr =  1.65E-03,  avg # of iterations =  1.2

     negative rho (up, down):  1.574E-06 6.692E-07

     total cpu time spent up to now is       74.0 secs

     total energy              =   -6056.34147251 Ry
     estimated scf accuracy    <       2.15804283 Ry

     total magnetization       =    60.41 Bohr mag/cell
     absolute magnetization    =    69.78 Bohr mag/cell

     iteration #  6     ecut=    40.00 Ry     beta= 0.70
     Davidson diagonalization with overlap
     ethr =  6.44E-04,  avg # of iterations =  2.0

     negative rho (up, down):  1.310E-06 5.293E-07

     total cpu time spent up to now is       86.7 secs

     total energy              =   -6056.44347202 Ry
     estimated scf accuracy    <       0.78876065 Ry

     total magnetization       =    59.89 Bohr mag/cell
     absolute magnetization    =    68.99 Bohr mag/cell

     iteration #  7     ecut=    40.00 Ry     beta= 0.70
     Davidson diagonalization with overlap
     ethr =  2.35E-04,  avg # of iterations =  4.4

     negative rho (up, down):  1.250E-06 6.491E-07

     total cpu time spent up to now is      101.7 secs

     total energy              =   -6056.47097840 Ry
     estimated scf accuracy    <       0.58814937 Ry

     total magnetization       =    60.05 Bohr mag/cell
     absolute magnetization    =    68.78 Bohr mag/cell

     iteration #  8     ecut=    40.00 Ry     beta= 0.70
     Davidson diagonalization with overlap
     ethr =  1.76E-04,  avg # of iterations =  1.7

     negative rho (up, down):  1.205E-06 6.569E-07

     total cpu time spent up to now is      114.2 secs

     total energy              =   -6056.49403238 Ry
     estimated scf accuracy    <       0.15356798 Ry

     total magnetization       =    60.12 Bohr mag/cell
     absolute magnetization    =    68.67 Bohr mag/cell

     iteration #  9     ecut=    40.00 Ry     beta= 0.70
     Davidson diagonalization with overlap
     c_bands:  1 eigenvalues not converged
     ethr =  4.58E-05,  avg # of iterations =  8.2

     negative rho (up, down):  6.197E-07 3.879E-07

     total cpu time spent up to now is      133.4 secs

     total energy              =   -6056.49393613 Ry
     estimated scf accuracy    <       0.12124218 Ry

     total magnetization       =    60.28 Bohr mag/cell
     absolute magnetization    =    68.49 Bohr mag/cell

     iteration # 10     ecut=    40.00 Ry     beta= 0.70
     Davidson diagonalization with overlap
     ethr =  3.62E-05,  avg # of iterations =  2.6

     negative rho (up, down):  8.518E-07 5.409E-07

     total cpu time spent up to now is      147.1 secs

     total energy              =   -6056.50007482 Ry
     estimated scf accuracy    <       0.15986816 Ry

     total magnetization       =    60.38 Bohr mag/cell
     absolute magnetization    =    68.40 Bohr mag/cell

     iteration # 11     ecut=    40.00 Ry     beta= 0.70
     Davidson diagonalization with overlap
     ethr =  3.62E-05,  avg # of iterations =  1.4

     negative rho (up, down):  2.696E-07 2.002E-07

     total cpu time spent up to now is      159.7 secs

     total energy              =   -6056.49985874 Ry
     estimated scf accuracy    <       0.10949138 Ry

     total magnetization       =    60.37 Bohr mag/cell
     absolute magnetization    =    68.31 Bohr mag/cell

     iteration # 12     ecut=    40.00 Ry     beta= 0.70
     Davidson diagonalization with overlap
     ethr =  3.27E-05,  avg # of iterations =  1.8

     negative rho (up, down):  7.883E-07 8.494E-08

     total cpu time spent up to now is      171.6 secs

     total energy              =   -6056.50058598 Ry
     estimated scf accuracy    <       0.09536790 Ry

     total magnetization       =    60.34 Bohr mag/cell
     absolute magnetization    =    68.18 Bohr mag/cell

     iteration # 13     ecut=    40.00 Ry     beta= 0.70
     Davidson diagonalization with overlap
     ethr =  2.85E-05,  avg # of iterations =  1.8

     negative rho (up, down):  3.305E-07 3.133E-08

     total cpu time spent up to now is      185.0 secs

     total energy              =   -6056.50012715 Ry
     estimated scf accuracy    <       0.11686925 Ry

     total magnetization       =    60.37 Bohr mag/cell
     absolute magnetization    =    68.18 Bohr mag/cell

     iteration # 14     ecut=    40.00 Ry     beta= 0.70
     Davidson diagonalization with overlap
     ethr =  2.85E-05,  avg # of iterations =  1.5

     negative rho (up, down):  1.463E-02 1.154E-02

     total cpu time spent up to now is      196.6 secs

     total energy              =   -6056.49495707 Ry
     estimated scf accuracy    <       0.07602552 Ry

     total magnetization       =    60.36 Bohr mag/cell
     absolute magnetization    =    68.13 Bohr mag/cell

     iteration # 15     ecut=    40.00 Ry     beta= 0.70
     Davidson diagonalization with overlap
     ethr =  2.27E-05,  avg # of iterations =  1.5

     negative rho (up, down):  1.197E-02 9.783E-03

     total cpu time spent up to now is      209.2 secs

     total energy              =   -6056.49531548 Ry
     estimated scf accuracy    <       0.02510637 Ry

     total magnetization       =    60.31 Bohr mag/cell
     absolute magnetization    =    68.08 Bohr mag/cell

     iteration # 16     ecut=    40.00 Ry     beta= 0.70
     Davidson diagonalization with overlap
     c_bands:  1 eigenvalues not converged
     c_bands:  1 eigenvalues not converged
     c_bands:  1 eigenvalues not converged
     c_bands:  3 eigenvalues not converged
     c_bands:  3 eigenvalues not converged
     c_bands:  3 eigenvalues not converged
     c_bands:  2 eigenvalues not converged
     c_bands:  5 eigenvalues not converged
     ethr =  7.49E-06,  avg # of iterations =  9.8

     negative rho (up, down):  1.516E-02 1.295E-02

     total cpu time spent up to now is      229.1 secs

     total energy              =   -6056.49606370 Ry
     estimated scf accuracy    <       0.01953048 Ry

     total magnetization       =    60.33 Bohr mag/cell
     absolute magnetization    =    68.03 Bohr mag/cell

     iteration # 17     ecut=    40.00 Ry     beta= 0.70
     Davidson diagonalization with overlap
     c_bands:  1 eigenvalues not converged
     ethr =  5.83E-06,  avg # of iterations =  3.5

     negative rho (up, down):  8.715E-03 7.091E-03

     total cpu time spent up to now is      243.9 secs

     total energy              =   -6056.49639540 Ry
     estimated scf accuracy    <       0.02200679 Ry

     total magnetization       =    60.35 Bohr mag/cell
     absolute magnetization    =    68.01 Bohr mag/cell

     iteration # 18     ecut=    40.00 Ry     beta= 0.70
     Davidson diagonalization with overlap
     ethr =  5.83E-06,  avg # of iterations =  1.4

     negative rho (up, down):  1.262E-02 1.092E-02

     total cpu time spent up to now is      255.3 secs

     total energy              =   -6056.49599655 Ry
     estimated scf accuracy    <       0.01135427 Ry

     total magnetization       =    60.36 Bohr mag/cell
     absolute magnetization    =    68.02 Bohr mag/cell

     iteration # 19     ecut=    40.00 Ry     beta= 0.70
     Davidson diagonalization with overlap
     c_bands:  1 eigenvalues not converged
     c_bands:  1 eigenvalues not converged
     ethr =  3.39E-06,  avg # of iterations =  3.2

     negative rho (up, down):  1.484E-02 1.383E-02

     total cpu time spent up to now is      269.6 secs

     total energy              =   -6056.49517174 Ry
     estimated scf accuracy    <       0.01820240 Ry

     total magnetization       =    60.37 Bohr mag/cell
     absolute magnetization    =    68.01 Bohr mag/cell

     iteration # 20     ecut=    40.00 Ry     beta= 0.70
     Davidson diagonalization with overlap
     ethr =  3.39E-06,  avg # of iterations =  1.5

     negative rho (up, down):  2.415E-02 2.316E-02

     total cpu time spent up to now is      281.4 secs

     total energy              =   -6056.49571339 Ry
     estimated scf accuracy    <       0.00959084 Ry

     total magnetization       =    60.38 Bohr mag/cell
     absolute magnetization    =    68.00 Bohr mag/cell

     iteration # 21     ecut=    40.00 Ry     beta= 0.70
     Davidson diagonalization with overlap
     ethr =  2.86E-06,  avg # of iterations =  2.1

     negative rho (up, down):  1.948E-02 1.862E-02

     total cpu time spent up to now is      294.3 secs

     total energy              =   -6056.49587131 Ry
     estimated scf accuracy    <       0.00380635 Ry

     total magnetization       =    60.37 Bohr mag/cell
     absolute magnetization    =    67.98 Bohr mag/cell

     iteration # 22     ecut=    40.00 Ry     beta= 0.70
     Davidson diagonalization with overlap
     c_bands:  1 eigenvalues not converged
     ethr =  1.14E-06,  avg # of iterations =  3.5

     negative rho (up, down):  1.274E-02 1.203E-02

     total cpu time spent up to now is      308.7 secs

     total energy              =   -6056.49598670 Ry
     estimated scf accuracy    <       0.00163477 Ry

     total magnetization       =    60.37 Bohr mag/cell
     absolute magnetization    =    67.97 Bohr mag/cell

     iteration # 23     ecut=    40.00 Ry     beta= 0.70
     Davidson diagonalization with overlap
     c_bands:  1 eigenvalues not converged
     ethr =  4.88E-07,  avg # of iterations =  4.4

     negative rho (up, down):  8.855E-03 8.144E-03

     total cpu time spent up to now is      323.1 secs

     total energy              =   -6056.49613912 Ry
     estimated scf accuracy    <       0.00199706 Ry

     total magnetization       =    60.38 Bohr mag/cell
     absolute magnetization    =    67.98 Bohr mag/cell

     iteration # 24     ecut=    40.00 Ry     beta= 0.70
     Davidson diagonalization with overlap
     ethr =  4.88E-07,  avg # of iterations =  1.7

     negative rho (up, down):  5.958E-03 5.195E-03

     total cpu time spent up to now is      336.0 secs

     total energy              =   -6056.49604580 Ry
     estimated scf accuracy    <       0.00122220 Ry

     total magnetization       =    60.38 Bohr mag/cell
     absolute magnetization    =    67.99 Bohr mag/cell

     iteration # 25     ecut=    40.00 Ry     beta= 0.70
     Davidson diagonalization with overlap
     ethr =  3.65E-07,  avg # of iterations =  1.8

     negative rho (up, down):  7.687E-03 7.000E-03

     total cpu time spent up to now is      347.9 secs

     total energy              =   -6056.49633527 Ry
     estimated scf accuracy    <       0.00156633 Ry

     total magnetization       =    60.38 Bohr mag/cell
     absolute magnetization    =    67.99 Bohr mag/cell

     iteration # 26     ecut=    40.00 Ry     beta= 0.70
     Davidson diagonalization with overlap
     ethr =  3.65E-07,  avg # of iterations =  1.5

     negative rho (up, down):  4.055E-03 3.198E-03

     total cpu time spent up to now is      361.3 secs

     total energy              =   -6056.49628992 Ry
     estimated scf accuracy    <       0.00063527 Ry

     total magnetization       =    60.38 Bohr mag/cell
     absolute magnetization    =    67.99 Bohr mag/cell

     iteration # 27     ecut=    40.00 Ry     beta= 0.70
     Davidson diagonalization with overlap
     ethr =  1.90E-07,  avg # of iterations =  2.3

     negative rho (up, down):  3.759E-03 2.750E-03

     total cpu time spent up to now is      374.0 secs

     total energy              =   -6056.49634244 Ry
     estimated scf accuracy    <       0.00089638 Ry

     total magnetization       =    60.38 Bohr mag/cell
     absolute magnetization    =    67.99 Bohr mag/cell

     iteration # 28     ecut=    40.00 Ry     beta= 0.70
     Davidson diagonalization with overlap
     ethr =  1.90E-07,  avg # of iterations =  1.3

     negative rho (up, down):  3.342E-03 2.286E-03

     total cpu time spent up to now is      385.7 secs

     total energy              =   -6056.49637407 Ry
     estimated scf accuracy    <       0.00005752 Ry

     total magnetization       =    60.38 Bohr mag/cell
     absolute magnetization    =    67.99 Bohr mag/cell

     iteration # 29     ecut=    40.00 Ry     beta= 0.70
     Davidson diagonalization with overlap
     ethr =  1.72E-08,  avg # of iterations =  7.6

     negative rho (up, down):  3.036E-03 1.945E-03

     total cpu time spent up to now is      407.8 secs

     total energy              =   -6056.49638905 Ry
     estimated scf accuracy    <       0.00005847 Ry

     total magnetization       =    60.38 Bohr mag/cell
     absolute magnetization    =    67.98 Bohr mag/cell

     iteration # 30     ecut=    40.00 Ry     beta= 0.70
     Davidson diagonalization with overlap
     ethr =  1.72E-08,  avg # of iterations =  1.3

     negative rho (up, down):  2.798E-03 1.754E-03

     total cpu time spent up to now is      420.8 secs

     total energy              =   -6056.49637086 Ry
     estimated scf accuracy    <       0.00006696 Ry

     total magnetization       =    60.38 Bohr mag/cell
     absolute magnetization    =    67.98 Bohr mag/cell

     iteration # 31     ecut=    40.00 Ry     beta= 0.70
     Davidson diagonalization with overlap
     ethr =  1.72E-08,  avg # of iterations =  1.1

     negative rho (up, down):  2.635E-03 1.510E-03

     total cpu time spent up to now is      432.0 secs

     total energy              =   -6056.49639272 Ry
     estimated scf accuracy    <       0.00002173 Ry

     total magnetization       =    60.38 Bohr mag/cell
     absolute magnetization    =    67.98 Bohr mag/cell

     iteration # 32     ecut=    40.00 Ry     beta= 0.70
     Davidson diagonalization with overlap
     ethr =  6.49E-09,  avg # of iterations =  2.2

     negative rho (up, down):  2.383E-03 1.265E-03

     total cpu time spent up to now is      444.8 secs

     total energy              =   -6056.49639901 Ry
     estimated scf accuracy    <       0.00003061 Ry

     total magnetization       =    60.38 Bohr mag/cell
     absolute magnetization    =    67.98 Bohr mag/cell

     iteration # 33     ecut=    40.00 Ry     beta= 0.70
     Davidson diagonalization with overlap
     ethr =  6.49E-09,  avg # of iterations =  2.2

     negative rho (up, down):  2.426E-03 1.299E-03

     total cpu time spent up to now is      458.3 secs

     total energy              =   -6056.49639517 Ry
     estimated scf accuracy    <       0.00002671 Ry

     total magnetization       =    60.38 Bohr mag/cell
     absolute magnetization    =    67.98 Bohr mag/cell

     iteration # 34     ecut=    40.00 Ry     beta= 0.70
     Davidson diagonalization with overlap
     ethr =  6.49E-09,  avg # of iterations =  1.2

     negative rho (up, down):  2.317E-03 1.201E-03

     total cpu time spent up to now is      469.5 secs

     total energy              =   -6056.49640019 Ry
     estimated scf accuracy    <       0.00000478 Ry

     total magnetization       =    60.38 Bohr mag/cell
     absolute magnetization    =    67.98 Bohr mag/cell

     iteration # 35     ecut=    40.00 Ry     beta= 0.70
     Davidson diagonalization with overlap
     ethr =  1.43E-09,  avg # of iterations =  4.7

     negative rho (up, down):  2.317E-03 1.204E-03

     total cpu time spent up to now is      486.7 secs

     total energy              =   -6056.49640074 Ry
     estimated scf accuracy    <       0.00001737 Ry

     total magnetization       =    60.38 Bohr mag/cell
     absolute magnetization    =    67.98 Bohr mag/cell

     iteration # 36     ecut=    40.00 Ry     beta= 0.70
     Davidson diagonalization with overlap
     ethr =  1.43E-09,  avg # of iterations =  1.7

     negative rho (up, down):  2.252E-03 1.160E-03

     Magnetic moment per site  (integrated on atomic sphere of radius R)
     atom   1 (R=0.091)  charge=  5.6740  magn=  1.6576
     atom   2 (R=0.091)  charge=  5.6758  magn=  1.6380
     atom   3 (R=0.091)  charge=  5.6742  magn=  1.6505
     atom   4 (R=0.091)  charge=  5.6737  magn=  1.6548
     atom   5 (R=0.091)  charge=  5.6739  magn=  1.6538
     atom   6 (R=0.091)  charge=  5.6736  magn=  1.6555
     atom   7 (R=0.091)  charge=  5.6742  magn=  1.6608
     atom   8 (R=0.091)  charge=  5.6739  magn=  1.6558
     atom   9 (R=0.091)  charge=  5.6737  magn=  1.6543
     atom  10 (R=0.091)  charge=  5.6715  magn=  1.5919
     atom  11 (R=0.091)  charge=  5.6708  magn=  1.5898
     atom  12 (R=0.091)  charge=  5.6700  magn=  1.5962
     atom  13 (R=0.091)  charge=  5.6707  magn=  1.5888
     atom  14 (R=0.091)  charge=  5.6706  magn=  1.5872
     atom  15 (R=0.091)  charge=  5.6703  magn=  1.5978
     atom  16 (R=0.091)  charge=  5.6701  magn=  1.5948
     atom  17 (R=0.091)  charge=  5.6705  magn=  1.5967
     atom  18 (R=0.091)  charge=  5.6706  magn=  1.5961
     atom  19 (R=0.091)  charge=  5.6704  magn=  1.5690
     atom  20 (R=0.091)  charge=  5.6687  magn=  1.6057
     atom  21 (R=0.091)  charge=  5.6707  magn=  1.5829
     atom  22 (R=0.091)  charge=  5.6698  magn=  1.5806
     atom  23 (R=0.091)  charge=  5.6708  magn=  1.5872
     atom  24 (R=0.091)  charge=  5.6684  magn=  1.6156
     atom  25 (R=0.091)  charge=  5.6701  magn=  1.5911
     atom  26 (R=0.091)  charge=  5.6705  magn=  1.5538
     atom  27 (R=0.091)  charge=  5.6701  magn=  1.5761
     atom  28 (R=0.091)  charge=  5.6715  magn=  1.6923
     atom  29 (R=0.091)  charge=  5.6837  magn=  1.3342
     atom  30 (R=0.091)  charge=  5.6735  magn=  1.6927
     atom  31 (R=0.091)  charge=  5.6834  magn=  1.4333
     atom  32 (R=0.091)  charge=  5.6860  magn=  1.0610
     atom  33 (R=0.091)  charge=  5.6742  magn=  1.6448
     atom  34 (R=0.091)  charge=  5.6744  magn=  1.6973
     atom  35 (R=0.091)  charge=  5.6729  magn=  1.5257
     atom  36 (R=0.091)  charge=  5.6716  magn=  1.6729
     atom  37 (R=0.066)  charge=  1.0539  magn= -0.0222
     atom  38 (R=0.066)  charge=  2.9323  magn= -0.0420
     atom  39 (R=0.091)  charge=  0.8524  magn= -0.0156

     total cpu time spent up to now is      498.3 secs

     End of self-consistent calculation

 ------ SPIN UP ------------


          k = 0.0000 0.0000 0.0000 ( 36693 PWs)   bands (ev):

   -21.8517  -9.2525  -7.6784  -6.5146  -5.8059  -5.6173  -5.3914  -5.1151
    -4.8480  -4.8399  -4.8360  -4.8199  -4.7937  -4.7882  -4.6316  -4.3815
    -4.3024  -4.3013  -4.2805  -4.2532  -4.2440  -4.0892  -3.7831  -3.7802
    -3.7705  -3.7573  -3.7297  -3.6972  -3.6471  -3.6456  -3.6411  -3.6346
    -3.6027  -3.5656  -3.5640  -3.4513  -3.2654  -3.2574  -3.2544  -3.2492
    -3.1938  -3.1917  -3.1857  -3.1849  -3.1789  -3.1689  -3.1628  -3.1059
    -3.0305  -3.0258  -2.9586  -2.9515  -2.9466  -2.9404  -2.9368  -2.9276
    -2.9184  -2.9079  -2.8966  -2.8767  -2.8217  -2.8094  -2.8079  -2.8036
    -2.7383  -2.5923  -2.3164  -2.2776  -2.2769  -2.2740  -2.2721  -2.1704
    -2.1451  -2.1371  -2.1257  -2.1153  -2.1038  -2.0981  -2.0940  -2.0906
    -2.0477  -2.0448  -2.0071  -1.9930  -1.9925  -1.9864  -1.9763  -1.9647
    -1.9638  -1.9515  -1.9490  -1.9434  -1.9358  -1.9212  -1.9172  -1.9065
    -1.9032  -1.9004  -1.8992  -1.8987  -1.8967  -1.8925  -1.8895  -1.8742
    -1.8640  -1.8476  -1.8383  -1.8273  -1.8219  -1.7481  -1.7429  -1.6502
    -1.5527  -1.4551  -1.4503  -1.4478  -1.4434  -1.4393  -1.4135  -1.4105
    -1.4045  -1.4028  -1.3977  -1.3581  -1.3560  -1.2267  -1.2196  -1.2083
    -1.1964  -1.1543  -1.0991  -1.0572  -1.0488  -1.0107  -0.9778  -0.9727
    -0.9601  -0.9568  -0.9552  -0.9388  -0.9042  -0.8769  -0.8330  -0.8173
    -0.7271  -0.7173  -0.7055  -0.6978  -0.6823  -0.6665  -0.6614  -0.6467
    -0.6422  -0.6385  -0.6366  -0.6328  -0.6301  -0.6191  -0.6147  -0.6097
    -0.6040  -0.5989  -0.5830  -0.5781  -0.5691  -0.5663  -0.5551  -0.5496
    -0.5354  -0.5332  -0.5271  -0.5113  -0.5088  -0.5016  -0.4990  -0.4924
    -0.4848  -0.4758  -0.4619  -0.4516  -0.4331  -0.4098  -0.4056  -0.3992
    -0.3930  -0.3918  -0.3848  -0.3757  -0.3671  -0.3369  -0.3248  -0.3151
    -0.3114  -0.3004  -0.2454  -0.2448  -0.2368  -0.2250  -0.2157  -0.1917
     0.5056   0.7264

          k = 0.0000 0.2309 0.0000 ( 36641 PWs)   bands (ev):

   -21.8517  -9.2412  -7.5378  -6.4177  -5.8468  -5.6614  -5.5284  -5.3484
    -5.1018  -5.0570  -5.0121  -4.6224  -4.5199  -4.4888  -4.4776  -4.4203
    -4.3449  -4.3002  -4.2239  -4.2003  -4.1570  -4.0541  -3.8944  -3.7802
    -3.7674  -3.7042  -3.6699  -3.6514  -3.6467  -3.6426  -3.6365  -3.6094
    -3.5845  -3.5493  -3.5187  -3.5007  -3.4945  -3.4252  -3.2879  -3.2744
    -3.2661  -3.2192  -3.2141  -3.1999  -3.1758  -3.1182  -3.0823  -3.0623
    -3.0469  -3.0397  -3.0333  -3.0030  -2.9659  -2.9095  -2.9043  -2.8761
    -2.8355  -2.8290  -2.8060  -2.8012  -2.7734  -2.7397  -2.7351  -2.7230
    -2.6912  -2.5957  -2.3980  -2.3896  -2.3628  -2.3461  -2.3325  -2.2485
    -2.2398  -2.2233  -2.2185  -2.2092  -2.2003  -2.1881  -2.1629  -2.1129
    -2.1086  -2.0915  -2.0769  -2.0381  -2.0328  -2.0296  -2.0100  -2.0042
    -1.9969  -1.9951  -1.9856  -1.9770  -1.9651  -1.9575  -1.9211  -1.8873
    -1.8776  -1.8679  -1.8189  -1.8033  -1.7987  -1.7914  -1.7864  -1.7807
    -1.7709  -1.7629  -1.7551  -1.7496  -1.7452  -1.7197  -1.7070  -1.6954
    -1.6841  -1.6716  -1.6334  -1.5929  -1.5793  -1.4939  -1.4764  -1.4689
    -1.4550  -1.4496  -1.4398  -1.4346  -1.4137  -1.3835  -1.3304  -1.2814
    -1.2455  -1.1996  -1.1807  -1.1658  -1.1539  -1.1154  -1.0944  -1.0806
    -1.0322  -0.9998  -0.9850  -0.9731  -0.9450  -0.9402  -0.9027  -0.8957
    -0.8665  -0.8565  -0.8404  -0.8228  -0.8154  -0.7994  -0.7903  -0.7784
    -0.7187  -0.7130  -0.7061  -0.6989  -0.6758  -0.6538  -0.6426  -0.6350
    -0.6275  -0.6240  -0.6169  -0.6062  -0.5867  -0.5810  -0.5711  -0.5524
    -0.5134  -0.4948  -0.4850  -0.4669  -0.4509  -0.4411  -0.4073  -0.3892
    -0.3781  -0.3689  -0.3616  -0.3543  -0.3380  -0.3290  -0.3181  -0.2783
    -0.2542  -0.2426  -0.2362  -0.2169  -0.2048  -0.1889  -0.1792  -0.1595
    -0.1092  -0.0387   0.0975   0.1375   0.1687   0.2669   0.3861   0.4098
     0.4516   0.8021

          k = 0.0000 0.4619 0.0000 ( 36606 PWs)   bands (ev):

   -21.8517  -9.2232  -7.1241  -6.4796  -6.1523  -5.8336  -5.5457  -5.3747
    -5.2117  -5.1472  -5.0860  -4.8754  -4.3540  -4.3203  -4.2898  -4.2436
    -4.2076  -4.1304  -4.1264  -4.0282  -3.9930  -3.9883  -3.9585  -3.8343
    -3.8117  -3.8045  -3.7965  -3.7933  -3.7202  -3.6940  -3.6827  -3.6131
    -3.5266  -3.5184  -3.5001  -3.4823  -3.4640  -3.4379  -3.3702  -3.3618
    -3.3503  -3.3376  -3.3054  -3.2224  -3.1354  -3.1072  -3.0427  -3.0301
    -3.0071  -2.9836  -2.9646  -2.9542  -2.9419  -2.9293  -2.9084  -2.8603
    -2.8513  -2.8287  -2.7857  -2.7586  -2.6579  -2.6405  -2.6192  -2.5935
    -2.5535  -2.5326  -2.5063  -2.4972  -2.4809  -2.4185  -2.3686  -2.3639
    -2.3619  -2.3461  -2.3397  -2.3191  -2.3056  -2.2968  -2.2740  -2.2469
    -2.2322  -2.2020  -2.1841  -2.1618  -2.1349  -2.1204  -2.0734  -2.0493
    -2.0309  -2.0192  -2.0028  -1.9713  -1.9668  -1.9305  -1.9203  -1.9109
    -1.8996  -1.8850  -1.8702  -1.8554  -1.8476  -1.8431  -1.8375  -1.8017
    -1.7890  -1.7500  -1.7302  -1.7276  -1.6672  -1.6426  -1.6258  -1.6110
    -1.5914  -1.5776  -1.5536  -1.5255  -1.5152  -1.4972  -1.4947  -1.4836
    -1.4764  -1.4673  -1.4595  -1.4528  -1.4442  -1.4366  -1.4174  -1.4095
    -1.3983  -1.3671  -1.3046  -1.2784  -1.2652  -1.2584  -1.2297  -1.2132
    -1.1923  -1.1394  -1.1158  -1.1039  -1.0695  -1.0508  -1.0242  -0.9962
    -0.9780  -0.9550  -0.9344  -0.9180  -0.8975  -0.8646  -0.8411  -0.7986
    -0.7518  -0.7316  -0.7163  -0.7064  -0.7045  -0.6930  -0.6882  -0.6750
    -0.6609  -0.6346  -0.5593  -0.5485  -0.5433  -0.5345  -0.5265  -0.5025
    -0.5001  -0.4790  -0.4742  -0.4637  -0.4560  -0.4337  -0.3715  -0.3590
    -0.3472  -0.3350  -0.3065  -0.2603  -0.2519  -0.2260  -0.2171  -0.1828
    -0.1497  -0.1400  -0.1343  -0.1167  -0.1115  -0.1075  -0.0973  -0.0541
    -0.0066   0.0172   0.4186   0.5950   0.9130   1.0730   1.1173   1.2474
     1.4676   1.5015

          k = 0.2000-0.1155 0.0000 ( 36641 PWs)   bands (ev):

   -21.8517  -9.2421  -7.5373  -6.4168  -5.8332  -5.6715  -5.5238  -5.3473
    -5.1195  -5.0483  -5.0111  -4.6489  -4.5005  -4.4900  -4.4732  -4.4200
    -4.3292  -4.3018  -4.2437  -4.1703  -4.1565  -4.0972  -3.8775  -3.7876
    -3.7735  -3.7045  -3.6633  -3.6501  -3.6470  -3.6399  -3.6293  -3.6064
    -3.5999  -3.5372  -3.5189  -3.5006  -3.4961  -3.4151  -3.2786  -3.2718
    -3.2606  -3.2183  -3.2135  -3.2018  -3.1816  -3.1112  -3.0786  -3.0689
    -3.0486  -3.0428  -3.0292  -3.0046  -2.9740  -2.9094  -2.9036  -2.8704
    -2.8422  -2.8305  -2.8059  -2.8023  -2.7749  -2.7380  -2.7357  -2.7256
    -2.6996  -2.5871  -2.3960  -2.3883  -2.3647  -2.3530  -2.3350  -2.2488
    -2.2384  -2.2211  -2.2163  -2.2071  -2.2033  -2.1931  -2.1710  -2.1144
    -2.1076  -2.0908  -2.0755  -2.0333  -2.0320  -2.0253  -2.0113  -2.0029
    -1.9947  -1.9941  -1.9867  -1.9789  -1.9701  -1.9598  -1.9305  -1.8893
    -1.8790  -1.8723  -1.8154  -1.8041  -1.7959  -1.7918  -1.7838  -1.7747
    -1.7710  -1.7624  -1.7545  -1.7497  -1.7437  -1.7168  -1.7102  -1.6940
    -1.6816  -1.6712  -1.6306  -1.5881  -1.5741  -1.4815  -1.4753  -1.4731
    -1.4607  -1.4458  -1.4390  -1.4324  -1.4118  -1.4006  -1.3599  -1.2766
    -1.2517  -1.1978  -1.1808  -1.1667  -1.1572  -1.1008  -1.0886  -1.0759
    -1.0578  -0.9879  -0.9732  -0.9678  -0.9428  -0.9352  -0.9010  -0.8913
    -0.8675  -0.8588  -0.8479  -0.8273  -0.8155  -0.7962  -0.7859  -0.7832
    -0.7210  -0.7088  -0.7078  -0.7021  -0.6811  -0.6695  -0.6412  -0.6338
    -0.6300  -0.6220  -0.6169  -0.6057  -0.5863  -0.5786  -0.5684  -0.5546
    -0.5207  -0.4993  -0.4884  -0.4690  -0.4468  -0.4342  -0.4133  -0.3860
    -0.3809  -0.3713  -0.3651  -0.3549  -0.3374  -0.3275  -0.3184  -0.2838
    -0.2538  -0.2442  -0.2365  -0.2170  -0.2078  -0.1861  -0.1792  -0.1618
    -0.1039  -0.0369   0.1100   0.1371   0.1996   0.2690   0.3924   0.4136
     0.4478   0.7671

          k = 0.2000 0.1155 0.0000 ( 36641 PWs)   bands (ev):

   -21.8517  -9.2405  -7.5388  -6.4202  -5.8733  -5.6580  -5.4547  -5.4004
    -5.0862  -5.0601  -5.0273  -4.5912  -4.5264  -4.4881  -4.4787  -4.4179
    -4.3472  -4.3162  -4.2279  -4.1983  -4.1594  -4.0432  -3.8966  -3.7843
    -3.7609  -3.7001  -3.6630  -3.6517  -3.6474  -3.6457  -3.6326  -3.6220
    -3.5642  -3.5524  -3.5299  -3.5015  -3.4954  -3.4249  -3.2931  -3.2722
    -3.2694  -3.2191  -3.2176  -3.2024  -3.1718  -3.1178  -3.0857  -3.0581
    -3.0451  -3.0414  -3.0327  -3.0125  -2.9621  -2.9107  -2.9032  -2.8766
    -2.8419  -2.8165  -2.8061  -2.8010  -2.7860  -2.7386  -2.7367  -2.7226
    -2.6725  -2.5947  -2.3984  -2.3851  -2.3623  -2.3482  -2.3360  -2.2482
    -2.2415  -2.2313  -2.2147  -2.2095  -2.2041  -2.1902  -2.1457  -2.1147
    -2.1079  -2.0940  -2.0720  -2.0353  -2.0308  -2.0282  -2.0190  -2.0035
    -1.9981  -1.9949  -1.9891  -1.9780  -1.9640  -1.9504  -1.9344  -1.8851
    -1.8772  -1.8631  -1.8168  -1.8129  -1.8014  -1.7927  -1.7848  -1.7828
    -1.7689  -1.7638  -1.7581  -1.7490  -1.7428  -1.7327  -1.7026  -1.6965
    -1.6818  -1.6773  -1.6309  -1.5961  -1.5849  -1.5070  -1.4766  -1.4653
    -1.4564  -1.4493  -1.4398  -1.4360  -1.4162  -1.3754  -1.2973  -1.2904
    -1.2440  -1.1960  -1.1811  -1.1693  -1.1494  -1.1313  -1.0956  -1.0866
    -1.0278  -0.9953  -0.9864  -0.9628  -0.9487  -0.9391  -0.9031  -0.8989
    -0.8723  -0.8561  -0.8392  -0.8234  -0.8172  -0.8008  -0.7948  -0.7780
    -0.7158  -0.7107  -0.7034  -0.6920  -0.6816  -0.6576  -0.6432  -0.6343
    -0.6306  -0.6229  -0.6165  -0.5971  -0.5878  -0.5816  -0.5724  -0.5573
    -0.5114  -0.4884  -0.4771  -0.4730  -0.4563  -0.4407  -0.4066  -0.3901
    -0.3804  -0.3688  -0.3619  -0.3512  -0.3376  -0.3266  -0.3201  -0.2768
    -0.2476  -0.2436  -0.2356  -0.2159  -0.2074  -0.1798  -0.1648  -0.1567
    -0.1074  -0.0634   0.1047   0.1373   0.1781   0.2567   0.3907   0.4103
     0.4365   0.7418

          k = 0.2000 0.3464 0.0000 ( 36608 PWs)   bands (ev):

   -21.8517  -9.2254  -7.2621  -6.2700  -6.0608  -5.9392  -5.6803  -5.4516
    -5.3613  -5.0330  -4.7761  -4.6117  -4.5020  -4.4907  -4.3363  -4.2745
    -4.2604  -4.1727  -4.1670  -4.0953  -4.0437  -3.9438  -3.8997  -3.8725
    -3.8227  -3.7809  -3.6901  -3.6850  -3.6442  -3.6411  -3.6324  -3.6116
    -3.5897  -3.5814  -3.5517  -3.5237  -3.4788  -3.4499  -3.4418  -3.3841
    -3.2999  -3.2639  -3.2152  -3.1819  -3.1670  -3.1566  -3.1052  -3.0552
    -3.0194  -2.9828  -2.9732  -2.9674  -2.9385  -2.9177  -2.8978  -2.8875
    -2.8731  -2.8392  -2.7633  -2.7001  -2.6891  -2.6662  -2.6453  -2.6315
    -2.6101  -2.5464  -2.5040  -2.4356  -2.4116  -2.3875  -2.3745  -2.3459
    -2.3302  -2.3193  -2.3168  -2.2968  -2.2706  -2.2611  -2.2561  -2.2437
    -2.2236  -2.1876  -2.1665  -2.1183  -2.0695  -2.0558  -2.0450  -2.0237
    -2.0103  -1.9939  -1.9580  -1.9541  -1.9442  -1.9201  -1.9072  -1.9006
    -1.8906  -1.8878  -1.8771  -1.8579  -1.8552  -1.8434  -1.8242  -1.8210
    -1.7965  -1.7753  -1.7456  -1.7229  -1.7149  -1.6831  -1.6724  -1.6653
    -1.6517  -1.6362  -1.6129  -1.5774  -1.5638  -1.5525  -1.5319  -1.5090
    -1.5007  -1.4919  -1.4742  -1.4603  -1.4434  -1.4378  -1.4248  -1.3651
    -1.3534  -1.3361  -1.3222  -1.2205  -1.2082  -1.1844  -1.1775  -1.1020
    -1.0672  -1.0567  -1.0460  -1.0428  -1.0306  -1.0232  -0.9997  -0.9957
    -0.9715  -0.9537  -0.9357  -0.8961  -0.8762  -0.8636  -0.8572  -0.8417
    -0.8119  -0.7984  -0.7884  -0.7791  -0.7639  -0.7417  -0.6209  -0.6104
    -0.5795  -0.5737  -0.5664  -0.5553  -0.5387  -0.5260  -0.5176  -0.5106
    -0.4948  -0.4661  -0.4428  -0.4287  -0.4063  -0.3933  -0.3500  -0.3378
    -0.3336  -0.3253  -0.3231  -0.3003  -0.2892  -0.2819  -0.2749  -0.2593
    -0.2479  -0.1732  -0.1627  -0.1614  -0.1146  -0.1126  -0.0874   0.0459
     0.1961   0.2283   0.2684   0.3695   0.5291   0.6258   0.9266   1.1215
     1.2211   1.4505

          k = 0.2000-0.5774 0.0000 ( 36660 PWs)   bands (ev):

   -21.8517  -9.2180  -6.7644  -6.6840  -6.1584  -5.9862  -5.7856  -5.4651
    -5.2346  -5.1747  -4.9335  -4.6761  -4.4784  -4.2332  -4.1908  -4.0653
    -4.0560  -4.0462  -4.0290  -4.0163  -3.9688  -3.9526  -3.9459  -3.9418
    -3.9252  -3.8472  -3.7991  -3.7885  -3.7697  -3.7597  -3.7089  -3.6223
    -3.6121  -3.6008  -3.5797  -3.5534  -3.4976  -3.4468  -3.3526  -3.3162
    -3.3085  -3.2851  -3.2260  -3.2103  -3.1829  -3.1313  -3.0980  -3.0922
    -3.0644  -3.0294  -2.9979  -2.9309  -2.8993  -2.8781  -2.8547  -2.8163
    -2.7910  -2.7344  -2.7299  -2.7213  -2.7044  -2.6934  -2.6708  -2.6192
    -2.5566  -2.5142  -2.5044  -2.4950  -2.4608  -2.4333  -2.4207  -2.3694
    -2.3641  -2.3272  -2.3136  -2.3099  -2.2938  -2.2737  -2.2602  -2.2467
    -2.2301  -2.2228  -2.2088  -2.1819  -2.1773  -2.1412  -2.1065  -2.0934
    -2.0807  -2.0596  -2.0096  -1.9804  -1.9582  -1.9397  -1.9318  -1.9218
    -1.9016  -1.8911  -1.8802  -1.8759  -1.8562  -1.8381  -1.8298  -1.7731
    -1.7670  -1.7463  -1.7359  -1.7307  -1.7123  -1.7078  -1.7001  -1.6865
    -1.6841  -1.6712  -1.6483  -1.6335  -1.5923  -1.5780  -1.5583  -1.5121
    -1.4924  -1.4858  -1.4701  -1.4290  -1.4201  -1.4080  -1.4035  -1.3733
    -1.3379  -1.3328  -1.3069  -1.2554  -1.2032  -1.1933  -1.1781  -1.1615
    -1.1332  -1.1283  -1.1267  -1.0998  -1.0785  -1.0647  -1.0511  -1.0231
    -0.9827  -0.9802  -0.9577  -0.9397  -0.9231  -0.8823  -0.8717  -0.8608
    -0.8530  -0.8284  -0.8229  -0.8074  -0.7788  -0.7574  -0.7377  -0.5826
    -0.5619  -0.5583  -0.5516  -0.5430  -0.5327  -0.5276  -0.5175  -0.4794
    -0.4765  -0.4657  -0.4552  -0.4323  -0.3940  -0.3458  -0.3312  -0.3210
    -0.3091  -0.2980  -0.2834  -0.2653  -0.2406  -0.2278  -0.2225  -0.2088
    -0.2025  -0.1643  -0.1322  -0.1264  -0.1121  -0.1015  -0.0808  -0.0490
     0.1373   0.2580   0.5081   0.8995   0.9757   1.1711   1.2327   1.5482
     1.6492   1.7161

          k = 0.2000-0.3464 0.0000 ( 36608 PWs)   bands (ev):

   -21.8517  -9.2282  -7.2580  -6.2729  -6.0060  -5.9529  -5.6803  -5.5212
    -5.3306  -5.0363  -4.7145  -4.6977  -4.4976  -4.4825  -4.3302  -4.2746
    -4.2660  -4.1715  -4.1683  -4.0576  -4.0390  -4.0203  -3.8981  -3.8736
    -3.8269  -3.7804  -3.6877  -3.6691  -3.6600  -3.6405  -3.6299  -3.6063
    -3.5897  -3.5837  -3.5368  -3.5184  -3.4821  -3.4391  -3.4251  -3.3850
    -3.3011  -3.2385  -3.2153  -3.1899  -3.1700  -3.1484  -3.0831  -3.0555
    -3.0102  -2.9981  -2.9746  -2.9578  -2.9524  -2.9214  -2.9022  -2.8840
    -2.8646  -2.8362  -2.7559  -2.7302  -2.6917  -2.6764  -2.6502  -2.6352
    -2.6104  -2.5495  -2.5008  -2.4375  -2.4087  -2.3876  -2.3732  -2.3414
    -2.3318  -2.3193  -2.3159  -2.2894  -2.2704  -2.2619  -2.2545  -2.2406
    -2.2325  -2.1900  -2.1620  -2.1401  -2.0711  -2.0599  -2.0371  -2.0200
    -2.0125  -1.9909  -1.9731  -1.9559  -1.9372  -1.9239  -1.9069  -1.9050
    -1.8941  -1.8862  -1.8773  -1.8597  -1.8483  -1.8460  -1.8253  -1.8109
    -1.7998  -1.7913  -1.7637  -1.7199  -1.7171  -1.6830  -1.6713  -1.6619
    -1.6561  -1.6387  -1.5901  -1.5773  -1.5670  -1.5410  -1.5174  -1.5148
    -1.4948  -1.4883  -1.4815  -1.4581  -1.4390  -1.4282  -1.4225  -1.3672
    -1.3538  -1.3210  -1.3047  -1.2430  -1.2032  -1.1860  -1.1616  -1.0976
    -1.0770  -1.0579  -1.0468  -1.0414  -1.0341  -1.0244  -1.0004  -0.9816
    -0.9790  -0.9600  -0.9416  -0.8967  -0.8848  -0.8720  -0.8525  -0.8445
    -0.8179  -0.7995  -0.7788  -0.7718  -0.7599  -0.7417  -0.6229  -0.6143
    -0.5892  -0.5772  -0.5662  -0.5531  -0.5366  -0.5286  -0.5262  -0.5027
    -0.4938  -0.4692  -0.4413  -0.4215  -0.4072  -0.3984  -0.3578  -0.3407
    -0.3310  -0.3289  -0.3237  -0.3010  -0.2878  -0.2831  -0.2728  -0.2631
    -0.2479  -0.1774  -0.1640  -0.1596  -0.1130  -0.1098  -0.0978   0.0651
     0.1255   0.2284   0.2441   0.4541   0.5079   0.6298   0.9970   1.1195
     1.2256   1.3940

          k = 0.4000-0.2309 0.0000 ( 36606 PWs)   bands (ev):

   -21.8517  -9.2258  -7.1216  -6.4803  -6.1478  -5.7897  -5.5780  -5.3790
    -5.2226  -5.1526  -5.0979  -4.8572  -4.3360  -4.3192  -4.2932  -4.2585
    -4.2104  -4.1316  -4.1250  -4.0520  -3.9938  -3.9901  -3.9787  -3.8278
    -3.8117  -3.8097  -3.7965  -3.7948  -3.7288  -3.6925  -3.6840  -3.5545
    -3.5251  -3.5135  -3.4978  -3.4808  -3.4718  -3.4255  -3.3685  -3.3622
    -3.3479  -3.3375  -3.2695  -3.2166  -3.1377  -3.1097  -3.0469  -3.0384
    -3.0087  -2.9913  -2.9632  -2.9538  -2.9404  -2.9342  -2.9006  -2.8581
    -2.8475  -2.8264  -2.7952  -2.7753  -2.6574  -2.6455  -2.6262  -2.6017
    -2.5532  -2.5327  -2.5066  -2.4963  -2.4797  -2.4148  -2.3682  -2.3644
    -2.3584  -2.3478  -2.3408  -2.3210  -2.3063  -2.2947  -2.2729  -2.2571
    -2.2354  -2.1994  -2.1810  -2.1649  -2.1382  -2.1113  -2.0712  -2.0405
    -2.0295  -2.0178  -1.9910  -1.9843  -1.9717  -1.9317  -1.9179  -1.9124
    -1.9056  -1.8919  -1.8727  -1.8564  -1.8446  -1.8382  -1.8359  -1.8129
    -1.7941  -1.7602  -1.7320  -1.7268  -1.6600  -1.6419  -1.6264  -1.6164
    -1.6035  -1.5783  -1.5469  -1.5290  -1.5173  -1.4950  -1.4902  -1.4840
    -1.4807  -1.4708  -1.4587  -1.4490  -1.4447  -1.4387  -1.4229  -1.4170
    -1.4097  -1.3555  -1.2902  -1.2835  -1.2696  -1.2554  -1.2267  -1.2198
    -1.1931  -1.1324  -1.1151  -1.1029  -1.0590  -1.0497  -1.0205  -0.9777
    -0.9678  -0.9573  -0.9274  -0.9153  -0.8994  -0.8728  -0.8504  -0.7807
    -0.7492  -0.7343  -0.7232  -0.7086  -0.7061  -0.6973  -0.6872  -0.6855
    -0.6634  -0.6320  -0.5578  -0.5527  -0.5398  -0.5376  -0.5288  -0.5130
    -0.5021  -0.4924  -0.4716  -0.4676  -0.4576  -0.4311  -0.3768  -0.3588
    -0.3500  -0.3382  -0.3122  -0.2586  -0.2525  -0.2264  -0.2202  -0.1824
    -0.1498  -0.1444  -0.1355  -0.1241  -0.1109  -0.1086  -0.0996  -0.0551
    -0.0069   0.0224   0.4715   0.5860   0.8912   1.0917   1.1210   1.3113
     1.4606   1.5055

          k = 0.4000 0.0000 0.0000 ( 36608 PWs)   bands (ev):

   -21.8517  -9.2270  -7.2607  -6.2725  -6.0403  -5.9431  -5.6810  -5.4683
    -5.3512  -5.0491  -4.7503  -4.6350  -4.5009  -4.4849  -4.3365  -4.2728
    -4.2658  -4.1724  -4.1672  -4.0704  -4.0441  -4.0002  -3.8972  -3.8696
    -3.8248  -3.7790  -3.6886  -3.6725  -3.6547  -3.6375  -3.6273  -3.6159
    -3.5885  -3.5825  -3.5366  -3.5160  -3.4804  -3.4420  -3.4365  -3.3757
    -3.2983  -3.2409  -3.2156  -3.1905  -3.1672  -3.1567  -3.0975  -3.0543
    -3.0169  -2.9894  -2.9779  -2.9648  -2.9438  -2.9166  -2.9105  -2.8838
    -2.8686  -2.8385  -2.7604  -2.7205  -2.6881  -2.6699  -2.6532  -2.6330
    -2.6064  -2.5484  -2.5024  -2.4343  -2.4186  -2.3876  -2.3730  -2.3420
    -2.3306  -2.3202  -2.3158  -2.2923  -2.2720  -2.2627  -2.2547  -2.2412
    -2.2353  -2.1855  -2.1634  -2.1213  -2.0688  -2.0597  -2.0365  -2.0226
    -2.0080  -1.9917  -1.9712  -1.9564  -1.9420  -1.9211  -1.9085  -1.9042
    -1.8966  -1.8877  -1.8816  -1.8574  -1.8520  -1.8453  -1.8238  -1.8175
    -1.8032  -1.7806  -1.7582  -1.7217  -1.7151  -1.6761  -1.6717  -1.6681
    -1.6570  -1.6452  -1.6074  -1.5770  -1.5642  -1.5490  -1.5361  -1.5079
    -1.4998  -1.4892  -1.4738  -1.4546  -1.4403  -1.4325  -1.4132  -1.3653
    -1.3543  -1.3318  -1.3087  -1.2332  -1.2097  -1.1844  -1.1729  -1.0988
    -1.0703  -1.0548  -1.0432  -1.0362  -1.0298  -1.0252  -0.9952  -0.9912
    -0.9721  -0.9604  -0.9365  -0.8963  -0.8837  -0.8689  -0.8586  -0.8434
    -0.8184  -0.7955  -0.7856  -0.7710  -0.7607  -0.7417  -0.6206  -0.6062
    -0.5951  -0.5762  -0.5669  -0.5559  -0.5369  -0.5293  -0.5162  -0.5060
    -0.4905  -0.4688  -0.4383  -0.4296  -0.4068  -0.3984  -0.3549  -0.3404
    -0.3326  -0.3279  -0.3245  -0.2995  -0.2879  -0.2786  -0.2759  -0.2635
    -0.2479  -0.1772  -0.1624  -0.1598  -0.1135  -0.1097  -0.0895   0.0493
     0.1486   0.2285   0.2545   0.4187   0.5142   0.6339   0.9860   1.1188
     1.2250   1.4551

          k = 0.4000 0.2309 0.0000 ( 36606 PWs)   bands (ev):

   -21.8517  -9.2213  -7.1287  -6.4861  -6.1598  -5.8660  -5.4573  -5.4092
    -5.2090  -5.1503  -5.0803  -4.8777  -4.3556  -4.3163  -4.3042  -4.2451
    -4.2018  -4.1326  -4.1260  -4.0168  -3.9939  -3.9906  -3.9147  -3.8463
    -3.8109  -3.8023  -3.7965  -3.7924  -3.7082  -3.6921  -3.6701  -3.6488
    -3.5298  -3.5237  -3.5100  -3.4812  -3.4751  -3.4293  -3.3704  -3.3631
    -3.3505  -3.3408  -3.3017  -3.2243  -3.1387  -3.0992  -3.0457  -3.0197
    -3.0138  -2.9822  -2.9659  -2.9618  -2.9498  -2.9226  -2.9005  -2.8612
    -2.8530  -2.8308  -2.7950  -2.7449  -2.6537  -2.6374  -2.6244  -2.5895
    -2.5597  -2.5290  -2.5078  -2.5043  -2.4891  -2.4198  -2.3693  -2.3643
    -2.3593  -2.3520  -2.3351  -2.3181  -2.3042  -2.3003  -2.2751  -2.2382
    -2.2181  -2.2057  -2.1905  -2.1731  -2.1267  -2.1149  -2.0728  -2.0455
    -2.0337  -2.0176  -2.0057  -1.9828  -1.9630  -1.9268  -1.9219  -1.9130
    -1.9003  -1.8858  -1.8667  -1.8586  -1.8535  -1.8421  -1.8340  -1.8060
    -1.7912  -1.7682  -1.7342  -1.7283  -1.6674  -1.6453  -1.6241  -1.6104
    -1.5804  -1.5757  -1.5454  -1.5232  -1.5147  -1.5017  -1.4920  -1.4860
    -1.4792  -1.4750  -1.4601  -1.4518  -1.4452  -1.4383  -1.4113  -1.4018
    -1.3835  -1.3747  -1.3260  -1.2812  -1.2639  -1.2520  -1.2285  -1.2173
    -1.1867  -1.1384  -1.1183  -1.1003  -1.0815  -1.0452  -1.0425  -1.0024
    -0.9759  -0.9498  -0.9312  -0.9220  -0.8914  -0.8624  -0.8429  -0.8042
    -0.7300  -0.7273  -0.7162  -0.7090  -0.7034  -0.6904  -0.6802  -0.6714
    -0.6641  -0.6503  -0.5576  -0.5518  -0.5402  -0.5343  -0.5252  -0.4992
    -0.4930  -0.4837  -0.4762  -0.4645  -0.4487  -0.4343  -0.3708  -0.3565
    -0.3484  -0.3360  -0.2994  -0.2582  -0.2545  -0.2207  -0.2185  -0.1825
    -0.1603  -0.1378  -0.1347  -0.1129  -0.1122  -0.1068  -0.0835  -0.0637
    -0.0064   0.0191   0.4092   0.6559   0.8601   1.0310   1.1221   1.1978
     1.4643   1.5834

          k = 0.4000-0.6928 0.0000 ( 36660 PWs)   bands (ev):

   -21.8517  -9.2169  -6.7777  -6.6793  -6.1593  -5.9313  -5.8800  -5.4089
    -5.2132  -5.1660  -4.9765  -4.6751  -4.4801  -4.2331  -4.1890  -4.0602
    -4.0564  -4.0333  -4.0257  -4.0024  -3.9758  -3.9526  -3.9454  -3.9363
    -3.9307  -3.8150  -3.8028  -3.7903  -3.7752  -3.7567  -3.7261  -3.6309
    -3.6114  -3.6011  -3.5875  -3.5674  -3.4985  -3.4423  -3.3490  -3.3169
    -3.3131  -3.2765  -3.2174  -3.2118  -3.1827  -3.1396  -3.0987  -3.0961
    -3.0741  -3.0151  -3.0058  -2.9303  -2.8987  -2.8736  -2.8629  -2.8105
    -2.7887  -2.7350  -2.7297  -2.7203  -2.7032  -2.7009  -2.6537  -2.6360
    -2.5533  -2.5141  -2.5069  -2.4882  -2.4750  -2.4409  -2.4223  -2.3680
    -2.3592  -2.3279  -2.3202  -2.3018  -2.2963  -2.2724  -2.2578  -2.2407
    -2.2302  -2.2188  -2.1900  -2.1865  -2.1744  -2.1644  -2.1054  -2.0947
    -2.0828  -2.0554  -2.0117  -1.9767  -1.9622  -1.9430  -1.9290  -1.9193
    -1.8999  -1.8942  -1.8910  -1.8659  -1.8515  -1.8444  -1.8319  -1.7712
    -1.7555  -1.7492  -1.7355  -1.7188  -1.7124  -1.7093  -1.6937  -1.6895
    -1.6856  -1.6738  -1.6527  -1.6431  -1.5851  -1.5773  -1.5672  -1.5252
    -1.4979  -1.4834  -1.4610  -1.4289  -1.4213  -1.4129  -1.3975  -1.3829
    -1.3366  -1.3338  -1.3019  -1.2552  -1.2048  -1.1977  -1.1820  -1.1598
    -1.1373  -1.1313  -1.1174  -1.0968  -1.0887  -1.0670  -1.0440  -1.0149
    -0.9862  -0.9777  -0.9541  -0.9367  -0.9256  -0.8897  -0.8724  -0.8695
    -0.8481  -0.8299  -0.8189  -0.8011  -0.7746  -0.7594  -0.7386  -0.5750
    -0.5652  -0.5616  -0.5537  -0.5420  -0.5372  -0.5209  -0.5181  -0.4795
    -0.4733  -0.4650  -0.4562  -0.4318  -0.3938  -0.3406  -0.3301  -0.3116
    -0.3089  -0.2983  -0.2853  -0.2453  -0.2407  -0.2307  -0.2223  -0.2123
    -0.2062  -0.1904  -0.1326  -0.1267  -0.1112  -0.1040  -0.0808  -0.0461
     0.1518   0.2635   0.5528   0.7755   1.0301   1.1676   1.2218   1.5645
     1.6719   1.7131

          k = 0.4000-0.4619 0.0000 ( 36660 PWs)   bands (ev):

   -21.8517  -9.2196  -6.7518  -6.6953  -6.1462  -6.0092  -5.7251  -5.5184
    -5.2483  -5.1768  -4.9020  -4.6805  -4.4817  -4.2364  -4.1887  -4.0833
    -4.0565  -4.0491  -4.0276  -4.0207  -3.9727  -3.9542  -3.9501  -3.9446
    -3.9183  -3.8608  -3.7976  -3.7878  -3.7658  -3.7632  -3.7040  -3.6204
    -3.6107  -3.6012  -3.5796  -3.5225  -3.4745  -3.4428  -3.3626  -3.3159
    -3.3092  -3.2683  -3.2274  -3.2107  -3.1841  -3.1340  -3.0961  -3.0937
    -3.0509  -3.0308  -3.0054  -2.9330  -2.8991  -2.8698  -2.8622  -2.8184
    -2.8012  -2.7346  -2.7270  -2.7178  -2.7040  -2.6927  -2.6723  -2.6424
    -2.5593  -2.5173  -2.5053  -2.4917  -2.4586  -2.4313  -2.4138  -2.3696
    -2.3627  -2.3253  -2.3134  -2.3102  -2.2989  -2.2797  -2.2563  -2.2524
    -2.2347  -2.2227  -2.2084  -2.1817  -2.1781  -2.1467  -2.1039  -2.0927
    -2.0766  -2.0405  -2.0071  -1.9814  -1.9644  -1.9464  -1.9317  -1.9211
    -1.9038  -1.8929  -1.8832  -1.8752  -1.8598  -1.8382  -1.8336  -1.7900
    -1.7719  -1.7496  -1.7401  -1.7299  -1.7134  -1.7075  -1.6972  -1.6861
    -1.6761  -1.6730  -1.6495  -1.6221  -1.5869  -1.5818  -1.5521  -1.5284
    -1.4886  -1.4821  -1.4499  -1.4354  -1.4199  -1.4080  -1.4036  -1.3749
    -1.3416  -1.3309  -1.3004  -1.2696  -1.2077  -1.1908  -1.1761  -1.1561
    -1.1410  -1.1340  -1.1227  -1.0973  -1.0738  -1.0616  -1.0501  -1.0271
    -0.9851  -0.9709  -0.9562  -0.9396  -0.9242  -0.8818  -0.8755  -0.8567
    -0.8507  -0.8288  -0.8271  -0.8083  -0.7754  -0.7601  -0.7318  -0.5828
    -0.5694  -0.5620  -0.5522  -0.5411  -0.5344  -0.5264  -0.5147  -0.4838
    -0.4726  -0.4633  -0.4529  -0.4349  -0.4012  -0.3544  -0.3270  -0.3238
    -0.3091  -0.2990  -0.2840  -0.2739  -0.2401  -0.2278  -0.2234  -0.2111
    -0.2063  -0.1391  -0.1340  -0.1258  -0.1131  -0.1013  -0.0810  -0.0468
     0.1264   0.2492   0.4874   0.8816   1.0626   1.1623   1.2614   1.5069
     1.6568   1.7188

 ------ SPIN DOWN ----------


          k = 0.0000 0.0000 0.0000 ( 36693 PWs)   bands (ev):

   -21.9440  -9.3397  -7.8055  -6.5834  -5.7937  -5.6141  -5.4318  -5.0133
    -4.6509  -4.6408  -4.6387  -4.6058  -4.5966  -4.5778  -4.2170  -3.7700
    -3.7666  -3.7484  -3.7233  -3.7221  -3.6587  -3.3328  -2.8285  -2.8201
    -2.8071  -2.8018  -2.7207  -2.5992  -2.3567  -2.3483  -2.3423  -2.3392
    -2.3096  -2.2208  -2.1503  -2.1483  -2.0820  -2.0548  -2.0524  -2.0520
    -1.9677  -1.9641  -1.9165  -1.9150  -1.8350  -1.8250  -1.8080  -1.8034
    -1.7584  -1.7344  -1.5533  -1.5472  -1.5455  -1.5406  -1.5290  -1.5272
    -1.5118  -1.5112  -1.4818  -1.4714  -1.4400  -1.4358  -1.4320  -1.4290
    -1.3649  -1.2661  -0.8962  -0.8770  -0.8596  -0.8558  -0.8185  -0.7536
    -0.6653  -0.6430  -0.5565  -0.5463  -0.5363  -0.5300  -0.5181  -0.4989
    -0.4777  -0.4725  -0.4543  -0.4481  -0.4370  -0.4357  -0.3891  -0.3718
    -0.3591  -0.3330  -0.3266  -0.3051  -0.2985  -0.2925  -0.2847  -0.2749
    -0.2667  -0.2661  -0.2562  -0.2476  -0.2464  -0.2308  -0.2152  -0.1682
    -0.1574  -0.1273  -0.1026  -0.0521  -0.0441  -0.0299  -0.0261  -0.0175
    -0.0142  -0.0130  -0.0083   0.0585   0.0641   0.0652   0.1097   0.1407
     0.1463   0.1513   0.1651   0.2023   0.2969   0.3578   0.3867   0.4035
     0.4505   0.4590   0.4636   0.4719   0.6279   0.6811   0.7160   0.7923
     0.8010   0.8791   0.9236   1.0106   1.0221   1.0266   1.0338   1.0387
     1.1042   1.1247   1.1760   1.2023   1.2080   1.2119   1.2190   1.2445
     1.2566   1.2601   1.2686   1.2913   1.3043   1.3149   1.3286   1.3445
     1.3521   1.3625   1.3658   1.3736   1.3833   1.4226   1.4266   1.4314
     1.4456   1.4498   1.4650   1.4766   1.4882   1.4940   1.4998   1.5344
     1.5411   1.5548   1.5589   1.5601   1.5706   1.5761   1.5826   1.6203
     1.6255   1.6287   1.6311   1.6356   1.6400   1.6488   1.6614   1.6631
     1.6677   1.7113   1.7125   1.8550   1.8594   1.8623   1.8667   1.8682
     1.8712   2.0682

          k = 0.0000 0.2309 0.0000 ( 36641 PWs)   bands (ev):

   -21.9440  -9.3286  -7.6642  -6.4803  -5.8672  -5.6599  -5.5385  -5.3861
    -5.0460  -4.9949  -4.8804  -4.4244  -4.1848  -4.0857  -4.0678  -3.9414
    -3.8288  -3.7923  -3.4762  -3.4047  -3.3317  -3.2707  -2.9789  -2.8057
    -2.7729  -2.7500  -2.6827  -2.5968  -2.4598  -2.3830  -2.3767  -2.3671
    -2.3307  -2.2994  -2.2942  -2.2887  -2.2347  -2.1906  -2.1121  -2.1112
    -2.0230  -2.0202  -1.9695  -1.8591  -1.8407  -1.8260  -1.8046  -1.7110
    -1.6824  -1.6571  -1.6125  -1.5821  -1.5637  -1.5452  -1.5315  -1.5282
    -1.5066  -1.4987  -1.4231  -1.4025  -1.3949  -1.3726  -1.3417  -1.2976
    -1.2499  -1.1628  -0.9702  -0.9247  -0.9107  -0.9070  -0.8419  -0.7956
    -0.7718  -0.7229  -0.6878  -0.6563  -0.6359  -0.5868  -0.5615  -0.5508
    -0.5165  -0.5092  -0.4917  -0.4810  -0.4788  -0.4581  -0.4412  -0.3940
    -0.3471  -0.3281  -0.3231  -0.3168  -0.3085  -0.2781  -0.2609  -0.2570
    -0.2464  -0.2359  -0.2327  -0.2263  -0.2231  -0.2210  -0.1929  -0.1701
    -0.1474  -0.1402  -0.1212  -0.1137  -0.1060  -0.0950  -0.0617  -0.0432
    -0.0301  -0.0102   0.0239   0.0573   0.0834   0.1013   0.1155   0.1317
     0.2431   0.2619   0.2800   0.3274   0.3490   0.3652   0.3891   0.4177
     0.4256   0.4362   0.4427   0.4506   0.6058   0.6883   0.7257   0.7708
     0.7846   0.7923   0.8051   0.8188   0.8540   0.8896   0.9156   0.9567
     1.0142   1.0202   1.0374   1.0792   1.0894   1.1160   1.1343   1.1539
     1.1997   1.2202   1.2463   1.2511   1.2642   1.2806   1.3170   1.3249
     1.3395   1.3563   1.3976   1.4159   1.4326   1.4378   1.4676   1.4791
     1.5083   1.5181   1.5241   1.5306   1.5498   1.5945   1.6070   1.6150
     1.6203   1.6449   1.6525   1.6829   1.6927   1.6967   1.7046   1.7081
     1.7270   1.7712   1.7780   1.7920   1.7927   1.8029   1.8123   1.8296
     1.8473   1.8525   1.8593   1.8892   1.9468   1.9625   1.9660   2.0267
     2.0436   2.0994

          k = 0.0000 0.4619 0.0000 ( 36606 PWs)   bands (ev):

   -21.9440  -9.3110  -7.2447  -6.5751  -6.1982  -5.8479  -5.5809  -5.4065
    -5.2237  -5.1554  -5.0760  -4.7125  -4.1331  -4.0438  -3.8015  -3.4741
    -3.4646  -3.4005  -3.3425  -3.1595  -3.1081  -3.0216  -2.9869  -2.8698
    -2.8632  -2.7992  -2.7596  -2.6980  -2.6575  -2.6254  -2.6000  -2.5723
    -2.5432  -2.4516  -2.3410  -2.3233  -2.2481  -2.2245  -2.1311  -2.1257
    -2.1159  -2.0847  -2.0561  -1.8387  -1.8159  -1.8077  -1.7716  -1.7200
    -1.6112  -1.6033  -1.5890  -1.5719  -1.5655  -1.5380  -1.5333  -1.5028
    -1.4932  -1.4270  -1.4202  -1.4000  -1.3721  -1.3524  -1.2134  -1.1873
    -1.0803  -1.0489  -0.9717  -0.9504  -0.9311  -0.8941  -0.8769  -0.8666
    -0.8510  -0.8199  -0.7911  -0.7764  -0.7302  -0.7050  -0.6846  -0.6462
    -0.6276  -0.6122  -0.5882  -0.5735  -0.5408  -0.5044  -0.4768  -0.4123
    -0.4043  -0.3913  -0.3656  -0.3303  -0.3012  -0.2819  -0.2624  -0.2444
    -0.2197  -0.2140  -0.1993  -0.1781  -0.1745  -0.1658  -0.1440  -0.1259
    -0.1099  -0.0969  -0.0824  -0.0664  -0.0578  -0.0535  -0.0436  -0.0196
    -0.0046   0.0159   0.0687   0.1178   0.1364   0.1447   0.1567   0.1971
     0.2085   0.2135   0.2412   0.2783   0.2967   0.3105   0.3309   0.3389
     0.3865   0.3933   0.4043   0.4169   0.4566   0.5413   0.5765   0.5961
     0.6521   0.6658   0.7040   0.7664   0.8095   0.8439   0.8633   0.8836
     0.9050   0.9236   0.9445   0.9646   0.9874   1.0840   1.1410   1.1628
     1.1755   1.2023   1.2384   1.2410   1.2765   1.2929   1.3174   1.3349
     1.3668   1.3794   1.3893   1.4498   1.4742   1.4868   1.5247   1.5321
     1.5398   1.5447   1.5680   1.5792   1.6035   1.6162   1.6274   1.6552
     1.6639   1.6922   1.7542   1.7632   1.7839   1.7883   1.8007   1.8198
     1.8288   1.8538   1.8600   1.8710   1.8898   1.8926   1.9025   1.9084
     1.9507   2.0063   2.0477   2.1148   2.1396   2.2084   2.5403   2.6090
     2.6406   2.6883

          k = 0.2000-0.1155 0.0000 ( 36641 PWs)   bands (ev):

   -21.9440  -9.3295  -7.6637  -6.4790  -5.8514  -5.6705  -5.5447  -5.3793
    -5.0608  -4.9861  -4.8779  -4.4638  -4.1163  -4.0860  -4.0630  -3.9481
    -3.8715  -3.7765  -3.4608  -3.4044  -3.3869  -3.2635  -2.9409  -2.8136
    -2.7843  -2.7291  -2.6813  -2.6217  -2.4421  -2.3841  -2.3777  -2.3552
    -2.3336  -2.2954  -2.2931  -2.2827  -2.2324  -2.2034  -2.1132  -2.1111
    -2.0223  -2.0197  -1.9576  -1.8631  -1.8402  -1.8286  -1.8215  -1.7135
    -1.6800  -1.6603  -1.6091  -1.5834  -1.5664  -1.5407  -1.5324  -1.5275
    -1.5167  -1.4996  -1.4207  -1.4032  -1.3952  -1.3780  -1.3388  -1.2946
    -1.2510  -1.1555  -0.9727  -0.9348  -0.9100  -0.9064  -0.8425  -0.8020
    -0.7521  -0.7261  -0.6895  -0.6584  -0.6346  -0.5852  -0.5628  -0.5495
    -0.5222  -0.5081  -0.4931  -0.4892  -0.4782  -0.4559  -0.4262  -0.3884
    -0.3661  -0.3275  -0.3244  -0.3114  -0.3021  -0.2830  -0.2588  -0.2516
    -0.2453  -0.2395  -0.2338  -0.2270  -0.2234  -0.2218  -0.1932  -0.1687
    -0.1495  -0.1408  -0.1251  -0.1152  -0.1003  -0.0848  -0.0637  -0.0400
    -0.0359  -0.0103   0.0165   0.0543   0.0877   0.1003   0.1184   0.1309
     0.2392   0.2651   0.2760   0.3262   0.3576   0.3617   0.3989   0.4179
     0.4282   0.4359   0.4420   0.4481   0.6113   0.6753   0.7400   0.7706
     0.7834   0.7901   0.8031   0.8161   0.8699   0.8832   0.9169   0.9551
     1.0121   1.0193   1.0443   1.0644   1.0869   1.1061   1.1331   1.1782
     1.1971   1.2230   1.2420   1.2485   1.2685   1.2739   1.3169   1.3233
     1.3342   1.3666   1.3990   1.4127   1.4280   1.4396   1.4633   1.4725
     1.5033   1.5200   1.5209   1.5276   1.5537   1.6039   1.6076   1.6155
     1.6255   1.6471   1.6511   1.6822   1.6899   1.6985   1.7030   1.7063
     1.7278   1.7709   1.7764   1.7893   1.7926   1.8029   1.8106   1.8297
     1.8497   1.8541   1.8594   1.8973   1.9473   1.9632   1.9649   2.0217
     2.0461   2.1120

          k = 0.2000 0.1155 0.0000 ( 36641 PWs)   bands (ev):

   -21.9440  -9.3280  -7.6651  -6.4830  -5.8938  -5.6517  -5.4698  -5.4335
    -5.0362  -4.9927  -4.9035  -4.3640  -4.2132  -4.0872  -4.0678  -3.9735
    -3.8240  -3.7870  -3.4802  -3.4120  -3.3142  -3.2507  -2.9894  -2.8281
    -2.7779  -2.7303  -2.7048  -2.5708  -2.4656  -2.3835  -2.3752  -2.3575
    -2.3397  -2.3053  -2.2942  -2.2913  -2.2516  -2.1725  -2.1124  -2.1079
    -2.0228  -2.0213  -1.9681  -1.8682  -1.8330  -1.8239  -1.8038  -1.7058
    -1.6873  -1.6584  -1.6058  -1.5927  -1.5663  -1.5456  -1.5292  -1.5264
    -1.5219  -1.4714  -1.4420  -1.3991  -1.3901  -1.3743  -1.3387  -1.3004
    -1.2349  -1.1728  -0.9758  -0.9321  -0.9121  -0.9022  -0.8349  -0.8086
    -0.7938  -0.6916  -0.6822  -0.6682  -0.6413  -0.5870  -0.5694  -0.5451
    -0.5239  -0.5033  -0.4951  -0.4810  -0.4756  -0.4555  -0.4497  -0.3817
    -0.3527  -0.3308  -0.3250  -0.3153  -0.3009  -0.2657  -0.2620  -0.2552
    -0.2499  -0.2364  -0.2345  -0.2296  -0.2248  -0.2211  -0.1858  -0.1752
    -0.1511  -0.1402  -0.1212  -0.1173  -0.1071  -0.0848  -0.0652  -0.0507
    -0.0279  -0.0109   0.0330   0.0721   0.0770   0.0989   0.1069   0.1309
     0.2117   0.2796   0.3077   0.3229   0.3547   0.3714   0.3819   0.4127
     0.4266   0.4335   0.4463   0.4512   0.6444   0.6758   0.7068   0.7683
     0.7889   0.7897   0.8088   0.8205   0.8578   0.8926   0.9067   0.9609
     0.9724   1.0307   1.0545   1.0736   1.0844   1.1207   1.1383   1.1417
     1.1907   1.2325   1.2406   1.2585   1.2731   1.2792   1.3180   1.3223
     1.3356   1.3677   1.4025   1.4211   1.4283   1.4394   1.4618   1.4793
     1.5009   1.5201   1.5256   1.5379   1.5428   1.5928   1.5992   1.6126
     1.6257   1.6463   1.6498   1.6834   1.6933   1.7015   1.7032   1.7073
     1.7278   1.7714   1.7777   1.7892   1.7919   1.8032   1.8120   1.8277
     1.8494   1.8535   1.8586   1.8762   1.9461   1.9604   1.9661   2.0220
     2.0495   2.0940

          k = 0.2000 0.3464 0.0000 ( 36608 PWs)   bands (ev):

   -21.9440  -9.3133  -7.3852  -6.3179  -6.1225  -6.0139  -5.6876  -5.4681
    -5.4080  -4.9578  -4.7151  -4.4353  -4.2829  -4.2673  -3.9126  -3.4515
    -3.4382  -3.4325  -3.4080  -3.2631  -3.1672  -3.1303  -3.1201  -2.9285
    -2.7691  -2.6934  -2.6838  -2.6721  -2.5994  -2.5680  -2.5382  -2.4838
    -2.4742  -2.4652  -2.4393  -2.3440  -2.3234  -2.2473  -2.0921  -2.0804
    -2.0508  -1.9979  -1.9696  -1.9556  -1.9324  -1.8020  -1.7463  -1.7325
    -1.6277  -1.6059  -1.5716  -1.5645  -1.5590  -1.5427  -1.5282  -1.5057
    -1.4917  -1.4863  -1.4247  -1.3857  -1.3373  -1.2988  -1.2111  -1.1673
    -1.1152  -1.0668  -1.0015  -0.9584  -0.9032  -0.8736  -0.8671  -0.8416
    -0.8129  -0.7825  -0.7760  -0.7270  -0.7062  -0.6898  -0.6786  -0.6541
    -0.6404  -0.6194  -0.6010  -0.5730  -0.5513  -0.4799  -0.4351  -0.4177
    -0.4131  -0.3829  -0.3603  -0.3409  -0.3258  -0.3004  -0.2897  -0.2791
    -0.2668  -0.2410  -0.2365  -0.2169  -0.2081  -0.1863  -0.1637  -0.1431
    -0.1308  -0.1163  -0.1049  -0.0944  -0.0890  -0.0762  -0.0640  -0.0483
     0.0110   0.0416   0.0484   0.0588   0.1566   0.1709   0.1905   0.2222
     0.2421   0.2607   0.2901   0.2973   0.3309   0.3593   0.3743   0.3797
     0.3846   0.4245   0.4568   0.4748   0.5238   0.5986   0.6464   0.6782
     0.7357   0.7656   0.7974   0.8229   0.8314   0.8405   0.8543   0.8785
     0.8914   0.9074   0.9101   0.9337   0.9732   1.0349   1.0633   1.0921
     1.1203   1.1379   1.1509   1.1682   1.1909   1.2433   1.2511   1.2925
     1.3312   1.4127   1.4331   1.4808   1.4994   1.5074   1.5277   1.5461
     1.5590   1.5633   1.5831   1.5922   1.6495   1.6663   1.6693   1.6765
     1.6917   1.7151   1.7314   1.7467   1.7484   1.7674   1.7726   1.8016
     1.8081   1.8121   1.8246   1.8399   1.8501   1.8678   1.9010   1.9307
     1.9478   1.9610   2.0388   2.0724   2.1812   2.2124   2.2857   2.5038
     2.5296   2.5423

          k = 0.2000-0.5774 0.0000 ( 36660 PWs)   bands (ev):

   -21.9440  -9.3060  -6.8704  -6.7979  -6.2237  -6.0250  -5.8139  -5.5073
    -5.2504  -5.2223  -4.8606  -4.5114  -4.3139  -3.7444  -3.5310  -3.4707
    -3.4677  -3.3690  -3.2208  -3.1315  -3.0608  -3.0481  -3.0432  -2.9139
    -2.9081  -2.8925  -2.8734  -2.8602  -2.7279  -2.6542  -2.5313  -2.5134
    -2.5004  -2.4776  -2.4416  -2.4289  -2.3939  -2.3248  -2.1961  -2.0659
    -1.9822  -1.9746  -1.9580  -1.9198  -1.8842  -1.8000  -1.7367  -1.7200
    -1.6888  -1.6774  -1.6668  -1.5710  -1.5259  -1.5026  -1.4910  -1.4696
    -1.4422  -1.3863  -1.3496  -1.3280  -1.2891  -1.2640  -1.2534  -1.1493
    -1.1002  -1.0415  -0.9713  -0.9547  -0.9418  -0.8864  -0.8748  -0.8331
    -0.8169  -0.8010  -0.7639  -0.7573  -0.7465  -0.6938  -0.6878  -0.6638
    -0.6438  -0.6229  -0.6183  -0.6047  -0.5912  -0.5836  -0.5468  -0.5205
    -0.5128  -0.4721  -0.4468  -0.4349  -0.3999  -0.3749  -0.3432  -0.2939
    -0.2696  -0.2470  -0.2274  -0.2019  -0.1782  -0.1710  -0.1478  -0.1402
    -0.0980  -0.0815  -0.0693  -0.0501  -0.0277  -0.0170   0.0325   0.0637
     0.0997   0.1132   0.1213   0.1302   0.1469   0.1650   0.2009   0.2239
     0.2368   0.2480   0.2980   0.3072   0.3327   0.3534   0.3773   0.4001
     0.4080   0.4234   0.4486   0.4608   0.4764   0.4916   0.5083   0.5527
     0.5964   0.6590   0.7181   0.7359   0.7697   0.7924   0.8225   0.8299
     0.8541   0.8646   0.8833   0.9397   0.9877   1.0155   1.0397   1.0654
     1.0890   1.0994   1.1445   1.1724   1.1891   1.2113   1.2286   1.2842
     1.3783   1.4144   1.4410   1.4500   1.4966   1.5425   1.5788   1.5801
     1.5892   1.6030   1.6096   1.6220   1.6466   1.6723   1.6810   1.6919
     1.7340   1.7566   1.7631   1.7769   1.7789   1.7818   1.7925   1.7952
     1.8171   1.8430   1.8540   1.8825   1.8896   1.9083   1.9138   1.9338
     1.9942   2.0750   2.2149   2.3546   2.3895   2.6550   2.7121   2.7900
     2.8322   2.9316

          k = 0.2000-0.3464 0.0000 ( 36608 PWs)   bands (ev):

   -21.9440  -9.3158  -7.3813  -6.3182  -6.0723  -6.0315  -5.6773  -5.5461
    -5.3750  -4.9766  -4.6256  -4.5560  -4.2696  -4.2461  -3.8974  -3.4474
    -3.4395  -3.4330  -3.4163  -3.3059  -3.1538  -3.1418  -3.1124  -2.9095
    -2.7674  -2.6970  -2.6859  -2.6265  -2.6045  -2.5718  -2.5675  -2.4843
    -2.4779  -2.4650  -2.4283  -2.3261  -2.2872  -2.2410  -2.0929  -2.0893
    -2.0624  -2.0169  -1.9601  -1.9491  -1.9262  -1.8020  -1.7499  -1.7272
    -1.6590  -1.6055  -1.5737  -1.5676  -1.5574  -1.5436  -1.5352  -1.5144
    -1.4899  -1.4746  -1.4298  -1.4020  -1.3570  -1.2992  -1.2028  -1.1640
    -1.1053  -1.0764  -0.9992  -0.9267  -0.8972  -0.8748  -0.8671  -0.8358
    -0.8117  -0.7897  -0.7451  -0.7229  -0.7134  -0.6916  -0.6766  -0.6510
    -0.6411  -0.6317  -0.6058  -0.5940  -0.5118  -0.4844  -0.4423  -0.4281
    -0.4133  -0.4013  -0.3603  -0.3500  -0.3138  -0.3090  -0.2940  -0.2765
    -0.2656  -0.2541  -0.2364  -0.2170  -0.2017  -0.1836  -0.1537  -0.1404
    -0.1285  -0.1252  -0.1164  -0.0864  -0.0815  -0.0696  -0.0653  -0.0474
     0.0270   0.0373   0.0476   0.0860   0.1252   0.1602   0.1976   0.2267
     0.2401   0.2577   0.2905   0.3246   0.3487   0.3600   0.3717   0.3757
     0.3852   0.4131   0.4424   0.4673   0.5103   0.5769   0.6579   0.6859
     0.7421   0.7485   0.8034   0.8196   0.8309   0.8467   0.8643   0.8742
     0.8906   0.9063   0.9192   0.9283   0.9703   1.0303   1.0627   1.0830
     1.1171   1.1395   1.1515   1.1817   1.1951   1.2350   1.2556   1.3059
     1.3199   1.3906   1.4507   1.4790   1.4986   1.5175   1.5242   1.5425
     1.5536   1.5605   1.5844   1.5928   1.6562   1.6605   1.6689   1.6772
     1.7001   1.7212   1.7269   1.7439   1.7560   1.7631   1.7734   1.7970
     1.8081   1.8148   1.8232   1.8316   1.8477   1.8558   1.9047   1.9331
     1.9398   1.9938   2.0403   2.0662   2.1639   2.2079   2.3588   2.4490
     2.5220   2.5443

          k = 0.4000-0.2309 0.0000 ( 36606 PWs)   bands (ev):

   -21.9440  -9.3133  -7.2423  -6.5740  -6.1941  -5.8042  -5.6181  -5.4085
    -5.2386  -5.1545  -5.0842  -4.7017  -4.1140  -4.0330  -3.8502  -3.4740
    -3.4654  -3.4043  -3.3437  -3.1699  -3.0657  -3.0216  -3.0034  -2.8712
    -2.8642  -2.8015  -2.7530  -2.7194  -2.6431  -2.6254  -2.6182  -2.5596
    -2.5446  -2.3822  -2.3429  -2.3186  -2.2489  -2.2267  -2.1309  -2.1276
    -2.1118  -2.0884  -2.0541  -1.8381  -1.8210  -1.8063  -1.7789  -1.7601
    -1.6075  -1.6013  -1.5897  -1.5725  -1.5620  -1.5382  -1.5343  -1.5083
    -1.4995  -1.4263  -1.4218  -1.4008  -1.3850  -1.3614  -1.2139  -1.1847
    -1.0826  -1.0460  -0.9597  -0.9341  -0.9237  -0.8910  -0.8766  -0.8649
    -0.8519  -0.8242  -0.7978  -0.7779  -0.7323  -0.7003  -0.6791  -0.6410
    -0.6294  -0.6130  -0.5883  -0.5802  -0.5450  -0.5232  -0.4746  -0.4072
    -0.3987  -0.3819  -0.3643  -0.3368  -0.3105  -0.2951  -0.2675  -0.2429
    -0.2157  -0.2114  -0.2009  -0.1855  -0.1721  -0.1674  -0.1312  -0.1274
    -0.1070  -0.0945  -0.0836  -0.0678  -0.0610  -0.0514  -0.0406  -0.0151
    -0.0066   0.0207   0.0736   0.1046   0.1338   0.1397   0.1546   0.1988
     0.2042   0.2149   0.2410   0.2740   0.2961   0.3124   0.3323   0.3385
     0.3800   0.4008   0.4075   0.4186   0.4570   0.5423   0.5804   0.5948
     0.6603   0.6833   0.7060   0.7614   0.8174   0.8418   0.8637   0.8831
     0.9094   0.9227   0.9289   0.9660   0.9861   1.0585   1.1641   1.1692
     1.1796   1.1959   1.2293   1.2398   1.2720   1.3009   1.3178   1.3413
     1.3617   1.3756   1.3886   1.4498   1.4705   1.4805   1.5209   1.5345
     1.5459   1.5515   1.5663   1.5806   1.6037   1.6193   1.6256   1.6553
     1.6630   1.7159   1.7492   1.7668   1.7797   1.7918   1.8018   1.8239
     1.8253   1.8539   1.8573   1.8703   1.8873   1.8953   1.9019   1.9079
     1.9503   2.0081   2.0598   2.1131   2.1161   2.1943   2.5369   2.6090
     2.6465   2.6949

          k = 0.4000 0.0000 0.0000 ( 36608 PWs)   bands (ev):

   -21.9440  -9.3147  -7.3839  -6.3184  -6.1047  -6.0185  -5.6859  -5.4934
    -5.3909  -4.9840  -4.6713  -4.4771  -4.2678  -4.2652  -3.9040  -3.4473
    -3.4361  -3.4328  -3.4243  -3.2897  -3.1610  -3.1381  -3.1158  -2.9180
    -2.7687  -2.6894  -2.6846  -2.6538  -2.5928  -2.5733  -2.5637  -2.4841
    -2.4752  -2.4638  -2.4282  -2.3252  -2.2910  -2.2467  -2.0940  -2.0805
    -2.0634  -2.0013  -1.9786  -1.9551  -1.9299  -1.8012  -1.7457  -1.7379
    -1.6335  -1.6208  -1.5724  -1.5684  -1.5568  -1.5423  -1.5287  -1.5105
    -1.4887  -1.4797  -1.4310  -1.3875  -1.3531  -1.3079  -1.2007  -1.1693
    -1.1088  -1.0735  -0.9966  -0.9537  -0.8996  -0.8739  -0.8674  -0.8411
    -0.8158  -0.7805  -0.7635  -0.7299  -0.7016  -0.6904  -0.6761  -0.6541
    -0.6389  -0.6203  -0.6067  -0.5774  -0.5453  -0.4688  -0.4448  -0.4285
    -0.4134  -0.3863  -0.3626  -0.3487  -0.3211  -0.3029  -0.2900  -0.2825
    -0.2612  -0.2498  -0.2364  -0.2148  -0.2040  -0.1898  -0.1661  -0.1392
    -0.1217  -0.1138  -0.1103  -0.0922  -0.0842  -0.0788  -0.0614  -0.0479
     0.0308   0.0374   0.0427   0.0638   0.1530   0.1717   0.1940   0.2236
     0.2399   0.2800   0.2917   0.3038   0.3390   0.3606   0.3709   0.3793
     0.3843   0.4152   0.4422   0.4742   0.5192   0.5953   0.6426   0.6806
     0.7314   0.7631   0.7980   0.8198   0.8291   0.8422   0.8588   0.8772
     0.8866   0.9026   0.9165   0.9341   0.9736   1.0313   1.0648   1.0945
     1.1153   1.1395   1.1517   1.1771   1.1883   1.2379   1.2559   1.2970
     1.3329   1.3974   1.4337   1.4843   1.5011   1.5138   1.5229   1.5399
     1.5590   1.5607   1.5860   1.5920   1.6494   1.6650   1.6701   1.6734
     1.6897   1.7204   1.7318   1.7462   1.7529   1.7678   1.7764   1.7965
     1.8077   1.8151   1.8233   1.8323   1.8473   1.8595   1.9030   1.9325
     1.9406   1.9840   2.0331   2.0703   2.1722   2.2110   2.3300   2.4854
     2.5279   2.5407

          k = 0.4000 0.2309 0.0000 ( 36606 PWs)   bands (ev):

   -21.9440  -9.3093  -7.2489  -6.5813  -6.2052  -5.8841  -5.4965  -5.4327
    -5.2219  -5.1606  -5.0704  -4.6994  -4.1243  -4.0903  -3.7612  -3.4724
[...]
     atom    8 type  1   force =    -0.00049187   -0.00209565   -0.10442490
     atom    9 type  1   force =    -0.00103227    0.00084235   -0.10373610
     atom   10 type  1   force =     0.00000451   -0.00139621   -0.01540896
     atom   11 type  1   force =     0.00053915   -0.00219967   -0.00981834
     atom   12 type  1   force =    -0.00047137    0.00138771   -0.01217268
     atom   13 type  1   force =    -0.00062911    0.00257830   -0.01133930
     atom   14 type  1   force =     0.00152340    0.00075747   -0.00598299
     atom   15 type  1   force =    -0.00119077    0.00030218   -0.01140853
     atom   16 type  1   force =     0.00048868   -0.00135342   -0.01184759
     atom   17 type  1   force =     0.00024020    0.00027463   -0.01044276
     atom   18 type  1   force =    -0.00063295   -0.00069265   -0.01332789
     atom   19 type  1   force =    -0.00315158   -0.00373341    0.00631838
     atom   20 type  1   force =    -0.00460912   -0.00095651    0.00068033
     atom   21 type  1   force =     0.00836809   -0.00702076   -0.00177603
     atom   22 type  1   force =     0.00091675    0.00405452    0.00750025
     atom   23 type  1   force =    -0.00395677    0.00858054   -0.00089240
     atom   24 type  1   force =     0.00231163   -0.00176672    0.01260483
     atom   25 type  1   force =     0.00011957    0.00043180    0.01824087
     atom   26 type  1   force =    -0.00654179    0.00173924   -0.00300282
     atom   27 type  1   force =     0.00552535   -0.00092788    0.00795493
     atom   28 type  1   force =     0.00188988    0.00214190    0.12099678
     atom   29 type  1   force =     0.00395338    0.05120971    0.10234868
     atom   30 type  1   force =    -0.00593505    0.00581605    0.12697498
     atom   31 type  1   force =     0.04372141   -0.02277500    0.11677926
     atom   32 type  1   force =    -0.05282254   -0.03469396    0.05393101
     atom   33 type  1   force =    -0.02258908    0.01395636    0.12234950
     atom   34 type  1   force =     0.01134892   -0.01245897    0.13487343
     atom   35 type  1   force =     0.00478281    0.01020103    0.06593143
     atom   36 type  1   force =    -0.00081715   -0.00236674    0.10871756
     atom   37 type  2   force =    -0.07068583   -0.00166972    0.40020931
     atom   38 type  3   force =     0.22046920    0.04761488   -2.68295869
     atom   39 type  4   force =    -0.00279478    0.00092159   -0.02323884
     The ionic contribution  to forces
     atom    1 type  1   force =    -0.00717058   -0.00048554 -111.15759910
     atom    2 type  1   force =    -0.00211802   -0.00083670 -111.17627225
     atom    3 type  1   force =     0.00928860   -0.00205867 -111.16182612
     atom    4 type  1   force =    -0.00493763    0.00739354 -111.15772451
     atom    5 type  1   force =     0.00252454    0.00847039 -111.16255095
     atom    6 type  1   force =     0.00241304    0.00060272 -111.15274355
     atom    7 type  1   force =    -0.00028231    0.00024567 -111.14980784
     atom    8 type  1   force =    -0.00433393   -0.00536620 -111.15895546
     atom    9 type  1   force =     0.00461627   -0.00796520 -111.15839790
     atom   10 type  1   force =    -0.04372739   -0.02006398  -40.09108255
     atom   11 type  1   force =    -0.00441136   -0.06609798  -40.18884308
     atom   12 type  1   force =     0.04813427   -0.03762672  -40.09958423
     atom   13 type  1   force =    -0.06374476    0.03095587  -40.18141525
     atom   14 type  1   force =     0.04570269    0.02521682  -40.21760494
     atom   15 type  1   force =     0.01803728    0.00369790  -40.09172052
     atom   16 type  1   force =    -0.01335759    0.05886811  -40.10134234
     atom   17 type  1   force =     0.01341918    0.00929491  -40.10116123
     atom   18 type  1   force =    -0.00005242   -0.00424479  -40.07433773
     atom   19 type  1   force =    -0.35653914   -0.01945910   31.45845434
     atom   20 type  1   force =    -0.10615637   -0.03527626   30.40829236
     atom   21 type  1   force =     0.46205148   -0.11447877   31.26273794
     atom   22 type  1   force =    -0.23649053    0.35693021   31.45599808
     atom   23 type  1   force =     0.10597516    0.42677864   31.20676382
     atom   24 type  1   force =     0.12808225    0.03423940   31.64550371
     atom   25 type  1   force =    -0.01161655    0.01169473   31.78313362
     atom   26 type  1   force =    -0.21104314   -0.26987052   31.40254185
     atom   27 type  1   force =     0.22316755   -0.38938570   31.41886566
     atom   28 type  1   force =    -1.48827960   -0.72618680  104.08008752
     atom   29 type  1   force =    -0.26256082   -4.68092893   99.87155411
     atom   30 type  1   force =     1.67096431   -1.20123885  103.94471044
     atom   31 type  1   force =    -3.98817280    2.16164152  100.41549994
     atom   32 type  1   force =     3.08726904    1.61321584   98.73341895
     atom   33 type  1   force =     0.83442740   -0.12184809  104.12570787
     atom   34 type  1   force =    -0.44067020    1.96500975  103.95756345
     atom   35 type  1   force =     0.59084180    1.11900348  103.55528204
     atom   36 type  1   force =     0.00801932   -0.12499652  104.49859262
     atom   37 type  2   force =     0.45073209    0.02759798   51.19757215
     atom   38 type  3   force =    -0.94655295   -0.26983025   90.02289245
     atom   39 type  4   force =     0.48655181    0.23738810   15.13779664
     The local contribution  to forces
     atom    1 type  1   force =     0.00858815    0.00091752  111.26296645
     atom    2 type  1   force =     0.00208309    0.00018804  111.28704992
     atom    3 type  1   force =    -0.01038944    0.00277540  111.27075470
     atom    4 type  1   force =     0.00357419   -0.00741121  111.26542726
     atom    5 type  1   force =    -0.00195973   -0.01051030  111.27213424
     atom    6 type  1   force =    -0.00137972    0.00018220  111.25696215
     atom    7 type  1   force =    -0.00118101   -0.00016233  111.25309442
     atom    8 type  1   force =     0.00582554    0.00670108  111.26678902
     atom    9 type  1   force =    -0.00440284    0.00683554  111.26422658
     atom   10 type  1   force =     0.04427051    0.02102285   40.08996751
     atom   11 type  1   force =     0.00300518    0.06626642   40.17971759
     atom   12 type  1   force =    -0.04733154    0.03551012   40.09510214
     atom   13 type  1   force =     0.06226636   -0.03291889   40.17380197
     atom   14 type  1   force =    -0.04575812   -0.02496586   40.20482543
     atom   15 type  1   force =    -0.01630622   -0.00451812   40.08263411
     atom   16 type  1   force =     0.01320180   -0.05702877   40.09637215
     atom   17 type  1   force =    -0.01356770   -0.00878666   40.09067988
     atom   18 type  1   force =     0.00138876    0.00522667   40.06644695
     atom   19 type  1   force =     0.35666310    0.02135330  -31.44574744
     atom   20 type  1   force =     0.11200710    0.03634347  -30.39295386
     atom   21 type  1   force =    -0.46864552    0.11749903  -31.24781219
     atom   22 type  1   force =     0.23650219   -0.35763054  -31.44557396
     atom   23 type  1   force =    -0.10440854   -0.43278361  -31.19401814
     atom   24 type  1   force =    -0.12945561   -0.03172828  -31.63443166
     atom   25 type  1   force =     0.01084842   -0.01246414  -31.77501058
     atom   26 type  1   force =     0.21451262    0.26817439  -31.38522530
     atom   27 type  1   force =    -0.22472054    0.38981951  -31.41028665
     atom   28 type  1   force =     1.48242467    0.72263266 -104.20930461
     atom   29 type  1   force =     0.25635687    4.61265962  -99.97181574
     atom   30 type  1   force =    -1.65857175    1.18668635 -104.08071722
     atom   31 type  1   force =     3.93176860   -2.13337102 -100.53051025
     atom   32 type  1   force =    -3.03395018   -1.57911825  -98.77719448
     atom   33 type  1   force =    -0.80880637    0.10724276 -104.25186758
     atom   34 type  1   force =     0.42255684   -1.94254840 -104.10112361
     atom   35 type  1   force =    -0.59048117   -1.11274246 -103.63055518
     atom   36 type  1   force =    -0.00528983    0.12904643 -104.61710584
     atom   37 type  2   force =    -0.38158306   -0.02604175  -51.59642617
     atom   38 type  3   force =     0.72743167    0.22350990  -87.35927380
     atom   39 type  4   force =    -0.47345975   -0.24312233  -15.11369044
     The core correction contribution to forces
     atom    1 type  1   force =    -0.00001668    0.00008246    0.01019824
     atom    2 type  1   force =     0.00032331    0.00002726    0.00900895
     atom    3 type  1   force =    -0.00005240   -0.00001225    0.01042771
     atom    4 type  1   force =    -0.00012403   -0.00009887    0.01013842
     atom    5 type  1   force =    -0.00017523   -0.00001349    0.01040867
     atom    6 type  1   force =     0.00011238    0.00013331    0.01012422
     atom    7 type  1   force =     0.00008550    0.00009668    0.01049190
     atom    8 type  1   force =    -0.00015776   -0.00010014    0.01024628
     atom    9 type  1   force =    -0.00003427   -0.00005753    0.01013059
     atom   10 type  1   force =    -0.00015994   -0.00003186   -0.00186041
     atom   11 type  1   force =    -0.00003907   -0.00016697   -0.00194957
     atom   12 type  1   force =     0.00020415   -0.00041195   -0.00179039
     atom   13 type  1   force =    -0.00020200   -0.00007144   -0.00196946
     atom   14 type  1   force =     0.00024329    0.00017166   -0.00179811
     atom   15 type  1   force =     0.00008932    0.00011489   -0.00184605
     atom   16 type  1   force =    -0.00007217    0.00032239   -0.00165468
     atom   17 type  1   force =     0.00010711   -0.00022082   -0.00194719
     atom   18 type  1   force =     0.00004252    0.00013954   -0.00159565
     atom   19 type  1   force =     0.00003914   -0.00063614    0.00152823
     atom   20 type  1   force =    -0.00091950   -0.00071288    0.00132792
     atom   21 type  1   force =     0.00096354   -0.00091065    0.00059164
     atom   22 type  1   force =    -0.00010828    0.00083825    0.00128456
     atom   23 type  1   force =     0.00001131    0.00102388    0.00094488
     atom   24 type  1   force =     0.00031035    0.00035569    0.00220850
     atom   25 type  1   force =    -0.00001026    0.00007630    0.00191001
     atom   26 type  1   force =    -0.00038739    0.00067114    0.00112807
     atom   27 type  1   force =     0.00081095   -0.00044814    0.00133601
     atom   28 type  1   force =     0.00208592    0.00069432   -0.00938903
     atom   29 type  1   force =     0.00078786    0.00949854   -0.00536327
     atom   30 type  1   force =    -0.00314303    0.00269848   -0.00864210
     atom   31 type  1   force =     0.00754397   -0.00415430   -0.00518660
     atom   32 type  1   force =    -0.00246717    0.00123260    0.00040520
     atom   33 type  1   force =    -0.00629306    0.00351921   -0.00718772
     atom   34 type  1   force =     0.00335242   -0.00409099   -0.00751770
     atom   35 type  1   force =    -0.00285279   -0.01042697   -0.00507107
     atom   36 type  1   force =    -0.00128706   -0.00009633   -0.01047737
     atom   37 type  2   force =     0.00091139    0.00005275   -0.00177915
     atom   38 type  3   force =    -0.00159871   -0.00035986    0.01969751
     atom   39 type  4   force =     0.00000000    0.00000000    0.00000000
     The Hubbard contrib.    to forces
     atom    1 type  1   force =     0.00000000    0.00000000    0.00000000
     atom    2 type  1   force =     0.00000000    0.00000000    0.00000000
     atom    3 type  1   force =     0.00000000    0.00000000    0.00000000
     atom    4 type  1   force =     0.00000000    0.00000000    0.00000000
     atom    5 type  1   force =     0.00000000    0.00000000    0.00000000
     atom    6 type  1   force =     0.00000000    0.00000000    0.00000000
     atom    7 type  1   force =     0.00000000    0.00000000    0.00000000
     atom    8 type  1   force =     0.00000000    0.00000000    0.00000000
     atom    9 type  1   force =     0.00000000    0.00000000    0.00000000
     atom   10 type  1   force =     0.00000000    0.00000000    0.00000000
     atom   11 type  1   force =     0.00000000    0.00000000    0.00000000
     atom   12 type  1   force =     0.00000000    0.00000000    0.00000000
     atom   13 type  1   force =     0.00000000    0.00000000    0.00000000
     atom   14 type  1   force =     0.00000000    0.00000000    0.00000000
     atom   15 type  1   force =     0.00000000    0.00000000    0.00000000
     atom   16 type  1   force =     0.00000000    0.00000000    0.00000000
     atom   17 type  1   force =     0.00000000    0.00000000    0.00000000
     atom   18 type  1   force =     0.00000000    0.00000000    0.00000000
     atom   19 type  1   force =     0.00000000    0.00000000    0.00000000
     atom   20 type  1   force =     0.00000000    0.00000000    0.00000000
     atom   21 type  1   force =     0.00000000    0.00000000    0.00000000
     atom   22 type  1   force =     0.00000000    0.00000000    0.00000000
     atom   23 type  1   force =     0.00000000    0.00000000    0.00000000
     atom   24 type  1   force =     0.00000000    0.00000000    0.00000000
     atom   25 type  1   force =     0.00000000    0.00000000    0.00000000
     atom   26 type  1   force =     0.00000000    0.00000000    0.00000000
     atom   27 type  1   force =     0.00000000    0.00000000    0.00000000
     atom   28 type  1   force =     0.00000000    0.00000000    0.00000000
     atom   29 type  1   force =     0.00000000    0.00000000    0.00000000
     atom   30 type  1   force =     0.00000000    0.00000000    0.00000000
     atom   31 type  1   force =     0.00000000    0.00000000    0.00000000
     atom   32 type  1   force =     0.00000000    0.00000000    0.00000000
     atom   33 type  1   force =     0.00000000    0.00000000    0.00000000
     atom   34 type  1   force =     0.00000000    0.00000000    0.00000000
     atom   35 type  1   force =     0.00000000    0.00000000    0.00000000
     atom   36 type  1   force =     0.00000000    0.00000000    0.00000000
     atom   37 type  2   force =     0.00000000    0.00000000    0.00000000
     atom   38 type  3   force =     0.00000000    0.00000000    0.00000000
     atom   39 type  4   force =     0.00000000    0.00000000    0.00000000
     The SCF correction term to forces
     atom    1 type  1   force =     0.00000000   -0.00000000   -0.00000000
     atom    2 type  1   force =    -0.00000000    0.00000000   -0.00000000
     atom    3 type  1   force =    -0.00000000    0.00000000   -0.00000000
     atom    4 type  1   force =     0.00000000   -0.00000000   -0.00000000
     atom    5 type  1   force =    -0.00000000   -0.00000000   -0.00000000
     atom    6 type  1   force =    -0.00000000   -0.00000000   -0.00000000
     atom    7 type  1   force =     0.00000000   -0.00000000   -0.00000000
     atom    8 type  1   force =    -0.00000000    0.00000000   -0.00000000
     atom    9 type  1   force =     0.00000000    0.00000000   -0.00000000
     atom   10 type  1   force =    -0.00000000   -0.00000000   -0.00000000
     atom   11 type  1   force =    -0.00000000    0.00000000   -0.00000000
     atom   12 type  1   force =     0.00000000    0.00000000   -0.00000000
     atom   13 type  1   force =     0.00000000   -0.00000000   -0.00000000
     atom   14 type  1   force =    -0.00000000    0.00000000   -0.00000000
     atom   15 type  1   force =    -0.00000000   -0.00000000   -0.00000000
     atom   16 type  1   force =     0.00000000   -0.00000000   -0.00000000
     atom   17 type  1   force =    -0.00000000   -0.00000000   -0.00000000
     atom   18 type  1   force =     0.00000000   -0.00000000   -0.00000000
     atom   19 type  1   force =     0.00000000   -0.00000000   -0.00000000
     atom   20 type  1   force =     0.00000000    0.00000000   -0.00000000
     atom   21 type  1   force =    -0.00000000   -0.00000000   -0.00000000
     atom   22 type  1   force =     0.00000000   -0.00000000   -0.00000000
     atom   23 type  1   force =    -0.00000000   -0.00000000   -0.00000000
     atom   24 type  1   force =    -0.00000000   -0.00000000   -0.00000000
     atom   25 type  1   force =     0.00000000    0.00000000   -0.00000000
     atom   26 type  1   force =    -0.00000000    0.00000000   -0.00000000
     atom   27 type  1   force =     0.00000000    0.00000000   -0.00000000
     atom   28 type  1   force =    -0.00000000   -0.00000000   -0.00000000
     atom   29 type  1   force =     0.00000000    0.00000000   -0.00000000
     atom   30 type  1   force =     0.00000000    0.00000000   -0.00000000
     atom   31 type  1   force =     0.00000000   -0.00000000   -0.00000000
     atom   32 type  1   force =    -0.00000000   -0.00000000   -0.00000000
     atom   33 type  1   force =    -0.00000000   -0.00000000   -0.00000000
     atom   34 type  1   force =     0.00000000    0.00000000   -0.00000000
     atom   35 type  1   force =    -0.00000000    0.00000000   -0.00000000
     atom   36 type  1   force =     0.00000000    0.00000000    0.00000000
     atom   37 type  2   force =     0.00012211    0.00002555   -0.00013730
     atom   38 type  3   force =     0.00003647    0.00000199   -0.00036934
     atom   39 type  4   force =    -0.00004475   -0.00004589   -0.00002986

     Total force =     0.011453     Total SCF correction =     0.000421

     Writing all to output data dir ./pwscf.save/

     init_run     :     10.25s CPU     10.64s WALL (       1 calls)
     electrons    :    469.60s CPU    487.41s WALL (       1 calls)
     forces       :      2.97s CPU      3.01s WALL (       1 calls)

     Called by init_run:
     wfcinit      :      7.03s CPU      7.30s WALL (       1 calls)
     potinit      :      2.14s CPU      2.22s WALL (       1 calls)
     hinit0       :      0.84s CPU      0.85s WALL (       1 calls)

     Called by electrons:
     c_bands      :    398.42s CPU    413.50s WALL (      36 calls)
     sum_band     :     47.93s CPU     50.12s WALL (      36 calls)
     v_of_rho     :      6.06s CPU      6.16s WALL (      37 calls)
     newd         :      1.93s CPU      1.96s WALL (      37 calls)
     PAW_pot      :      9.19s CPU      9.29s WALL (      37 calls)
     mix_rho      :      7.48s CPU      7.63s WALL (      36 calls)
     vdW_kernel   :      1.08s CPU      1.09s WALL (       1 calls)

     Called by c_bands:
     init_us_2    :      4.59s CPU      4.68s WALL (    1924 calls)
     init_us_2:cp :      4.58s CPU      4.68s WALL (    1924 calls)
     cegterg      :    386.71s CPU    401.47s WALL (     936 calls)

     Called by *egterg:
     cdiaghg      :    146.32s CPU    153.31s WALL (    3358 calls)
     h_psi        :    168.49s CPU    175.36s WALL (    3384 calls)
     s_psi        :     20.34s CPU     20.71s WALL (    3384 calls)
     g_psi        :      0.40s CPU      0.41s WALL (    2422 calls)

     Called by h_psi:
     h_psi:calbec :     26.78s CPU     27.90s WALL (    3384 calls)
     vloc_psi     :    119.35s CPU    123.90s WALL (    3384 calls)
     add_vuspsi   :     21.30s CPU     22.50s WALL (    3384 calls)

     General routines
     calbec       :     39.50s CPU     41.33s WALL (    4424 calls)
     fft          :      3.45s CPU      3.53s WALL (    3370 calls)
     ffts         :      4.99s CPU      5.09s WALL (   12447 calls)
     fftw         :    135.61s CPU    141.14s WALL (  981738 calls)
     interpolate  :      0.47s CPU      0.48s WALL (      74 calls)

     Parallel routines

     PWSCF        :   8m 7.87s CPU   8m31.53s WALL


   This run was terminated on:  16: 4:29  20Nov2025            

=------------------------------------------------------------------------------=
   JOB DONE.
=------------------------------------------------------------------------------=
