
     Program PWSCF v.7.1 starts on  9Nov2025 at 13: 5:15 
        Git branch: heads/qe-7.1
        Last git commit: 48ba0178f8fede6d020eb786884699a9f063f55d-dirty
        Last git commit date: Fri Jan 27 14:22:33 2023 +0000
        Last git commit subject: Merge branch 'fix_hubbard' into 'develop'

     This program is part of the open-source Quantum ESPRESSO suite
     for quantum simulation of materials; please cite
         "P. Giannozzi et al., J. Phys.:Condens. Matter 21 395502 (2009);
         "P. Giannozzi et al., J. Phys.:Condens. Matter 29 465901 (2017);
         "P. Giannozzi et al., J. Chem. Phys. 152 154105 (2020);
          URL http://www.quantum-espresso.org", 
     in publications or presentations arising from this work. More details at
     http://www.quantum-espresso.org/quote

     Parallel version (MPI), running on    48 processors

     MPI processes distributed on     1 nodes
     89521 MiB available memory on the printing compute node when the environment starts

     Reading input from espresso.pwi
Warning: card &CELL ignored
Warning: card / ignored
Warning: card &FCP ignored
Warning: card / ignored
Warning: card &RISM ignored
Warning: card / ignored

     Current dimensions of program PWSCF are:
     Max number of different atomic species (ntypx) = 10
     Max number of k-points (npk) =  40000
     Max angular momentum in pseudopotentials (lmaxx) =  4
     file Pt.pbe-n-kjpaw_psl.1.0.0.UPF: wavefunction(s)  6S 5D renormalized
     file C.pbe-n-kjpaw_psl.1.0.0.UPF: wavefunction(s)  2S 2P renormalized
     file H.pbe-kjpaw_psl.1.0.0.UPF: wavefunction(s)  1S renormalized

     **************************************************************************
     Initializing libbeef V0.1.2 with the BEEF-vdW functional.
     Citation: Wellendorff et al., PRB 85, 235149 (2012).
     **************************************************************************


     IMPORTANT: XC functional enforced from input :
     Exchange-correlation= BEEF-VDW
                           (   1   4  43  14   2   0   0)
     Any further DFT definition will be discarded
     Please, verify this is what you really want


     R & G space division:  proc/nbgrp/npool/nimage =      48
     Subspace diagonalization in iterative solution of the eigenvalue problem:
     one sub-group per band group will be used
     custom distributed-memory algorithm (size of sub-group:  2*  2 procs)


     Parallelization info
     --------------------
     sticks:   dense  smooth     PW     G-vecs:    dense   smooth      PW
     Min         151      59     16                29407     7165    1028
     Max         152      60     17                29420     7176    1042
     Sum        7267    2839    769              1411785   344073   49691

     Using Slab Decomposition



     bravais-lattice index     =            0
     lattice parameter (alat)  =      16.0349  a.u.
     unit-cell volume          =   10068.6169 (a.u.)^3
     number of atoms/cell      =           38
     number of atomic types    =            3
     number of electrons       =       365.00
     number of Kohn-Sham states=          220
     kinetic-energy cutoff     =      40.0000  Ry
     charge density cutoff     =     410.0000  Ry
     scf convergence threshold =      1.0E-08
     mixing beta               =       0.7000
     number of iterations used =            8  local-TF  mixing
     Exchange-correlation= BEEF-VDW
                           (   1   4  43  14   2   0   0)

     celldm(1)=  16.034858  celldm(2)=   0.000000  celldm(3)=   0.000000
     celldm(4)=   0.000000  celldm(5)=   0.000000  celldm(6)=   0.000000

     crystal axes: (cart. coord. in units of alat)
               a(1) = (   1.000000   0.000000   0.000000 )  
               a(2) = (   0.500000   0.866025   0.000000 )  
               a(3) = (   0.000000   0.000000   2.819966 )  

     reciprocal axes: (cart. coord. in units 2 pi/alat)
               b(1) = (  1.000000 -0.577350  0.000000 )  
               b(2) = (  0.000000  1.154701  0.000000 )  
               b(3) = (  0.000000  0.000000  0.354614 )  


     PseudoPot. # 1 for Pt read from file:
     /users/kbadger1/espresso/pseudo/pslibrary.1.0.0/pbe/PSEUDOPOTENTIALS/Pt.pbe-n-kjpaw_psl.1.0.0.UPF
     MD5 check sum: 2e24a0b5bf98a4ed1a57fa81bca8c143
     Pseudo is Projector augmented-wave + core cor, Zval = 10.0
     Generated using 'atomic' code by A. Dal Corso  v.7.0
     Shape of augmentation charge: PSQ
     Using radial grid of 1277 points,  6 beta functions with: 
                l(1) =   0
                l(2) =   0
                l(3) =   1
                l(4) =   1
                l(5) =   2
                l(6) =   2
     Q(r) pseudized with 0 coefficients 


     PseudoPot. # 2 for C  read from file:
     /users/kbadger1/espresso/pseudo/pslibrary.1.0.0/pbe/PSEUDOPOTENTIALS/C.pbe-n-kjpaw_psl.1.0.0.UPF
     MD5 check sum: 6408e75cdba28732cea38a4db8498ce4
     Pseudo is Projector augmented-wave + core cor, Zval =  4.0
     Generated using 'atomic' code by A. Dal Corso  v.7.0
     Shape of augmentation charge: PSQ
     Using radial grid of 1073 points,  4 beta functions with: 
                l(1) =   0
                l(2) =   0
                l(3) =   1
                l(4) =   1
     Q(r) pseudized with 0 coefficients 


     PseudoPot. # 3 for H  read from file:
     /users/kbadger1/espresso/pseudo/pslibrary.1.0.0/pbe/PSEUDOPOTENTIALS/H.pbe-kjpaw_psl.1.0.0.UPF
     MD5 check sum: fe4c6fa958fa6d3815bf5d2419cbf1df
     Pseudo is Projector augmented-wave, Zval =  1.0
     Generated using 'atomic' code by A. Dal Corso  v.7.0
     Shape of augmentation charge: PSQ
     Using radial grid of  929 points,  2 beta functions with: 
                l(1) =   0
                l(2) =   0
     Q(r) pseudized with 0 coefficients 


     atomic species   valence    mass     pseudopotential
        Pt            10.00   195.08400     Pt( 1.00)
        C              4.00    12.01100     C ( 1.00)
        H              1.00     1.00800     H ( 1.00)

     No symmetry found



   Cartesian axes

     site n.     atom                  positions (alat units)
         1           Pt  tau(   1) = (   0.0000000   0.0000000   1.0017346  )
         2           Pt  tau(   2) = (   0.3333333   0.0000000   1.0017346  )
         3           Pt  tau(   3) = (   0.6666667   0.0000000   1.0017346  )
         4           Pt  tau(   4) = (   0.1666667   0.2886751   1.0017346  )
         5           Pt  tau(   5) = (   0.5000000   0.2886751   1.0017346  )
         6           Pt  tau(   6) = (   0.8333333   0.2886751   1.0017346  )
         7           Pt  tau(   7) = (   0.3333333   0.5773503   1.0017346  )
         8           Pt  tau(   8) = (   0.6666667   0.5773503   1.0017346  )
         9           Pt  tau(   9) = (   1.0000000   0.5773503   1.0017346  )
        10           Pt  tau(  10) = (   0.1666667   0.0962250   1.2739001  )
        11           Pt  tau(  11) = (   0.5000000   0.0962250   1.2739001  )
        12           Pt  tau(  12) = (   0.8333333   0.0962250   1.2739001  )
        13           Pt  tau(  13) = (   0.3333333   0.3849002   1.2739001  )
        14           Pt  tau(  14) = (   0.6666667   0.3849002   1.2739001  )
        15           Pt  tau(  15) = (   1.0000000   0.3849002   1.2739001  )
        16           Pt  tau(  16) = (   0.5000000   0.6735753   1.2739001  )
        17           Pt  tau(  17) = (   0.8333333   0.6735753   1.2739001  )
        18           Pt  tau(  18) = (   1.1666667   0.6735753   1.2739001  )
        19           Pt  tau(  19) = (   0.0015228   0.1943245   1.5480426  )
        20           Pt  tau(  20) = (   0.3318124   0.1943264   1.5480407  )
        21           Pt  tau(  21) = (   0.6666650   0.1951052   1.5421298  )
        22           Pt  tau(  22) = (   0.1666692   0.4806518   1.5501759  )
        23           Pt  tau(  23) = (   0.4994809   0.4837219   1.5417292  )
        24           Pt  tau(  24) = (   0.8338502   0.4837224   1.5417335  )
        25           Pt  tau(  25) = (   0.3349676   0.7738996   1.5468356  )
        26           Pt  tau(  26) = (   0.6666662   0.7736567   1.5468141  )
        27           Pt  tau(  27) = (   0.9983659   0.7739023   1.5468362  )
        28           Pt  tau(  28) = (  -0.0110388   0.0006422   1.8335586  )
        29           Pt  tau(  29) = (   0.3443713   0.0006437   1.8335570  )
        30           Pt  tau(  30) = (   0.6666666   0.0070690   1.8199310  )
        31           Pt  tau(  31) = (   0.1666672   0.3120668   1.8400258  )
        32           Pt  tau(  32) = (   0.5035050   0.2968287   1.8148659  )
        33           Pt  tau(  33) = (   0.8298262   0.2968278   1.8148682  )
        34           Pt  tau(  34) = (   0.3348709   0.5858071   1.8191191  )
        35           Pt  tau(  35) = (   0.6666649   0.5795110   1.8141534  )
        36           Pt  tau(  36) = (   0.9984640   0.5858080   1.8191204  )
        37           C   tau(  37) = (   0.1666663   0.0957979   1.9329680  )
        38           H   tau(  38) = (   0.1666653   0.2586554   2.0255662  )

     number of k points=    13  Marzari-Vanderbilt smearing, width (Ry)=  0.0010
                       cart. coord. in units 2pi/alat
        k(    1) = (   0.0000000   0.0000000   0.0000000), wk =   0.0800000
        k(    2) = (   0.0000000   0.2309401   0.0000000), wk =   0.1600000
        k(    3) = (   0.0000000   0.4618802   0.0000000), wk =   0.1600000
        k(    4) = (   0.2000000  -0.1154701   0.0000000), wk =   0.1600000
        k(    5) = (   0.2000000   0.1154701   0.0000000), wk =   0.1600000
        k(    6) = (   0.2000000   0.3464102   0.0000000), wk =   0.1600000
        k(    7) = (   0.2000000  -0.5773503   0.0000000), wk =   0.1600000
        k(    8) = (   0.2000000  -0.3464102   0.0000000), wk =   0.1600000
        k(    9) = (   0.4000000  -0.2309401   0.0000000), wk =   0.1600000
        k(   10) = (   0.4000000  -0.0000000   0.0000000), wk =   0.1600000
        k(   11) = (   0.4000000   0.2309401   0.0000000), wk =   0.1600000
        k(   12) = (   0.4000000  -0.6928203   0.0000000), wk =   0.1600000
        k(   13) = (   0.4000000  -0.4618802   0.0000000), wk =   0.1600000

     Dense  grid:  1411785 G-vectors     FFT dimensions: ( 108, 108, 300)

     Smooth grid:   344073 G-vectors     FFT dimensions: (  72,  72, 192)

     Estimated max dynamical RAM per process >     206.88 MB

     Estimated total dynamical RAM >       9.70 GB

     Initial potential from superposition of free atoms

     starting charge     364.9938, renormalised to     365.0000

     negative rho (up, down):  3.321E-03 0.000E+00


     %%%%%%%%%%%%%%%%%%%%%%%%%%%%%%%%%%%%%%%%%%%%%%%%%%%%%%%%%%%%%%%%%%%%%%%%
     %                                                                      %
     % You are using vdW-DF, which was implemented by the Thonhauser group. %
     % Please cite the following two papers that made this development      %
     % possible and the two reviews that describe the various versions:     %
     %                                                                      %
     %   T. Thonhauser et al., PRL 115, 136402 (2015).                      %
     %   T. Thonhauser et al., PRB 76, 125112 (2007).                       %
     %   K. Berland et al., Rep. Prog. Phys. 78, 066501 (2015).             %
     %   D.C. Langreth et al., J. Phys.: Condens. Matter 21, 084203 (2009). %
     %                                                                      %
     % If you are calculating stress with vdW-DF, please also cite:         %
     %                                                                      %
     %   R. Sabatini et al., J. Phys.: Condens. Matter 24, 424209 (2012).   %
     %                                                                      %
     %%%%%%%%%%%%%%%%%%%%%%%%%%%%%%%%%%%%%%%%%%%%%%%%%%%%%%%%%%%%%%%%%%%%%%%%

     %%%%%%%%%%%%%%%%%%%%%%%%%%%%%%%%%%%%%%%%%%%%%%%%%%%%%%%%%%%%%%%%%%%%%%%%
     %                                                                      %
     %  vdW-DF NEWS:                                                        %
     %                                                                      %
     %  * vdW-DF3 is now available. DOI: 10.1021/acs.jctc.0c00471           %
     %    use with input_dft = 'vdW-DF3-opt1' or 'vdW-DF3-opt2'             %
     %                                                                      %
     %  * Unscreened and range-separated hybrid vdW-DF-cx functionals       %
     %    DOI: 10.1063/1.4986522 and 10.1088/1361-648X/ac2ad2               %
     %    use with input_dft = 'vdW-DF-cx0'    and 'vdW-DF-ahcx'            %
     %  * Unscreened and range-separated hybrid vdW-DF2-b86r functionals    %
     %    DOI: 10.1063/1.4986522 and DOI: 10.1103/PhysRevX.12.041003        %
     %    use with input_dft = 'vdW-DF2-br0' and 'vdW-DF2-ahbr'             %
     %                                                                      %
     %%%%%%%%%%%%%%%%%%%%%%%%%%%%%%%%%%%%%%%%%%%%%%%%%%%%%%%%%%%%%%%%%%%%%%%%


     Starting wfcs are  329 randomized atomic wfcs
     Checking if some PAW data can be deallocated... 

     total cpu time spent up to now is       13.6 secs

     per-process dynamical memory:   211.8 Mb

     Self-consistent Calculation

     iteration #  1     ecut=    40.00 Ry     beta= 0.70
     Davidson diagonalization with overlap
     ethr =  1.00E-02,  avg # of iterations =  2.0

     Threshold (ethr) on eigenvalues was too large:
     Diagonalizing with lowered threshold

     Davidson diagonalization with overlap
     ethr =  5.02E-04,  avg # of iterations =  4.5

     negative rho (up, down):  1.434E-02 0.000E+00

     total cpu time spent up to now is       63.6 secs

     total energy              =  -27774.04053020 Ry
     estimated scf accuracy    <       2.09598009 Ry

     iteration #  2     ecut=    40.00 Ry     beta= 0.70
     Davidson diagonalization with overlap
     ethr =  5.74E-04,  avg # of iterations =  2.0

     negative rho (up, down):  1.174E-02 0.000E+00

     total cpu time spent up to now is       85.2 secs

     total energy              =  -27774.26144963 Ry
     estimated scf accuracy    <       0.79960362 Ry

     iteration #  3     ecut=    40.00 Ry     beta= 0.70
     Davidson diagonalization with overlap
     ethr =  2.19E-04,  avg # of iterations =  2.3

     negative rho (up, down):  7.659E-03 0.000E+00

     total cpu time spent up to now is      102.7 secs

     total energy              =  -27774.32437800 Ry
     estimated scf accuracy    <       0.14051218 Ry

     iteration #  4     ecut=    40.00 Ry     beta= 0.70
     Davidson diagonalization with overlap
     ethr =  3.85E-05,  avg # of iterations = 11.4

     negative rho (up, down):  3.624E-03 0.000E+00

     total cpu time spent up to now is      146.0 secs

     total energy              =  -27774.37195307 Ry
     estimated scf accuracy    <       0.06975607 Ry

     iteration #  5     ecut=    40.00 Ry     beta= 0.70
     Davidson diagonalization with overlap
     ethr =  1.91E-05,  avg # of iterations =  2.5

     negative rho (up, down):  2.217E-03 0.000E+00

     total cpu time spent up to now is      164.5 secs

     total energy              =  -27774.37633763 Ry
     estimated scf accuracy    <       0.02217733 Ry

     iteration #  6     ecut=    40.00 Ry     beta= 0.70
     Davidson diagonalization with overlap
     c_bands:  1 eigenvalues not converged
     ethr =  6.08E-06,  avg # of iterations = 11.4

     negative rho (up, down):  7.844E-04 0.000E+00

     total cpu time spent up to now is      195.0 secs

     total energy              =  -27774.37743889 Ry
     estimated scf accuracy    <       0.00751983 Ry

     iteration #  7     ecut=    40.00 Ry     beta= 0.70
     Davidson diagonalization with overlap
     c_bands:  1 eigenvalues not converged
     ethr =  2.06E-06,  avg # of iterations = 12.2

     negative rho (up, down):  4.526E-04 0.000E+00

     total cpu time spent up to now is      233.7 secs

     total energy              =  -27774.37815405 Ry
     estimated scf accuracy    <       0.00255659 Ry

     iteration #  8     ecut=    40.00 Ry     beta= 0.70
     Davidson diagonalization with overlap
     ethr =  7.00E-07,  avg # of iterations =  4.2

     negative rho (up, down):  3.374E-04 0.000E+00

     total cpu time spent up to now is      260.7 secs

     total energy              =  -27774.37853501 Ry
     estimated scf accuracy    <       0.00040687 Ry

     iteration #  9     ecut=    40.00 Ry     beta= 0.70
     Davidson diagonalization with overlap
     ethr =  1.11E-07,  avg # of iterations =  5.4

     negative rho (up, down):  2.885E-04 0.000E+00

     total cpu time spent up to now is      301.3 secs

     total energy              =  -27774.37875759 Ry
     estimated scf accuracy    <       0.00036863 Ry

     iteration # 10     ecut=    40.00 Ry     beta= 0.70
     Davidson diagonalization with overlap
     ethr =  1.01E-07,  avg # of iterations =  2.0

     negative rho (up, down):  3.338E-04 0.000E+00

     total cpu time spent up to now is      323.6 secs

     total energy              =  -27774.37879281 Ry
     estimated scf accuracy    <       0.00016361 Ry

     iteration # 11     ecut=    40.00 Ry     beta= 0.70
     Davidson diagonalization with overlap
     ethr =  4.48E-08,  avg # of iterations =  1.7

     negative rho (up, down):  4.706E-04 0.000E+00

     total cpu time spent up to now is      341.6 secs

     total energy              =  -27774.37882731 Ry
     estimated scf accuracy    <       0.00010656 Ry

     iteration # 12     ecut=    40.00 Ry     beta= 0.70
     Davidson diagonalization with overlap
     ethr =  2.92E-08,  avg # of iterations =  1.6

     negative rho (up, down):  9.119E-04 0.000E+00

     total cpu time spent up to now is      363.3 secs

     total energy              =  -27774.37886447 Ry
     estimated scf accuracy    <       0.00006278 Ry

     iteration # 13     ecut=    40.00 Ry     beta= 0.70
     Davidson diagonalization with overlap
     ethr =  1.72E-08,  avg # of iterations =  3.5

     negative rho (up, down):  1.784E-03 0.000E+00

     total cpu time spent up to now is      386.6 secs

     total energy              =  -27774.37888556 Ry
     estimated scf accuracy    <       0.00002589 Ry

     iteration # 14     ecut=    40.00 Ry     beta= 0.70
     Davidson diagonalization with overlap
     ethr =  7.09E-09,  avg # of iterations =  2.0

     negative rho (up, down):  2.275E-03 0.000E+00

     total cpu time spent up to now is      408.4 secs

     total energy              =  -27774.37889237 Ry
     estimated scf accuracy    <       0.00000881 Ry

     iteration # 15     ecut=    40.00 Ry     beta= 0.70
     Davidson diagonalization with overlap
     ethr =  2.41E-09,  avg # of iterations =  3.1

     negative rho (up, down):  2.504E-03 0.000E+00

     total cpu time spent up to now is      433.2 secs

     total energy              =  -27774.37889467 Ry
     estimated scf accuracy    <       0.00000438 Ry

     iteration # 16     ecut=    40.00 Ry     beta= 0.70
     Davidson diagonalization with overlap
     ethr =  1.20E-09,  avg # of iterations =  2.0

     negative rho (up, down):  2.846E-03 0.000E+00

     total cpu time spent up to now is      457.2 secs

     total energy              =  -27774.37889375 Ry
     estimated scf accuracy    <       0.00000160 Ry

     iteration # 17     ecut=    40.00 Ry     beta= 0.70
     Davidson diagonalization with overlap
     ethr =  4.40E-10,  avg # of iterations =  4.2

     negative rho (up, down):  3.154E-03 0.000E+00

     total cpu time spent up to now is      487.7 secs

     total energy              =  -27774.37889244 Ry
     estimated scf accuracy    <       0.00000145 Ry

     iteration # 18     ecut=    40.00 Ry     beta= 0.70
     Davidson diagonalization with overlap
     ethr =  3.97E-10,  avg # of iterations =  1.2

     negative rho (up, down):  3.190E-03 0.000E+00

     total cpu time spent up to now is      509.3 secs

     total energy              =  -27774.37889235 Ry
     estimated scf accuracy    <       0.00000019 Ry

     iteration # 19     ecut=    40.00 Ry     beta= 0.70
     Davidson diagonalization with overlap
     ethr =  5.22E-11,  avg # of iterations =  4.1

     negative rho (up, down):  3.205E-03 0.000E+00

     total cpu time spent up to now is      541.5 secs

     total energy              =  -27774.37889235 Ry
     estimated scf accuracy    <       0.00000011 Ry

     iteration # 20     ecut=    40.00 Ry     beta= 0.70
     Davidson diagonalization with overlap
     ethr =  3.02E-11,  avg # of iterations =  1.2

     negative rho (up, down):  3.171E-03 0.000E+00

     total cpu time spent up to now is      563.0 secs

     total energy              =  -27774.37889254 Ry
     estimated scf accuracy    <       0.00000003 Ry

     iteration # 21     ecut=    40.00 Ry     beta= 0.70
     Davidson diagonalization with overlap
     ethr =  9.15E-12,  avg # of iterations =  2.5

     negative rho (up, down):  3.173E-03 0.000E+00

     total cpu time spent up to now is      583.4 secs

     total energy              =  -27774.37889254 Ry
     estimated scf accuracy    <       0.00000003 Ry

     iteration # 22     ecut=    40.00 Ry     beta= 0.70
     Davidson diagonalization with overlap
     ethr =  7.94E-12,  avg # of iterations =  1.3

     negative rho (up, down):  3.184E-03 0.000E+00

     total cpu time spent up to now is      604.2 secs

     total energy              =  -27774.37889248 Ry
     estimated scf accuracy    <       0.00000001 Ry

     iteration # 23     ecut=    40.00 Ry     beta= 0.70
     Davidson diagonalization with overlap
     ethr =  3.09E-12,  avg # of iterations =  2.0

     negative rho (up, down):  3.148E-03 0.000E+00

     total cpu time spent up to now is      626.9 secs

     End of self-consistent calculation

          k = 0.0000 0.0000 0.0000 ( 42913 PWs)   bands (ev):

    -9.8878  -6.0823  -4.9530  -4.7881  -4.0644  -3.7827  -3.7300  -3.7099
    -3.6907  -3.6636  -3.6468  -3.5953  -3.5490  -3.3018  -3.1705  -3.1663
    -3.1661  -3.0849  -3.0735  -3.0290  -2.7408  -2.7370  -2.6983  -2.5862
    -2.5247  -2.5247  -2.5036  -2.4931  -2.4632  -2.4143  -2.4031  -2.3953
    -2.3291  -2.3228  -2.2635  -2.2218  -2.2167  -2.2023  -2.1700  -2.1505
    -2.1377  -2.0143  -1.8711  -1.7879  -1.7115  -1.7020  -1.6397  -1.6242
    -1.6121  -1.6081  -1.5760  -1.5337  -1.5019  -1.4108  -1.3864  -1.3538
    -1.3170  -1.2701  -0.9813  -0.9554  -0.9090  -0.8579  -0.8396  -0.7962
    -0.7656  -0.7187  -0.7119  -0.6696  -0.6379  -0.6364  -0.6267  -0.6065
    -0.6054  -0.5924  -0.5436  -0.5412  -0.5332  -0.5185  -0.5151  -0.5021
    -0.4666  -0.4517  -0.4489  -0.4105  -0.4077  -0.2961  -0.2774  -0.2505
    -0.2324  -0.2248  -0.2005  -0.1801  -0.1647  -0.1416  -0.1082  -0.1065
    -0.0878  -0.0189   0.0026   0.0151   0.0531   0.0570   0.0579   0.0586
     0.1486   0.1520   0.1723   0.2155   0.2418   0.2878   0.4598   0.5127
     0.5579   0.6113   0.6298   0.6505   0.7026   0.7114   0.7327   0.7796
     0.8131   0.8422   0.8725   0.9038   0.9137   0.9305   0.9308   0.9384
     1.0218   1.0530   1.1542   1.1603   1.1872   1.2213   1.2452   1.2587
     1.3195   1.3224   1.4193   1.4360   1.4400   1.4609   1.5043   1.5061
     1.5165   1.5633   1.6064   1.6750   1.7049   1.7172   1.7310   1.7631
     1.8104   1.8726   1.8827   1.8879   1.8992   1.9002   1.9018   1.9269
     1.9327   1.9370   1.9818   1.9872   2.0037   2.0185   2.0192   2.0312
     2.0887   2.0944   2.1160   2.1220   2.1265   2.1689   2.1718   2.2030
     2.2534   2.2562   2.2679   2.2764   2.2795   2.3070   2.3314   2.3532
     2.3760   2.3854   2.4176   2.4256   2.5407   2.5438   2.6554   2.6655
     2.6740   2.7093   2.7146   2.7345   2.8415   2.9679   3.2962   3.4221
     3.5724   3.5839   3.6193   4.2023   4.3888   4.7336   5.6911   5.8623
     5.8935   5.9574   6.2108   6.2794   6.7944   7.5086   7.5145   7.5175
     7.5468   7.5807   7.7155   7.7252

          k = 0.0000 0.2309 0.0000 ( 42996 PWs)   bands (ev):

    -9.8815  -5.9431  -4.9969  -4.6269  -4.1602  -4.0426  -3.7876  -3.6777
    -3.6278  -3.5805  -3.4774  -3.4366  -3.4031  -3.2996  -3.2176  -3.1627
    -3.0978  -3.0821  -2.9939  -2.9527  -2.7609  -2.6897  -2.6502  -2.6366
    -2.5718  -2.5686  -2.5384  -2.4683  -2.4628  -2.4337  -2.4056  -2.3739
    -2.3544  -2.3350  -2.2786  -2.2534  -2.2065  -2.1831  -2.1173  -2.0368
    -2.0037  -1.9881  -1.8576  -1.8523  -1.7972  -1.7524  -1.7210  -1.7121
    -1.6668  -1.6637  -1.5360  -1.5115  -1.4707  -1.4229  -1.3836  -1.3236
    -1.3155  -1.2668  -1.0830  -1.0367  -1.0255  -0.9939  -0.9866  -0.9202
    -0.8872  -0.8808  -0.8467  -0.8034  -0.7841  -0.7489  -0.7072  -0.6950
    -0.6698  -0.6406  -0.6256  -0.5506  -0.5147  -0.5085  -0.4729  -0.4660
    -0.4266  -0.4093  -0.3893  -0.3870  -0.3684  -0.2966  -0.2714  -0.2531
    -0.2365  -0.2349  -0.2127  -0.1956  -0.1594  -0.1537  -0.1434  -0.1102
    -0.0668  -0.0640  -0.0216  -0.0202  -0.0048   0.0299   0.0370   0.0790
     0.0994   0.1891   0.1931   0.2235   0.2432   0.2512   0.2950   0.2979
     0.3386   0.3699   0.3807   0.5182   0.5203   0.6407   0.6491   0.6983
     0.7249   0.7432   0.7530   0.7649   0.8932   0.9490   0.9786   0.9864
     1.0345   1.0351   1.0635   1.0931   1.1139   1.1352   1.1679   1.2206
     1.2685   1.3118   1.3291   1.3432   1.3716   1.4095   1.4463   1.4722
     1.4821   1.5485   1.5511   1.6105   1.6536   1.6727   1.6939   1.7194
     1.7329   1.7628   1.8047   1.8467   1.8657   1.9003   1.9015   1.9466
     1.9730   2.0337   2.0482   2.0784   2.0800   2.1253   2.1665   2.1879
     2.2180   2.2511   2.2539   2.2774   2.3356   2.3372   2.3478   2.3670
     2.3831   2.4120   2.4374   2.4551   2.4877   2.5463   2.5609   2.5915
     2.6182   2.6279   2.6441   2.6845   2.6881   2.7092   2.7742   2.7798
     2.8374   2.8383   2.9319   2.9830   3.0115   3.2792   3.2870   3.4498
     3.6498   3.9963   4.2243   4.2772   4.7312   4.8034   5.3885   5.6418
     5.8509   6.0612   6.3565   6.5094   6.6155   6.6241   7.0494   7.3398
     7.4958   7.6801   7.7548   7.8244

          k = 0.0000 0.4619 0.0000 ( 43046 PWs)   bands (ev):

    -9.8713  -5.5562  -5.0901  -4.7602  -4.2264  -4.0100  -3.8231  -3.7037
    -3.6010  -3.4658  -3.3229  -3.2638  -3.1994  -3.1031  -3.0964  -3.0406
    -2.9451  -2.9424  -2.8836  -2.8442  -2.8155  -2.7737  -2.7260  -2.7133
    -2.6730  -2.6522  -2.6362  -2.6185  -2.5409  -2.5260  -2.3738  -2.3562
    -2.3089  -2.2991  -2.2709  -2.2091  -2.1804  -2.1258  -2.0716  -2.0417
    -2.0003  -1.9788  -1.9258  -1.8307  -1.8003  -1.7612  -1.7280  -1.7048
    -1.6187  -1.6117  -1.5886  -1.5532  -1.5404  -1.5393  -1.4312  -1.3831
    -1.3811  -1.3107  -1.2732  -1.2096  -1.1803  -1.1655  -1.1413  -1.0646
    -1.0239  -0.9716  -0.9382  -0.9268  -0.8495  -0.8390  -0.8219  -0.8000
    -0.7527  -0.6781  -0.6612  -0.6567  -0.6019  -0.5997  -0.5306  -0.5200
    -0.5151  -0.4752  -0.4657  -0.4491  -0.4032  -0.3973  -0.3818  -0.3415
    -0.3405  -0.2879  -0.2673  -0.2397  -0.2146  -0.2111  -0.1798  -0.1736
    -0.1154  -0.0850  -0.0311  -0.0266  -0.0009   0.0396   0.0625   0.0646
     0.0889   0.1085   0.1858   0.2065   0.2204   0.2620   0.2776   0.3706
     0.4016   0.4130   0.4873   0.5182   0.5216   0.5760   0.6051   0.6113
     0.6255   0.6780   0.6811   0.7417   0.7573   0.7608   0.7856   0.8118
     0.8398   0.9059   0.9209   0.9608   1.0030   1.0114   1.0724   1.0767
     1.2287   1.2320   1.2557   1.3106   1.3164   1.3845   1.4098   1.4350
     1.5123   1.5530   1.5712   1.5854   1.5890   1.6084   1.6359   1.6697
     1.7241   1.7726   1.7862   1.7969   1.8681   1.8707   1.9104   1.9235
     1.9967   2.0229   2.0682   2.0954   2.1395   2.1582   2.2519   2.2571
     2.2888   2.3027   2.3367   2.3805   2.3995   2.4161   2.4693   2.5023
     2.5182   2.5582   2.5754   2.5906   2.5972   2.6404   2.6673   2.7368
     2.7483   2.8382   2.8479   2.8524   2.8754   2.9341   3.0867   3.1843
     3.2804   3.4105   3.5358   3.8281   3.8434   4.0340   4.1187   4.2858
     4.4659   4.6326   4.6857   4.8020   5.1278   5.1549   5.2828   5.3758
     5.4748   5.5403   5.6313   5.9654   6.1581   6.2841   6.5332   6.9454
     6.9866   7.3832   7.5175   7.6502

          k = 0.2000-0.1155 0.0000 ( 42996 PWs)   bands (ev):

    -9.8817  -5.9412  -4.9413  -4.6608  -4.2638  -3.9676  -3.7865  -3.7201
    -3.6017  -3.5591  -3.4886  -3.4403  -3.4095  -3.2968  -3.2508  -3.1338
    -3.1026  -3.0599  -3.0121  -2.9759  -2.7589  -2.7018  -2.6481  -2.6357
    -2.5759  -2.5571  -2.5292  -2.4768  -2.4575  -2.4273  -2.4003  -2.3716
    -2.3529  -2.3354  -2.2791  -2.2604  -2.2168  -2.1763  -2.0991  -2.0648
    -2.0166  -1.9533  -1.8474  -1.8147  -1.8057  -1.7471  -1.7284  -1.7096
    -1.6779  -1.6367  -1.5997  -1.4916  -1.4421  -1.4034  -1.3738  -1.3396
    -1.3158  -1.2640  -1.0878  -1.0448  -1.0061  -0.9815  -0.9671  -0.9166
    -0.9043  -0.8794  -0.8500  -0.8111  -0.7773  -0.7294  -0.7014  -0.6824
    -0.6626  -0.6336  -0.6064  -0.5836  -0.5519  -0.5199  -0.4767  -0.4440
    -0.4291  -0.4029  -0.3844  -0.3678  -0.3591  -0.3181  -0.2856  -0.2649
    -0.2459  -0.2349  -0.2078  -0.1934  -0.1634  -0.1539  -0.1373  -0.0915
    -0.0761  -0.0688  -0.0351  -0.0177  -0.0071   0.0069   0.0447   0.0667
     0.0993   0.1421   0.1860   0.2273   0.2364   0.2549   0.2917   0.3014
     0.3166   0.3895   0.4113   0.5179   0.5723   0.6105   0.6649   0.6795
     0.6918   0.7422   0.7660   0.7976   0.8851   0.9113   0.9555   1.0039
     1.0237   1.0391   1.0778   1.0906   1.1272   1.1433   1.1505   1.1787
     1.2578   1.3072   1.3242   1.3392   1.3557   1.4137   1.4444   1.4674
     1.5076   1.5193   1.5743   1.6013   1.6633   1.6910   1.6987   1.7267
     1.7427   1.7582   1.8223   1.8513   1.8761   1.8933   1.9181   1.9518
     1.9754   2.0196   2.0467   2.0776   2.0913   2.1365   2.1764   2.1858
     2.2196   2.2390   2.2552   2.2651   2.3297   2.3394   2.3517   2.3674
     2.3873   2.4052   2.4252   2.4459   2.4804   2.5280   2.5614   2.5870
     2.6238   2.6298   2.6530   2.6893   2.6965   2.7186   2.7709   2.7849
     2.8382   2.8935   2.9515   2.9778   3.0138   3.1506   3.2959   3.5449
     3.7482   3.8999   4.2292   4.3382   4.5929   4.8143   5.3831   5.6898
     5.8533   6.1587   6.3202   6.5096   6.5663   6.6788   6.9562   7.3241
     7.4666   7.6542   7.7295   7.8081

          k = 0.2000 0.1155 0.0000 ( 42996 PWs)   bands (ev):

    -9.8817  -5.9412  -4.9413  -4.6608  -4.2638  -3.9676  -3.7865  -3.7201
    -3.6017  -3.5591  -3.4886  -3.4403  -3.4095  -3.2968  -3.2508  -3.1338
    -3.1026  -3.0599  -3.0121  -2.9759  -2.7589  -2.7018  -2.6481  -2.6357
    -2.5759  -2.5570  -2.5292  -2.4768  -2.4575  -2.4273  -2.4003  -2.3716
    -2.3529  -2.3354  -2.2791  -2.2604  -2.2167  -2.1763  -2.0991  -2.0648
    -2.0166  -1.9533  -1.8474  -1.8147  -1.8057  -1.7471  -1.7284  -1.7096
    -1.6779  -1.6367  -1.5997  -1.4916  -1.4421  -1.4034  -1.3738  -1.3396
    -1.3158  -1.2640  -1.0878  -1.0448  -1.0061  -0.9815  -0.9671  -0.9166
    -0.9043  -0.8794  -0.8500  -0.8111  -0.7773  -0.7294  -0.7014  -0.6824
    -0.6626  -0.6336  -0.6064  -0.5836  -0.5519  -0.5199  -0.4767  -0.4441
    -0.4291  -0.4029  -0.3844  -0.3678  -0.3591  -0.3181  -0.2856  -0.2650
    -0.2459  -0.2349  -0.2079  -0.1934  -0.1634  -0.1539  -0.1372  -0.0915
    -0.0761  -0.0688  -0.0351  -0.0177  -0.0071   0.0069   0.0447   0.0667
     0.0993   0.1421   0.1860   0.2273   0.2364   0.2549   0.2917   0.3014
     0.3166   0.3895   0.4113   0.5179   0.5723   0.6105   0.6649   0.6795
     0.6918   0.7422   0.7660   0.7976   0.8851   0.9113   0.9555   1.0039
     1.0237   1.0391   1.0778   1.0906   1.1272   1.1433   1.1505   1.1787
     1.2578   1.3072   1.3242   1.3392   1.3557   1.4137   1.4444   1.4674
     1.5076   1.5193   1.5743   1.6013   1.6633   1.6910   1.6987   1.7267
     1.7427   1.7582   1.8223   1.8513   1.8762   1.8933   1.9181   1.9519
     1.9754   2.0196   2.0467   2.0776   2.0913   2.1365   2.1764   2.1858
     2.2196   2.2390   2.2552   2.2651   2.3297   2.3394   2.3517   2.3674
     2.3873   2.4052   2.4252   2.4459   2.4804   2.5280   2.5614   2.5870
     2.6238   2.6298   2.6530   2.6893   2.6965   2.7186   2.7709   2.7849
     2.8382   2.8935   2.9515   2.9778   3.0138   3.1506   3.2959   3.5449
     3.7482   3.8999   4.2292   4.3382   4.5929   4.8143   5.3831   5.6898
     5.8533   6.1587   6.3202   6.5096   6.5662   6.6788   6.9562   7.3241
     7.4666   7.6542   7.7294   7.8081

          k = 0.2000 0.3464 0.0000 ( 43046 PWs)   bands (ev):

    -9.8734  -5.6743  -4.9908  -4.5048  -4.3822  -4.3475  -3.8562  -3.4772
    -3.3975  -3.3793  -3.3360  -3.3246  -3.2802  -3.2536  -3.2220  -3.1739
    -3.1533  -2.9952  -2.8274  -2.8033  -2.7784  -2.7708  -2.7113  -2.6662
    -2.6198  -2.6077  -2.5347  -2.5051  -2.4740  -2.4669  -2.4325  -2.3969
    -2.3712  -2.3195  -2.3009  -2.2672  -2.2344  -2.1928  -2.1548  -2.0170
    -1.9692  -1.8700  -1.8587  -1.8244  -1.7917  -1.7530  -1.7357  -1.6905
    -1.6660  -1.6274  -1.5796  -1.5300  -1.5132  -1.4490  -1.4010  -1.3538
    -1.3188  -1.3077  -1.2505  -1.1842  -1.1380  -1.1259  -1.0887  -1.0327
    -0.9962  -0.9519  -0.9335  -0.9102  -0.8944  -0.8306  -0.7835  -0.7551
    -0.7287  -0.7007  -0.6880  -0.6552  -0.5977  -0.5682  -0.5286  -0.5046
    -0.4740  -0.4597  -0.4386  -0.4216  -0.3968  -0.3705  -0.3366  -0.3247
    -0.2906  -0.2722  -0.2509  -0.2315  -0.1928  -0.1726  -0.1663  -0.1179
    -0.1090  -0.0632  -0.0399  -0.0298  -0.0087   0.0082   0.0206   0.0385
     0.0581   0.0902   0.1049   0.1362   0.1921   0.2250   0.2595   0.2998
     0.3236   0.3674   0.3761   0.4675   0.5338   0.5722   0.5867   0.6160
     0.6752   0.7134   0.7255   0.7499   0.7902   0.8163   0.8512   0.8741
     0.8880   0.9270   0.9530   1.0192   1.0503   1.1041   1.1252   1.1553
     1.2229   1.2532   1.2937   1.3002   1.3116   1.3322   1.3846   1.4369
     1.4725   1.4963   1.5394   1.5708   1.6255   1.6446   1.6570   1.6884
     1.7060   1.7139   1.7453   1.7552   1.7992   1.8508   1.8949   1.9737
     2.0114   2.0593   2.1239   2.1865   2.1987   2.2409   2.2527   2.2932
     2.3519   2.3729   2.3863   2.4183   2.4322   2.4463   2.4588   2.4813
     2.5018   2.5168   2.5681   2.5825   2.6076   2.6170   2.6666   2.6790
     2.7198   2.7760   2.8254   2.8590   2.9021   2.9313   2.9726   2.9973
     3.0955   3.1213   3.4175   3.5519   3.6684   3.8064   3.8964   4.1160
     4.1870   4.2929   4.6711   4.8353   4.9886   5.1420   5.1846   5.2662
     5.4017   5.9758   6.1813   6.3303   6.4147   6.6384   6.7321   7.0256
     7.1008   7.1682   7.2324   7.4925

          k = 0.2000-0.5774 0.0000 ( 43014 PWs)   bands (ev):

    -9.8682  -5.2869  -5.1186  -4.8252  -4.5435  -3.9361  -3.9198  -3.7159
    -3.3639  -3.3242  -3.2474  -3.2129  -3.1506  -3.0917  -3.0716  -2.9844
    -2.9537  -2.8724  -2.8560  -2.8486  -2.8138  -2.7926  -2.7684  -2.7528
    -2.6590  -2.6489  -2.6336  -2.6177  -2.5893  -2.5313  -2.4285  -2.3927
    -2.3787  -2.3310  -2.2759  -2.2495  -2.2052  -2.1930  -2.1592  -2.0600
    -2.0315  -1.9102  -1.8402  -1.8357  -1.7726  -1.7597  -1.7433  -1.6892
    -1.6387  -1.5399  -1.5171  -1.4561  -1.4419  -1.4026  -1.3800  -1.3561
    -1.3349  -1.2907  -1.2789  -1.2619  -1.2206  -1.1755  -1.1514  -1.1408
    -1.0940  -1.0716  -1.0295  -0.9756  -0.9256  -0.9115  -0.8670  -0.8268
    -0.7886  -0.7600  -0.7444  -0.7195  -0.6864  -0.6666  -0.6126  -0.5986
    -0.5794  -0.5278  -0.5184  -0.4959  -0.4257  -0.3996  -0.3652  -0.3483
    -0.3152  -0.2893  -0.2661  -0.2145  -0.1861  -0.1397  -0.1233  -0.1097
    -0.0826  -0.0658  -0.0474  -0.0261  -0.0096   0.0001   0.0320   0.0655
     0.0761   0.0858   0.1041   0.1275   0.1457   0.1478   0.1784   0.2618
     0.3087   0.3721   0.4226   0.4988   0.5224   0.5414   0.5569   0.6079
     0.6312   0.6760   0.6769   0.6969   0.7305   0.7649   0.7834   0.8191
     0.9109   0.9296   0.9435   0.9656   0.9942   1.0615   1.0973   1.1466
     1.1971   1.2402   1.2730   1.2919   1.3263   1.3746   1.3778   1.3817
     1.4112   1.4739   1.4878   1.5028   1.5162   1.5880   1.5947   1.6437
     1.6777   1.7010   1.7733   1.8056   1.8654   1.9280   1.9594   2.0052
     2.0514   2.0794   2.1299   2.1627   2.1818   2.2252   2.2675   2.3181
     2.3665   2.3751   2.4214   2.4413   2.4546   2.4916   2.5156   2.5428
     2.5550   2.5711   2.5910   2.6411   2.6636   2.6996   2.7487   2.7763
     2.8151   2.8516   2.8691   2.8787   2.9198   2.9528   3.0712   3.1161
     3.3834   3.7617   3.9924   4.0218   4.1820   4.2855   4.3044   4.4197
     4.5423   4.6475   4.8182   5.0343   5.1080   5.1592   5.4675   5.5374
     5.6525   5.7373   5.7873   5.9241   6.1340   6.2054   6.3359   6.4312
     6.6944   7.0075   7.1138   7.1676

          k = 0.2000-0.3464 0.0000 ( 43046 PWs)   bands (ev):

    -9.8734  -5.6743  -4.9908  -4.5048  -4.3822  -4.3475  -3.8562  -3.4772
    -3.3975  -3.3793  -3.3360  -3.3246  -3.2802  -3.2536  -3.2220  -3.1739
    -3.1533  -2.9952  -2.8274  -2.8033  -2.7784  -2.7708  -2.7113  -2.6662
    -2.6198  -2.6077  -2.5347  -2.5051  -2.4740  -2.4669  -2.4325  -2.3969
    -2.3712  -2.3195  -2.3009  -2.2672  -2.2344  -2.1928  -2.1548  -2.0170
    -1.9692  -1.8700  -1.8587  -1.8244  -1.7917  -1.7530  -1.7357  -1.6905
    -1.6660  -1.6274  -1.5796  -1.5300  -1.5133  -1.4490  -1.4010  -1.3538
    -1.3188  -1.3077  -1.2505  -1.1842  -1.1380  -1.1259  -1.0887  -1.0327
    -0.9962  -0.9519  -0.9335  -0.9102  -0.8944  -0.8306  -0.7835  -0.7551
    -0.7287  -0.7007  -0.6880  -0.6552  -0.5978  -0.5682  -0.5286  -0.5046
    -0.4740  -0.4596  -0.4386  -0.4216  -0.3968  -0.3706  -0.3366  -0.3247
    -0.2906  -0.2722  -0.2509  -0.2315  -0.1928  -0.1726  -0.1663  -0.1179
    -0.1090  -0.0632  -0.0399  -0.0298  -0.0087   0.0082   0.0206   0.0385
     0.0581   0.0902   0.1049   0.1362   0.1921   0.2250   0.2595   0.2998
     0.3236   0.3674   0.3761   0.4675   0.5338   0.5722   0.5867   0.6160
     0.6752   0.7134   0.7255   0.7499   0.7902   0.8163   0.8513   0.8741
     0.8880   0.9270   0.9530   1.0192   1.0503   1.1041   1.1252   1.1553
     1.2229   1.2532   1.2937   1.3002   1.3116   1.3322   1.3846   1.4369
     1.4725   1.4963   1.5394   1.5708   1.6255   1.6446   1.6570   1.6885
     1.7060   1.7139   1.7453   1.7552   1.7992   1.8508   1.8949   1.9737
     2.0114   2.0593   2.1239   2.1865   2.1987   2.2409   2.2527   2.2932
     2.3519   2.3729   2.3863   2.4183   2.4322   2.4463   2.4588   2.4813
     2.5018   2.5168   2.5681   2.5825   2.6076   2.6170   2.6666   2.6790
     2.7198   2.7760   2.8254   2.8590   2.9021   2.9313   2.9726   2.9972
     3.0955   3.1213   3.4175   3.5519   3.6684   3.8064   3.8964   4.1160
     4.1870   4.2929   4.6711   4.8353   4.9886   5.1420   5.1846   5.2662
     5.4017   5.9758   6.1813   6.3303   6.4147   6.6384   6.7321   7.0256
     7.1008   7.1683   7.2324   7.4921

          k = 0.4000-0.2309 0.0000 ( 43046 PWs)   bands (ev):

    -9.8717  -5.5398  -4.9895  -4.8191  -4.3338  -4.0081  -3.8017  -3.7726
    -3.5624  -3.4590  -3.3528  -3.2552  -3.2052  -3.1159  -3.0860  -3.0606
    -2.9533  -2.9265  -2.8847  -2.8639  -2.8428  -2.7869  -2.7161  -2.7114
    -2.6774  -2.6652  -2.6432  -2.6095  -2.5346  -2.5171  -2.3666  -2.3453
    -2.3018  -2.2753  -2.2297  -2.1996  -2.1233  -2.0970  -2.0696  -2.0580
    -2.0020  -1.9838  -1.9033  -1.8713  -1.7975  -1.7529  -1.7259  -1.6653
    -1.6319  -1.6093  -1.5789  -1.5491  -1.5385  -1.5335  -1.4418  -1.3844
    -1.3594  -1.3383  -1.2387  -1.1870  -1.1791  -1.1494  -1.1350  -1.0582
    -1.0131  -0.9706  -0.9485  -0.9027  -0.8736  -0.8447  -0.8174  -0.7836
    -0.7369  -0.7180  -0.6691  -0.6528  -0.6006  -0.5993  -0.5398  -0.5197
    -0.4852  -0.4690  -0.4563  -0.4439  -0.4168  -0.3981  -0.3757  -0.3574
    -0.3424  -0.3110  -0.2819  -0.2394  -0.2171  -0.2005  -0.1973  -0.1566
    -0.1222  -0.0678  -0.0427  -0.0388  -0.0203   0.0070   0.0525   0.0597
     0.0918   0.1223   0.1579   0.1961   0.2209   0.2601   0.2814   0.3259
     0.3608   0.4181   0.4471   0.5010   0.5523   0.5824   0.6053   0.6110
     0.6550   0.6803   0.7180   0.7330   0.7584   0.7746   0.7859   0.7904
     0.8275   0.9049   0.9435   0.9665   0.9833   1.0089   1.0300   1.1065
     1.1630   1.2418   1.2525   1.2961   1.3243   1.3767   1.3982   1.4703
     1.5095   1.5302   1.5718   1.5826   1.5977   1.6044   1.6521   1.6706
     1.7319   1.7747   1.7954   1.8173   1.8556   1.8714   1.8983   1.9211
     2.0062   2.0406   2.0833   2.0945   2.1489   2.2126   2.2469   2.2570
     2.2671   2.2988   2.3360   2.3764   2.4050   2.4160   2.4502   2.4871
     2.5208   2.5641   2.5680   2.5864   2.6055   2.6605   2.6801   2.7354
     2.7605   2.8357   2.8476   2.8664   2.9005   2.9339   3.0837   3.1123
     3.2722   3.4699   3.6044   3.8207   3.8678   4.0288   4.0870   4.3259
     4.4378   4.5443   4.7104   4.8908   5.1063   5.1917   5.2517   5.3241
     5.4671   5.5905   5.6285   6.0104   6.1384   6.3462   6.4868   6.7919
     7.0078   7.3008   7.5131   7.5849

          k = 0.4000-0.0000 0.0000 ( 43046 PWs)   bands (ev):

    -9.8736  -5.6660  -4.9234  -4.5534  -4.4177  -4.3632  -3.8748  -3.4364
    -3.4126  -3.3791  -3.3539  -3.3253  -3.2907  -3.2482  -3.2357  -3.2182
    -3.1056  -3.0002  -2.8405  -2.8104  -2.7912  -2.7700  -2.6980  -2.6814
    -2.6208  -2.6119  -2.5250  -2.4881  -2.4699  -2.4632  -2.4271  -2.4071
    -2.3612  -2.3237  -2.3049  -2.2721  -2.2181  -2.1745  -2.1577  -1.9833
    -1.9375  -1.9174  -1.8567  -1.8150  -1.7972  -1.7751  -1.7109  -1.6724
    -1.6532  -1.5778  -1.5691  -1.5546  -1.4887  -1.4409  -1.4101  -1.3546
    -1.3376  -1.3034  -1.2618  -1.2249  -1.1411  -1.1009  -1.0492  -1.0058
    -0.9884  -0.9455  -0.9356  -0.8993  -0.8828  -0.8626  -0.7632  -0.7406
    -0.7327  -0.7084  -0.6995  -0.6313  -0.6017  -0.5617  -0.5443  -0.5058
    -0.5048  -0.4505  -0.4321  -0.4147  -0.3963  -0.3622  -0.3524  -0.3379
    -0.3183  -0.2772  -0.2435  -0.2339  -0.2102  -0.1800  -0.1340  -0.1247
    -0.1176  -0.0802  -0.0593  -0.0402  -0.0118   0.0071   0.0234   0.0408
     0.0557   0.0800   0.0968   0.1272   0.1943   0.2156   0.2787   0.3126
     0.3330   0.3522   0.3943   0.4518   0.4980   0.5413   0.6008   0.6175
     0.6518   0.6976   0.7331   0.7607   0.7889   0.8253   0.8571   0.8743
     0.8971   0.9338   0.9678   0.9919   1.0370   1.1030   1.1130   1.1557
     1.2191   1.2653   1.2840   1.2965   1.3145   1.3429   1.3790   1.4186
     1.4507   1.4844   1.5696   1.5874   1.6326   1.6507   1.6689   1.6976
     1.7036   1.7115   1.7464   1.7570   1.8058   1.8632   1.9109   1.9522
     2.0227   2.0560   2.1229   2.1913   2.2045   2.2417   2.2687   2.2932
     2.3587   2.3769   2.3872   2.3994   2.4318   2.4439   2.4487   2.4742
     2.5017   2.5126   2.5683   2.5825   2.5977   2.6126   2.6651   2.6801
     2.7189   2.8065   2.8353   2.8611   2.9131   2.9527   2.9911   3.0079
     3.1027   3.1195   3.3400   3.5859   3.6585   3.7344   3.9139   4.1786
     4.1973   4.3770   4.6012   4.8502   5.0322   5.0666   5.1876   5.2723
     5.4023   6.0567   6.1348   6.3042   6.4408   6.6379   6.7283   6.8906
     7.1140   7.1816   7.2470   7.4279

          k = 0.4000 0.2309 0.0000 ( 43046 PWs)   bands (ev):

    -9.8717  -5.5398  -4.9895  -4.8191  -4.3338  -4.0081  -3.8017  -3.7726
    -3.5624  -3.4590  -3.3528  -3.2552  -3.2052  -3.1159  -3.0860  -3.0606
    -2.9533  -2.9265  -2.8847  -2.8639  -2.8428  -2.7869  -2.7161  -2.7114
    -2.6774  -2.6652  -2.6432  -2.6095  -2.5346  -2.5171  -2.3666  -2.3453
    -2.3018  -2.2753  -2.2296  -2.1996  -2.1233  -2.0970  -2.0696  -2.0580
    -2.0020  -1.9838  -1.9033  -1.8712  -1.7975  -1.7529  -1.7259  -1.6653
    -1.6319  -1.6093  -1.5789  -1.5491  -1.5385  -1.5335  -1.4418  -1.3844
    -1.3594  -1.3383  -1.2387  -1.1870  -1.1791  -1.1494  -1.1351  -1.0582
    -1.0131  -0.9706  -0.9485  -0.9027  -0.8735  -0.8447  -0.8174  -0.7836
    -0.7369  -0.7181  -0.6691  -0.6528  -0.6006  -0.5992  -0.5398  -0.5196
    -0.4852  -0.4690  -0.4563  -0.4439  -0.4168  -0.3981  -0.3757  -0.3574
    -0.3424  -0.3110  -0.2819  -0.2394  -0.2171  -0.2005  -0.1973  -0.1566
    -0.1222  -0.0678  -0.0427  -0.0388  -0.0203   0.0070   0.0525   0.0597
     0.0918   0.1223   0.1579   0.1961   0.2209   0.2601   0.2814   0.3259
     0.3608   0.4181   0.4471   0.5010   0.5523   0.5824   0.6053   0.6110
     0.6550   0.6803   0.7180   0.7331   0.7584   0.7746   0.7860   0.7904
     0.8275   0.9049   0.9435   0.9665   0.9832   1.0089   1.0300   1.1065
     1.1630   1.2418   1.2525   1.2961   1.3243   1.3767   1.3982   1.4703
     1.5095   1.5302   1.5717   1.5826   1.5977   1.6044   1.6521   1.6706
     1.7319   1.7747   1.7954   1.8173   1.8556   1.8714   1.8983   1.9211
     2.0062   2.0406   2.0833   2.0945   2.1490   2.2126   2.2469   2.2570
     2.2671   2.2988   2.3360   2.3764   2.4050   2.4160   2.4502   2.4871
     2.5208   2.5641   2.5680   2.5864   2.6055   2.6605   2.6801   2.7354
     2.7605   2.8357   2.8476   2.8664   2.9005   2.9339   3.0837   3.1123
     3.2722   3.4699   3.6044   3.8207   3.8678   4.0288   4.0870   4.3260
     4.4378   4.5442   4.7104   4.8908   5.1063   5.1917   5.2517   5.3241
     5.4671   5.5905   5.6285   6.0104   6.1384   6.3462   6.4868   6.7919
     7.0078   7.3008   7.5131   7.5849

          k = 0.4000-0.6928 0.0000 ( 43014 PWs)   bands (ev):

    -9.8685  -5.2254  -5.1254  -4.8798  -4.4834  -4.1260  -3.8775  -3.6318
    -3.3973  -3.3589  -3.2741  -3.1827  -3.1358  -3.0877  -3.0721  -2.9809
    -2.9377  -2.8981  -2.8750  -2.8433  -2.8336  -2.8030  -2.7748  -2.7467
    -2.6607  -2.6511  -2.6419  -2.6205  -2.5840  -2.5204  -2.4078  -2.3897
    -2.3814  -2.3224  -2.2587  -2.2380  -2.2022  -2.1653  -2.0748  -2.0688
    -2.0385  -1.9473  -1.8545  -1.8357  -1.7981  -1.7506  -1.7349  -1.6717
    -1.6147  -1.5393  -1.5201  -1.4901  -1.4442  -1.4097  -1.3553  -1.3407
    -1.3273  -1.2838  -1.2725  -1.2489  -1.1933  -1.1760  -1.1466  -1.1344
    -1.1091  -1.0669  -1.0211  -0.9703  -0.9436  -0.9200  -0.8539  -0.8265
    -0.7797  -0.7666  -0.7492  -0.7318  -0.6949  -0.6617  -0.6184  -0.5958
    -0.5718  -0.5220  -0.5197  -0.4866  -0.4448  -0.3867  -0.3623  -0.3522
    -0.3348  -0.2889  -0.2359  -0.2166  -0.1848  -0.1720  -0.1361  -0.1096
    -0.0860  -0.0721  -0.0523  -0.0405  -0.0206  -0.0016   0.0288   0.0600
     0.0692   0.0854   0.1031   0.1213   0.1358   0.1577   0.1899   0.2653
     0.3293   0.3542   0.3966   0.4625   0.4991   0.5410   0.5586   0.6132
     0.6503   0.6685   0.6879   0.7169   0.7353   0.7577   0.7910   0.8148
     0.8966   0.9305   0.9540   0.9594   0.9909   1.0726   1.0955   1.1321
     1.1672   1.2451   1.2814   1.2873   1.3313   1.3664   1.3778   1.3911
     1.4124   1.4697   1.4955   1.5101   1.5406   1.5889   1.6026   1.6365
     1.6713   1.7047   1.7634   1.7833   1.8632   1.9349   1.9561   2.0056
     2.0569   2.0870   2.1163   2.1800   2.2094   2.2322   2.2703   2.3050
     2.3443   2.3773   2.4213   2.4408   2.4520   2.4954   2.5285   2.5402
     2.5611   2.5764   2.5953   2.6351   2.6525   2.6991   2.7439   2.7759
     2.7988   2.8594   2.8747   2.8987   2.9280   2.9653   3.0702   3.1785
     3.3668   3.7049   3.9885   4.0255   4.1993   4.2579   4.3021   4.3904
     4.5511   4.7263   4.8559   5.0593   5.1244   5.1642   5.3829   5.5293
     5.6538   5.7503   5.8710   5.9296   6.0420   6.1634   6.3844   6.4460
     6.6750   6.9089   7.0775   7.1804

          k = 0.4000-0.4619 0.0000 ( 43014 PWs)   bands (ev):

    -9.8685  -5.2253  -5.1254  -4.8798  -4.4834  -4.1260  -3.8775  -3.6318
    -3.3973  -3.3589  -3.2741  -3.1827  -3.1358  -3.0877  -3.0721  -2.9809
    -2.9377  -2.8981  -2.8750  -2.8433  -2.8336  -2.8030  -2.7748  -2.7467
    -2.6607  -2.6511  -2.6419  -2.6205  -2.5840  -2.5204  -2.4078  -2.3897
    -2.3814  -2.3224  -2.2587  -2.2380  -2.2022  -2.1653  -2.0748  -2.0688
    -2.0385  -1.9473  -1.8545  -1.8357  -1.7981  -1.7506  -1.7349  -1.6717
    -1.6147  -1.5392  -1.5201  -1.4900  -1.4442  -1.4097  -1.3553  -1.3407
    -1.3273  -1.2838  -1.2725  -1.2489  -1.1933  -1.1761  -1.1466  -1.1345
    -1.1090  -1.0669  -1.0211  -0.9703  -0.9436  -0.9200  -0.8539  -0.8266
    -0.7797  -0.7666  -0.7492  -0.7318  -0.6949  -0.6617  -0.6184  -0.5958
    -0.5718  -0.5220  -0.5197  -0.4866  -0.4448  -0.3867  -0.3623  -0.3522
    -0.3348  -0.2889  -0.2359  -0.2166  -0.1848  -0.1720  -0.1361  -0.1096
    -0.0860  -0.0721  -0.0523  -0.0405  -0.0206  -0.0016   0.0288   0.0600
     0.0692   0.0854   0.1031   0.1213   0.1358   0.1577   0.1899   0.2653
     0.3293   0.3542   0.3966   0.4625   0.4991   0.5410   0.5586   0.6132
     0.6503   0.6685   0.6878   0.7169   0.7353   0.7577   0.7910   0.8148
     0.8966   0.9305   0.9540   0.9594   0.9909   1.0726   1.0955   1.1321
     1.1672   1.2451   1.2814   1.2873   1.3312   1.3663   1.3778   1.3911
     1.4124   1.4697   1.4955   1.5101   1.5406   1.5889   1.6026   1.6365
     1.6713   1.7047   1.7634   1.7833   1.8632   1.9349   1.9561   2.0056
     2.0569   2.0870   2.1163   2.1800   2.2094   2.2322   2.2703   2.3050
     2.3443   2.3773   2.4213   2.4408   2.4520   2.4954   2.5285   2.5402
     2.5611   2.5765   2.5953   2.6351   2.6525   2.6991   2.7439   2.7759
     2.7988   2.8594   2.8747   2.8987   2.9280   2.9653   3.0702   3.1785
     3.3668   3.7049   3.9885   4.0255   4.1992   4.2579   4.3021   4.3904
     4.5511   4.7263   4.8559   5.0593   5.1244   5.1642   5.3829   5.5293
     5.6538   5.7503   5.8710   5.9296   6.0420   6.1634   6.3844   6.4460
     6.6750   6.9089   7.0775   7.1804

     the Fermi energy is     2.6388 ev

!    total energy              =  -27774.37889266 Ry
     total all-electron energy =  -1326718.908407 Ry
     estimated scf accuracy    <          4.1E-09 Ry
     smearing contrib. (-TS)   =       0.00002343 Ry
     internal energy E=F+TS    =  -27774.37891610 Ry

     The total energy is F=E-TS. E is the sum of the following terms:
     one-electron contribution =  -20725.81275380 Ry
     hartree contribution      =   10672.94523527 Ry
     xc contribution           =    -895.53125620 Ry
     ewald contribution        =    8654.62213116 Ry
     one-center paw contrib.   =  -25480.60227253 Ry

     convergence has been achieved in  23 iterations

     negative rho (up, down):  3.148E-03 0.000E+00

     Forces acting on atoms (cartesian axes, Ry/au):

     atom    1 type  1   force =    -0.00005551   -0.00062403   -0.00377289
     atom    2 type  1   force =     0.00005248   -0.00061582   -0.00377539
     atom    3 type  1   force =     0.00000353   -0.00232250   -0.00959023
     atom    4 type  1   force =     0.00000520   -0.00047241   -0.00327750
     atom    5 type  1   force =    -0.00005838   -0.00120143   -0.00628704
     atom    6 type  1   force =     0.00005323   -0.00120817   -0.00629249
     atom    7 type  1   force =    -0.00159258    0.00088250   -0.00748408
     atom    8 type  1   force =    -0.00000851   -0.00033088   -0.00624582
     atom    9 type  1   force =     0.00160099    0.00088344   -0.00749238
     atom   10 type  1   force =     0.00000224    0.00231614    0.01708140
     atom   11 type  1   force =     0.00101301   -0.00206479    0.00467626
     atom   12 type  1   force =    -0.00101482   -0.00207640    0.00467672
     atom   13 type  1   force =    -0.00242099    0.00141434    0.00737787
     atom   14 type  1   force =    -0.00001040    0.00105339   -0.00141566
     atom   15 type  1   force =     0.00243148    0.00141046    0.00738297
     atom   16 type  1   force =    -0.00226551    0.00144648    0.00382645
     atom   17 type  1   force =     0.00225640    0.00145319    0.00383075
     atom   18 type  1   force =     0.00000912   -0.00127969    0.00737092
     atom   19 type  1   force =    -0.00004866    0.00006750   -0.00004413
     atom   20 type  1   force =     0.00004870    0.00006858   -0.00004379
     atom   21 type  1   force =    -0.00000005    0.00002579   -0.00001890
     atom   22 type  1   force =    -0.00000030    0.00012329    0.00000254
     atom   23 type  1   force =    -0.00000968   -0.00001430   -0.00001638
     atom   24 type  1   force =     0.00001028   -0.00001417   -0.00001998
     atom   25 type  1   force =    -0.00002017    0.00007764   -0.00013694
     atom   26 type  1   force =    -0.00000157   -0.00001414   -0.00013975
     atom   27 type  1   force =     0.00002166    0.00007641   -0.00013469
     atom   28 type  1   force =     0.00014995    0.00019562   -0.00006839
     atom   29 type  1   force =    -0.00014918    0.00019646   -0.00006866
     atom   30 type  1   force =    -0.00000173    0.00009764    0.00002538
     atom   31 type  1   force =     0.00000191    0.00018591    0.00030509
     atom   32 type  1   force =     0.00001195    0.00013927    0.00002375
     atom   33 type  1   force =    -0.00001340    0.00013757    0.00002657
     atom   34 type  1   force =    -0.00004392    0.00000626   -0.00002860
     atom   35 type  1   force =    -0.00000128    0.00000408   -0.00006848
     atom   36 type  1   force =     0.00004383    0.00001006   -0.00002752
     atom   37 type  2   force =     0.00000022    0.00015426   -0.00006191
     atom   38 type  3   force =     0.00000046   -0.00018757   -0.00009510
     The non-local contrib.  to forces
     atom    1 type  1   force =     0.00036719    0.00013073   -0.01934638
     atom    2 type  1   force =    -0.00037064    0.00013813   -0.01934776
     atom    3 type  1   force =     0.00000367   -0.00183839   -0.01826775
     atom    4 type  1   force =     0.00000437   -0.00017353   -0.01871658
     atom    5 type  1   force =     0.00000974    0.00016975   -0.02158250
     atom    6 type  1   force =    -0.00001425    0.00016284   -0.02158822
     atom    7 type  1   force =    -0.00154377    0.00084742   -0.01952968
     atom    8 type  1   force =    -0.00000833    0.00008564   -0.02214203
     atom    9 type  1   force =     0.00155181    0.00084790   -0.01953676
     atom   10 type  1   force =     0.00000306    0.00153145    0.00386971
     atom   11 type  1   force =    -0.00234361    0.00322732    0.00016459
     atom   12 type  1   force =     0.00234080    0.00321379    0.00016190
     atom   13 type  1   force =     0.00093886   -0.00217055    0.00141340
     atom   14 type  1   force =    -0.00001307    0.00136438   -0.00412800
     atom   15 type  1   force =    -0.00092578   -0.00217514    0.00141273
     atom   16 type  1   force =     0.00297166    0.00192155   -0.00052226
     atom   17 type  1   force =    -0.00298225    0.00193089   -0.00052090
     atom   18 type  1   force =     0.00001036    0.00066705    0.00628992
     atom   19 type  1   force =    -0.00668544   -0.00123448    0.00928208
     atom   20 type  1   force =     0.00668972   -0.00122992    0.00928070
     atom   21 type  1   force =    -0.00000448    0.00409045    0.00763050
     atom   22 type  1   force =     0.00000533    0.01668120   -0.00842150
     atom   23 type  1   force =     0.00406059   -0.00073068    0.00775683
     atom   24 type  1   force =    -0.00406600   -0.00072898    0.00775353
     atom   25 type  1   force =    -0.00548969   -0.00456365   -0.00041682
     atom   26 type  1   force =    -0.00000246   -0.00383295    0.01173584
     atom   27 type  1   force =     0.00549219   -0.00455880   -0.00041535
     atom   28 type  1   force =     0.07490230    0.03476078   -0.01544360
     atom   29 type  1   force =    -0.07490298    0.03476415   -0.01544294
     atom   30 type  1   force =    -0.00000221    0.00033940    0.01357041
     atom   31 type  1   force =     0.00000356   -0.13794312   -0.00808498
     atom   32 type  1   force =    -0.02060027   -0.00852358    0.02309454
     atom   33 type  1   force =     0.02059761   -0.00852475    0.02310405
     atom   34 type  1   force =    -0.00138618   -0.00564035    0.01518716
     atom   35 type  1   force =    -0.00000155    0.02333205    0.02257347
     atom   36 type  1   force =     0.00138660   -0.00563652    0.01519499
     atom   37 type  2   force =    -0.00000044    0.28431027   -0.14354842
     atom   38 type  3   force =     0.00000039    0.00013754   -0.03394915
     The ionic contribution  to forces
     atom    1 type  1   force =     0.00132221    0.00580647  -93.88956966
     atom    2 type  1   force =    -0.00132515    0.00577333  -93.88957462
     atom    3 type  1   force =     0.00000293   -0.02859381  -93.89290235
     atom    4 type  1   force =    -0.00003019    0.00521722  -93.87126654
     atom    5 type  1   force =    -0.02937184   -0.01188125  -93.92796765
     atom    6 type  1   force =     0.02940203   -0.01186588  -93.92790669
     atom    7 type  1   force =    -0.03063026    0.00599004  -93.88215327
     atom    8 type  1   force =     0.00002842    0.02385233  -93.93637601
     atom    9 type  1   force =     0.03060184    0.00597025  -93.88209637
     atom   10 type  1   force =    -0.00007790    0.07152995  -32.39913041
     atom   11 type  1   force =    -0.13573242   -0.09608648  -32.50176099
     atom   12 type  1   force =     0.13581133   -0.09588417  -32.50153783
     atom   13 type  1   force =    -0.25688847   -0.00959766  -32.43089098
     atom   14 type  1   force =     0.00024707    0.00070860  -32.78784742
     atom   15 type  1   force =     0.25664099   -0.00953902  -32.43042124
     atom   16 type  1   force =    -0.08821964    0.16915776  -32.52589029
     atom   17 type  1   force =     0.08836265    0.16894243  -32.52564445
     atom   18 type  1   force =    -0.00014453   -0.09535124  -32.16192410
     atom   19 type  1   force =     0.27326007   -0.05673950   30.09363648
     atom   20 type  1   force =    -0.27375354   -0.05719796   30.09324640
     atom   21 type  1   force =     0.00047537   -0.23455518   28.58705789
     atom   22 type  1   force =    -0.00067531    0.18713951   29.90539114
     atom   23 type  1   force =    -0.24014907    0.11362774   28.48800127
     atom   24 type  1   force =     0.24081270    0.11346434   28.48878141
     atom   25 type  1   force =    -0.19183281   -0.13268451   29.32795994
     atom   26 type  1   force =     0.00014003    0.25573341   29.81893955
     atom   27 type  1   force =     0.19169461   -0.13337825   29.32805645
     atom   28 type  1   force =    -2.58567708   -1.48131600   90.59909143
     atom   29 type  1   force =     2.58565442   -1.48161092   90.59885185
     atom   30 type  1   force =     0.00001210    0.12159819   91.28169986
     atom   31 type  1   force =    -0.00023172    2.78843735   90.26777129
     atom   32 type  1   force =     0.32916876    0.16045149   90.37779211
     atom   33 type  1   force =    -0.32886811    0.16062471   90.37795677
     atom   34 type  1   force =     0.16733356   -0.01733721   91.02735303
     atom   35 type  1   force =     0.00032681   -0.26688562   90.41212583
     atom   36 type  1   force =    -0.16766164   -0.01751088   91.02737197
     atom   37 type  2   force =    -0.00000658   -0.47880113   44.86680408
     atom   38 type  3   force =    -0.00002164    0.35279156   12.39697212
     The local contribution  to forces
     atom    1 type  1   force =    -0.00170737   -0.00655019   93.88805336
     atom    2 type  1   force =     0.00172363   -0.00654582   93.88806184
     atom    3 type  1   force =    -0.00001628    0.02815492   93.88427423
     atom    4 type  1   force =     0.00001204   -0.00551730   93.86958330
     atom    5 type  1   force =     0.02934766    0.01046169   93.92639257
     atom    6 type  1   force =    -0.02935950    0.01047255   93.92634985
     atom    7 type  1   force =     0.03061195   -0.00605454   93.87692718
     atom    8 type  1   force =     0.00000352   -0.02429844   93.93540414
     atom    9 type  1   force =    -0.03061550   -0.00603771   93.87689139
     atom   10 type  1   force =     0.00006892   -0.07066158   32.41227052
     atom   11 type  1   force =     0.13869320    0.09062184   32.50600763
     atom   12 type  1   force =    -0.13876318    0.09046844   32.50580175
     atom   13 type  1   force =     0.25281393    0.01310781   32.43669947
     atom   14 type  1   force =    -0.00019831   -0.00096857   32.78923170
     atom   15 type  1   force =    -0.25261522    0.01306814   32.43624969
     atom   16 type  1   force =     0.08287559   -0.16909268   32.52977205
     atom   17 type  1   force =    -0.08297966   -0.16891274   32.52952905
     atom   18 type  1   force =     0.00010562    0.09304624   32.16403483
     atom   19 type  1   force =    -0.26579664    0.05788647  -30.09967921
     atom   20 type  1   force =     0.26625311    0.05830746  -30.09928133
     atom   21 type  1   force =    -0.00043924    0.22991795  -28.59328207
     atom   22 type  1   force =     0.00062472   -0.20282996  -29.89660338
     atom   23 type  1   force =     0.23562181   -0.11258612  -28.49435234
     atom   24 type  1   force =    -0.23623440   -0.11243471  -28.49515361
     atom   25 type  1   force =     0.19670338    0.13698940  -29.32678011
     atom   26 type  1   force =    -0.00012587   -0.25115862  -29.82790424
     atom   27 type  1   force =    -0.19657939    0.13763237  -29.32688995
     atom   28 type  1   force =     2.49231890    1.43722856  -90.58113844
     atom   29 type  1   force =    -2.49229935    1.43749958  -90.58089590
     atom   30 type  1   force =    -0.00000570   -0.12136309  -91.27941880
     atom   31 type  1   force =     0.00021002   -2.62794240  -90.27359602
     atom   32 type  1   force =    -0.31052823   -0.15282557  -90.38454566
     atom   33 type  1   force =     0.31025228   -0.15299236  -90.38473953
     atom   34 type  1   force =    -0.16565870    0.02243613  -91.02667952
     atom   35 type  1   force =    -0.00030867    0.24581903  -90.41830784
     atom   36 type  1   force =     0.16596938    0.02259297  -91.02672412
     atom   37 type  2   force =     0.00000301    0.19962126  -44.72724508
     atom   38 type  3   force =     0.00002087   -0.35311542  -12.36310965
     The core correction contribution to forces
     atom    1 type  1   force =    -0.00002994    0.00001858    0.01708188
     atom    2 type  1   force =     0.00002993    0.00001861    0.01708183
     atom    3 type  1   force =    -0.00000000   -0.00002415    0.01729778
     atom    4 type  1   force =     0.00000003   -0.00001422    0.01711813
     atom    5 type  1   force =    -0.00002927    0.00002422    0.01685887
     atom    6 type  1   force =     0.00002925    0.00002419    0.01685883
     atom    7 type  1   force =    -0.00004040    0.00010383    0.01724748
     atom    8 type  1   force =    -0.00000003    0.00002961    0.01685901
     atom    9 type  1   force =     0.00004045    0.00010385    0.01724739
     atom   10 type  1   force =     0.00000009   -0.00007496    0.00008885
     atom   11 type  1   force =     0.00039816    0.00016807    0.00027105
     atom   12 type  1   force =    -0.00039824    0.00016782    0.00027044
     atom   13 type  1   force =     0.00069984    0.00004399    0.00017167
     atom   14 type  1   force =    -0.00000042   -0.00006611    0.00134976
     atom   15 type  1   force =    -0.00069940    0.00004382    0.00017042
     atom   16 type  1   force =     0.00013521   -0.00051521    0.00048454
     atom   17 type  1   force =    -0.00013541   -0.00051478    0.00048390
     atom   18 type  1   force =     0.00000021    0.00037090   -0.00101601
     atom   19 type  1   force =    -0.00084104    0.00017517   -0.00325935
     atom   20 type  1   force =     0.00084247    0.00017647   -0.00325954
     atom   21 type  1   force =    -0.00000125    0.00058877   -0.00140107
     atom   22 type  1   force =     0.00000185   -0.00088431   -0.00032934
     atom   23 type  1   force =     0.00048800   -0.00033370   -0.00137829
     atom   24 type  1   force =    -0.00048979   -0.00033327   -0.00137715
     atom   25 type  1   force =     0.00060144    0.00037150   -0.00086274
     atom   26 type  1   force =    -0.00000032   -0.00074511   -0.00287824
     atom   27 type  1   force =    -0.00060111    0.00037343   -0.00086256
     atom   28 type  1   force =     0.01861495    0.00954445   -0.00253475
     atom   29 type  1   force =    -0.01861490    0.00954501   -0.00253458
     atom   30 type  1   force =    -0.00000003   -0.00046303   -0.01577889
     atom   31 type  1   force =     0.00000029   -0.02237626    0.01425668
     atom   32 type  1   force =     0.00198346    0.00103736   -0.01626618
     atom   33 type  1   force =    -0.00198420    0.00103690   -0.01626591
     atom   34 type  1   force =    -0.00033390    0.00054826   -0.01583125
     atom   35 type  1   force =    -0.00000088   -0.00226523   -0.01641596
     atom   36 type  1   force =     0.00033485    0.00054871   -0.01583077
     atom   37 type  2   force =     0.00000002   -0.00497143    0.00394634
     atom   38 type  3   force =     0.00000000    0.00000000    0.00000000
     The Hubbard contrib.    to forces
     atom    1 type  1   force =     0.00000000    0.00000000    0.00000000
     atom    2 type  1   force =     0.00000000    0.00000000    0.00000000
     atom    3 type  1   force =     0.00000000    0.00000000    0.00000000
     atom    4 type  1   force =     0.00000000    0.00000000    0.00000000
     atom    5 type  1   force =     0.00000000    0.00000000    0.00000000
     atom    6 type  1   force =     0.00000000    0.00000000    0.00000000
     atom    7 type  1   force =     0.00000000    0.00000000    0.00000000
     atom    8 type  1   force =     0.00000000    0.00000000    0.00000000
     atom    9 type  1   force =     0.00000000    0.00000000    0.00000000
     atom   10 type  1   force =     0.00000000    0.00000000    0.00000000
     atom   11 type  1   force =     0.00000000    0.00000000    0.00000000
     atom   12 type  1   force =     0.00000000    0.00000000    0.00000000
     atom   13 type  1   force =     0.00000000    0.00000000    0.00000000
     atom   14 type  1   force =     0.00000000    0.00000000    0.00000000
     atom   15 type  1   force =     0.00000000    0.00000000    0.00000000
     atom   16 type  1   force =     0.00000000    0.00000000    0.00000000
     atom   17 type  1   force =     0.00000000    0.00000000    0.00000000
     atom   18 type  1   force =     0.00000000    0.00000000    0.00000000
     atom   19 type  1   force =     0.00000000    0.00000000    0.00000000
     atom   20 type  1   force =     0.00000000    0.00000000    0.00000000
     atom   21 type  1   force =     0.00000000    0.00000000    0.00000000
     atom   22 type  1   force =     0.00000000    0.00000000    0.00000000
     atom   23 type  1   force =     0.00000000    0.00000000    0.00000000
     atom   24 type  1   force =     0.00000000    0.00000000    0.00000000
     atom   25 type  1   force =     0.00000000    0.00000000    0.00000000
     atom   26 type  1   force =     0.00000000    0.00000000    0.00000000
     atom   27 type  1   force =     0.00000000    0.00000000    0.00000000
     atom   28 type  1   force =     0.00000000    0.00000000    0.00000000
     atom   29 type  1   force =     0.00000000    0.00000000    0.00000000
     atom   30 type  1   force =     0.00000000    0.00000000    0.00000000
     atom   31 type  1   force =     0.00000000    0.00000000    0.00000000
     atom   32 type  1   force =     0.00000000    0.00000000    0.00000000
     atom   33 type  1   force =     0.00000000    0.00000000    0.00000000
     atom   34 type  1   force =     0.00000000    0.00000000    0.00000000
     atom   35 type  1   force =     0.00000000    0.00000000    0.00000000
     atom   36 type  1   force =     0.00000000    0.00000000    0.00000000
     atom   37 type  2   force =     0.00000000    0.00000000    0.00000000
     atom   38 type  3   force =     0.00000000    0.00000000    0.00000000
     The SCF correction term to forces
     atom    1 type  1   force =    -0.00000000   -0.00000000    0.00000000
     atom    2 type  1   force =    -0.00000000    0.00000000    0.00000000
     atom    3 type  1   force =     0.00000000   -0.00000000    0.00000000
     atom    4 type  1   force =     0.00000000    0.00000000    0.00000000
     atom    5 type  1   force =    -0.00000000    0.00000000    0.00000000
     atom    6 type  1   force =    -0.00000000    0.00000000    0.00000000
     atom    7 type  1   force =     0.00000000   -0.00000000    0.00000000
     atom    8 type  1   force =    -0.00000000    0.00000000    0.00000000
     atom    9 type  1   force =     0.00000000    0.00000000    0.00000000
     atom   10 type  1   force =     0.00000000   -0.00000000   -0.00000000
     atom   11 type  1   force =    -0.00000000    0.00000000    0.00000000
     atom   12 type  1   force =    -0.00000000   -0.00000000   -0.00000000
     atom   13 type  1   force =     0.00000000    0.00000000   -0.00000000
     atom   14 type  1   force =    -0.00000000    0.00000000   -0.00000000
     atom   15 type  1   force =     0.00000000    0.00000000   -0.00000000
     atom   16 type  1   force =    -0.00000000   -0.00000000   -0.00000000
     atom   17 type  1   force =    -0.00000000    0.00000000   -0.00000000
     atom   18 type  1   force =     0.00000000   -0.00000000   -0.00000000
     atom   19 type  1   force =     0.00001433   -0.00001819   -0.00001729
     atom   20 type  1   force =     0.00001687    0.00001450   -0.00002316
     atom   21 type  1   force =    -0.00003052   -0.00001423   -0.00001731
     atom   22 type  1   force =     0.00004304    0.00001883   -0.00002753
     atom   23 type  1   force =    -0.00003107    0.00001043   -0.00003700
     atom   24 type  1   force =    -0.00001229    0.00002042   -0.00001729
     atom   25 type  1   force =    -0.00000255   -0.00003313   -0.00003035
     atom   26 type  1   force =    -0.00001301   -0.00000890   -0.00002581
     atom   27 type  1   force =     0.00001530    0.00000963   -0.00001644
     atom   28 type  1   force =    -0.00000919   -0.00002020   -0.00003618
     atom   29 type  1   force =     0.00001357    0.00000060   -0.00004024
     atom   30 type  1   force =    -0.00000596   -0.00001187   -0.00004035
     atom   31 type  1   force =     0.00001969    0.00001232   -0.00003503
     atom   32 type  1   force =    -0.00001183    0.00000154   -0.00004421
     atom   33 type  1   force =    -0.00001105   -0.00000496   -0.00002197
     atom   34 type  1   force =     0.00000123    0.00000140   -0.00005116
     atom   35 type  1   force =    -0.00001706    0.00000582   -0.00003713
     atom   36 type  1   force =     0.00001459    0.00001775   -0.00003273
     atom   37 type  2   force =     0.00000415   -0.00000274   -0.00001197
     atom   38 type  3   force =     0.00000078    0.00000073   -0.00000157

     Total force =     0.000704     Total SCF correction =     0.000171
     SCF correction compared to forces is large: reduce conv_thr to get better values

     Writing all to output data dir ./pwscf.save/

     init_run     :     12.94s CPU     13.35s WALL (       1 calls)
     electrons    :    592.92s CPU    613.56s WALL (       1 calls)
     forces       :      5.62s CPU      6.67s WALL (       1 calls)

     Called by init_run:
     wfcinit      :      7.71s CPU      7.93s WALL (       1 calls)
     potinit      :      3.45s CPU      3.55s WALL (       1 calls)
     hinit0       :      1.04s CPU      1.06s WALL (       1 calls)

     Called by electrons:
     c_bands      :    485.48s CPU    497.30s WALL (      24 calls)
     sum_band     :     66.62s CPU     70.27s WALL (      24 calls)
     v_of_rho     :     19.48s CPU     22.58s WALL (      24 calls)
     newd         :      9.56s CPU     11.11s WALL (      24 calls)
     PAW_pot      :      6.67s CPU      6.84s WALL (      24 calls)
     mix_rho      :      7.42s CPU      7.58s WALL (      24 calls)
     vdW_kernel   :      1.70s CPU      1.71s WALL (       1 calls)

     Called by c_bands:
     init_us_2    :      6.41s CPU      6.62s WALL (     650 calls)
     init_us_2:cp :      6.40s CPU      6.62s WALL (     650 calls)
     cegterg      :    471.56s CPU    482.82s WALL (     312 calls)

     Called by *egterg:
     cdiaghg      :     84.42s CPU     85.53s WALL (    1472 calls)
     h_psi        :    225.74s CPU    232.08s WALL (    1498 calls)
     s_psi        :     27.13s CPU     27.74s WALL (    1498 calls)
     g_psi        :      1.13s CPU      1.19s WALL (    1173 calls)

     Called by h_psi:
     h_psi:calbec :     40.24s CPU     41.44s WALL (    1498 calls)
     vloc_psi     :    155.15s CPU    159.19s WALL (    1498 calls)
     add_vuspsi   :     27.46s CPU     28.49s WALL (    1498 calls)

     General routines
     calbec       :     58.19s CPU     59.82s WALL (    1862 calls)
     fft          :     13.10s CPU     15.78s WALL (    1572 calls)
     ffts         :      3.30s CPU      3.35s WALL (    5988 calls)
     fftw         :    153.21s CPU    156.97s WALL (  403506 calls)
     interpolate  :      0.70s CPU      0.78s WALL (      24 calls)

     Parallel routines

     PWSCF        :  10m13.33s CPU  10m38.64s WALL


   This run was terminated on:  13:15:53   9Nov2025            

=------------------------------------------------------------------------------=
   JOB DONE.
=------------------------------------------------------------------------------=
