
     Program PWSCF v.7.1 starts on 14Dec2025 at  8:40:29 
        Git branch: heads/qe-7.1
        Last git commit: 48ba0178f8fede6d020eb786884699a9f063f55d-dirty
        Last git commit date: Fri Jan 27 14:22:33 2023 +0000
        Last git commit subject: Merge branch 'fix_hubbard' into 'develop'

     This program is part of the open-source Quantum ESPRESSO suite
     for quantum simulation of materials; please cite
         "P. Giannozzi et al., J. Phys.:Condens. Matter 21 395502 (2009);
         "P. Giannozzi et al., J. Phys.:Condens. Matter 29 465901 (2017);
         "P. Giannozzi et al., J. Chem. Phys. 152 154105 (2020);
          URL http://www.quantum-espresso.org", 
     in publications or presentations arising from this work. More details at
     http://www.quantum-espresso.org/quote

     Parallel version (MPI), running on    96 processors

     MPI processes distributed on     2 nodes
     29702 MiB available memory on the printing compute node when the environment starts

     Reading input from espresso.pwi
Warning: card &CELL ignored
Warning: card / ignored
Warning: card &FCP ignored
Warning: card / ignored
Warning: card &RISM ignored
Warning: card / ignored

     Current dimensions of program PWSCF are:
     Max number of different atomic species (ntypx) = 10
     Max number of k-points (npk) =  40000
     Max angular momentum in pseudopotentials (lmaxx) =  4
     file Co.pbe-n-kjpaw_psl.1.0.0.UPF: wavefunction(s)  4S 3D renormalized
     file C.pbe-n-kjpaw_psl.1.0.0.UPF: wavefunction(s)  2S 2P renormalized
     file O.pbe-nl-kjpaw_psl.1.0.0.UPF: wavefunction(s)  2S 2P renormalized
     file H.pbe-kjpaw_psl.1.0.0.UPF: wavefunction(s)  1S renormalized

     **************************************************************************
     Initializing libbeef V0.1.2 with the BEEF-vdW functional.
     Citation: Wellendorff et al., PRB 85, 235149 (2012).
     **************************************************************************


     IMPORTANT: XC functional enforced from input :
     Exchange-correlation= BEEF-VDW
                           (   1   4  43  14   2   0   0)
     Any further DFT definition will be discarded
     Please, verify this is what you really want


     R & G space division:  proc/nbgrp/npool/nimage =      96
     Subspace diagonalization in iterative solution of the eigenvalue problem:
     one sub-group per band group will be used
     custom distributed-memory algorithm (size of sub-group:  2*  2 procs)


     Parallelization info
     --------------------
     sticks:   dense  smooth     PW     G-vecs:    dense   smooth      PW
     Min          43      28      7                 7829     4248     595
     Max          44      29      8                 7845     4281     630
     Sum        4153    2773    757               752179   409445   59217

     Using Slab Decomposition



     bravais-lattice index     =            0
     lattice parameter (alat)  =      14.1729  a.u.
     unit-cell volume          =    8574.3059 (a.u.)^3
     number of atoms/cell      =           39
     number of atomic types    =            4
     number of electrons       =       335.00
     number of Kohn-Sham states=          202
     kinetic-energy cutoff     =      50.0000  Ry
     charge density cutoff     =     300.0000  Ry
     scf convergence threshold =      1.0E-08
     mixing beta               =       0.7000
     number of iterations used =            8  local-TF  mixing
     Exchange-correlation= BEEF-VDW
                           (   1   4  43  14   2   0   0)

     celldm(1)=  14.172946  celldm(2)=   0.000000  celldm(3)=   0.000000
     celldm(4)=   0.000000  celldm(5)=   0.000000  celldm(6)=   0.000000

     crystal axes: (cart. coord. in units of alat)
               a(1) = (   1.000000   0.000000   0.000000 )  
               a(2) = (   0.500000   0.866025   0.000000 )  
               a(3) = (   0.000000   0.000000   3.477667 )  

     reciprocal axes: (cart. coord. in units 2 pi/alat)
               b(1) = (  1.000000 -0.577350  0.000000 )  
               b(2) = (  0.000000  1.154701  0.000000 )  
               b(3) = (  0.000000  0.000000  0.287549 )  


     PseudoPot. # 1 for Co read from file:
     /users/kbadger1/espresso/pseudo/pslibrary.1.0.0/pbe/PSEUDOPOTENTIALS/Co.pbe-n-kjpaw_psl.1.0.0.UPF
     MD5 check sum: 88af6ec42553d4236c267fdfcb472151
     Pseudo is Projector augmented-wave + core cor, Zval =  9.0
     Generated using 'atomic' code by A. Dal Corso  v.7.0
     Shape of augmentation charge: PSQ
     Using radial grid of 1193 points,  6 beta functions with: 
                l(1) =   0
                l(2) =   0
                l(3) =   1
                l(4) =   1
                l(5) =   2
                l(6) =   2
     Q(r) pseudized with 0 coefficients 


     PseudoPot. # 2 for C  read from file:
     /users/kbadger1/espresso/pseudo/pslibrary.1.0.0/pbe/PSEUDOPOTENTIALS/C.pbe-n-kjpaw_psl.1.0.0.UPF
     MD5 check sum: 6408e75cdba28732cea38a4db8498ce4
     Pseudo is Projector augmented-wave + core cor, Zval =  4.0
     Generated using 'atomic' code by A. Dal Corso  v.7.0
     Shape of augmentation charge: PSQ
     Using radial grid of 1073 points,  4 beta functions with: 
                l(1) =   0
                l(2) =   0
                l(3) =   1
                l(4) =   1
     Q(r) pseudized with 0 coefficients 


     PseudoPot. # 3 for O  read from file:
     /users/kbadger1/espresso/pseudo/pslibrary.1.0.0/pbe/PSEUDOPOTENTIALS/O.pbe-nl-kjpaw_psl.1.0.0.UPF
     MD5 check sum: f0439fab3598ca4e468f064226030408
     Pseudo is Projector augmented-wave + core cor, Zval =  6.0
     Generated using 'atomic' code by A. Dal Corso  v.7.0
     Shape of augmentation charge: PSQ
     Using radial grid of 1095 points,  4 beta functions with: 
                l(1) =   0
                l(2) =   0
                l(3) =   1
                l(4) =   1
     Q(r) pseudized with 0 coefficients 


     PseudoPot. # 4 for H  read from file:
     /users/kbadger1/espresso/pseudo/pslibrary.1.0.0/pbe/PSEUDOPOTENTIALS/H.pbe-kjpaw_psl.1.0.0.UPF
     MD5 check sum: fe4c6fa958fa6d3815bf5d2419cbf1df
     Pseudo is Projector augmented-wave, Zval =  1.0
     Generated using 'atomic' code by A. Dal Corso  v.7.0
     Shape of augmentation charge: PSQ
     Using radial grid of  929 points,  2 beta functions with: 
                l(1) =   0
                l(2) =   0
     Q(r) pseudized with 0 coefficients 


     atomic species   valence    mass     pseudopotential
        Co             9.00    58.93319     Co( 1.00)
        C              4.00    12.01100     C ( 1.00)
        O              6.00    15.99900     O ( 1.00)
        H              1.00     1.00800     H ( 1.00)

     Starting magnetic structure 
     atomic species   magnetization
        Co           1.000
        C            1.000
        O            0.000
        H            0.000

     No symmetry found



   Cartesian axes

     site n.     atom                  positions (alat units)
         1           Co  tau(   1) = (   0.0000000   0.1924501   1.3333333  )
         2           Co  tau(   2) = (   0.3333333   0.1924501   1.3333333  )
         3           Co  tau(   3) = (   0.6666667   0.1924501   1.3333333  )
         4           Co  tau(   4) = (   0.1666667   0.4811252   1.3333333  )
         5           Co  tau(   5) = (   0.5000000   0.4811252   1.3333333  )
         6           Co  tau(   6) = (   0.8333333   0.4811252   1.3333333  )
         7           Co  tau(   7) = (   0.3333333   0.7698004   1.3333333  )
         8           Co  tau(   8) = (   0.6666667   0.7698004   1.3333333  )
         9           Co  tau(   9) = (   1.0000000   0.7698004   1.3333333  )
        10           Co  tau(  10) = (   0.0000000   0.0000000   1.6036667  )
        11           Co  tau(  11) = (   0.3333333   0.0000000   1.6036667  )
        12           Co  tau(  12) = (   0.6666667   0.0000000   1.6036667  )
        13           Co  tau(  13) = (   0.1666667   0.2886751   1.6036667  )
        14           Co  tau(  14) = (   0.5000000   0.2886751   1.6036667  )
        15           Co  tau(  15) = (   0.8333333   0.2886751   1.6036667  )
        16           Co  tau(  16) = (   0.3333333   0.5773503   1.6036667  )
        17           Co  tau(  17) = (   0.6666667   0.5773503   1.6036667  )
        18           Co  tau(  18) = (   1.0000000   0.5773503   1.6036667  )
        19           Co  tau(  19) = (   0.0000000   0.1924501   1.8740000  )
        20           Co  tau(  20) = (   0.3333333   0.1924501   1.8740000  )
        21           Co  tau(  21) = (   0.6666667   0.1924501   1.8740000  )
        22           Co  tau(  22) = (   0.1666667   0.4811252   1.8740000  )
        23           Co  tau(  23) = (   0.5000000   0.4811252   1.8740000  )
        24           Co  tau(  24) = (   0.8333333   0.4811252   1.8740000  )
        25           Co  tau(  25) = (   0.3333333   0.7698004   1.8740000  )
        26           Co  tau(  26) = (   0.6666667   0.7698004   1.8740000  )
        27           Co  tau(  27) = (   1.0000000   0.7698004   1.8740000  )
        28           Co  tau(  28) = (   0.0000000   0.0000000   2.1443333  )
        29           Co  tau(  29) = (   0.3333333   0.0000000   2.1443333  )
        30           Co  tau(  30) = (   0.6666667   0.0000000   2.1443333  )
        31           Co  tau(  31) = (   0.1666667   0.2886751   2.1443333  )
        32           Co  tau(  32) = (   0.5000000   0.2886751   2.1443333  )
        33           Co  tau(  33) = (   0.8333333   0.2886751   2.1443333  )
        34           Co  tau(  34) = (   0.3333333   0.5773503   2.1443333  )
        35           Co  tau(  35) = (   0.6666667   0.5773503   2.1443333  )
        36           Co  tau(  36) = (   1.0000000   0.5773503   2.1443333  )
        37           C   tau(  37) = (   0.1709683  -0.0088686   2.3359809  )
        38           O   tau(  38) = (   0.1249520  -0.0060124   2.4876784  )
        39           H   tau(  39) = (   0.4214566  -0.0087442   2.3245639  )

     number of k points=    13  Marzari-Vanderbilt smearing, width (Ry)=  0.0010
                       cart. coord. in units 2pi/alat
        k(    1) = (   0.0000000   0.0000000   0.0000000), wk =   0.0400000
        k(    2) = (   0.0000000   0.2309401   0.0000000), wk =   0.0800000
        k(    3) = (   0.0000000   0.4618802   0.0000000), wk =   0.0800000
        k(    4) = (   0.2000000  -0.1154701   0.0000000), wk =   0.0800000
        k(    5) = (   0.2000000   0.1154701   0.0000000), wk =   0.0800000
        k(    6) = (   0.2000000   0.3464102   0.0000000), wk =   0.0800000
        k(    7) = (   0.2000000  -0.5773503   0.0000000), wk =   0.0800000
        k(    8) = (   0.2000000  -0.3464102   0.0000000), wk =   0.0800000
        k(    9) = (   0.4000000  -0.2309401   0.0000000), wk =   0.0800000
        k(   10) = (   0.4000000   0.0000000   0.0000000), wk =   0.0800000
        k(   11) = (   0.4000000   0.2309401   0.0000000), wk =   0.0800000
        k(   12) = (   0.4000000  -0.6928203   0.0000000), wk =   0.0800000
        k(   13) = (   0.4000000  -0.4618802   0.0000000), wk =   0.0800000

     Dense  grid:   752179 G-vectors     FFT dimensions: (  80,  80, 288)

     Smooth grid:   409445 G-vectors     FFT dimensions: (  64,  64, 225)

     Estimated max dynamical RAM per process >      99.02 MB

     Estimated total dynamical RAM >       9.28 GB
     Generating pointlists ...
     new r_m :   0.0828 (alat units)  1.1740 (a.u.) for type    1
     new r_m :   0.0654 (alat units)  0.9269 (a.u.) for type    2
     new r_m :   0.0654 (alat units)  0.9269 (a.u.) for type    3
     new r_m :   0.0828 (alat units)  1.1740 (a.u.) for type    4

     Initial potential from superposition of free atoms

     starting charge     334.9897, renormalised to     335.0000

     negative rho (up, down):  3.045E-03 4.591E-04


     %%%%%%%%%%%%%%%%%%%%%%%%%%%%%%%%%%%%%%%%%%%%%%%%%%%%%%%%%%%%%%%%%%%%%%%%
     %                                                                      %
     % You are using vdW-DF, which was implemented by the Thonhauser group. %
     % Please cite the following two papers that made this development      %
     % possible and the two reviews that describe the various versions:     %
     %                                                                      %
     %   T. Thonhauser et al., PRL 115, 136402 (2015).                      %
     %   T. Thonhauser et al., PRB 76, 125112 (2007).                       %
     %   K. Berland et al., Rep. Prog. Phys. 78, 066501 (2015).             %
     %   D.C. Langreth et al., J. Phys.: Condens. Matter 21, 084203 (2009). %
     %                                                                      %
     % If you are calculating stress with vdW-DF, please also cite:         %
     %                                                                      %
     %   R. Sabatini et al., J. Phys.: Condens. Matter 24, 424209 (2012).   %
     %   C.M. Frostenson et al., Electr. Struct. 4, 014001 (2022).          %
     %                                                                      %
     %%%%%%%%%%%%%%%%%%%%%%%%%%%%%%%%%%%%%%%%%%%%%%%%%%%%%%%%%%%%%%%%%%%%%%%%

     %%%%%%%%%%%%%%%%%%%%%%%%%%%%%%%%%%%%%%%%%%%%%%%%%%%%%%%%%%%%%%%%%%%%%%%%
     %                                                                      %
     %  vdW-DF NEWS:                                                        %
     %                                                                      %
     %  * vdW-DF3 is now available. DOI: 10.1021/acs.jctc.0c00471           %
     %    use with input_dft = 'vdW-DF3-opt1' or 'vdW-DF3-opt2'             %
     %                                                                      %
     %  * Unscreened and range-separated hybrid vdW-DF-cx functionals       %
     %    DOI: 10.1063/1.4986522 and 10.1088/1361-648X/ac2ad2               %
     %    use with input_dft = 'vdW-DF-cx0'    and 'vdW-DF-ahcx'            %
     %  * Unscreened and range-separated hybrid vdW-DF2-b86r functionals    %
     %    DOI: 10.1063/1.4986522 and DOI: 10.1103/PhysRevX.12.041003        %
     %    use with input_dft = 'vdW-DF2-br0' and 'vdW-DF2-ahbr'             %
     %                                                                      %
     %%%%%%%%%%%%%%%%%%%%%%%%%%%%%%%%%%%%%%%%%%%%%%%%%%%%%%%%%%%%%%%%%%%%%%%%


     Starting wfcs are  333 randomized atomic wfcs
     Checking if some PAW data can be deallocated... 

     total cpu time spent up to now is       17.0 secs

     per-process dynamical memory:   230.1 Mb

     Self-consistent Calculation

     iteration #  1     ecut=    50.00 Ry     beta= 0.70
     Davidson diagonalization with overlap
     ethr =  1.00E-02,  avg # of iterations =  2.0

     negative rho (up, down):  3.226E-05 8.655E-08

     total cpu time spent up to now is       39.2 secs

     total energy              =   -6053.06410658 Ry
     estimated scf accuracy    <      39.36754337 Ry

     total magnetization       =    69.00 Bohr mag/cell
     absolute magnetization    =    81.18 Bohr mag/cell

     iteration #  2     ecut=    50.00 Ry     beta= 0.70
     Davidson diagonalization with overlap
     ethr =  1.00E-02,  avg # of iterations =  1.0

     negative rho (up, down):  4.771E-06 2.264E-08

     total cpu time spent up to now is       53.8 secs

     total energy              =   -6052.55509666 Ry
     estimated scf accuracy    <      24.76689217 Ry

     total magnetization       =    68.69 Bohr mag/cell
     absolute magnetization    =    76.55 Bohr mag/cell

     iteration #  3     ecut=    50.00 Ry     beta= 0.70
     Davidson diagonalization with overlap
     ethr =  7.39E-03,  avg # of iterations =  1.1

     negative rho (up, down):  4.296E-08 0.000E+00

     total cpu time spent up to now is       72.1 secs

     total energy              =   -6055.11538192 Ry
     estimated scf accuracy    <      84.75596755 Ry

     total magnetization       =    66.44 Bohr mag/cell
     absolute magnetization    =    73.62 Bohr mag/cell

     iteration #  4     ecut=    50.00 Ry     beta= 0.70
     Davidson diagonalization with overlap
     ethr =  7.39E-03,  avg # of iterations =  1.0

     total cpu time spent up to now is       86.6 secs

     total energy              =   -6056.38383901 Ry
     estimated scf accuracy    <       5.28270640 Ry

     total magnetization       =    60.40 Bohr mag/cell
     absolute magnetization    =    70.10 Bohr mag/cell

     iteration #  5     ecut=    50.00 Ry     beta= 0.70
     Davidson diagonalization with overlap
     ethr =  1.58E-03,  avg # of iterations =  1.2

     total cpu time spent up to now is      105.1 secs

     total energy              =   -6056.39976009 Ry
     estimated scf accuracy    <       2.34447125 Ry

     total magnetization       =    59.90 Bohr mag/cell
     absolute magnetization    =    69.28 Bohr mag/cell

     iteration #  6     ecut=    50.00 Ry     beta= 0.70
     Davidson diagonalization with overlap
     ethr =  7.00E-04,  avg # of iterations =  1.6

     total cpu time spent up to now is      120.0 secs

     total energy              =   -6056.50141755 Ry
     estimated scf accuracy    <       0.57573465 Ry

     total magnetization       =    59.62 Bohr mag/cell
     absolute magnetization    =    68.72 Bohr mag/cell

     iteration #  7     ecut=    50.00 Ry     beta= 0.70
     Davidson diagonalization with overlap
     ethr =  1.72E-04,  avg # of iterations =  6.1

     total cpu time spent up to now is      144.7 secs

     total energy              =   -6056.55046588 Ry
     estimated scf accuracy    <       0.88340091 Ry

     total magnetization       =    59.88 Bohr mag/cell
     absolute magnetization    =    68.57 Bohr mag/cell

     iteration #  8     ecut=    50.00 Ry     beta= 0.70
     Davidson diagonalization with overlap
     ethr =  1.72E-04,  avg # of iterations =  1.7

     total cpu time spent up to now is      163.1 secs

     total energy              =   -6056.56447304 Ry
     estimated scf accuracy    <       0.14991902 Ry

     total magnetization       =    59.98 Bohr mag/cell
     absolute magnetization    =    68.49 Bohr mag/cell

     iteration #  9     ecut=    50.00 Ry     beta= 0.70
     Davidson diagonalization with overlap
     c_bands:  1 eigenvalues not converged
     c_bands:  1 eigenvalues not converged
     c_bands:  2 eigenvalues not converged
     c_bands:  1 eigenvalues not converged
     ethr =  4.48E-05,  avg # of iterations =  9.2

     total cpu time spent up to now is      192.2 secs

     total energy              =   -6056.56946882 Ry
     estimated scf accuracy    <       0.16702221 Ry

     total magnetization       =    60.28 Bohr mag/cell
     absolute magnetization    =    68.41 Bohr mag/cell

     iteration # 10     ecut=    50.00 Ry     beta= 0.70
     Davidson diagonalization with overlap
     ethr =  4.48E-05,  avg # of iterations =  2.7

     total cpu time spent up to now is      207.7 secs

     total energy              =   -6056.57648323 Ry
     estimated scf accuracy    <       0.19932605 Ry

     total magnetization       =    60.29 Bohr mag/cell
     absolute magnetization    =    68.28 Bohr mag/cell

     iteration # 11     ecut=    50.00 Ry     beta= 0.70
     Davidson diagonalization with overlap
     ethr =  4.48E-05,  avg # of iterations =  1.3

     total cpu time spent up to now is      225.7 secs

     total energy              =   -6056.56921584 Ry
     estimated scf accuracy    <       0.12626888 Ry

     total magnetization       =    60.28 Bohr mag/cell
     absolute magnetization    =    68.17 Bohr mag/cell

     iteration # 12     ecut=    50.00 Ry     beta= 0.70
     Davidson diagonalization with overlap
     ethr =  3.77E-05,  avg # of iterations =  1.9

     total cpu time spent up to now is      246.0 secs

     total energy              =   -6056.57294361 Ry
     estimated scf accuracy    <       0.08047051 Ry

     total magnetization       =    60.28 Bohr mag/cell
     absolute magnetization    =    68.01 Bohr mag/cell

     iteration # 13     ecut=    50.00 Ry     beta= 0.70
     Davidson diagonalization with overlap
     ethr =  2.40E-05,  avg # of iterations =  1.4

     total cpu time spent up to now is      259.7 secs

     total energy              =   -6056.57488658 Ry
     estimated scf accuracy    <       0.09195984 Ry

     total magnetization       =    60.28 Bohr mag/cell
     absolute magnetization    =    67.96 Bohr mag/cell

     iteration # 14     ecut=    50.00 Ry     beta= 0.70
     Davidson diagonalization with overlap
     ethr =  2.40E-05,  avg # of iterations =  1.5

     total cpu time spent up to now is      278.2 secs

     total energy              =   -6056.56794454 Ry
     estimated scf accuracy    <       0.09246356 Ry

     total magnetization       =    60.28 Bohr mag/cell
     absolute magnetization    =    67.98 Bohr mag/cell

     iteration # 15     ecut=    50.00 Ry     beta= 0.70
     Davidson diagonalization with overlap
     ethr =  2.40E-05,  avg # of iterations =  1.7

     negative rho (up, down):  3.871E-03 2.772E-03

     total cpu time spent up to now is      292.3 secs

     total energy              =   -6056.56517109 Ry
     estimated scf accuracy    <       0.09955709 Ry

     total magnetization       =    60.28 Bohr mag/cell
     absolute magnetization    =    67.98 Bohr mag/cell

     iteration # 16     ecut=    50.00 Ry     beta= 0.70
     Davidson diagonalization with overlap
     ethr =  2.40E-05,  avg # of iterations =  1.7

     negative rho (up, down):  1.147E-02 9.891E-03

     total cpu time spent up to now is      312.6 secs

     total energy              =   -6056.56427553 Ry
     estimated scf accuracy    <       0.06070296 Ry

     total magnetization       =    60.28 Bohr mag/cell
     absolute magnetization    =    67.86 Bohr mag/cell

     iteration # 17     ecut=    50.00 Ry     beta= 0.70
     Davidson diagonalization with overlap
     c_bands:  2 eigenvalues not converged
     ethr =  1.81E-05,  avg # of iterations =  2.3

     negative rho (up, down):  3.484E-02 3.256E-02

     total cpu time spent up to now is      327.6 secs

     total energy              =   -6056.56138830 Ry
     estimated scf accuracy    <       0.04154299 Ry

     total magnetization       =    60.28 Bohr mag/cell
     absolute magnetization    =    67.83 Bohr mag/cell

     iteration # 18     ecut=    50.00 Ry     beta= 0.70
     Davidson diagonalization with overlap
     c_bands:  5 eigenvalues not converged
     c_bands:  2 eigenvalues not converged
     ethr =  1.24E-05,  avg # of iterations =  3.8

     negative rho (up, down):  2.205E-02 2.040E-02

     total cpu time spent up to now is      348.2 secs

     total energy              =   -6056.56139738 Ry
     estimated scf accuracy    <       0.10459773 Ry

     total magnetization       =    60.28 Bohr mag/cell
     absolute magnetization    =    67.76 Bohr mag/cell

     iteration # 19     ecut=    50.00 Ry     beta= 0.70
     Davidson diagonalization with overlap
     ethr =  1.24E-05,  avg # of iterations =  1.7

     negative rho (up, down):  2.637E-02 2.457E-02

     total cpu time spent up to now is      368.0 secs

     total energy              =   -6056.56221932 Ry
     estimated scf accuracy    <       0.02289438 Ry

     total magnetization       =    60.28 Bohr mag/cell
     absolute magnetization    =    67.79 Bohr mag/cell

     iteration # 20     ecut=    50.00 Ry     beta= 0.70
     Davidson diagonalization with overlap
     c_bands:  1 eigenvalues not converged
     c_bands:  1 eigenvalues not converged
     c_bands:  3 eigenvalues not converged
     c_bands:  1 eigenvalues not converged
     c_bands:  1 eigenvalues not converged
     ethr =  6.83E-06,  avg # of iterations =  6.1

     negative rho (up, down):  3.019E-02 2.836E-02

     total cpu time spent up to now is      386.6 secs

     total energy              =   -6056.56195875 Ry
     estimated scf accuracy    <       0.01049159 Ry

     total magnetization       =    60.29 Bohr mag/cell
     absolute magnetization    =    67.82 Bohr mag/cell

     iteration # 21     ecut=    50.00 Ry     beta= 0.70
     Davidson diagonalization with overlap
     c_bands:  1 eigenvalues not converged
     c_bands:  2 eigenvalues not converged
     c_bands:  1 eigenvalues not converged
     c_bands:  1 eigenvalues not converged
     c_bands:  2 eigenvalues not converged
     ethr =  3.13E-06,  avg # of iterations =  7.4

     negative rho (up, down):  2.772E-02 2.615E-02

     total cpu time spent up to now is      410.8 secs

     total energy              =   -6056.56105245 Ry
     estimated scf accuracy    <       0.01542869 Ry

     total magnetization       =    60.50 Bohr mag/cell
     absolute magnetization    =    67.93 Bohr mag/cell

     iteration # 22     ecut=    50.00 Ry     beta= 0.70
     Davidson diagonalization with overlap
     ethr =  3.13E-06,  avg # of iterations =  2.8

     negative rho (up, down):  1.846E-02 1.714E-02

     total cpu time spent up to now is      431.5 secs

     total energy              =   -6056.56079794 Ry
     estimated scf accuracy    <       0.00375579 Ry

     total magnetization       =    60.58 Bohr mag/cell
     absolute magnetization    =    68.00 Bohr mag/cell

     iteration # 23     ecut=    50.00 Ry     beta= 0.70
     Davidson diagonalization with overlap
     c_bands:  1 eigenvalues not converged
     c_bands:  2 eigenvalues not converged
     c_bands:  2 eigenvalues not converged
     ethr =  1.12E-06,  avg # of iterations =  4.7

     negative rho (up, down):  1.737E-02 1.621E-02

     total cpu time spent up to now is      449.7 secs

     total energy              =   -6056.56054233 Ry
     estimated scf accuracy    <       0.01169364 Ry

     total magnetization       =    60.54 Bohr mag/cell
     absolute magnetization    =    67.98 Bohr mag/cell

     iteration # 24     ecut=    50.00 Ry     beta= 0.70
     Davidson diagonalization with overlap
     ethr =  1.12E-06,  avg # of iterations =  1.4

     negative rho (up, down):  9.636E-03 8.799E-03

     total cpu time spent up to now is      467.9 secs

     total energy              =   -6056.56057258 Ry
     estimated scf accuracy    <       0.00312065 Ry

     total magnetization       =    60.55 Bohr mag/cell
     absolute magnetization    =    67.99 Bohr mag/cell

     iteration # 25     ecut=    50.00 Ry     beta= 0.70
     Davidson diagonalization with overlap
     ethr =  9.32E-07,  avg # of iterations =  1.8

     negative rho (up, down):  8.151E-03 7.524E-03

     total cpu time spent up to now is      487.5 secs

     total energy              =   -6056.56083302 Ry
     estimated scf accuracy    <       0.00308907 Ry

     total magnetization       =    60.58 Bohr mag/cell
     absolute magnetization    =    68.02 Bohr mag/cell

     iteration # 26     ecut=    50.00 Ry     beta= 0.70
     Davidson diagonalization with overlap
     ethr =  9.22E-07,  avg # of iterations =  1.5

     negative rho (up, down):  7.928E-03 7.264E-03

     total cpu time spent up to now is      501.8 secs

     total energy              =   -6056.56085129 Ry
     estimated scf accuracy    <       0.00119923 Ry

     total magnetization       =    60.61 Bohr mag/cell
     absolute magnetization    =    68.05 Bohr mag/cell

     iteration # 27     ecut=    50.00 Ry     beta= 0.70
     Davidson diagonalization with overlap
     ethr =  3.58E-07,  avg # of iterations =  1.9

     negative rho (up, down):  2.098E-03 1.094E-03

     total cpu time spent up to now is      520.4 secs

     total energy              =   -6056.56088988 Ry
     estimated scf accuracy    <       0.00102985 Ry

     total magnetization       =    60.60 Bohr mag/cell
     absolute magnetization    =    68.04 Bohr mag/cell

     iteration # 28     ecut=    50.00 Ry     beta= 0.70
     Davidson diagonalization with overlap
     ethr =  3.07E-07,  avg # of iterations =  1.7

     negative rho (up, down):  4.256E-03 3.371E-03

     total cpu time spent up to now is      535.0 secs

     total energy              =   -6056.56094375 Ry
     estimated scf accuracy    <       0.00056283 Ry

     total magnetization       =    60.59 Bohr mag/cell
     absolute magnetization    =    68.04 Bohr mag/cell

     iteration # 29     ecut=    50.00 Ry     beta= 0.70
     Davidson diagonalization with overlap
     ethr =  1.68E-07,  avg # of iterations =  2.2

     negative rho (up, down):  3.629E-03 2.603E-03

     total cpu time spent up to now is      554.4 secs

     total energy              =   -6056.56096592 Ry
     estimated scf accuracy    <       0.00026260 Ry

     total magnetization       =    60.60 Bohr mag/cell
     absolute magnetization    =    68.04 Bohr mag/cell

     iteration # 30     ecut=    50.00 Ry     beta= 0.70
     Davidson diagonalization with overlap
     ethr =  7.84E-08,  avg # of iterations =  2.3

     negative rho (up, down):  3.673E-03 2.653E-03

     total cpu time spent up to now is      569.5 secs

     total energy              =   -6056.56098020 Ry
     estimated scf accuracy    <       0.00011891 Ry

     total magnetization       =    60.60 Bohr mag/cell
     absolute magnetization    =    68.04 Bohr mag/cell

     iteration # 31     ecut=    50.00 Ry     beta= 0.70
     Davidson diagonalization with overlap
     ethr =  3.55E-08,  avg # of iterations =  3.3

     negative rho (up, down):  3.618E-03 2.624E-03

     total cpu time spent up to now is      589.3 secs

     total energy              =   -6056.56098621 Ry
     estimated scf accuracy    <       0.00004247 Ry

     total magnetization       =    60.59 Bohr mag/cell
     absolute magnetization    =    68.04 Bohr mag/cell

     iteration # 32     ecut=    50.00 Ry     beta= 0.70
     Davidson diagonalization with overlap
     ethr =  1.27E-08,  avg # of iterations =  5.1

     negative rho (up, down):  3.362E-03 2.320E-03

     total cpu time spent up to now is      611.7 secs

     total energy              =   -6056.56098378 Ry
     estimated scf accuracy    <       0.00002755 Ry

     total magnetization       =    60.59 Bohr mag/cell
     absolute magnetization    =    68.03 Bohr mag/cell

     iteration # 33     ecut=    50.00 Ry     beta= 0.70
     Davidson diagonalization with overlap
     ethr =  8.22E-09,  avg # of iterations =  2.5

     negative rho (up, down):  3.343E-03 2.331E-03

     total cpu time spent up to now is      627.6 secs

     total energy              =   -6056.56098459 Ry
     estimated scf accuracy    <       0.00009129 Ry

     total magnetization       =    60.59 Bohr mag/cell
     absolute magnetization    =    68.03 Bohr mag/cell

     iteration # 34     ecut=    50.00 Ry     beta= 0.70
     Davidson diagonalization with overlap
     ethr =  8.22E-09,  avg # of iterations =  1.3

     negative rho (up, down):  3.399E-03 2.456E-03

     total cpu time spent up to now is      645.8 secs

     total energy              =   -6056.56099090 Ry
     estimated scf accuracy    <       0.00002855 Ry

     total magnetization       =    60.59 Bohr mag/cell
     absolute magnetization    =    68.03 Bohr mag/cell

     iteration # 35     ecut=    50.00 Ry     beta= 0.70
     Davidson diagonalization with overlap
     ethr =  8.22E-09,  avg # of iterations =  1.9

     negative rho (up, down):  3.338E-03 2.416E-03

     total cpu time spent up to now is      662.4 secs

     total energy              =   -6056.56099246 Ry
     estimated scf accuracy    <       0.00004500 Ry

     total magnetization       =    60.59 Bohr mag/cell
     absolute magnetization    =    68.03 Bohr mag/cell

     iteration # 36     ecut=    50.00 Ry     beta= 0.70
     Davidson diagonalization with overlap
     ethr =  8.22E-09,  avg # of iterations =  1.1

     negative rho (up, down):  3.078E-03 2.109E-03

     total cpu time spent up to now is      679.4 secs

     total energy              =   -6056.56098659 Ry
     estimated scf accuracy    <       0.00002518 Ry

     total magnetization       =    60.59 Bohr mag/cell
     absolute magnetization    =    68.03 Bohr mag/cell

     iteration # 37     ecut=    50.00 Ry     beta= 0.70
     Davidson diagonalization with overlap
     ethr =  7.52E-09,  avg # of iterations =  1.2

     negative rho (up, down):  3.055E-03 2.094E-03

     total cpu time spent up to now is      697.8 secs

     total energy              =   -6056.56098663 Ry
     estimated scf accuracy    <       0.00002427 Ry

     total magnetization       =    60.59 Bohr mag/cell
     absolute magnetization    =    68.03 Bohr mag/cell

     iteration # 38     ecut=    50.00 Ry     beta= 0.70
     Davidson diagonalization with overlap
     ethr =  7.25E-09,  avg # of iterations =  1.0

     negative rho (up, down):  2.722E-03 1.696E-03

     total cpu time spent up to now is      711.1 secs

     total energy              =   -6056.56098245 Ry
     estimated scf accuracy    <       0.00001416 Ry

     total magnetization       =    60.59 Bohr mag/cell
     absolute magnetization    =    68.03 Bohr mag/cell

     iteration # 39     ecut=    50.00 Ry     beta= 0.70
     Davidson diagonalization with overlap
     ethr =  4.23E-09,  avg # of iterations =  1.5

     negative rho (up, down):  2.629E-03 1.576E-03

     total cpu time spent up to now is      731.2 secs

     total energy              =   -6056.56098234 Ry
     estimated scf accuracy    <       0.00000959 Ry

     total magnetization       =    60.59 Bohr mag/cell
     absolute magnetization    =    68.02 Bohr mag/cell

     iteration # 40     ecut=    50.00 Ry     beta= 0.70
     Davidson diagonalization with overlap
     ethr =  2.86E-09,  avg # of iterations =  1.7

     negative rho (up, down):  2.402E-03 1.322E-03

     total cpu time spent up to now is      746.2 secs

     total energy              =   -6056.56098234 Ry
     estimated scf accuracy    <       0.00000543 Ry

     total magnetization       =    60.59 Bohr mag/cell
     absolute magnetization    =    68.02 Bohr mag/cell

     iteration # 41     ecut=    50.00 Ry     beta= 0.70
     Davidson diagonalization with overlap
     ethr =  1.62E-09,  avg # of iterations =  3.2

     negative rho (up, down):  2.411E-03 1.339E-03

     total cpu time spent up to now is      766.9 secs

     total energy              =   -6056.56098182 Ry
     estimated scf accuracy    <       0.00002863 Ry

     total magnetization       =    60.59 Bohr mag/cell
     absolute magnetization    =    68.02 Bohr mag/cell

     iteration # 42     ecut=    50.00 Ry     beta= 0.70
     Davidson diagonalization with overlap
     ethr =  1.62E-09,  avg # of iterations =  1.5

     negative rho (up, down):  2.316E-03 1.232E-03

     total cpu time spent up to now is      785.1 secs

     total energy              =   -6056.56098286 Ry
     estimated scf accuracy    <       0.00000318 Ry

     total magnetization       =    60.59 Bohr mag/cell
     absolute magnetization    =    68.02 Bohr mag/cell

     iteration # 43     ecut=    50.00 Ry     beta= 0.70
     Davidson diagonalization with overlap
     ethr =  9.48E-10,  avg # of iterations =  1.7

     negative rho (up, down):  2.297E-03 1.214E-03

     total cpu time spent up to now is      801.3 secs

     total energy              =   -6056.56098286 Ry
     estimated scf accuracy    <       0.00000251 Ry

     total magnetization       =    60.58 Bohr mag/cell
     absolute magnetization    =    68.02 Bohr mag/cell

     iteration # 44     ecut=    50.00 Ry     beta= 0.70
     Davidson diagonalization with overlap
     ethr =  7.49E-10,  avg # of iterations =  1.3

     negative rho (up, down):  2.347E-03 1.264E-03

     total cpu time spent up to now is      819.8 secs

     total energy              =   -6056.56098293 Ry
     estimated scf accuracy    <       0.00000139 Ry

     total magnetization       =    60.58 Bohr mag/cell
     absolute magnetization    =    68.02 Bohr mag/cell

     iteration # 45     ecut=    50.00 Ry     beta= 0.70
     Davidson diagonalization with overlap
     c_bands:  1 eigenvalues not converged
     ethr =  4.15E-10,  avg # of iterations =  4.3

     negative rho (up, down):  2.293E-03 1.209E-03

     total cpu time spent up to now is      837.0 secs

     total energy              =   -6056.56098290 Ry
     estimated scf accuracy    <       0.00000219 Ry

     total magnetization       =    60.59 Bohr mag/cell
     absolute magnetization    =    68.02 Bohr mag/cell

     iteration # 46     ecut=    50.00 Ry     beta= 0.70
     Davidson diagonalization with overlap
     ethr =  4.15E-10,  avg # of iterations =  1.3

     negative rho (up, down):  2.249E-03 1.163E-03

     total cpu time spent up to now is      856.5 secs

     total energy              =   -6056.56098290 Ry
     estimated scf accuracy    <       0.00000042 Ry

     total magnetization       =    60.59 Bohr mag/cell
     absolute magnetization    =    68.02 Bohr mag/cell

     iteration # 47     ecut=    50.00 Ry     beta= 0.70
     Davidson diagonalization with overlap
     ethr =  1.25E-10,  avg # of iterations =  5.0

     negative rho (up, down):  2.226E-03 1.140E-03

     total cpu time spent up to now is      878.5 secs

     total energy              =   -6056.56098286 Ry
     estimated scf accuracy    <       0.00000025 Ry

     total magnetization       =    60.59 Bohr mag/cell
     absolute magnetization    =    68.02 Bohr mag/cell

     iteration # 48     ecut=    50.00 Ry     beta= 0.70
     Davidson diagonalization with overlap
     ethr =  7.50E-11,  avg # of iterations =  2.6

     negative rho (up, down):  2.248E-03 1.164E-03

     total cpu time spent up to now is      893.8 secs

     total energy              =   -6056.56098294 Ry
     estimated scf accuracy    <       0.00000023 Ry

     total magnetization       =    60.59 Bohr mag/cell
     absolute magnetization    =    68.02 Bohr mag/cell

     iteration # 49     ecut=    50.00 Ry     beta= 0.70
     Davidson diagonalization with overlap
     ethr =  6.98E-11,  avg # of iterations =  1.7

     negative rho (up, down):  2.243E-03 1.158E-03

     total cpu time spent up to now is      914.1 secs

     total energy              =   -6056.56098294 Ry
     estimated scf accuracy    <       0.00000008 Ry

     total magnetization       =    60.59 Bohr mag/cell
     absolute magnetization    =    68.02 Bohr mag/cell

     iteration # 50     ecut=    50.00 Ry     beta= 0.70
     Davidson diagonalization with overlap
     c_bands:  1 eigenvalues not converged
     c_bands:  1 eigenvalues not converged
     ethr =  2.45E-11,  avg # of iterations =  6.6

     negative rho (up, down):  2.237E-03 1.153E-03

     total cpu time spent up to now is      938.2 secs

     total energy              =   -6056.56098294 Ry
     estimated scf accuracy    <       0.00000003 Ry

     total magnetization       =    60.59 Bohr mag/cell
     absolute magnetization    =    68.02 Bohr mag/cell

     iteration # 51     ecut=    50.00 Ry     beta= 0.70
     Davidson diagonalization with overlap
     ethr =  9.19E-12,  avg # of iterations =  4.7

     negative rho (up, down):  2.237E-03 1.153E-03

     total cpu time spent up to now is      956.1 secs

     total energy              =   -6056.56098295 Ry
     estimated scf accuracy    <       0.00000002 Ry

     total magnetization       =    60.59 Bohr mag/cell
     absolute magnetization    =    68.02 Bohr mag/cell

     iteration # 52     ecut=    50.00 Ry     beta= 0.70
     Davidson diagonalization with overlap
     ethr =  6.90E-12,  avg # of iterations =  1.4

     negative rho (up, down):  2.239E-03 1.157E-03

     Magnetic moment per site  (integrated on atomic sphere of radius R)
     atom   1 (R=0.083)  charge=  5.2756  magn=  1.5648
     atom   2 (R=0.083)  charge=  5.2773  magn=  1.5586
     atom   3 (R=0.083)  charge=  5.2770  magn=  1.5669
     atom   4 (R=0.083)  charge=  5.2780  magn=  1.5701
     atom   5 (R=0.083)  charge=  5.2773  magn=  1.5686
     atom   6 (R=0.083)  charge=  5.2780  magn=  1.5655
     atom   7 (R=0.083)  charge=  5.2760  magn=  1.5637
     atom   8 (R=0.083)  charge=  5.2767  magn=  1.5520
     atom   9 (R=0.083)  charge=  5.2783  magn=  1.5598
     atom  10 (R=0.083)  charge=  5.2696  magn=  1.5068
     atom  11 (R=0.083)  charge=  5.2704  magn=  1.4951
     atom  12 (R=0.083)  charge=  5.2702  magn=  1.5124
     atom  13 (R=0.083)  charge=  5.2696  magn=  1.5153
     atom  14 (R=0.083)  charge=  5.2710  magn=  1.5124
     atom  15 (R=0.083)  charge=  5.2697  magn=  1.5075
     atom  16 (R=0.083)  charge=  5.2696  magn=  1.5008
     atom  17 (R=0.083)  charge=  5.2698  magn=  1.5124
     atom  18 (R=0.083)  charge=  5.2710  magn=  1.5088
     atom  19 (R=0.083)  charge=  5.2687  magn=  1.5047
     atom  20 (R=0.083)  charge=  5.2695  magn=  1.4937
     atom  21 (R=0.083)  charge=  5.2693  magn=  1.5212
     atom  22 (R=0.083)  charge=  5.2697  magn=  1.5044
     atom  23 (R=0.083)  charge=  5.2700  magn=  1.4990
     atom  24 (R=0.083)  charge=  5.2698  magn=  1.5065
     atom  25 (R=0.083)  charge=  5.2680  magn=  1.4911
     atom  26 (R=0.083)  charge=  5.2671  magn=  1.5087
     atom  27 (R=0.083)  charge=  5.2687  magn=  1.4942
     atom  28 (R=0.083)  charge=  5.2832  magn=  1.2285
     atom  29 (R=0.083)  charge=  5.2755  magn=  0.7035
     atom  30 (R=0.083)  charge=  5.2765  magn=  1.5464
     atom  31 (R=0.083)  charge=  5.2799  magn=  1.5682
     atom  32 (R=0.083)  charge=  5.2785  magn=  1.5850
     atom  33 (R=0.083)  charge=  5.2755  magn=  1.5830
     atom  34 (R=0.083)  charge=  5.2761  magn=  1.5862
     atom  35 (R=0.083)  charge=  5.2807  magn=  1.5549
     atom  36 (R=0.083)  charge=  5.2793  magn=  1.5854
     atom  37 (R=0.065)  charge=  1.0386  magn= -0.0174
     atom  38 (R=0.065)  charge=  2.9175  magn= -0.0303
     atom  39 (R=0.083)  charge=  0.6981  magn= -0.0126

     total cpu time spent up to now is      974.9 secs

     End of self-consistent calculation

 ------ SPIN UP ------------


          k = 0.0000 0.0000 0.0000 ( 51087 PWs)   bands (ev):

   -22.1082  -9.3320  -7.6092  -6.4236  -6.0331  -5.8406  -5.4407  -4.8091
    -4.7777  -4.7759  -4.7733  -4.7577  -4.7506  -4.7208  -4.4136  -4.2524
    -4.2432  -4.2401  -4.2195  -4.2037  -4.2015  -3.8271  -3.7296  -3.7215
    -3.7149  -3.7045  -3.6747  -3.6259  -3.5944  -3.5926  -3.5854  -3.5825
    -3.5578  -3.5182  -3.5136  -3.3963  -3.2097  -3.2065  -3.2024  -3.1998
    -3.1457  -3.1412  -3.1387  -3.1287  -3.1276  -3.1183  -3.1130  -3.1002
    -2.9750  -2.9722  -2.9043  -2.9037  -2.8960  -2.8943  -2.8832  -2.8711
    -2.8684  -2.8655  -2.8641  -2.8441  -2.7684  -2.7635  -2.7553  -2.7459
    -2.6837  -2.6469  -2.2585  -2.2292  -2.2245  -2.2200  -2.2186  -2.1226
    -2.0978  -2.0943  -2.0780  -2.0731  -2.0600  -2.0472  -2.0460  -2.0407
    -2.0006  -1.9928  -1.9874  -1.9507  -1.9466  -1.9337  -1.9223  -1.9157
    -1.9119  -1.9084  -1.9003  -1.8973  -1.8940  -1.8705  -1.8674  -1.8620
    -1.8607  -1.8558  -1.8553  -1.8513  -1.8491  -1.8483  -1.8432  -1.8409
    -1.8279  -1.8251  -1.7953  -1.7719  -1.7589  -1.6933  -1.6869  -1.5772
    -1.5298  -1.4035  -1.4012  -1.4003  -1.3950  -1.3923  -1.3750  -1.3625
    -1.3589  -1.3503  -1.3352  -1.3083  -1.3056  -1.2218  -1.1865  -1.1830
    -1.1558  -1.1437  -1.0536  -1.0057  -0.9826  -0.9741  -0.9648  -0.9447
    -0.9231  -0.9193  -0.9086  -0.9035  -0.8959  -0.8512  -0.7985  -0.7752
    -0.6974  -0.6676  -0.6601  -0.6577  -0.6421  -0.6159  -0.5989  -0.5972
    -0.5925  -0.5909  -0.5896  -0.5880  -0.5779  -0.5690  -0.5680  -0.5619
    -0.5539  -0.5482  -0.5421  -0.5306  -0.5195  -0.5154  -0.5043  -0.5029
    -0.4892  -0.4780  -0.4749  -0.4709  -0.4626  -0.4519  -0.4488  -0.4423
    -0.4386  -0.4336  -0.4127  -0.3874  -0.3725  -0.3643  -0.3618  -0.3531
    -0.3465  -0.3412  -0.3282  -0.3211  -0.3032  -0.2725  -0.2643  -0.2624
    -0.2618  -0.2494  -0.2022  -0.1976  -0.1898  -0.1814  -0.1467  -0.1210
     0.4678   0.9001

          k = 0.0000 0.2309 0.0000 ( 51134 PWs)   bands (ev):

   -22.1082  -9.3246  -7.4655  -6.3393  -6.0289  -5.8356  -5.5147  -5.4088
    -5.0187  -5.0047  -4.6639  -4.5322  -4.4346  -4.4315  -4.3673  -4.3204
    -4.2661  -4.2523  -4.1701  -4.1144  -4.1056  -3.8658  -3.7877  -3.7295
    -3.7070  -3.6546  -3.6102  -3.6007  -3.5979  -3.5821  -3.5746  -3.5640
    -3.5331  -3.4836  -3.4702  -3.4483  -3.4425  -3.3545  -3.2417  -3.2193
    -3.2168  -3.1657  -3.1615  -3.1556  -3.1399  -3.0639  -3.0344  -3.0254
    -2.9983  -2.9949  -2.9896  -2.9549  -2.9402  -2.8625  -2.8521  -2.8225
    -2.7899  -2.7835  -2.7550  -2.7505  -2.7276  -2.6965  -2.6891  -2.6752
    -2.6595  -2.5934  -2.3463  -2.3398  -2.3183  -2.3147  -2.2850  -2.1997
    -2.1889  -2.1811  -2.1752  -2.1662  -2.1561  -2.1482  -2.1245  -2.0690
    -2.0493  -2.0444  -2.0251  -1.9926  -1.9889  -1.9823  -1.9712  -1.9612
    -1.9479  -1.9422  -1.9380  -1.9326  -1.9288  -1.9081  -1.8830  -1.8527
    -1.8299  -1.8279  -1.7638  -1.7602  -1.7477  -1.7435  -1.7373  -1.7308
    -1.7221  -1.7081  -1.6988  -1.6971  -1.6862  -1.6746  -1.6574  -1.6469
    -1.6291  -1.6223  -1.6000  -1.5285  -1.5238  -1.4580  -1.4369  -1.4244
    -1.4204  -1.4042  -1.3981  -1.3871  -1.3772  -1.3552  -1.3300  -1.2321
    -1.2176  -1.2093  -1.1410  -1.1296  -1.1130  -1.0639  -1.0444  -1.0305
    -1.0135  -0.9430  -0.9307  -0.9136  -0.8905  -0.8852  -0.8589  -0.8420
    -0.8331  -0.8189  -0.8111  -0.7734  -0.7570  -0.7474  -0.7402  -0.7367
    -0.6965  -0.6811  -0.6607  -0.6569  -0.6508  -0.6244  -0.6025  -0.5933
    -0.5839  -0.5766  -0.5702  -0.5608  -0.5421  -0.5362  -0.5251  -0.4993
    -0.4827  -0.4674  -0.4487  -0.4123  -0.3983  -0.3728  -0.3670  -0.3408
    -0.3349  -0.3228  -0.3166  -0.3072  -0.2875  -0.2823  -0.2761  -0.2426
    -0.2034  -0.1993  -0.1867  -0.1662  -0.1601  -0.1457  -0.1245  -0.1032
    -0.0377   0.0231   0.1798   0.1918   0.2920   0.3749   0.4465   0.4673
     0.4898   0.8129

          k = 0.0000 0.4619 0.0000 ( 51204 PWs)   bands (ev):

   -22.1082  -9.3127  -7.0431  -6.4014  -6.1528  -6.0051  -5.6705  -5.3821
    -5.1674  -5.1316  -5.0298  -4.3518  -4.2641  -4.2591  -4.2509  -4.1935
    -4.0897  -4.0745  -4.0336  -3.9536  -3.9406  -3.9360  -3.9087  -3.7697
    -3.7594  -3.7517  -3.7454  -3.7056  -3.6808  -3.6360  -3.6186  -3.5060
    -3.4710  -3.4622  -3.4460  -3.4264  -3.4190  -3.3541  -3.3132  -3.3050
    -3.2952  -3.2881  -3.2595  -3.1694  -3.0934  -3.0825  -2.9989  -2.9958
    -2.9577  -2.9499  -2.9165  -2.9084  -2.8981  -2.8765  -2.8627  -2.8117
    -2.7985  -2.7728  -2.7471  -2.7401  -2.6070  -2.5989  -2.5746  -2.5590
    -2.5271  -2.4872  -2.4612  -2.4524  -2.4327  -2.3768  -2.3182  -2.3166
    -2.3098  -2.3055  -2.2936  -2.2740  -2.2644  -2.2497  -2.2307  -2.2234
    -2.1876  -2.1475  -2.1387  -2.1161  -2.0935  -2.0718  -2.0286  -1.9946
    -1.9854  -1.9789  -1.9583  -1.9372  -1.9286  -1.8865  -1.8752  -1.8660
    -1.8600  -1.8451  -1.8352  -1.8080  -1.7941  -1.7847  -1.7794  -1.7653
    -1.7508  -1.7209  -1.6836  -1.6811  -1.6171  -1.6020  -1.5884  -1.5805
    -1.5509  -1.5312  -1.5117  -1.4801  -1.4657  -1.4462  -1.4433  -1.4358
    -1.4307  -1.4276  -1.4207  -1.4064  -1.4014  -1.3843  -1.3768  -1.3668
    -1.3648  -1.3248  -1.2594  -1.2443  -1.2186  -1.1914  -1.1851  -1.1681
    -1.1325  -1.0812  -1.0700  -1.0629  -1.0486  -1.0154  -0.9747  -0.9395
    -0.9072  -0.9015  -0.8892  -0.8642  -0.8517  -0.8434  -0.8142  -0.7467
    -0.7145  -0.7006  -0.6835  -0.6758  -0.6601  -0.6530  -0.6457  -0.6357
    -0.6252  -0.6128  -0.5214  -0.5145  -0.5013  -0.4933  -0.4851  -0.4749
    -0.4630  -0.4533  -0.4291  -0.4208  -0.3967  -0.3796  -0.3337  -0.3133
    -0.3061  -0.2819  -0.2752  -0.2225  -0.2084  -0.1832  -0.1721  -0.1320
    -0.1042  -0.0915  -0.0884  -0.0713  -0.0633  -0.0577  -0.0494   0.0089
     0.0463   0.0939   0.4833   0.7037   0.9808   1.1603   1.1783   1.4097
     1.5020   1.5613

          k = 0.2000-0.1155 0.0000 ( 51134 PWs)   bands (ev):

   -22.1082  -9.3228  -7.4671  -6.3463  -6.0597  -5.7921  -5.5153  -5.4152
    -5.0167  -5.0069  -4.6659  -4.5233  -4.4360  -4.4303  -4.3712  -4.3209
    -4.2761  -4.2475  -4.1673  -4.1180  -4.1089  -3.8586  -3.7970  -3.7250
    -3.6921  -3.6480  -3.6137  -3.6018  -3.5987  -3.5931  -3.5814  -3.5631
    -3.5266  -3.4890  -3.4723  -3.4501  -3.4437  -3.3680  -3.2392  -3.2224
    -3.2144  -3.1675  -3.1632  -3.1505  -3.1365  -3.0683  -3.0340  -3.0266
    -2.9986  -2.9926  -2.9857  -2.9554  -2.9264  -2.8623  -2.8537  -2.8238
    -2.7887  -2.7625  -2.7553  -2.7518  -2.7259  -2.6961  -2.6869  -2.6777
    -2.6502  -2.6037  -2.3515  -2.3395  -2.3147  -2.3028  -2.2839  -2.1977
    -2.1914  -2.1830  -2.1728  -2.1671  -2.1620  -2.1416  -2.0987  -2.0669
    -2.0572  -2.0446  -2.0249  -1.9921  -1.9880  -1.9819  -1.9793  -1.9545
    -1.9526  -1.9464  -1.9422  -1.9363  -1.9262  -1.9142  -1.8713  -1.8492
    -1.8359  -1.8083  -1.7809  -1.7596  -1.7536  -1.7465  -1.7364  -1.7314
    -1.7240  -1.7122  -1.7028  -1.6960  -1.6931  -1.6799  -1.6555  -1.6454
    -1.6317  -1.6198  -1.6067  -1.5483  -1.5279  -1.4800  -1.4248  -1.4227
    -1.4152  -1.4040  -1.3942  -1.3916  -1.3752  -1.3589  -1.2671  -1.2506
    -1.2245  -1.2037  -1.1442  -1.1324  -1.1062  -1.0774  -1.0500  -1.0384
    -0.9746  -0.9601  -0.9412  -0.9288  -0.9052  -0.8878  -0.8621  -0.8576
    -0.8412  -0.8115  -0.7881  -0.7671  -0.7623  -0.7518  -0.7432  -0.7270
    -0.7033  -0.6700  -0.6598  -0.6558  -0.6383  -0.6096  -0.5988  -0.5922
    -0.5820  -0.5766  -0.5707  -0.5626  -0.5469  -0.5342  -0.5234  -0.5154
    -0.4648  -0.4479  -0.4375  -0.4136  -0.3989  -0.3846  -0.3555  -0.3405
    -0.3343  -0.3220  -0.3122  -0.3080  -0.2888  -0.2810  -0.2770  -0.2364
    -0.2012  -0.1899  -0.1840  -0.1647  -0.1579  -0.1323  -0.1179  -0.1020
    -0.0501  -0.0020   0.1591   0.1923   0.2552   0.3353   0.4381   0.4678
     0.5025   0.7953

          k = 0.2000 0.1155 0.0000 ( 51134 PWs)   bands (ev):

   -22.1082  -9.3228  -7.4671  -6.3459  -6.0600  -5.7930  -5.5178  -5.4113
    -5.0162  -5.0082  -4.6652  -4.5249  -4.4358  -4.4301  -4.3706  -4.3198
    -4.2778  -4.2456  -4.1691  -4.1171  -4.1062  -3.8658  -3.7841  -3.7277
    -3.6949  -3.6498  -3.6118  -3.6037  -3.5971  -3.5950  -3.5741  -3.5689
    -3.5193  -3.4919  -3.4763  -3.4484  -3.4424  -3.3739  -3.2428  -3.2214
    -3.2175  -3.1669  -3.1620  -3.1491  -3.1369  -3.0596  -3.0349  -3.0276
    -2.9982  -2.9917  -2.9840  -2.9491  -2.9407  -2.8627  -2.8553  -2.8240
    -2.7881  -2.7686  -2.7551  -2.7489  -2.7256  -2.6954  -2.6868  -2.6799
    -2.6471  -2.6049  -2.3487  -2.3433  -2.3117  -2.3044  -2.2843  -2.1986
    -2.1929  -2.1845  -2.1731  -2.1691  -2.1557  -2.1388  -2.1084  -2.0663
    -2.0585  -2.0432  -2.0201  -1.9923  -1.9875  -1.9828  -1.9768  -1.9574
    -1.9521  -1.9470  -1.9393  -1.9380  -1.9306  -1.9076  -1.8739  -1.8495
    -1.8350  -1.8158  -1.7710  -1.7606  -1.7551  -1.7421  -1.7349  -1.7314
    -1.7256  -1.7138  -1.7036  -1.6970  -1.6918  -1.6742  -1.6554  -1.6457
    -1.6343  -1.6163  -1.6000  -1.5445  -1.5206  -1.4907  -1.4272  -1.4207
    -1.4115  -1.4019  -1.3971  -1.3902  -1.3744  -1.3612  -1.2789  -1.2375
    -1.2284  -1.2039  -1.1433  -1.1328  -1.1052  -1.0772  -1.0499  -1.0430
    -0.9837  -0.9558  -0.9422  -0.9183  -0.9060  -0.8882  -0.8617  -0.8564
    -0.8378  -0.8092  -0.7957  -0.7661  -0.7630  -0.7518  -0.7491  -0.7291
    -0.7046  -0.6691  -0.6575  -0.6557  -0.6379  -0.6094  -0.5990  -0.5919
    -0.5810  -0.5794  -0.5707  -0.5621  -0.5454  -0.5339  -0.5256  -0.5218
    -0.4638  -0.4462  -0.4383  -0.4140  -0.3979  -0.3895  -0.3539  -0.3413
    -0.3361  -0.3222  -0.3129  -0.3088  -0.2875  -0.2816  -0.2758  -0.2333
    -0.1998  -0.1915  -0.1859  -0.1630  -0.1603  -0.1307  -0.1170  -0.1012
    -0.0490   0.0011   0.1659   0.1945   0.2333   0.3424   0.4398   0.4646
     0.5002   0.7957

          k = 0.2000 0.3464 0.0000 ( 51202 PWs)   bands (ev):

   -22.1082  -9.3133  -7.1837  -6.2469  -6.0860  -5.8883  -5.7719  -5.6260
    -5.4050  -4.7525  -4.6715  -4.4412  -4.4287  -4.4142  -4.2251  -4.2191
    -4.1284  -4.1212  -4.1152  -3.9889  -3.9746  -3.8749  -3.8391  -3.7897
    -3.7737  -3.7090  -3.6392  -3.6193  -3.5993  -3.5856  -3.5742  -3.5573
    -3.5386  -3.5251  -3.4846  -3.4578  -3.4253  -3.3931  -3.3737  -3.3296
    -3.2427  -3.2259  -3.1605  -3.1497  -3.1206  -3.0986  -3.0667  -3.0047
    -2.9619  -2.9502  -2.9274  -2.9145  -2.9077  -2.8635  -2.8594  -2.8331
    -2.8100  -2.7981  -2.7042  -2.6820  -2.6369  -2.6298  -2.6110  -2.5823
    -2.5589  -2.5517  -2.4556  -2.3823  -2.3707  -2.3445  -2.3230  -2.2974
    -2.2821  -2.2691  -2.2655  -2.2435  -2.2300  -2.2167  -2.2047  -2.2019
    -2.1902  -2.1532  -2.1092  -2.0770  -2.0206  -2.0165  -1.9886  -1.9797
    -1.9715  -1.9404  -1.9326  -1.9125  -1.8970  -1.8736  -1.8591  -1.8554
    -1.8512  -1.8341  -1.8259  -1.8122  -1.8017  -1.7940  -1.7779  -1.7656
    -1.7516  -1.7408  -1.7172  -1.6760  -1.6716  -1.6482  -1.6205  -1.6187
    -1.6100  -1.5866  -1.5778  -1.5442  -1.5222  -1.5085  -1.4909  -1.4616
    -1.4538  -1.4422  -1.4378  -1.4169  -1.4090  -1.3821  -1.3729  -1.3351
    -1.3016  -1.2781  -1.2617  -1.2208  -1.1760  -1.1413  -1.1248  -1.0564
    -1.0263  -1.0083  -1.0045  -0.9861  -0.9816  -0.9738  -0.9497  -0.9449
    -0.9239  -0.9138  -0.8899  -0.8516  -0.8459  -0.8282  -0.8075  -0.7965
    -0.7840  -0.7633  -0.7377  -0.7264  -0.7168  -0.7099  -0.6114  -0.5639
    -0.5597  -0.5344  -0.5238  -0.5131  -0.5037  -0.4952  -0.4744  -0.4676
    -0.4443  -0.4176  -0.3833  -0.3716  -0.3605  -0.3474  -0.3133  -0.2979
    -0.2886  -0.2806  -0.2791  -0.2536  -0.2455  -0.2368  -0.2346  -0.2068
    -0.1997  -0.1277  -0.1101  -0.1051  -0.0627  -0.0572  -0.0410   0.0655
     0.2425   0.2819   0.3228   0.4965   0.5797   0.6894   1.1002   1.1535
     1.3215   1.3915

          k = 0.2000-0.5774 0.0000 ( 51262 PWs)   bands (ev):

   -22.1082  -9.3075  -6.6495  -6.6371  -6.1905  -6.0422  -5.8328  -5.5772
    -5.2262  -5.1830  -4.7597  -4.4235  -4.1843  -4.1463  -4.0988  -4.0374
    -4.0035  -3.9812  -3.9765  -3.9650  -3.9054  -3.8984  -3.8893  -3.8857
    -3.8217  -3.8090  -3.7463  -3.7375  -3.7141  -3.7089  -3.6435  -3.5679
    -3.5564  -3.5417  -3.5300  -3.4686  -3.4012  -3.3873  -3.3181  -3.2671
    -3.2626  -3.2386  -3.1815  -3.1623  -3.1344  -3.1168  -3.0479  -3.0444
    -3.0177  -2.9767  -2.9577  -2.8843  -2.8494  -2.8313  -2.8116  -2.7678
    -2.7591  -2.6879  -2.6732  -2.6599  -2.6547  -2.6380  -2.6203  -2.6075
    -2.5175  -2.4717  -2.4547  -2.4444  -2.4401  -2.3845  -2.3739  -2.3222
    -2.3126  -2.2778  -2.2697  -2.2671  -2.2558  -2.2344  -2.2099  -2.2014
    -2.1878  -2.1778  -2.1545  -2.1333  -2.1301  -2.1065  -2.0567  -2.0348
    -2.0257  -1.9790  -1.9693  -1.9545  -1.9290  -1.9019  -1.8876  -1.8729
    -1.8516  -1.8412  -1.8355  -1.8267  -1.8158  -1.8051  -1.7891  -1.7793
    -1.7216  -1.6964  -1.6882  -1.6796  -1.6654  -1.6615  -1.6553  -1.6486
    -1.6407  -1.6290  -1.6137  -1.5757  -1.5648  -1.5391  -1.5259  -1.4957
    -1.4444  -1.4335  -1.4150  -1.3936  -1.3767  -1.3722  -1.3499  -1.3225
    -1.2935  -1.2751  -1.2500  -1.2172  -1.1835  -1.1421  -1.1313  -1.1171
    -1.0947  -1.0884  -1.0734  -1.0489  -1.0302  -1.0090  -0.9965  -0.9889
    -0.9418  -0.9135  -0.9091  -0.9029  -0.8935  -0.8539  -0.8231  -0.8033
    -0.7995  -0.7907  -0.7681  -0.7613  -0.7466  -0.7280  -0.6861  -0.5735
    -0.5337  -0.5271  -0.5162  -0.5052  -0.4933  -0.4864  -0.4670  -0.4601
    -0.4290  -0.4137  -0.4093  -0.4000  -0.3600  -0.3062  -0.2898  -0.2777
    -0.2650  -0.2536  -0.2360  -0.2249  -0.1900  -0.1795  -0.1742  -0.1568
    -0.1479  -0.0899  -0.0844  -0.0774  -0.0638  -0.0494  -0.0290   0.0194
     0.1963   0.3004   0.5364   0.8681   1.1780   1.2270   1.4059   1.5410
     1.7317   1.7718

          k = 0.2000-0.3464 0.0000 ( 51202 PWs)   bands (ev):

   -22.1082  -9.3133  -7.1838  -6.2477  -6.0852  -5.8877  -5.7715  -5.6251
    -5.4068  -4.7521  -4.6725  -4.4428  -4.4297  -4.4103  -4.2258  -4.2200
    -4.1277  -4.1233  -4.1132  -3.9915  -3.9775  -3.8717  -3.8373  -3.8009
    -3.7670  -3.7112  -3.6381  -3.6157  -3.6014  -3.5869  -3.5798  -3.5555
    -3.5381  -3.5246  -3.4827  -3.4571  -3.4259  -3.3889  -3.3731  -3.3318
    -3.2398  -3.2226  -3.1615  -3.1476  -3.1185  -3.0997  -3.0677  -3.0026
    -2.9604  -2.9517  -2.9273  -2.9169  -2.9077  -2.8657  -2.8536  -2.8321
    -2.8105  -2.8009  -2.7031  -2.6831  -2.6354  -2.6271  -2.6020  -2.5827
    -2.5625  -2.5574  -2.4507  -2.3815  -2.3663  -2.3429  -2.3239  -2.2950
    -2.2809  -2.2736  -2.2680  -2.2424  -2.2274  -2.2189  -2.2062  -2.1981
    -2.1858  -2.1580  -2.1163  -2.0866  -2.0211  -2.0139  -1.9922  -1.9771
    -1.9682  -1.9422  -1.9385  -1.9091  -1.8999  -1.8738  -1.8635  -1.8566
    -1.8455  -1.8341  -1.8301  -1.8124  -1.8004  -1.7952  -1.7805  -1.7634
    -1.7528  -1.7416  -1.7128  -1.6779  -1.6713  -1.6580  -1.6233  -1.6176
    -1.6136  -1.5842  -1.5780  -1.5471  -1.5181  -1.5010  -1.4912  -1.4664
    -1.4502  -1.4447  -1.4338  -1.4168  -1.4086  -1.3847  -1.3735  -1.3316
    -1.3049  -1.2740  -1.2648  -1.2189  -1.1714  -1.1376  -1.1326  -1.0554
    -1.0306  -1.0083  -1.0011  -0.9888  -0.9796  -0.9753  -0.9464  -0.9417
    -0.9274  -0.9127  -0.8891  -0.8503  -0.8397  -0.8306  -0.8080  -0.7898
    -0.7785  -0.7662  -0.7424  -0.7271  -0.7185  -0.7082  -0.6106  -0.5671
    -0.5573  -0.5384  -0.5257  -0.5163  -0.5026  -0.4902  -0.4772  -0.4665
    -0.4435  -0.4123  -0.3758  -0.3713  -0.3622  -0.3500  -0.3155  -0.2974
    -0.2867  -0.2829  -0.2771  -0.2518  -0.2474  -0.2396  -0.2277  -0.2107
    -0.2046  -0.1299  -0.1076  -0.1056  -0.0639  -0.0582  -0.0367   0.0661
     0.2332   0.2835   0.3219   0.5026   0.5776   0.6905   1.1244   1.1570
     1.3100   1.3716

          k = 0.4000-0.2309 0.0000 ( 51204 PWs)   bands (ev):

   -22.1082  -9.3081  -7.0511  -6.4262  -6.1739  -5.9957  -5.5902  -5.4312
    -5.1575  -5.1297  -5.0339  -4.3575  -4.2894  -4.2685  -4.2295  -4.1918
    -4.0834  -4.0743  -4.0530  -3.9577  -3.9400  -3.9336  -3.8537  -3.7742
    -3.7578  -3.7501  -3.7434  -3.7101  -3.6584  -3.6418  -3.6214  -3.5651
    -3.4734  -3.4691  -3.4557  -3.4296  -3.4166  -3.3644  -3.3168  -3.3085
    -3.2982  -3.2915  -3.2587  -3.1717  -3.0862  -3.0668  -2.9925  -2.9792
    -2.9572  -2.9384  -2.9145  -2.9104  -2.8964  -2.8888  -2.8380  -2.8122
    -2.8010  -2.7783  -2.7374  -2.7064  -2.6036  -2.5901  -2.5687  -2.5560
    -2.5215  -2.4848  -2.4647  -2.4505  -2.4324  -2.3750  -2.3176  -2.3161
    -2.3127  -2.3005  -2.2919  -2.2716  -2.2657  -2.2566  -2.2450  -2.1916
    -2.1787  -2.1532  -2.1399  -2.1158  -2.0940  -2.0739  -2.0562  -1.9944
    -1.9875  -1.9836  -1.9566  -1.9432  -1.9170  -1.8837  -1.8744  -1.8716
    -1.8601  -1.8377  -1.8322  -1.8138  -1.8020  -1.7884  -1.7854  -1.7562
    -1.7476  -1.7222  -1.6942  -1.6833  -1.6166  -1.6059  -1.5766  -1.5654
    -1.5545  -1.5347  -1.5228  -1.4764  -1.4647  -1.4518  -1.4471  -1.4368
    -1.4321  -1.4230  -1.4181  -1.4123  -1.4051  -1.3992  -1.3805  -1.3610
    -1.3340  -1.3261  -1.2904  -1.2337  -1.2170  -1.2031  -1.1863  -1.1516
    -1.1460  -1.0949  -1.0757  -1.0629  -1.0499  -1.0147  -0.9981  -0.9613
    -0.9341  -0.9020  -0.8840  -0.8756  -0.8466  -0.8181  -0.7919  -0.7625
    -0.7355  -0.6875  -0.6776  -0.6581  -0.6553  -0.6496  -0.6392  -0.6327
    -0.6147  -0.6061  -0.5208  -0.5077  -0.5029  -0.4948  -0.4786  -0.4702
    -0.4552  -0.4413  -0.4296  -0.4242  -0.3937  -0.3691  -0.3226  -0.3097
    -0.3014  -0.2903  -0.2604  -0.2167  -0.2097  -0.1774  -0.1692  -0.1335
    -0.0936  -0.0864  -0.0825  -0.0648  -0.0626  -0.0574  -0.0435  -0.0020
     0.0461   0.0869   0.4285   0.7334   0.9638   1.1024   1.1738   1.2939
     1.4768   1.5500

          k = 0.4000 0.0000 0.0000 ( 51202 PWs)   bands (ev):

   -22.1082  -9.3104  -7.1888  -6.2558  -6.1229  -5.8718  -5.7311  -5.6153
    -5.4298  -4.7350  -4.6812  -4.4499  -4.4391  -4.4021  -4.2266  -4.2212
    -4.1278  -4.1202  -4.1163  -3.9968  -3.9870  -3.8569  -3.8472  -3.7767
    -3.7315  -3.7195  -3.6393  -3.6348  -3.5951  -3.5899  -3.5761  -3.5680
    -3.5364  -3.5170  -3.5078  -3.4684  -3.4250  -3.3979  -3.3758  -3.3546
    -3.2537  -3.2074  -3.1607  -3.1291  -3.1208  -3.1024  -3.0569  -3.0022
    -2.9687  -2.9376  -2.9285  -2.9223  -2.9029  -2.8670  -2.8460  -2.8409
    -2.8203  -2.7713  -2.7139  -2.6433  -2.6368  -2.6228  -2.6097  -2.5781
    -2.5734  -2.5408  -2.4554  -2.3773  -2.3643  -2.3415  -2.3261  -2.2972
    -2.2842  -2.2737  -2.2658  -2.2435  -2.2308  -2.2196  -2.2128  -2.1941
    -2.1670  -2.1578  -2.1219  -2.0701  -2.0209  -2.0149  -2.0029  -1.9851
    -1.9635  -1.9514  -1.9281  -1.9089  -1.9030  -1.8738  -1.8568  -1.8494
    -1.8415  -1.8407  -1.8321  -1.8126  -1.8052  -1.7900  -1.7827  -1.7681
    -1.7416  -1.7152  -1.6960  -1.6800  -1.6679  -1.6559  -1.6268  -1.6201
    -1.6058  -1.5952  -1.5767  -1.5566  -1.5258  -1.5093  -1.4873  -1.4738
    -1.4560  -1.4488  -1.4343  -1.4194  -1.4082  -1.3968  -1.3766  -1.3484
    -1.2976  -1.2929  -1.2816  -1.2064  -1.1629  -1.1472  -1.1301  -1.0745
    -1.0215  -1.0112  -1.0040  -0.9938  -0.9795  -0.9703  -0.9569  -0.9487
    -0.9279  -0.9080  -0.8861  -0.8459  -0.8311  -0.8237  -0.8022  -0.7953
    -0.7781  -0.7576  -0.7425  -0.7305  -0.7206  -0.7091  -0.6109  -0.5631
    -0.5558  -0.5320  -0.5201  -0.5099  -0.5044  -0.4916  -0.4718  -0.4647
    -0.4516  -0.4111  -0.3923  -0.3717  -0.3581  -0.3410  -0.3032  -0.2976
    -0.2865  -0.2834  -0.2755  -0.2549  -0.2438  -0.2405  -0.2312  -0.2077
    -0.1956  -0.1257  -0.1102  -0.1060  -0.0673  -0.0630  -0.0169   0.0610
     0.2771   0.2860   0.3472   0.4495   0.6031   0.6622   0.9812   1.1706
     1.2669   1.3987

          k = 0.4000 0.2309 0.0000 ( 51204 PWs)   bands (ev):

   -22.1082  -9.3081  -7.0509  -6.4262  -6.1742  -5.9951  -5.5952  -5.4269
    -5.1569  -5.1313  -5.0335  -4.3534  -4.2914  -4.2666  -4.2284  -4.1938
    -4.0837  -4.0742  -4.0498  -3.9564  -3.9410  -3.9355  -3.8611  -3.7668
    -3.7592  -3.7503  -3.7432  -3.7064  -3.6567  -3.6438  -3.6240  -3.5602
    -3.4763  -3.4685  -3.4570  -3.4284  -3.4173  -3.3637  -3.3174  -3.3095
    -3.3001  -3.2902  -3.2660  -3.1626  -3.0826  -3.0658  -2.9903  -2.9805
    -2.9537  -2.9441  -2.9147  -2.9103  -2.8998  -2.8897  -2.8426  -2.8125
    -2.8043  -2.7763  -2.7396  -2.7088  -2.6006  -2.5912  -2.5749  -2.5604
    -2.5262  -2.4792  -2.4631  -2.4525  -2.4414  -2.3735  -2.3198  -2.3140
    -2.3090  -2.3044  -2.2937  -2.2734  -2.2605  -2.2549  -2.2388  -2.1974
    -2.1787  -2.1562  -2.1396  -2.1126  -2.0907  -2.0748  -2.0410  -2.0036
    -1.9859  -1.9815  -1.9551  -1.9408  -1.9132  -1.8840  -1.8784  -1.8670
    -1.8573  -1.8444  -1.8326  -1.8093  -1.7992  -1.7912  -1.7847  -1.7608
    -1.7470  -1.7195  -1.6917  -1.6821  -1.6183  -1.6076  -1.5769  -1.5680
    -1.5505  -1.5382  -1.5168  -1.4761  -1.4625  -1.4533  -1.4456  -1.4385
    -1.4289  -1.4240  -1.4169  -1.4118  -1.4038  -1.3968  -1.3822  -1.3608
    -1.3428  -1.3213  -1.2831  -1.2343  -1.2114  -1.2028  -1.1910  -1.1536
    -1.1348  -1.1044  -1.0771  -1.0614  -1.0515  -1.0141  -0.9958  -0.9596
    -0.9371  -0.8990  -0.8844  -0.8824  -0.8477  -0.8211  -0.7959  -0.7611
    -0.7359  -0.6889  -0.6799  -0.6608  -0.6542  -0.6478  -0.6407  -0.6303
    -0.6173  -0.6099  -0.5172  -0.5106  -0.5040  -0.4889  -0.4767  -0.4653
    -0.4568  -0.4467  -0.4301  -0.4199  -0.3992  -0.3736  -0.3216  -0.3091
    -0.3003  -0.2910  -0.2617  -0.2185  -0.2088  -0.1780  -0.1703  -0.1318
    -0.0934  -0.0881  -0.0838  -0.0642  -0.0621  -0.0575  -0.0428   0.0031
     0.0453   0.0844   0.4225   0.7537   0.9580   1.1015   1.1760   1.2561
     1.5053   1.5537

          k = 0.4000-0.6928 0.0000 ( 51262 PWs)   bands (ev):

   -22.1082  -9.3046  -6.6786  -6.6315  -6.1705  -6.0330  -5.8902  -5.4930
    -5.2628  -5.1883  -4.7536  -4.4240  -4.2058  -4.1415  -4.1190  -4.0121
    -4.0027  -3.9836  -3.9739  -3.9511  -3.9128  -3.8931  -3.8916  -3.8834
    -3.8297  -3.7764  -3.7443  -3.7389  -3.7153  -3.7035  -3.6380  -3.5724
    -3.5592  -3.5497  -3.5327  -3.4909  -3.4504  -3.3934  -3.3022  -3.2660
    -3.2610  -3.2469  -3.1702  -3.1627  -3.1329  -3.0951  -3.0496  -3.0421
    -3.0318  -2.9699  -2.9545  -2.8849  -2.8464  -2.8244  -2.8083  -2.7621
    -2.7410  -2.6852  -2.6737  -2.6723  -2.6604  -2.6440  -2.6051  -2.5870
    -2.5197  -2.4684  -2.4563  -2.4441  -2.4378  -2.3886  -2.3754  -2.3236
    -2.3109  -2.2765  -2.2737  -2.2620  -2.2502  -2.2380  -2.2034  -2.1957
    -2.1822  -2.1755  -2.1573  -2.1342  -2.1294  -2.0950  -2.0685  -2.0497
    -2.0298  -2.0191  -1.9659  -1.9416  -1.9100  -1.9033  -1.8869  -1.8742
    -1.8493  -1.8486  -1.8257  -1.8179  -1.8155  -1.7912  -1.7830  -1.7672
    -1.7165  -1.6971  -1.6905  -1.6841  -1.6683  -1.6607  -1.6589  -1.6477
    -1.6412  -1.6335  -1.6097  -1.5954  -1.5617  -1.5411  -1.5226  -1.5140
    -1.4531  -1.4441  -1.4221  -1.3906  -1.3746  -1.3648  -1.3496  -1.3305
    -1.2840  -1.2780  -1.2625  -1.2038  -1.1748  -1.1477  -1.1385  -1.1141
    -1.0975  -1.0859  -1.0733  -1.0616  -1.0415  -1.0196  -0.9863  -0.9738
    -0.9375  -0.9252  -0.9137  -0.8980  -0.8860  -0.8575  -0.8253  -0.8209
    -0.7943  -0.7879  -0.7698  -0.7552  -0.7417  -0.7215  -0.6926  -0.5747
    -0.5332  -0.5217  -0.5117  -0.4981  -0.4948  -0.4831  -0.4651  -0.4477
    -0.4336  -0.4175  -0.4157  -0.4063  -0.3447  -0.2963  -0.2821  -0.2779
    -0.2720  -0.2532  -0.2320  -0.2133  -0.1900  -0.1797  -0.1718  -0.1577
    -0.1505  -0.1100  -0.0842  -0.0772  -0.0634  -0.0475  -0.0289   0.0157
     0.1962   0.3204   0.6089   0.8805   1.0037   1.2256   1.3061   1.6205
     1.7222   1.7650

          k = 0.4000-0.4619 0.0000 ( 51262 PWs)   bands (ev):

   -22.1082  -9.3046  -6.6809  -6.6291  -6.1697  -6.0339  -5.8912  -5.4872
    -5.2697  -5.1857  -4.7543  -4.4239  -4.2086  -4.1425  -4.1171  -4.0109
    -4.0019  -3.9825  -3.9771  -3.9501  -3.9113  -3.8930  -3.8913  -3.8833
    -3.8315  -3.7697  -3.7473  -3.7393  -3.7184  -3.7031  -3.6432  -3.5733
    -3.5604  -3.5469  -3.5358  -3.4911  -3.4470  -3.3902  -3.3073  -3.2629
    -3.2596  -3.2410  -3.1717  -3.1609  -3.1341  -3.1125  -3.0505  -3.0408
    -3.0263  -2.9716  -2.9388  -2.8857  -2.8428  -2.8269  -2.8128  -2.7600
    -2.7456  -2.6829  -2.6802  -2.6671  -2.6587  -2.6434  -2.6083  -2.5732
    -2.5187  -2.4627  -2.4554  -2.4475  -2.4423  -2.3880  -2.3700  -2.3222
    -2.3109  -2.2769  -2.2717  -2.2657  -2.2530  -2.2360  -2.2111  -2.1930
    -2.1820  -2.1725  -2.1526  -2.1388  -2.1313  -2.0984  -2.0746  -2.0532
    -2.0325  -2.0263  -1.9583  -1.9466  -1.9164  -1.8936  -1.8777  -1.8739
    -1.8543  -1.8441  -1.8372  -1.8193  -1.8141  -1.7901  -1.7808  -1.7651
    -1.7178  -1.6992  -1.6886  -1.6826  -1.6731  -1.6599  -1.6563  -1.6505
    -1.6374  -1.6332  -1.6098  -1.5917  -1.5560  -1.5478  -1.5234  -1.5141
    -1.4639  -1.4445  -1.4214  -1.3872  -1.3770  -1.3643  -1.3544  -1.3276
    -1.2873  -1.2773  -1.2614  -1.1919  -1.1741  -1.1512  -1.1388  -1.1181
    -1.1019  -1.0884  -1.0670  -1.0590  -1.0372  -1.0198  -0.9909  -0.9774
    -0.9362  -0.9309  -0.9119  -0.9047  -0.8781  -0.8548  -0.8254  -0.8134
    -0.8022  -0.7848  -0.7603  -0.7547  -0.7453  -0.7210  -0.6938  -0.5736
    -0.5330  -0.5186  -0.5098  -0.5032  -0.4905  -0.4834  -0.4738  -0.4472
    -0.4309  -0.4238  -0.4134  -0.3980  -0.3476  -0.3023  -0.2832  -0.2756
    -0.2623  -0.2529  -0.2359  -0.2099  -0.1953  -0.1794  -0.1750  -0.1588
    -0.1494  -0.1032  -0.0826  -0.0781  -0.0646  -0.0476  -0.0278   0.0182
     0.1914   0.3210   0.6054   0.8777   1.0051   1.2256   1.3162   1.6195
     1.7235   1.7631

 ------ SPIN DOWN ----------


          k = 0.0000 0.0000 0.0000 ( 51087 PWs)   bands (ev):

   -22.1744  -9.4060  -7.7427  -6.4982  -6.0655  -5.8421  -5.4804  -4.6168
    -4.5851  -4.5787  -4.5754  -4.5613  -4.5452  -4.4704  -3.7775  -3.7084
    -3.7041  -3.6922  -3.6850  -3.6733  -3.6164  -3.2121  -2.7736  -2.7623
    -2.7546  -2.7480  -2.6946  -2.5724  -2.3143  -2.3037  -2.2970  -2.2879
    -2.2686  -2.2649  -2.0962  -2.0905  -2.0250  -2.0144  -1.9965  -1.9953
    -1.9135  -1.9109  -1.8597  -1.8568  -1.8181  -1.7984  -1.7820  -1.7526
    -1.7308  -1.6972  -1.5305  -1.5225  -1.4983  -1.4845  -1.4681  -1.4675
    -1.4555  -1.4541  -1.4236  -1.4210  -1.3960  -1.3805  -1.3763  -1.3760
    -1.2952  -1.2560  -0.8796  -0.8330  -0.8066  -0.7995  -0.7922  -0.7240
    -0.6288  -0.5888  -0.5213  -0.4931  -0.4812  -0.4746  -0.4664  -0.4552
    -0.4384  -0.4122  -0.3881  -0.3823  -0.3788  -0.3775  -0.3509  -0.3272
    -0.3201  -0.2854  -0.2722  -0.2703  -0.2456  -0.2314  -0.2240  -0.2204
    -0.2149  -0.2049  -0.1974  -0.1927  -0.1897  -0.1868  -0.1412  -0.0862
    -0.0840  -0.0666  -0.0512  -0.0439   0.0227   0.0260   0.0358   0.0381
     0.0423   0.0442   0.0494   0.0639   0.1171   0.1196   0.1694   0.1950
     0.2032   0.2153   0.2214   0.2473   0.3010   0.4255   0.4362   0.4746
     0.5012   0.5151   0.5256   0.5279   0.6051   0.7479   0.8123   0.8449
     0.8660   0.9042   0.9882   1.0423   1.0534   1.0834   1.0910   1.0938
     1.1670   1.2335   1.2387   1.2486   1.2599   1.2688   1.2764   1.2980
     1.3076   1.3291   1.3329   1.3494   1.3570   1.3683   1.3745   1.4071
     1.4153   1.4173   1.4202   1.4363   1.4634   1.4738   1.4868   1.4921
     1.5036   1.5229   1.5294   1.5339   1.5433   1.5492   1.5516   1.5835
     1.5903   1.6095   1.6134   1.6240   1.6296   1.6380   1.6414   1.6751
     1.6777   1.6855   1.6861   1.6924   1.6959   1.7021   1.7091   1.7135
     1.7214   1.7648   1.7673   1.9052   1.9165   1.9188   1.9202   1.9246
     1.9266   1.9975

          k = 0.0000 0.2309 0.0000 ( 51134 PWs)   bands (ev):

   -22.1744  -9.3985  -7.5983  -6.4052  -6.0636  -5.8582  -5.5413  -5.4357
    -4.9574  -4.9409  -4.4548  -4.3373  -4.0356  -4.0270  -3.9387  -3.9093
    -3.7414  -3.5659  -3.4044  -3.3579  -3.3169  -3.1898  -2.9043  -2.7610
    -2.7352  -2.6819  -2.6434  -2.5792  -2.4056  -2.3347  -2.3257  -2.3190
    -2.2912  -2.2800  -2.2365  -2.2328  -2.2004  -2.1859  -2.0606  -2.0487
    -1.9723  -1.9669  -1.9405  -1.8389  -1.8128  -1.7753  -1.7703  -1.6710
    -1.6467  -1.6223  -1.5693  -1.5376  -1.5179  -1.5010  -1.4735  -1.4700
    -1.4643  -1.4560  -1.3696  -1.3498  -1.3346  -1.3212  -1.2841  -1.2378
    -1.2262  -1.1264  -0.9332  -0.8935  -0.8589  -0.8500  -0.8104  -0.7591
    -0.7155  -0.6829  -0.6545  -0.6088  -0.5793  -0.5317  -0.5182  -0.5029
    -0.4574  -0.4456  -0.4378  -0.4317  -0.4190  -0.3961  -0.3813  -0.3499
    -0.3388  -0.2891  -0.2686  -0.2669  -0.2473  -0.2268  -0.2137  -0.1946
    -0.1893  -0.1826  -0.1737  -0.1672  -0.1650  -0.1617  -0.1368  -0.1213
    -0.1006  -0.0806  -0.0738  -0.0636  -0.0343  -0.0188  -0.0111   0.0068
     0.0256   0.0534   0.0739   0.0919   0.1308   0.1455   0.1529   0.1843
     0.2759   0.3058   0.3405   0.3877   0.4062   0.4217   0.4578   0.4718
     0.4811   0.4857   0.5005   0.5078   0.6363   0.7265   0.8099   0.8314
     0.8418   0.8505   0.8628   0.8720   0.9244   0.9414   0.9911   1.0035
     1.0402   1.0559   1.1026   1.1212   1.1442   1.1632   1.1882   1.2381
     1.2522   1.2811   1.2984   1.3186   1.3268   1.3324   1.3726   1.3816
     1.4141   1.4248   1.4609   1.4718   1.4891   1.5028   1.5099   1.5255
     1.5619   1.5761   1.5804   1.5837   1.6092   1.6578   1.6641   1.6742
     1.6792   1.6907   1.7107   1.7295   1.7352   1.7494   1.7567   1.7616
     1.7831   1.8216   1.8278   1.8434   1.8503   1.8570   1.8703   1.8855
     1.9058   1.9097   1.9186   1.9374   2.0058   2.0182   2.0231   2.0751
     2.0990   2.1381

          k = 0.0000 0.4619 0.0000 ( 51204 PWs)   bands (ev):

   -22.1744  -9.3866  -7.1708  -6.5006  -6.2022  -6.0346  -5.7165  -5.4181
    -5.1801  -5.1362  -5.0196  -4.1456  -4.0528  -3.9751  -3.6154  -3.4186
    -3.4086  -3.3078  -3.2779  -3.1317  -3.0273  -2.9665  -2.9451  -2.8128
    -2.8103  -2.7450  -2.6947  -2.6841  -2.6222  -2.5690  -2.5593  -2.5107
    -2.4879  -2.4154  -2.2826  -2.2756  -2.2076  -2.1929  -2.0865  -2.0793
    -2.0626  -2.0540  -2.0428  -1.8200  -1.7792  -1.7686  -1.7302  -1.7236
    -1.5728  -1.5484  -1.5387  -1.5255  -1.5222  -1.4876  -1.4802  -1.4680
    -1.4480  -1.3741  -1.3600  -1.3442  -1.3355  -1.3150  -1.1715  -1.1355
    -1.0541  -0.9985  -0.9304  -0.8919  -0.8734  -0.8419  -0.8265  -0.8079
    -0.7863  -0.7812  -0.7543  -0.7288  -0.6900  -0.6506  -0.6354  -0.6066
    -0.5801  -0.5567  -0.5302  -0.5203  -0.4869  -0.4747  -0.4285  -0.3790
    -0.3601  -0.3273  -0.3205  -0.2886  -0.2647  -0.2462  -0.2110  -0.1964
    -0.1648  -0.1539  -0.1383  -0.1284  -0.1160  -0.1094  -0.0925  -0.0602
    -0.0559  -0.0299  -0.0187  -0.0143  -0.0038   0.0072   0.0248   0.0355
     0.0462   0.0765   0.1001   0.1503   0.1934   0.1972   0.2197   0.2454
     0.2544   0.2715   0.2839   0.3181   0.3536   0.3710   0.3745   0.4022
     0.4363   0.4391   0.4641   0.4762   0.5105   0.5734   0.6422   0.6535
     0.7134   0.7274   0.7783   0.8457   0.8858   0.9012   0.9173   0.9294
     0.9526   0.9718   0.9979   1.0200   1.0374   1.0932   1.1810   1.2229
     1.2369   1.2687   1.2834   1.3104   1.3465   1.3565   1.3827   1.3977
     1.4255   1.4418   1.4510   1.4999   1.5234   1.5423   1.5756   1.5912
     1.5982   1.6011   1.6314   1.6515   1.6673   1.6749   1.6856   1.7110
     1.7208   1.7749   1.7819   1.8217   1.8321   1.8504   1.8586   1.8731
     1.8789   1.9045   1.9095   1.9246   1.9408   1.9479   1.9568   1.9589
     2.0048   2.0433   2.0731   2.1425   2.1701   2.2685   2.5949   2.6686
     2.6973   2.7389

          k = 0.2000-0.1155 0.0000 ( 51134 PWs)   bands (ev):

   -22.1744  -9.3969  -7.5998  -6.4125  -6.0938  -5.8095  -5.5427  -5.4503
    -4.9515  -4.9436  -4.4610  -4.3275  -4.0350  -4.0271  -3.9540  -3.9018
    -3.7451  -3.5677  -3.4184  -3.3579  -3.2665  -3.1821  -2.9439  -2.7610
    -2.7130  -2.7033  -2.6491  -2.5536  -2.4215  -2.3323  -2.3247  -2.3149
    -2.2918  -2.2764  -2.2383  -2.2359  -2.1982  -2.1899  -2.0583  -2.0503
    -1.9722  -1.9701  -1.9349  -1.8307  -1.8023  -1.7772  -1.7567  -1.6744
    -1.6435  -1.6264  -1.5666  -1.5414  -1.5209  -1.4885  -1.4771  -1.4708
    -1.4642  -1.4331  -1.3882  -1.3506  -1.3356  -1.3177  -1.2932  -1.2643
    -1.2112  -1.1253  -0.9351  -0.8966  -0.8627  -0.8544  -0.8156  -0.7609
    -0.7246  -0.7072  -0.6598  -0.6056  -0.5807  -0.5241  -0.5089  -0.4950
    -0.4554  -0.4500  -0.4382  -0.4277  -0.4137  -0.3979  -0.3936  -0.3550
    -0.3154  -0.2859  -0.2693  -0.2664  -0.2565  -0.2360  -0.2061  -0.1995
    -0.1865  -0.1763  -0.1749  -0.1657  -0.1653  -0.1621  -0.1461  -0.1185
    -0.0949  -0.0803  -0.0639  -0.0619  -0.0553  -0.0324  -0.0196   0.0086
     0.0387   0.0507   0.0868   0.0955   0.1225   0.1481   0.1545   0.1852
     0.2751   0.3201   0.3476   0.3807   0.4088   0.4269   0.4512   0.4639
     0.4756   0.4904   0.5035   0.5082   0.6206   0.7494   0.8114   0.8263
     0.8351   0.8487   0.8629   0.8753   0.9142   0.9254   0.9975   1.0173
     1.0422   1.0777   1.1078   1.1354   1.1538   1.1699   1.1925   1.2061
     1.2549   1.2792   1.2956   1.3119   1.3228   1.3333   1.3716   1.3823
     1.4008   1.4234   1.4526   1.4713   1.4864   1.5039   1.5179   1.5510
     1.5643   1.5771   1.5805   1.5841   1.6026   1.6426   1.6625   1.6675
     1.6762   1.6939   1.7083   1.7330   1.7387   1.7470   1.7560   1.7710
     1.7813   1.8245   1.8267   1.8474   1.8517   1.8577   1.8698   1.8848
     1.8959   1.9073   1.9168   1.9248   2.0052   2.0176   2.0270   2.0707
     2.1003   2.1459

          k = 0.2000 0.1155 0.0000 ( 51134 PWs)   bands (ev):

   -22.1744  -9.3969  -7.5998  -6.4123  -6.0942  -5.8101  -5.5433  -5.4485
    -4.9512  -4.9441  -4.4605  -4.3309  -4.0334  -4.0296  -3.9504  -3.8972
    -3.7411  -3.5711  -3.4182  -3.3592  -3.2724  -3.1832  -2.9394  -2.7671
    -2.7181  -2.6891  -2.6545  -2.5542  -2.4262  -2.3337  -2.3252  -2.3160
    -2.2881  -2.2771  -2.2370  -2.2315  -2.1958  -2.1921  -2.0570  -2.0529
    -1.9740  -1.9683  -1.9288  -1.8288  -1.8063  -1.7757  -1.7675  -1.6618
    -1.6509  -1.6290  -1.5644  -1.5451  -1.5199  -1.4893  -1.4774  -1.4705
    -1.4629  -1.4342  -1.3728  -1.3619  -1.3385  -1.3207  -1.2923  -1.2559
    -1.2199  -1.1204  -0.9375  -0.9012  -0.8564  -0.8431  -0.8071  -0.7757
    -0.7317  -0.6961  -0.6454  -0.6093  -0.5813  -0.5278  -0.5141  -0.4832
    -0.4709  -0.4457  -0.4376  -0.4318  -0.4175  -0.4036  -0.3908  -0.3561
    -0.3169  -0.2844  -0.2686  -0.2674  -0.2550  -0.2294  -0.2062  -0.1993
    -0.1864  -0.1794  -0.1727  -0.1677  -0.1651  -0.1639  -0.1338  -0.1187
    -0.0916  -0.0837  -0.0693  -0.0628  -0.0512  -0.0293  -0.0138   0.0030
     0.0394   0.0477   0.0897   0.1078   0.1147   0.1450   0.1550   0.1864
     0.2649   0.3064   0.3513   0.3765   0.3986   0.4248   0.4479   0.4695
     0.4775   0.4898   0.5048   0.5074   0.6539   0.7367   0.8032   0.8278
     0.8371   0.8439   0.8671   0.8790   0.9039   0.9308   0.9755   1.0069
     1.0308   1.0943   1.1106   1.1348   1.1525   1.1747   1.1913   1.2046
     1.2562   1.2843   1.3080   1.3193   1.3236   1.3325   1.3721   1.3804
     1.4022   1.4230   1.4580   1.4794   1.4852   1.5022   1.5208   1.5392
     1.5637   1.5719   1.5792   1.5859   1.6029   1.6439   1.6575   1.6674
     1.6776   1.6906   1.7117   1.7342   1.7394   1.7497   1.7562   1.7682
     1.7826   1.8244   1.8277   1.8453   1.8499   1.8580   1.8661   1.8842
     1.8984   1.9113   1.9166   1.9222   2.0063   2.0158   2.0261   2.0692
     2.0977   2.1491

          k = 0.2000 0.3464 0.0000 ( 51202 PWs)   bands (ev):

   -22.1744  -9.3873  -7.3136  -6.2963  -6.1319  -5.9691  -5.8315  -5.6500
    -5.4445  -4.7041  -4.5895  -4.2294  -4.2073  -4.1546  -3.5400  -3.3964
    -3.3794  -3.3747  -3.3652  -3.2502  -3.1165  -3.0954  -3.0636  -2.8877
    -2.7102  -2.6390  -2.6241  -2.6019  -2.5347  -2.5261  -2.5117  -2.4315
    -2.4236  -2.4118  -2.3860  -2.3426  -2.2601  -2.2132  -2.0599  -2.0358
    -2.0167  -1.9714  -1.9444  -1.9029  -1.8856  -1.7474  -1.6961  -1.6879
    -1.6461  -1.5602  -1.5291  -1.5182  -1.4993  -1.4923  -1.4771  -1.4616
    -1.4478  -1.4284  -1.3738  -1.3428  -1.3022  -1.2527  -1.1675  -1.1371
    -1.0562  -1.0428  -0.9403  -0.9247  -0.8688  -0.8217  -0.8068  -0.7763
    -0.7655  -0.7437  -0.7260  -0.6821  -0.6545  -0.6361  -0.6180  -0.6086
    -0.5864  -0.5616  -0.5527  -0.5313  -0.5074  -0.4195  -0.4094  -0.3709
    -0.3559  -0.3450  -0.3167  -0.2961  -0.2696  -0.2547  -0.2424  -0.2262
    -0.2095  -0.1954  -0.1836  -0.1595  -0.1517  -0.1321  -0.1151  -0.0853
    -0.0781  -0.0669  -0.0552  -0.0312  -0.0206  -0.0172  -0.0009   0.0088
     0.0482   0.0942   0.0991   0.1117   0.1949   0.2234   0.2517   0.2735
     0.2994   0.3246   0.3487   0.3575   0.4115   0.4140   0.4245   0.4328
     0.4424   0.4570   0.4926   0.5089   0.5767   0.6613   0.6820   0.7404
     0.7930   0.8269   0.8511   0.8832   0.8892   0.9031   0.9178   0.9282
     0.9403   0.9566   0.9779   0.9912   1.0318   1.0665   1.1324   1.1503
     1.1552   1.1970   1.2116   1.2379   1.2479   1.2916   1.3174   1.3580
     1.3932   1.4463   1.4911   1.5384   1.5528   1.5757   1.5871   1.5980
     1.6077   1.6263   1.6471   1.6522   1.6875   1.7187   1.7282   1.7322
     1.7404   1.7739   1.7783   1.7865   1.8057   1.8229   1.8334   1.8569
     1.8664   1.8682   1.8776   1.8926   1.9044   1.9160   1.9543   1.9864
     1.9991   2.0344   2.0986   2.1287   2.2255   2.2680   2.4177   2.4655
     2.5493   2.5952

          k = 0.2000-0.5774 0.0000 ( 51262 PWs)   bands (ev):

   -22.1744  -9.3815  -6.7613  -6.7578  -6.2481  -6.0814  -5.8862  -5.6297
    -5.2710  -5.1941  -4.7238  -4.2774  -3.8107  -3.7467  -3.4331  -3.4166
    -3.4011  -3.2957  -3.1643  -3.0959  -2.9985  -2.9937  -2.9574  -2.8599
    -2.8560  -2.8496  -2.8203  -2.8161  -2.7286  -2.5929  -2.4863  -2.4621
    -2.4416  -2.4106  -2.3933  -2.3853  -2.3352  -2.2868  -2.2404  -2.0404
    -1.9419  -1.9193  -1.9104  -1.8991  -1.8315  -1.7529  -1.6899  -1.6797
[...]
     atom    8 type  1   force =    -0.00407516   -0.00167672   -0.10331958
     atom    9 type  1   force =     0.00479567   -0.00063433   -0.10350476
     atom   10 type  1   force =    -0.00011376    0.00016295   -0.00943718
     atom   11 type  1   force =    -0.00034495   -0.00010473   -0.00749667
     atom   12 type  1   force =     0.00057794    0.00061093   -0.00814160
     atom   13 type  1   force =     0.00064749   -0.00171273   -0.01090868
     atom   14 type  1   force =    -0.00052011   -0.00225660   -0.01211344
     atom   15 type  1   force =    -0.00039459   -0.00048188   -0.01366150
     atom   16 type  1   force =    -0.00061996    0.00204455   -0.01661827
     atom   17 type  1   force =     0.00245171    0.00040231   -0.00941537
     atom   18 type  1   force =    -0.00142524    0.00120971   -0.01236101
     atom   19 type  1   force =     0.00276779    0.00333263    0.01045348
     atom   20 type  1   force =    -0.00045912    0.01733187   -0.00250875
     atom   21 type  1   force =    -0.00223162   -0.00108563    0.01579687
     atom   22 type  1   force =    -0.00035749    0.00072451    0.01821131
     atom   23 type  1   force =    -0.00018764   -0.00008979    0.01734726
     atom   24 type  1   force =    -0.00105130    0.00142709    0.01451822
     atom   25 type  1   force =    -0.00333588   -0.00183333    0.00626049
     atom   26 type  1   force =    -0.01001648   -0.00972702   -0.00455115
     atom   27 type  1   force =     0.01497035   -0.00750890   -0.00138075
     atom   28 type  1   force =     0.04502469   -0.00360006    0.12178490
     atom   29 type  1   force =    -0.07831876   -0.01151683    0.08512020
     atom   30 type  1   force =    -0.00414921   -0.00277867    0.12216299
     atom   31 type  1   force =     0.00165558   -0.03244516    0.14031144
     atom   32 type  1   force =     0.00052788   -0.00777026    0.12328922
     atom   33 type  1   force =    -0.00026565   -0.00065142    0.10496354
     atom   34 type  1   force =     0.00013954    0.00135026    0.10985614
     atom   35 type  1   force =     0.00270622    0.04130538    0.14176211
     atom   36 type  1   force =     0.00123543    0.01374993    0.12680571
     atom   37 type  2   force =    -0.06900534   -0.00500320    0.40558750
     atom   38 type  3   force =     0.82940167   -0.06030711   -2.60702650
     atom   39 type  4   force =    -0.01056778    0.00094829   -0.02706021
     The ionic contribution  to forces
     atom    1 type  1   force =    -0.00634710    0.00775860 -111.12855886
     atom    2 type  1   force =     0.00556658    0.00847966 -111.13011133
     atom    3 type  1   force =     0.00078049    0.00278262 -111.11749150
     atom    4 type  1   force =     0.00022270    0.00264495 -111.11668617
     atom    5 type  1   force =    -0.00172037   -0.00460150 -111.11962987
     atom    6 type  1   force =     0.00149766   -0.00562264 -111.12006736
     atom    7 type  1   force =    -0.00705277   -0.00279562 -111.12369725
     atom    8 type  1   force =    -0.00100718   -0.00551743 -111.13989658
     atom    9 type  1   force =     0.00805999   -0.00312868 -111.12572155
     atom   10 type  1   force =    -0.06157731    0.00309071  -40.16836170
     atom   11 type  1   force =     0.05388349    0.00342793  -40.18375089
     atom   12 type  1   force =     0.00768600    0.00148890  -40.06197734
     atom   13 type  1   force =    -0.00332743    0.07093706  -40.10251669
     atom   14 type  1   force =     0.02769387    0.02443397  -40.05337535
     atom   15 type  1   force =    -0.02436404    0.01782350  -40.04678882
     atom   16 type  1   force =    -0.02691458   -0.02104004  -40.04893026
     atom   17 type  1   force =    -0.00383848   -0.07272411  -40.11084460
     atom   18 type  1   force =     0.03075581   -0.02743705  -40.05654033
     atom   19 type  1   force =    -0.32287239    0.39876110   31.19843689
     atom   20 type  1   force =     0.28414020    0.44354684   31.13046624
     atom   21 type  1   force =     0.03802325    0.12295559   31.70991696
     atom   22 type  1   force =     0.00976011    0.11415939   31.74650237
     atom   23 type  1   force =    -0.08238039   -0.21749617   31.62915176
     atom   24 type  1   force =     0.07252739   -0.26004842   31.61510218
     atom   25 type  1   force =    -0.34641127   -0.13004654   31.44408537
     atom   26 type  1   force =    -0.05118577   -0.31893520   30.55600480
     atom   27 type  1   force =     0.39895495   -0.15725449   31.33138284
     atom   28 type  1   force =    -4.56919130    0.22997786   98.70043792
     atom   29 type  1   force =     3.70547148    0.31398390   97.52914884
     atom   30 type  1   force =     0.46617231    0.04943591  103.93841650
     atom   31 type  1   force =    -0.04903462    3.08336149  102.78508641
     atom   32 type  1   force =     0.84239376    0.88143635  104.19907724
     atom   33 type  1   force =    -0.77649378    0.63311277  104.26166488
     atom   34 type  1   force =    -0.87212033   -0.73127614  104.21230226
     atom   35 type  1   force =    -0.06657800   -3.34261095  102.48161341
     atom   36 type  1   force =     0.96025746   -1.01369984  104.12033701
     atom   37 type  2   force =     2.03224664   -0.22293814   51.44049565
     atom   38 type  3   force =    -3.01291890    0.16795787   89.60066598
     atom   39 type  4   force =     1.33924187   -0.04438405   15.32465092
     The local contribution  to forces
     atom    1 type  1   force =     0.00351197   -0.00595811  111.23316062
     atom    2 type  1   force =    -0.00446732   -0.01252802  111.23535534
     atom    3 type  1   force =     0.00138588   -0.00013356  111.22206540
     atom    4 type  1   force =     0.00001779   -0.00296676  111.22306073
     atom    5 type  1   force =     0.00070516    0.00370558  111.22525711
     atom    6 type  1   force =    -0.00036471    0.00313468  111.22714770
     atom    7 type  1   force =     0.00863909    0.00295081  111.23140011
     atom    8 type  1   force =     0.00492338    0.00798077  111.24668101
     atom    9 type  1   force =    -0.01360894    0.00514781  111.23227489
     atom   10 type  1   force =     0.06071072   -0.00443481   40.15738711
     atom   11 type  1   force =    -0.05304271   -0.00402129   40.16864185
     atom   12 type  1   force =    -0.00785557   -0.00253287   40.05167346
     atom   13 type  1   force =     0.00265395   -0.06871668   40.09706645
     atom   14 type  1   force =    -0.02773611   -0.02202368   40.04598858
     atom   15 type  1   force =     0.02530297   -0.01740230   40.03945124
     atom   16 type  1   force =     0.02720869    0.02016599   40.04418835
     atom   17 type  1   force =     0.00096979    0.07177763   40.10464081
     atom   18 type  1   force =    -0.02819107    0.02687510   40.04953146
     atom   19 type  1   force =     0.32067844   -0.39911901  -31.19130591
     atom   20 type  1   force =    -0.28415417   -0.45857262  -31.11242636
     atom   21 type  1   force =    -0.03488199   -0.12073727  -31.70365941
     atom   22 type  1   force =    -0.01064076   -0.11621697  -31.73919516
     atom   23 type  1   force =     0.08264564    0.21627104  -31.62290010
     atom   24 type  1   force =    -0.07156394    0.25788155  -31.60991763
     atom   25 type  1   force =     0.34747497    0.13133536  -31.43328929
     atom   26 type  1   force =     0.06089150    0.32761796  -30.54066171
     atom   27 type  1   force =    -0.41433161    0.16481027  -31.31473881
     atom   28 type  1   force =     4.49765931   -0.22532811  -98.83515988
     atom   29 type  1   force =    -3.62502360   -0.30296163  -97.58333693
     atom   30 type  1   force =    -0.46018047   -0.04752697 -104.06546281
     atom   31 type  1   force =     0.04293198   -3.03706969 -102.93497712
     atom   32 type  1   force =    -0.83892659   -0.86588959 -104.33217815
     atom   33 type  1   force =     0.77531877   -0.63071460 -104.37693257
     atom   34 type  1   force =     0.87114603    0.72834913 -104.32908044
     atom   35 type  1   force =     0.05871166    3.28558361 -102.63059750
     atom   36 type  1   force =    -0.95599347    0.99226964 -104.25409290
     atom   37 type  2   force =    -1.97415395    0.23348143  -51.86001203
     atom   38 type  3   force =     2.20509141   -0.11210535  -87.00338210
     atom   39 type  4   force =    -1.29641312    0.04340866  -15.30563160
     The core correction contribution to forces
     atom    1 type  1   force =    -0.00010076    0.00003205    0.00972096
     atom    2 type  1   force =     0.00005909   -0.00022486    0.01005085
     atom    3 type  1   force =     0.00022540    0.00007233    0.00968969
     atom    4 type  1   force =     0.00011737   -0.00005024    0.01014826
     atom    5 type  1   force =     0.00022115   -0.00003510    0.00995996
     atom    6 type  1   force =     0.00006657   -0.00007535    0.00975010
     atom    7 type  1   force =     0.00006569    0.00010397    0.01019334
     atom    8 type  1   force =     0.00038085    0.00034335    0.00993020
     atom    9 type  1   force =    -0.00047366    0.00005959    0.01013479
     atom   10 type  1   force =    -0.00023835    0.00021816   -0.00181288
     atom   11 type  1   force =     0.00002440    0.00011762   -0.00151252
     atom   12 type  1   force =     0.00012753    0.00003822   -0.00157897
     atom   13 type  1   force =    -0.00039160    0.00023908   -0.00180564
     atom   14 type  1   force =     0.00016638    0.00025178   -0.00190148
     atom   15 type  1   force =     0.00012958   -0.00003312   -0.00166973
     atom   16 type  1   force =    -0.00012405   -0.00010062   -0.00190452
     atom   17 type  1   force =    -0.00027820   -0.00020739   -0.00180509
     atom   18 type  1   force =     0.00010920   -0.00029393   -0.00178099
     atom   19 type  1   force =    -0.00018856    0.00027163    0.00121436
     atom   20 type  1   force =    -0.00004120    0.00059448   -0.00011201
     atom   21 type  1   force =     0.00050460    0.00021584    0.00179616
     atom   22 type  1   force =     0.00030643    0.00020889    0.00212467
     atom   23 type  1   force =    -0.00014697    0.00002925    0.00199678
     atom   24 type  1   force =     0.00040512   -0.00062968    0.00124471
     atom   25 type  1   force =     0.00059861   -0.00014943    0.00207314
     atom   26 type  1   force =    -0.00059584   -0.00059274    0.00049206
     atom   27 type  1   force =     0.00067893   -0.00022901    0.00082414
     atom   28 type  1   force =     0.01014397    0.00003443   -0.00360855
     atom   29 type  1   force =    -0.01311706   -0.00181381    0.00917590
     atom   30 type  1   force =    -0.00641431   -0.00024715   -0.00697013
     atom   31 type  1   force =     0.00098838   -0.00706507   -0.00708831
     atom   32 type  1   force =    -0.00145469   -0.00420134   -0.00747778
     atom   33 type  1   force =     0.00033493   -0.00085763   -0.01030957
     atom   34 type  1   force =     0.00051746    0.00063936   -0.00951118
     atom   35 type  1   force =     0.00095582    0.00735161   -0.00633361
     atom   36 type  1   force =    -0.00171097    0.00511008   -0.00718529
     atom   37 type  2   force =    -0.00012513    0.00033533   -0.00191174
     atom   38 type  3   force =    -0.00626098    0.00050397    0.01899102
     atom   39 type  4   force =     0.00000000    0.00000000    0.00000000
     The Hubbard contrib.    to forces
     atom    1 type  1   force =     0.00000000    0.00000000    0.00000000
     atom    2 type  1   force =     0.00000000    0.00000000    0.00000000
     atom    3 type  1   force =     0.00000000    0.00000000    0.00000000
     atom    4 type  1   force =     0.00000000    0.00000000    0.00000000
     atom    5 type  1   force =     0.00000000    0.00000000    0.00000000
     atom    6 type  1   force =     0.00000000    0.00000000    0.00000000
     atom    7 type  1   force =     0.00000000    0.00000000    0.00000000
     atom    8 type  1   force =     0.00000000    0.00000000    0.00000000
     atom    9 type  1   force =     0.00000000    0.00000000    0.00000000
     atom   10 type  1   force =     0.00000000    0.00000000    0.00000000
     atom   11 type  1   force =     0.00000000    0.00000000    0.00000000
     atom   12 type  1   force =     0.00000000    0.00000000    0.00000000
     atom   13 type  1   force =     0.00000000    0.00000000    0.00000000
     atom   14 type  1   force =     0.00000000    0.00000000    0.00000000
     atom   15 type  1   force =     0.00000000    0.00000000    0.00000000
     atom   16 type  1   force =     0.00000000    0.00000000    0.00000000
     atom   17 type  1   force =     0.00000000    0.00000000    0.00000000
     atom   18 type  1   force =     0.00000000    0.00000000    0.00000000
     atom   19 type  1   force =     0.00000000    0.00000000    0.00000000
     atom   20 type  1   force =     0.00000000    0.00000000    0.00000000
     atom   21 type  1   force =     0.00000000    0.00000000    0.00000000
     atom   22 type  1   force =     0.00000000    0.00000000    0.00000000
     atom   23 type  1   force =     0.00000000    0.00000000    0.00000000
     atom   24 type  1   force =     0.00000000    0.00000000    0.00000000
     atom   25 type  1   force =     0.00000000    0.00000000    0.00000000
     atom   26 type  1   force =     0.00000000    0.00000000    0.00000000
     atom   27 type  1   force =     0.00000000    0.00000000    0.00000000
     atom   28 type  1   force =     0.00000000    0.00000000    0.00000000
     atom   29 type  1   force =     0.00000000    0.00000000    0.00000000
     atom   30 type  1   force =     0.00000000    0.00000000    0.00000000
     atom   31 type  1   force =     0.00000000    0.00000000    0.00000000
     atom   32 type  1   force =     0.00000000    0.00000000    0.00000000
     atom   33 type  1   force =     0.00000000    0.00000000    0.00000000
     atom   34 type  1   force =     0.00000000    0.00000000    0.00000000
     atom   35 type  1   force =     0.00000000    0.00000000    0.00000000
     atom   36 type  1   force =     0.00000000    0.00000000    0.00000000
     atom   37 type  2   force =     0.00000000    0.00000000    0.00000000
     atom   38 type  3   force =     0.00000000    0.00000000    0.00000000
     atom   39 type  4   force =     0.00000000    0.00000000    0.00000000
     The SCF correction term to forces
     atom    1 type  1   force =     0.00000000   -0.00000000    0.00000000
     atom    2 type  1   force =    -0.00000000   -0.00000000    0.00000000
     atom    3 type  1   force =     0.00000000   -0.00000000    0.00000000
     atom    4 type  1   force =    -0.00000000   -0.00000000    0.00000000
     atom    5 type  1   force =    -0.00000000   -0.00000000    0.00000000
     atom    6 type  1   force =     0.00000000    0.00000000    0.00000000
     atom    7 type  1   force =    -0.00000000    0.00000000    0.00000000
     atom    8 type  1   force =     0.00000000    0.00000000    0.00000000
     atom    9 type  1   force =    -0.00000000    0.00000000    0.00000000
     atom   10 type  1   force =     0.00000000    0.00000000    0.00000000
     atom   11 type  1   force =    -0.00000000    0.00000000    0.00000000
     atom   12 type  1   force =    -0.00000000    0.00000000    0.00000000
     atom   13 type  1   force =     0.00000000   -0.00000000    0.00000000
     atom   14 type  1   force =    -0.00000000   -0.00000000    0.00000000
     atom   15 type  1   force =    -0.00000000   -0.00000000    0.00000000
     atom   16 type  1   force =    -0.00000000    0.00000000    0.00000000
     atom   17 type  1   force =     0.00000000    0.00000000    0.00000000
     atom   18 type  1   force =    -0.00000000    0.00000000    0.00000000
     atom   19 type  1   force =     0.00000000   -0.00000000   -0.00000000
     atom   20 type  1   force =     0.00000000   -0.00000000   -0.00000000
     atom   21 type  1   force =    -0.00000000   -0.00000000   -0.00000000
     atom   22 type  1   force =    -0.00000000   -0.00000000   -0.00000000
     atom   23 type  1   force =     0.00000000   -0.00000000   -0.00000000
     atom   24 type  1   force =    -0.00000000    0.00000000   -0.00000000
     atom   25 type  1   force =    -0.00000000    0.00000000   -0.00000000
     atom   26 type  1   force =     0.00000000    0.00000000   -0.00000000
     atom   27 type  1   force =    -0.00000000    0.00000000    0.00000000
     atom   28 type  1   force =     0.00000000    0.00000000   -0.00000000
     atom   29 type  1   force =     0.00000000   -0.00000000   -0.00000000
     atom   30 type  1   force =    -0.00000000    0.00000000   -0.00000000
     atom   31 type  1   force =     0.00000000   -0.00000000   -0.00000000
     atom   32 type  1   force =     0.00000000   -0.00000000   -0.00000000
     atom   33 type  1   force =    -0.00000000    0.00000000   -0.00000000
     atom   34 type  1   force =     0.00000000   -0.00000000   -0.00000000
     atom   35 type  1   force =     0.00000000    0.00000000   -0.00000000
     atom   36 type  1   force =    -0.00000000    0.00000000   -0.00000000
     atom   37 type  2   force =     0.00001931   -0.00000277   -0.00001890
     atom   38 type  3   force =     0.00000907   -0.00000198   -0.00003453
     atom   39 type  4   force =    -0.00000141    0.00000059   -0.00000875

     Total force =     0.042987     Total SCF correction =     0.000046

     Writing all to output data dir ./pwscf.save/

     init_run     :     16.08s CPU     16.67s WALL (       1 calls)
     electrons    :    936.99s CPU    958.08s WALL (       1 calls)
     forces       :      3.98s CPU      4.14s WALL (       1 calls)

     Called by init_run:
     wfcinit      :      8.60s CPU      8.97s WALL (       1 calls)
     potinit      :      1.96s CPU      2.08s WALL (       1 calls)
     hinit0       :      5.27s CPU      5.35s WALL (       1 calls)

     Called by electrons:
     c_bands      :    796.65s CPU    813.15s WALL (      52 calls)
     sum_band     :     94.46s CPU     97.16s WALL (      52 calls)
     v_of_rho     :     10.94s CPU     11.57s WALL (      53 calls)
     newd         :      5.13s CPU      5.26s WALL (      53 calls)
     PAW_pot      :     14.43s CPU     14.80s WALL (      53 calls)
     mix_rho      :     16.52s CPU     17.18s WALL (      52 calls)
     vdW_kernel   :      1.09s CPU      1.11s WALL (       1 calls)

     Called by c_bands:
     init_us_2    :      9.41s CPU      9.76s WALL (    2756 calls)
     init_us_2:cp :      9.39s CPU      9.76s WALL (    2756 calls)
     cegterg      :    769.71s CPU    785.12s WALL (    1352 calls)

     Called by *egterg:
     cdiaghg      :    210.34s CPU    213.06s WALL (    4853 calls)
     h_psi        :    376.38s CPU    384.96s WALL (    4879 calls)
     s_psi        :     39.07s CPU     39.99s WALL (    4879 calls)
     g_psi        :      0.97s CPU      1.01s WALL (    3501 calls)

     Called by h_psi:
     h_psi:calbec :     58.43s CPU     60.12s WALL (    4879 calls)
     vloc_psi     :    275.73s CPU    281.58s WALL (    4879 calls)
     add_vuspsi   :     39.77s CPU     40.73s WALL (    4879 calls)

     General routines
     calbec       :     84.23s CPU     86.67s WALL (    6335 calls)
     fft          :     12.46s CPU     13.15s WALL (    4794 calls)
     ffts         :      9.54s CPU      9.93s WALL (   21787 calls)
     fftw         :    312.78s CPU    319.55s WALL ( 1402006 calls)
     interpolate  :      0.40s CPU      0.42s WALL (     106 calls)

     Parallel routines

     PWSCF        :  16m 3.02s CPU  16m30.04s WALL


   This run was terminated on:   8:56:59  14Dec2025            

=------------------------------------------------------------------------------=
   JOB DONE.
=------------------------------------------------------------------------------=
