  37  37   0   0
  0.4190497E+02  0.8468310E-09  0.8468310E-09  0.2496566E-08  0.5000000E-15
  1.000000000000000E-004
  CAR 
 unknown system                          
      8.61382594     -9.89166768  301     -0.07571996      1.00000000
     -9.892  0.0000E+00  0.0000E+00
     -9.830  0.0000E+00  0.0000E+00
     -9.768  0.0000E+00  0.0000E+00
     -9.707 -0.4280E-28 -0.2640E-29
     -9.645 -0.6285E-24 -0.3877E-25
     -9.583 -0.4284E-20 -0.2643E-21
     -9.522 -0.1353E-16 -0.8349E-18
     -9.460 -0.1919E-13 -0.1185E-14
     -9.398 -0.1282E-10 -0.7921E-12
     -9.337 -0.3930E-08 -0.2432E-09
     -9.275 -0.5474E-06 -0.3401E-07
     -9.213 -0.3414E-04 -0.2140E-05
     -9.151 -0.9253E-03 -0.5922E-04
     -9.090 -0.1010E-01 -0.6825E-03
     -9.028 -0.3341E-01 -0.2744E-02
     -8.966  0.4875E-01  0.2632E-03
     -8.905  0.3271E+00  0.2044E-01
     -8.843  0.5960E+00  0.5721E-01
     -8.781  0.2000E+01  0.1806E+00
     -8.720  0.3803E+01  0.4151E+00
     -8.658  0.2316E+01  0.5580E+00
     -8.596  0.8507E-02  0.5585E+00
     -8.535  0.1385E+00  0.5671E+00
     -8.473  0.2478E+01  0.7199E+00
     -8.411  0.3807E+01  0.9548E+00
     -8.350  0.3533E+01  0.1173E+01
     -8.288  0.3769E+01  0.1405E+01
     -8.226  0.1991E+01  0.1528E+01
     -8.164  0.5031E-01  0.1531E+01
     -8.103 -0.3499E+00  0.1510E+01
     -8.041 -0.3460E+00  0.1488E+01
     -7.979  0.1807E+01  0.1600E+01
     -7.918  0.6562E+01  0.2004E+01
     -7.856  0.6339E+01  0.2396E+01
     -7.794  0.1623E+01  0.2496E+01
     -7.733  0.1275E+01  0.2574E+01
     -7.671  0.4319E+01  0.2841E+01
     -7.609  0.5537E+01  0.3182E+01
     -7.548  0.4129E+01  0.3437E+01
     -7.486  0.1200E+01  0.3511E+01
     -7.424  0.8755E+00  0.3565E+01
     -7.363  0.4454E+01  0.3840E+01
     -7.301  0.7298E+01  0.4290E+01
     -7.239  0.9817E+01  0.4896E+01
     -7.178  0.1107E+02  0.5579E+01
     -7.116  0.5551E+01  0.5921E+01
     -7.054  0.2943E+01  0.6103E+01
     -6.992  0.6362E+01  0.6495E+01
     -6.931  0.5688E+01  0.6846E+01
     -6.869  0.2565E+01  0.7004E+01
     -6.807  0.4072E+01  0.7255E+01
     -6.746  0.7909E+01  0.7743E+01
     -6.684  0.9998E+01  0.8360E+01
     -6.622  0.1086E+02  0.9030E+01
     -6.561  0.1438E+02  0.9917E+01
     -6.499  0.1340E+02  0.1074E+02
     -6.437  0.9142E+01  0.1131E+02
     -6.376  0.1055E+02  0.1196E+02
     -6.314  0.1091E+02  0.1263E+02
     -6.252  0.1144E+02  0.1334E+02
     -6.191  0.1942E+02  0.1453E+02
     -6.129  0.3206E+02  0.1651E+02
     -6.067  0.3665E+02  0.1877E+02
     -6.006  0.3078E+02  0.2067E+02
     -5.944  0.2936E+02  0.2248E+02
     -5.882  0.3261E+02  0.2449E+02
     -5.820  0.3505E+02  0.2666E+02
     -5.759  0.2977E+02  0.2849E+02
     -5.697  0.2700E+02  0.3016E+02
     -5.635  0.3357E+02  0.3223E+02
     -5.574  0.4029E+02  0.3471E+02
     -5.512  0.4313E+02  0.3737E+02
     -5.450  0.5135E+02  0.4054E+02
     -5.389  0.6225E+02  0.4438E+02
     -5.327  0.6246E+02  0.4823E+02
     -5.265  0.5542E+02  0.5165E+02
     -5.204  0.4821E+02  0.5463E+02
     -5.142  0.4359E+02  0.5732E+02
     -5.080  0.4937E+02  0.6036E+02
     -5.019  0.6824E+02  0.6457E+02
     -4.957  0.6207E+02  0.6840E+02
     -4.895  0.3305E+02  0.7044E+02
     -4.833  0.2520E+02  0.7199E+02
     -4.772  0.4065E+02  0.7450E+02
     -4.710  0.3861E+02  0.7688E+02
     -4.648  0.2204E+02  0.7824E+02
     -4.587  0.2541E+02  0.7981E+02
     -4.525  0.4337E+02  0.8248E+02
     -4.463  0.5862E+02  0.8610E+02
     -4.402  0.6204E+02  0.8993E+02
     -4.340  0.5382E+02  0.9325E+02
     -4.278  0.4727E+02  0.9616E+02
     -4.217  0.4535E+02  0.9896E+02
     -4.155  0.4535E+02  0.1018E+03
     -4.093  0.5588E+02  0.1052E+03
     -4.032  0.5900E+02  0.1088E+03
     -3.970  0.4682E+02  0.1117E+03
     -3.908  0.4057E+02  0.1142E+03
     -3.847  0.3928E+02  0.1167E+03
     -3.785  0.3632E+02  0.1189E+03
     -3.723  0.4107E+02  0.1214E+03
     -3.661  0.5875E+02  0.1251E+03
     -3.600  0.6488E+02  0.1291E+03
     -3.538  0.5835E+02  0.1327E+03
     -3.476  0.5731E+02  0.1362E+03
     -3.415  0.6823E+02  0.1404E+03
     -3.353  0.7758E+02  0.1452E+03
     -3.291  0.7451E+02  0.1498E+03
     -3.230  0.6834E+02  0.1540E+03
     -3.168  0.7223E+02  0.1585E+03
     -3.106  0.8564E+02  0.1637E+03
     -3.045  0.8310E+02  0.1689E+03
     -2.983  0.7506E+02  0.1735E+03
     -2.921  0.7805E+02  0.1783E+03
     -2.860  0.7654E+02  0.1830E+03
     -2.798  0.8427E+02  0.1882E+03
     -2.736  0.1030E+03  0.1946E+03
     -2.675  0.1056E+03  0.2011E+03
     -2.613  0.8184E+02  0.2061E+03
     -2.551  0.6102E+02  0.2099E+03
     -2.489  0.6401E+02  0.2139E+03
     -2.428  0.6058E+02  0.2176E+03
     -2.366  0.4385E+02  0.2203E+03
     -2.304  0.2960E+02  0.2221E+03
     -2.243  0.2520E+02  0.2237E+03
     -2.181  0.3128E+02  0.2256E+03
     -2.119  0.4491E+02  0.2284E+03
     -2.058  0.6536E+02  0.2324E+03
     -1.996  0.8721E+02  0.2378E+03
     -1.934  0.9138E+02  0.2434E+03
     -1.873  0.7877E+02  0.2483E+03
     -1.811  0.5980E+02  0.2520E+03
     -1.749  0.4476E+02  0.2547E+03
     -1.688  0.4342E+02  0.2574E+03
     -1.626  0.4842E+02  0.2604E+03
     -1.564  0.5610E+02  0.2639E+03
     -1.503  0.5826E+02  0.2675E+03
     -1.441  0.5562E+02  0.2709E+03
     -1.379  0.5891E+02  0.2745E+03
     -1.317  0.5901E+02  0.2782E+03
     -1.256  0.5205E+02  0.2814E+03
     -1.194  0.5526E+02  0.2848E+03
     -1.132  0.7353E+02  0.2893E+03
     -1.071  0.8526E+02  0.2946E+03
     -1.009  0.8509E+02  0.2998E+03
     -0.947  0.7001E+02  0.3041E+03
     -0.886  0.5729E+02  0.3077E+03
     -0.824  0.5798E+02  0.3113E+03
     -0.762  0.5105E+02  0.3144E+03
     -0.701  0.4155E+02  0.3170E+03
     -0.639  0.5123E+02  0.3201E+03
     -0.577  0.6326E+02  0.3240E+03
     -0.516  0.6066E+02  0.3278E+03
     -0.454  0.6018E+02  0.3315E+03
     -0.392  0.6942E+02  0.3358E+03
     -0.330  0.8714E+02  0.3411E+03
     -0.269  0.9399E+02  0.3469E+03
     -0.207  0.7152E+02  0.3514E+03
     -0.145  0.5737E+02  0.3549E+03
     -0.084  0.8585E+02  0.3602E+03
     -0.022  0.9547E+02  0.3661E+03
      0.040  0.5504E+02  0.3695E+03
      0.101  0.3243E+02  0.3715E+03
      0.163  0.5191E+02  0.3747E+03
      0.225  0.5711E+02  0.3782E+03
      0.286  0.4348E+02  0.3809E+03
      0.348  0.3705E+02  0.3832E+03
      0.410  0.2644E+02  0.3848E+03
      0.471  0.1373E+02  0.3856E+03
      0.533  0.5669E+01  0.3860E+03
      0.595  0.2961E+01  0.3862E+03
      0.656  0.4432E+01  0.3864E+03
      0.718  0.1087E+02  0.3871E+03
      0.780  0.1555E+02  0.3881E+03
      0.842  0.1108E+02  0.3888E+03
      0.903  0.7323E+01  0.3892E+03
      0.965  0.1076E+02  0.3899E+03
      1.027  0.9938E+01  0.3905E+03
      1.088  0.4032E+01  0.3907E+03
      1.150  0.4678E+01  0.3910E+03
      1.212  0.1058E+02  0.3917E+03
      1.273  0.1268E+02  0.3925E+03
      1.335  0.1148E+02  0.3932E+03
      1.397  0.9994E+01  0.3938E+03
      1.458  0.1377E+02  0.3946E+03
      1.520  0.2581E+02  0.3962E+03
      1.582  0.2636E+02  0.3979E+03
      1.643  0.1879E+02  0.3990E+03
      1.705  0.1617E+02  0.4000E+03
      1.767  0.1026E+02  0.4006E+03
      1.828  0.1908E+01  0.4008E+03
      1.890  0.1840E+01  0.4009E+03
      1.952  0.6581E+01  0.4013E+03
      2.014  0.7589E+01  0.4017E+03
      2.075  0.4655E+01  0.4020E+03
      2.137  0.3459E+01  0.4022E+03
      2.199  0.8389E+01  0.4028E+03
      2.260  0.1164E+02  0.4035E+03
      2.322  0.1099E+02  0.4042E+03
      2.384  0.1456E+02  0.4051E+03
      2.445  0.2121E+02  0.4064E+03
      2.507  0.2077E+02  0.4076E+03
      2.569  0.1130E+02  0.4083E+03
      2.630  0.6302E+01  0.4087E+03
      2.692  0.7131E+01  0.4092E+03
      2.754  0.1240E+02  0.4099E+03
      2.815  0.1918E+02  0.4111E+03
      2.877  0.1719E+02  0.4122E+03
      2.939  0.1161E+02  0.4129E+03
      3.000  0.7744E+01  0.4134E+03
      3.062  0.1089E+02  0.4140E+03
      3.124  0.1535E+02  0.4150E+03
      3.186  0.1257E+02  0.4158E+03
      3.247  0.9658E+01  0.4164E+03
      3.309  0.7508E+01  0.4168E+03
      3.371  0.3172E+01  0.4170E+03
      3.432  0.2134E+01  0.4172E+03
      3.494  0.6527E+01  0.4176E+03
      3.556  0.1158E+02  0.4183E+03
      3.617  0.1708E+02  0.4193E+03
      3.679  0.2289E+02  0.4207E+03
      3.741  0.2151E+02  0.4221E+03
      3.802  0.1225E+02  0.4228E+03
      3.864  0.5072E+01  0.4231E+03
      3.926  0.3611E+01  0.4234E+03
      3.987  0.4702E+01  0.4236E+03
      4.049  0.6698E+01  0.4241E+03
      4.111  0.8006E+01  0.4246E+03
      4.173  0.7124E+01  0.4250E+03
      4.234  0.5057E+01  0.4253E+03
      4.296  0.4518E+01  0.4256E+03
      4.358  0.1298E+02  0.4264E+03
      4.419  0.2545E+02  0.4280E+03
      4.481  0.2102E+02  0.4293E+03
      4.543  0.9063E+01  0.4298E+03
      4.604  0.7660E+01  0.4303E+03
      4.666  0.1159E+02  0.4310E+03
      4.728  0.1460E+02  0.4319E+03
      4.789  0.1256E+02  0.4327E+03
      4.851  0.7651E+01  0.4331E+03
      4.913  0.5996E+01  0.4335E+03
      4.974  0.9524E+01  0.4341E+03
      5.036  0.1068E+02  0.4348E+03
      5.098  0.7729E+01  0.4352E+03
      5.159  0.8543E+01  0.4358E+03
      5.221  0.1186E+02  0.4365E+03
      5.283  0.1315E+02  0.4373E+03
      5.345  0.9287E+01  0.4379E+03
      5.406  0.7187E+01  0.4383E+03
      5.468  0.1438E+02  0.4392E+03
      5.530  0.2223E+02  0.4406E+03
      5.591  0.2363E+02  0.4420E+03
      5.653  0.2335E+02  0.4435E+03
      5.715  0.2568E+02  0.4451E+03
      5.776  0.2501E+02  0.4466E+03
      5.838  0.1783E+02  0.4477E+03
      5.900  0.1440E+02  0.4486E+03
      5.961  0.2293E+02  0.4500E+03
      6.023  0.3168E+02  0.4520E+03
      6.085  0.2630E+02  0.4536E+03
      6.146  0.1561E+02  0.4545E+03
      6.208  0.1604E+02  0.4555E+03
      6.270  0.2268E+02  0.4569E+03
      6.331  0.2828E+02  0.4587E+03
      6.393  0.2635E+02  0.4603E+03
      6.455  0.1591E+02  0.4613E+03
      6.517  0.1532E+02  0.4622E+03
      6.578  0.2639E+02  0.4639E+03
      6.640  0.2957E+02  0.4657E+03
      6.702  0.2584E+02  0.4673E+03
      6.763  0.2196E+02  0.4686E+03
      6.825  0.1657E+02  0.4697E+03
      6.887  0.1757E+02  0.4707E+03
      6.948  0.1882E+02  0.4719E+03
      7.010  0.1338E+02  0.4727E+03
      7.072  0.1496E+02  0.4736E+03
      7.133  0.2274E+02  0.4751E+03
      7.195  0.2379E+02  0.4765E+03
      7.257  0.1834E+02  0.4777E+03
      7.318  0.1037E+02  0.4783E+03
      7.380  0.3177E+01  0.4785E+03
      7.442  0.2370E+01  0.4786E+03
      7.503  0.6309E+01  0.4790E+03
      7.565  0.7584E+01  0.4795E+03
      7.627  0.5856E+01  0.4799E+03
      7.689  0.2595E+01  0.4800E+03
      7.750  0.1211E+00  0.4800E+03
      7.812 -0.2290E+00  0.4800E+03
      7.874 -0.5379E-01  0.4800E+03
      7.935 -0.4310E-02  0.4800E+03
      7.997 -0.1439E-03  0.4800E+03
      8.059 -0.2123E-05  0.4800E+03
      8.120 -0.1417E-07  0.4800E+03
      8.182 -0.4338E-10  0.4800E+03
      8.244 -0.6134E-13  0.4800E+03
      8.305  0.0000E+00  0.4800E+03
      8.367  0.0000E+00  0.4800E+03
      8.429  0.0000E+00  0.4800E+03
      8.490  0.0000E+00  0.4800E+03
      8.552  0.0000E+00  0.4800E+03
      8.614  0.0000E+00  0.4800E+03
