   37   37    1    1
  0.4190497E+02  0.8468310E-09  0.8468310E-09  0.2496566E-08  0.5000000E-15
  1.000000000000000E-004
  CAR 
 unknown system                          
    361     13    240
 
  0.1276756E-14  0.1276756E-14  0.1276756E-14  0.4000000E-01
      1         -8.891668   1.000000
      2         -7.721721   1.000000
      3         -6.923227   1.000000
      4         -6.498861   1.000000
      5         -6.470438   1.000000
      6         -6.453971   1.000000
      7         -6.448113   1.000000
      8         -6.443137   1.000000
      9         -6.433621   1.000000
     10         -6.423689   1.000000
     11         -6.131859   1.000000
     12         -5.918212   1.000000
     13         -5.913866   1.000000
     14         -5.900518   1.000000
     15         -5.895103   1.000000
     16         -5.891243   1.000000
     17         -5.818245   1.000000
     18         -5.459650   1.000000
     19         -5.457959   1.000000
     20         -5.451701   1.000000
     21         -5.447358   1.000000
     22         -5.446004   1.000000
     23         -5.335550   1.000000
     24         -5.225700   1.000000
     25         -5.222205   1.000000
     26         -5.221879   1.000000
     27         -5.217704   1.000000
     28         -5.212286   1.000000
     29         -5.123673   1.000000
     30         -5.030735   1.000000
     31         -5.022261   1.000000
     32         -5.019826   1.000000
     33         -5.015397   1.000000
     34         -5.014445   1.000000
     35         -4.963209   1.000000
     36         -4.958353   1.000000
     37         -4.952849   1.000000
     38         -4.945435   1.000000
     39         -4.914554   1.000000
     40         -4.908500   1.000000
     41         -4.598432   1.000000
     42         -4.380773   1.000000
     43         -4.378265   1.000000
     44         -4.345905   1.000000
     45         -4.337799   1.000000
     46         -4.321176   1.000000
     47         -4.317822   1.000000
     48         -4.302862   1.000000
     49         -4.285812   1.000000
     50         -4.282411   1.000000
     51         -4.198951   1.000000
     52         -4.134944   1.000000
     53         -4.131649   1.000000
     54         -4.039565   1.000000
     55         -4.030050   1.000000
     56         -3.589392   1.000000
     57         -3.575484   1.000000
     58         -3.564895   1.000000
     59         -3.557239   1.000000
     60         -3.555039   1.000000
     61         -3.495116   1.000000
     62         -3.477743   1.000000
     63         -3.384240   1.000000
     64         -3.379124   1.000000
     65         -3.372755   1.000000
     66         -3.371621   1.000000
     67         -3.365675   1.000000
     68         -3.364925   1.000000
     69         -3.347353   1.000000
     70         -3.318212   1.000000
     71         -3.305886   1.000000
     72         -3.299314   1.000000
     73         -3.294463   1.000000
     74         -3.290077   1.000000
     75         -3.266377   1.000000
     76         -3.259590   1.000000
     77         -3.257014   1.000000
     78         -3.158124   1.000000
     79         -3.148938   1.000000
     80         -3.141535   1.000000
     81         -3.135946   1.000000
     82         -3.132965   1.000000
     83         -3.096600   1.000000
     84         -2.939649   1.000000
     85         -2.931455   1.000000
     86         -2.927828   1.000000
     87         -2.923367   1.000000
     88         -2.914924   1.000000
     89         -2.895187   1.000000
     90         -2.892082   1.000000
     91         -2.882096   1.000000
     92         -2.843050   1.000000
     93         -2.819411   1.000000
     94         -2.783203   1.000000
     95         -2.778442   1.000000
     96         -2.742607   1.000000
     97         -2.739788   1.000000
     98         -2.692918   1.000000
     99         -2.690445   1.000000
    100         -2.686340   1.000000
    101         -2.611362   1.000000
    102         -2.535779   1.000000
    103         -2.522798   1.000000
    104         -2.515855   1.000000
    105         -2.503957   1.000000
    106         -2.500622   1.000000
    107         -2.495553   1.000000
    108         -2.264178   1.000000
    109         -2.027435   1.000000
    110         -2.002376   1.000000
    111         -1.998670   1.000000
    112         -1.992792   1.000000
    113         -1.984482   1.000000
    114         -1.980003   1.000000
    115         -1.977767   1.000000
    116         -1.966197   1.000000
    117         -1.957614   1.000000
    118         -1.953806   1.000000
    119         -1.946985   1.000000
    120         -1.876750   1.000000
    121         -1.866071   1.000000
    122         -1.820504   1.000000
    123         -1.733329   1.000000
    124         -1.720923   1.000000
    125         -1.718424   1.000000
    126         -1.712021   1.000000
    127         -1.707869   1.000000
    128         -1.622841   1.000000
    129         -1.585944   1.000000
    130         -1.537128   1.000000
    131         -1.536566   1.000000
    132         -1.515054   1.000000
    133         -1.499188   1.000000
    134         -1.313102   1.000000
    135         -1.275652   1.000000
    136         -1.268406   1.000000
    137         -1.259812   1.000000
    138         -1.253713   1.000000
    139         -1.245785   1.000000
    140         -1.191163   1.000000
    141         -1.178414   1.000000
    142         -1.098626   1.000000
    143         -1.037139   1.000000
    144         -1.034067   1.000000
    145         -1.029203   1.000000
    146         -1.025407   1.000000
    147         -1.015251   1.000000
    148         -0.904437   1.000000
    149         -0.864022   1.000000
    150         -0.856587   1.000000
    151         -0.847451   1.000000
    152         -0.833467   1.000000
    153         -0.829307   1.000000
    154         -0.817939   1.000000
    155         -0.816689   1.000000
    156         -0.809353   1.000000
    157         -0.805140   1.000000
    158         -0.800440   1.000000
    159         -0.799115   1.000000
    160         -0.731696   1.000000
    161         -0.706187   1.000000
    162         -0.695106   1.000000
    163         -0.682753   1.000000
    164         -0.664329   1.000000
    165         -0.659011   1.000000
    166         -0.645959   1.000000
    167         -0.639148   1.000000
    168         -0.601586   1.000000
    169         -0.594169   1.000000
    170         -0.572525   1.000000
    171         -0.563606   1.000000
    172         -0.551611   1.000000
    173         -0.550159   1.000000
    174         -0.544095   1.000000
    175         -0.537687   1.000000
    176         -0.462503   1.000000
    177         -0.451992   1.000001
    178         -0.445437   1.000001
    179         -0.438823   1.000002
    180         -0.432567   1.000003
    181         -0.427454   1.000004
    182         -0.409938   1.000012
    183         -0.352356   1.000325
    184         -0.335970   1.000724
    185         -0.323883   1.001257
    186         -0.320787   1.001439
    187         -0.311721   1.002115
    188         -0.308935   1.002371
    189         -0.116545   0.815633
    190         -0.107065   0.751369
    191         -0.019498   0.097658
    192         -0.017119   0.086364
    193         -0.003305   0.031977
    194          0.003249   0.012639
    195          0.004831   0.008556
    196          0.011907  -0.007070
    197          0.479123  -0.000000
    198          0.816552  -0.000000
    199          0.847663  -0.000000
    200          0.863218  -0.000000
    201          0.893114  -0.000000
    202          0.901462  -0.000000
    203          0.905731  -0.000000
    204          2.729097   0.000000
    205          3.127909   0.000000
    206          3.161283   0.000000
    207          3.198418   0.000000
    208          3.209536   0.000000
    209          3.219411   0.000000
    210          4.530702   0.000000
    211          4.742362   0.000000
    212          4.759683   0.000000
    213          4.815453   0.000000
    214          4.823966   0.000000
    215          4.826163   0.000000
    216          4.882738   0.000000
    217          5.068926   0.000000
    218          5.136967   0.000000
    219          5.462274   0.000000
    220          5.494097   0.000000
    221          5.783670   0.000000
    222          5.803293   0.000000
    223          5.849754   0.000000
    224          5.856208   0.000000
    225          5.863611   0.000000
    226          6.105145   0.000000
    227          6.356535   0.000000
    228          6.615439   0.000000
    229          6.621938   0.000000
    230          6.626254   0.000000
    231          6.784855   0.000000
    232          6.955139   0.000000
    233          7.117558   0.000000
    234          7.131281   0.000000
    235          7.155410   0.000000
    236          7.159212   0.000000
    237          7.165594   0.000000
    238          7.202923   0.000000
    239          7.283057   0.000000
    240          7.613826   0.000000
 
  0.2000000E+00  0.1278043E-14  0.1276756E-14  0.8000000E-01
      1         -8.743247   1.000000
      2         -7.584693   1.000000
      3         -6.975214   1.000000
      4         -6.829746   1.000000
      5         -6.554276   1.000000
      6         -6.543025   1.000000
      7         -6.357636   1.000000
      8         -6.261696   1.000000
      9         -6.216970   1.000000
     10         -6.210706   1.000000
     11         -6.106101   1.000000
     12         -6.010515   1.000000
     13         -5.975689   1.000000
     14         -5.843384   1.000000
     15         -5.830319   1.000000
     16         -5.820624   1.000000
     17         -5.722765   1.000000
     18         -5.533341   1.000000
     19         -5.422021   1.000000
     20         -5.411399   1.000000
     21         -5.403472   1.000000
     22         -5.388005   1.000000
     23         -5.330236   1.000000
     24         -5.299610   1.000000
     25         -5.273131   1.000000
     26         -5.224933   1.000000
     27         -5.216386   1.000000
     28         -5.207282   1.000000
     29         -5.147731   1.000000
     30         -5.111676   1.000000
     31         -5.108507   1.000000
     32         -5.034607   1.000000
     33         -5.018478   1.000000
     34         -5.007852   1.000000
     35         -5.007414   1.000000
     36         -4.868017   1.000000
     37         -4.809535   1.000000
     38         -4.776196   1.000000
     39         -4.766027   1.000000
     40         -4.747669   1.000000
     41         -4.607918   1.000000
     42         -4.495296   1.000000
     43         -4.492870   1.000000
     44         -4.455438   1.000000
     45         -4.411316   1.000000
     46         -4.392863   1.000000
     47         -4.385450   1.000000
     48         -4.317745   1.000000
     49         -4.209261   1.000000
     50         -4.195417   1.000000
     51         -4.118821   1.000000
     52         -4.112104   1.000000
     53         -4.069255   1.000000
     54         -4.051013   1.000000
     55         -4.038312   1.000000
     56         -3.828493   1.000000
     57         -3.738501   1.000000
     58         -3.730909   1.000000
     59         -3.675904   1.000000
     60         -3.659340   1.000000
     61         -3.611309   1.000000
     62         -3.580112   1.000000
     63         -3.562836   1.000000
     64         -3.553045   1.000000
     65         -3.533319   1.000000
     66         -3.526399   1.000000
     67         -3.484199   1.000000
     68         -3.447671   1.000000
     69         -3.403808   1.000000
     70         -3.368039   1.000000
     71         -3.361980   1.000000
     72         -3.328341   1.000000
     73         -3.269151   1.000000
     74         -3.263673   1.000000
     75         -3.257008   1.000000
     76         -3.178169   1.000000
     77         -3.169551   1.000000
     78         -3.157027   1.000000
     79         -3.131303   1.000000
     80         -3.099114   1.000000
     81         -3.077122   1.000000
     82         -3.068754   1.000000
     83         -3.029207   1.000000
     84         -2.991241   1.000000
     85         -2.962028   1.000000
     86         -2.956840   1.000000
     87         -2.939902   1.000000
     88         -2.932190   1.000000
     89         -2.910229   1.000000
     90         -2.894612   1.000000
     91         -2.864448   1.000000
     92         -2.828462   1.000000
     93         -2.801779   1.000000
     94         -2.787382   1.000000
     95         -2.769421   1.000000
     96         -2.755684   1.000000
     97         -2.729788   1.000000
     98         -2.728257   1.000000
     99         -2.697324   1.000000
    100         -2.686296   1.000000
    101         -2.610129   1.000000
    102         -2.554970   1.000000
    103         -2.548179   1.000000
    104         -2.519254   1.000000
    105         -2.505763   1.000000
    106         -2.498430   1.000000
    107         -2.495337   1.000000
    108         -2.493295   1.000000
    109         -2.444242   1.000000
    110         -2.431066   1.000000
    111         -2.425861   1.000000
    112         -2.415889   1.000000
    113         -2.212026   1.000000
    114         -2.073254   1.000000
    115         -2.039067   1.000000
    116         -2.024732   1.000000
    117         -1.999176   1.000000
    118         -1.989717   1.000000
    119         -1.981092   1.000000
    120         -1.960973   1.000000
    121         -1.937109   1.000000
    122         -1.859795   1.000000
    123         -1.793442   1.000000
    124         -1.780790   1.000000
    125         -1.725095   1.000000
    126         -1.663104   1.000000
    127         -1.648681   1.000000
    128         -1.615121   1.000000
    129         -1.585463   1.000000
    130         -1.576787   1.000000
    131         -1.544613   1.000000
    132         -1.536096   1.000000
    133         -1.517645   1.000000
    134         -1.439039   1.000000
    135         -1.428982   1.000000
    136         -1.391477   1.000000
    137         -1.386735   1.000000
    138         -1.374047   1.000000
    139         -1.291152   1.000000
    140         -1.196557   1.000000
    141         -1.169897   1.000000
    142         -1.162602   1.000000
    143         -1.145791   1.000000
    144         -1.138918   1.000000
    145         -1.123730   1.000000
    146         -1.060892   1.000000
    147         -1.033278   1.000000
    148         -1.000323   1.000000
    149         -0.996653   1.000000
    150         -0.986336   1.000000
    151         -0.951440   1.000000
    152         -0.916150   1.000000
    153         -0.907531   1.000000
    154         -0.891272   1.000000
    155         -0.836383   1.000000
    156         -0.786621   1.000000
    157         -0.776492   1.000000
    158         -0.758486   1.000000
    159         -0.732680   1.000000
    160         -0.660561   1.000000
    161         -0.636630   1.000000
    162         -0.634724   1.000000
    163         -0.599301   1.000000
    164         -0.587548   1.000000
    165         -0.566777   1.000000
    166         -0.544299   1.000000
    167         -0.489040   1.000000
    168         -0.468679   1.000000
    169         -0.413749   1.000010
    170         -0.401587   1.000020
    171         -0.395040   1.000030
    172         -0.386642   1.000050
    173         -0.359233   1.000228
    174         -0.353747   1.000303
    175         -0.346712   1.000431
    176         -0.341638   1.000552
    177         -0.330049   1.000952
    178         -0.275039   1.008172
    179         -0.268508   1.010022
    180         -0.125259   0.867555
    181         -0.123532   0.857846
    182         -0.099872   0.697934
    183         -0.086562   0.591160
    184         -0.076052   0.502812
    185         -0.068790   0.441510
    186         -0.033722   0.176956
    187         -0.017634   0.088761
    188         -0.014005   0.072439
    189          0.007539   0.002079
    190          0.053606  -0.034800
    191          0.106374  -0.013640
    192          0.133017  -0.005968
    193          0.183142  -0.000772
    194          0.295061  -0.000001
    195          0.296616  -0.000001
    196          0.312683  -0.000000
    197          0.349322  -0.000000
    198          0.670559  -0.000000
    199          0.754274  -0.000000
    200          1.221543  -0.000000
    201          1.467879  -0.000000
    202          1.482653  -0.000000
    203          1.599566  -0.000000
    204          2.369343  -0.000000
    205          2.765698   0.000000
    206          2.909341   0.000000
    207          3.510334   0.000000
    208          3.652905   0.000000
    209          3.655861   0.000000
    210          3.742265   0.000000
    211          3.981919   0.000000
    212          4.382349   0.000000
    213          4.611656   0.000000
    214          4.728355   0.000000
    215          4.953881   0.000000
    216          4.982760   0.000000
    217          4.995147   0.000000
    218          5.172860   0.000000
    219          5.245937   0.000000
    220          5.465524   0.000000
    221          5.647274   0.000000
    222          5.717369   0.000000
    223          5.757234   0.000000
    224          5.909374   0.000000
    225          6.112764   0.000000
    226          6.214176   0.000000
    227          6.239173   0.000000
    228          6.320035   0.000000
    229          6.343628   0.000000
    230          6.652233   0.000000
    231          6.682397   0.000000
    232          6.731319   0.000000
    233          6.783781   0.000000
    234          6.864071   0.000000
    235          6.887290   0.000000
    236          7.032754   0.000000
    237          7.230244   0.000000
    238          7.474291   0.000000
    239          7.486933   0.000000
    240          7.611661   0.000000
 
  0.2000000E+00  0.2000000E+00  0.1276756E-14  0.8000000E-01
      1         -8.743674   1.000000
      2         -7.588661   1.000000
      3         -6.992776   1.000000
      4         -6.809684   1.000000
      5         -6.557223   1.000000
      6         -6.545749   1.000000
      7         -6.358032   1.000000
      8         -6.263477   1.000000
      9         -6.215521   1.000000
     10         -6.210610   1.000000
     11         -6.128891   1.000000
     12         -6.001257   1.000000
     13         -5.930743   1.000000
     14         -5.848137   1.000000
     15         -5.827823   1.000000
     16         -5.822466   1.000000
     17         -5.750627   1.000000
     18         -5.531035   1.000000
     19         -5.420572   1.000000
     20         -5.410272   1.000000
     21         -5.404007   1.000000
     22         -5.371562   1.000000
     23         -5.329451   1.000000
     24         -5.294993   1.000000
     25         -5.272150   1.000000
     26         -5.242512   1.000000
     27         -5.214146   1.000000
     28         -5.209959   1.000000
     29         -5.146962   1.000000
     30         -5.108521   1.000000
     31         -5.105509   1.000000
     32         -5.034177   1.000000
     33         -5.014592   1.000000
     34         -5.007688   1.000000
     35         -5.004147   1.000000
     36         -4.861129   1.000000
     37         -4.806923   1.000000
     38         -4.776043   1.000000
     39         -4.768763   1.000000
     40         -4.750616   1.000000
     41         -4.605035   1.000000
     42         -4.495053   1.000000
     43         -4.487971   1.000000
     44         -4.458714   1.000000
     45         -4.415573   1.000000
     46         -4.396865   1.000000
     47         -4.384487   1.000000
     48         -4.325216   1.000000
     49         -4.206908   1.000000
     50         -4.173673   1.000000
     51         -4.123809   1.000000
     52         -4.107130   1.000000
     53         -4.073307   1.000000
     54         -4.051682   1.000000
     55         -4.043590   1.000000
     56         -3.827929   1.000000
     57         -3.735997   1.000000
     58         -3.729941   1.000000
     59         -3.676043   1.000000
     60         -3.654711   1.000000
     61         -3.616739   1.000000
     62         -3.581005   1.000000
     63         -3.568300   1.000000
     64         -3.546350   1.000000
     65         -3.529046   1.000000
     66         -3.525644   1.000000
     67         -3.486610   1.000000
     68         -3.446644   1.000000
     69         -3.401303   1.000000
     70         -3.370629   1.000000
     71         -3.361908   1.000000
     72         -3.348964   1.000000
     73         -3.274922   1.000000
     74         -3.265881   1.000000
     75         -3.252029   1.000000
     76         -3.180540   1.000000
     77         -3.168975   1.000000
     78         -3.152283   1.000000
     79         -3.133505   1.000000
     80         -3.093163   1.000000
     81         -3.070285   1.000000
     82         -3.066775   1.000000
     83         -3.032087   1.000000
     84         -3.003223   1.000000
     85         -2.962309   1.000000
     86         -2.958063   1.000000
     87         -2.935696   1.000000
     88         -2.928507   1.000000
     89         -2.908714   1.000000
     90         -2.897822   1.000000
     91         -2.868002   1.000000
     92         -2.821758   1.000000
     93         -2.799017   1.000000
     94         -2.788691   1.000000
     95         -2.772303   1.000000
     96         -2.754574   1.000000
     97         -2.730031   1.000000
     98         -2.720507   1.000000
     99         -2.705573   1.000000
    100         -2.688524   1.000000
    101         -2.613899   1.000000
    102         -2.561349   1.000000
    103         -2.542465   1.000000
    104         -2.523105   1.000000
    105         -2.512852   1.000000
    106         -2.503944   1.000000
    107         -2.497768   1.000000
    108         -2.488974   1.000000
    109         -2.447027   1.000000
    110         -2.431982   1.000000
    111         -2.428361   1.000000
    112         -2.419183   1.000000
    113         -2.175178   1.000000
    114         -2.086204   1.000000
    115         -2.053599   1.000000
    116         -2.012128   1.000000
    117         -2.002114   1.000000
    118         -1.993681   1.000000
    119         -1.982268   1.000000
    120         -1.946083   1.000000
    121         -1.941867   1.000000
    122         -1.883028   1.000000
    123         -1.805881   1.000000
    124         -1.785705   1.000000
    125         -1.717042   1.000000
    126         -1.662747   1.000000
    127         -1.651479   1.000000
    128         -1.613978   1.000000
    129         -1.590532   1.000000
    130         -1.577500   1.000000
    131         -1.546893   1.000000
    132         -1.532390   1.000000
    133         -1.526788   1.000000
    134         -1.444339   1.000000
    135         -1.410415   1.000000
    136         -1.394583   1.000000
    137         -1.384543   1.000000
    138         -1.377410   1.000000
    139         -1.280209   1.000000
    140         -1.197473   1.000000
    141         -1.179600   1.000000
    142         -1.166343   1.000000
    143         -1.153507   1.000000
    144         -1.141427   1.000000
    145         -1.115604   1.000000
    146         -1.068666   1.000000
    147         -1.033135   1.000000
    148         -1.006902   1.000000
    149         -0.990396   1.000000
    150         -0.982153   1.000000
    151         -0.931966   1.000000
    152         -0.916967   1.000000
    153         -0.907430   1.000000
    154         -0.899712   1.000000
    155         -0.819058   1.000000
    156         -0.793975   1.000000
    157         -0.775000   1.000000
    158         -0.759718   1.000000
    159         -0.718590   1.000000
    160         -0.670255   1.000000
    161         -0.643390   1.000000
    162         -0.623265   1.000000
    163         -0.608621   1.000000
    164         -0.597787   1.000000
    165         -0.568995   1.000000
    166         -0.544305   1.000000
    167         -0.483699   1.000000
    168         -0.473900   1.000000
    169         -0.421875   1.000006
    170         -0.405262   1.000016
    171         -0.390462   1.000040
    172         -0.383460   1.000060
    173         -0.356742   1.000259
    174         -0.352699   1.000319
    175         -0.348549   1.000393
    176         -0.340100   1.000595
    177         -0.329103   1.000994
    178         -0.275477   1.008058
    179         -0.271992   1.009001
    180         -0.137200   0.926547
    181         -0.123223   0.856078
    182         -0.101796   0.712572
    183         -0.084948   0.577726
    184         -0.067906   0.434096
    185         -0.066746   0.424393
    186         -0.033084   0.172985
    187         -0.019681   0.098551
    188         -0.000787   0.024075
    189          0.006731   0.003946
    190          0.072444  -0.028462
    191          0.107607  -0.013186
    192          0.129408  -0.006750
    193          0.186346  -0.000664
    194          0.293562  -0.000001
    195          0.297849  -0.000001
    196          0.310189  -0.000000
    197          0.350749  -0.000000
    198          0.690940  -0.000000
    199          0.748545  -0.000000
    200          1.226496  -0.000000
    201          1.458845  -0.000000
    202          1.482315  -0.000000
    203          1.601686  -0.000000
    204          2.353396  -0.000000
    205          2.796417   0.000000
    206          2.903114   0.000000
    207          3.513306   0.000000
    208          3.651417   0.000000
    209          3.661895   0.000000
    210          3.735228   0.000000
    211          3.956452   0.000000
    212          4.386484   0.000000
    213          4.605207   0.000000
    214          4.722496   0.000000
    215          4.959046   0.000000
    216          4.983125   0.000000
    217          4.996892   0.000000
    218          5.204060   0.000000
    219          5.256377   0.000000
    220          5.458233   0.000000
    221          5.634227   0.000000
    222          5.708239   0.000000
    223          5.817565   0.000000
    224          5.903575   0.000000
    225          6.094242   0.000000
    226          6.211984   0.000000
    227          6.222695   0.000000
    228          6.322287   0.000000
    229          6.346212   0.000000
    230          6.571042   0.000000
    231          6.698503   0.000000
    232          6.737312   0.000000
    233          6.779921   0.000000
    234          6.854595   0.000000
    235          6.893784   0.000000
    236          7.034413   0.000000
    237          7.230011   0.000000
    238          7.472887   0.000000
    239          7.521293   0.000000
    240          7.597261   0.000000
 
  0.1276756E-14  0.2000000E+00  0.1276756E-14  0.8000000E-01
      1         -8.743696   1.000000
      2         -7.589586   1.000000
      3         -6.994074   1.000000
      4         -6.805557   1.000000
      5         -6.558736   1.000000
      6         -6.549336   1.000000
      7         -6.357830   1.000000
      8         -6.259420   1.000000
      9         -6.217512   1.000000
     10         -6.211989   1.000000
     11         -6.134280   1.000000
     12         -6.001018   1.000000
     13         -5.921185   1.000000
     14         -5.846791   1.000000
     15         -5.827680   1.000000
     16         -5.821179   1.000000
     17         -5.756461   1.000000
     18         -5.532497   1.000000
     19         -5.417838   1.000000
     20         -5.410165   1.000000
     21         -5.401870   1.000000
     22         -5.368076   1.000000
     23         -5.329723   1.000000
     24         -5.297222   1.000000
     25         -5.272276   1.000000
     26         -5.246963   1.000000
     27         -5.213740   1.000000
     28         -5.210132   1.000000
     29         -5.139951   1.000000
     30         -5.111290   1.000000
     31         -5.103409   1.000000
     32         -5.029810   1.000000
     33         -5.013409   1.000000
     34         -5.007539   1.000000
     35         -5.004614   1.000000
     36         -4.858939   1.000000
     37         -4.806456   1.000000
     38         -4.776883   1.000000
     39         -4.768064   1.000000
     40         -4.756256   1.000000
     41         -4.603596   1.000000
     42         -4.498548   1.000000
     43         -4.490328   1.000000
     44         -4.458488   1.000000
     45         -4.413232   1.000000
     46         -4.395896   1.000000
     47         -4.384928   1.000000
     48         -4.327565   1.000000
     49         -4.209149   1.000000
     50         -4.176236   1.000000
     51         -4.123602   1.000000
     52         -4.108976   1.000000
     53         -4.070073   1.000000
     54         -4.051871   1.000000
     55         -4.040656   1.000000
     56         -3.832738   1.000000
     57         -3.733417   1.000000
     58         -3.730647   1.000000
     59         -3.680735   1.000000
     60         -3.658139   1.000000
     61         -3.619732   1.000000
     62         -3.586218   1.000000
     63         -3.563601   1.000000
     64         -3.544592   1.000000
     65         -3.526863   1.000000
     66         -3.524147   1.000000
     67         -3.487738   1.000000
     68         -3.445714   1.000000
     69         -3.403524   1.000000
     70         -3.375412   1.000000
     71         -3.361693   1.000000
     72         -3.351554   1.000000
     73         -3.267170   1.000000
     74         -3.260805   1.000000
     75         -3.237553   1.000000
     76         -3.181593   1.000000
     77         -3.171240   1.000000
     78         -3.154806   1.000000