       N       E                     dE             d eps       ncg     rms          rms(c)
DAV:   1    -0.104576656120E+03   -0.10458E+03   -0.91762E-01  6912   0.152E+00    0.347E+00
RMM:   2    -0.115172587778E+03   -0.10596E+02   -0.17239E+00  6771   0.194E+00    0.310E+01
RMM:   3    -0.104569344673E+03    0.10603E+02   -0.10876E+00  6848   0.178E+00    0.283E+00
RMM:   4    -0.104475926450E+03    0.93418E-01   -0.10364E-01  6896   0.516E-01    0.103E+00
RMM:   5    -0.104475533380E+03    0.39307E-03   -0.18143E-02  7023   0.210E-01    0.733E-01
RMM:   6    -0.104471748699E+03    0.37847E-02   -0.51022E-03  7031   0.110E-01    0.410E-01
RMM:   7    -0.104471435874E+03    0.31283E-03   -0.19687E-03  7107   0.664E-02    0.263E-01
RMM:   8    -0.104471053753E+03    0.38212E-03   -0.68738E-04  7019   0.423E-02    0.130E-01
RMM:   9    -0.104470974815E+03    0.78938E-04   -0.24107E-04  7037   0.244E-02    0.678E-02
RMM:  10    -0.104470957595E+03    0.17220E-04   -0.71759E-05  6404   0.136E-02    0.522E-02
RMM:  11    -0.104470952504E+03    0.50918E-05   -0.30075E-05  5259   0.876E-03
   1 F= -.10447095E+03 E0= -.10443982E+03  d E =-.933834E-01
