 vasp.6.4.2 20Jul23 (build Mar 01 2024 16:46:03) complex                        
  
 executed on             LinuxIFC date 2025.01.15  04:52:36
 running   48 mpi-ranks, on    1 nodes
 distrk:  each k-point on   48 cores,    1 groups
 distr:  one band on NCORE=   1 cores,   48 groups


--------------------------------------------------------------------------------------------------------


 INCAR:
   ENCUT = 680.290000
   SIGMA = 0.100000
   ZAB_VDW = -1.886700
   EDIFF = 1.00e-05
   ALGO = Fast
   GGA = BF
   IBRION = -1
   ISMEAR = 1
   ISPIN = 1
   ISYM = 0
   LUSE_VDW = .TRUE.
   LREAL = Auto

 POTCAR:    PAW_PBE Pt 04Feb2005                  
 POTCAR:    PAW_PBE H 15Jun2001                   
 -----------------------------------------------------------------------------
|                                                                             |
|           W    W    AA    RRRRR   N    N  II  N    N   GGGG   !!!           |
|           W    W   A  A   R    R  NN   N  II  NN   N  G    G  !!!           |
|           W    W  A    A  R    R  N N  N  II  N N  N  G       !!!           |
|           W WW W  AAAAAA  RRRRR   N  N N  II  N  N N  G  GGG   !            |
|           WW  WW  A    A  R   R   N   NN  II  N   NN  G    G                |
|           W    W  A    A  R    R  N    N  II  N    N   GGGG   !!!           |
|                                                                             |
|     For optimal performance we recommend to set                             |
|       NCORE = 2 up to number-of-cores-per-socket                            |
|     NCORE specifies how many cores store one orbital (NPAR=cpu/NCORE).      |
|     This setting can greatly improve the performance of VASP for DFT.       |
|     The default, NCORE=1 might be grossly inefficient on modern             |
|     multi-core architectures or massively parallel machines. Do your        |
|     own testing! More info at https://www.vasp.at/wiki/index.php/NCORE      |
|     Unfortunately you need to use the default for GW and RPA                |
|     calculations (for HF NCORE is supported but not extensively tested      |
|     yet).                                                                   |
|                                                                             |
 -----------------------------------------------------------------------------

 -----------------------------------------------------------------------------
|                                                                             |
|               ----> ADVICE to this user running VASP <----                  |
|                                                                             |
|     You have switched on vdW-DFT.                                           |
|     This routine was written and supplied by Jiri Klimes. We recommend      |
|     that you carefully read and cite the following publications:            |
|       J. Klimes, D.R. Bowler, A. Michelides                                 |
|          J. Phys.: Cond Matt. 22 022201 (2010)                              |
|       J. Klimes, D.R. Bowler, A. Michelides                                 |
|          Phys. Rev. B. 83, 195131 (2011)                                    |
|     and references therein.                                                 |
|                                                                             |
 -----------------------------------------------------------------------------

 POTCAR:    PAW_PBE Pt 04Feb2005                  
   SHA256 =  3ed90460adef76debcff1cfb73ee1349b515b1a3db03439735b44de3a8db7dc8 Pt/POTCAR             
   COPYR  = (c) Copyright 04Feb2005 Georg Kresse                                                    
   COPYR  = This file is part of the software VASP. Any use, copying, and all other rights are regul
   COPYR  = If you do not have a valid VASP license, you may not use, copy or distribute this file. 
   VRHFIN =Pt: s1d9                                                                                 
   LEXCH  = PE                                                                                      
   EATOM  =   729.1176 eV,   53.5886 Ry                                                             
                                                                                                    
   TITEL  = PAW_PBE Pt 04Feb2005                                                                    
   LULTRA =        F    use ultrasoft PP ?                                                          
   IUNSCR =        1    unscreen: 0-lin 1-nonlin 2-no                                               
   RPACOR =    2.330    partial core radius                                                         
   POMASS =  195.080; ZVAL   =   10.000    mass and valenz                                          
   RCORE  =    2.600    outmost cutoff radius                                                       
   RWIGS  =    2.750; RWIGS  =    1.455    wigner-seitz radius (au A)                               
   ENMAX  =  230.283; ENMIN  =  172.712 eV                                                          
   ICORE  =        3    local potential                                                             
   LCOR   =        T    correct aug charges                                                         
   LPAW   =        T    paw PP                                                                      
   EAUG   =  358.966                                                                                
   DEXC   =    0.000                                                                                
   RMAX   =    2.658    core radius for proj-oper                                                   
   RAUG   =    1.300    factor for augmentation sphere                                              
   RDEP   =    2.761    radius for radial grids                                                     
   RDEPT  =    2.203    core radius for aug-charge                                                  
                                                                                                    
   Atomic configuration                                                                             
   16 entries                                                                                       
     n  l   j            E        occ.                                                              
     1  0  0.50    -78401.1885   2.0000                                                             
     2  0  0.50    -13770.7750   2.0000                                                             
     2  1  1.50    -11931.0468   6.0000                                                             
     3  0  0.50     -3234.7234   2.0000                                                             
     3  1  1.50     -2699.2216   6.0000                                                             
     3  2  2.50     -2119.5714  10.0000                                                             
     4  0  0.50      -695.1528   2.0000                                                             
     4  1  1.50      -519.6034   6.0000                                                             
     4  2  2.50      -306.6786  10.0000                                                             
     4  3  3.50       -70.1041  14.0000                                                             
     5  0  0.50      -101.7747   2.0000                                                             
     5  1  1.50       -55.9873   6.0000                                                             
     5  2  2.50        -6.1423   9.0000                                                             
     6  0  0.50        -5.6573   1.0000                                                             
     6  1  1.50        -6.8029   0.0000                                                             
     5  3  2.50        -1.3606   0.0000                                                             
   Description                                                                                      
     l       E           TYP  RCUT    TYP  RCUT                                                     
     2     -6.1423404     23  2.500                                                                 
     2     -7.5029230     23  2.500                                                                 
     0     -5.6573207     23  2.500                                                                 
     0      0.7416693     23  2.500                                                                 
     1     -2.7211652     23  2.600                                                                 
     1     20.4087390     23  2.600                                                                 
     3     -1.3605826     23  2.500                                                                 
  local pseudopotential read in
  partial core-charges read in
  partial kinetic energy density read in
  atomic valenz-charges read in
  non local Contribution for L=           2  read in
    real space projection operators read in
  non local Contribution for L=           2  read in
    real space projection operators read in
  non local Contribution for L=           0  read in
    real space projection operators read in
  non local Contribution for L=           0  read in
    real space projection operators read in
  non local Contribution for L=           1  read in
    real space projection operators read in
  non local Contribution for L=           1  read in
    real space projection operators read in
    PAW grid and wavefunctions read in
 
   number of l-projection  operators is LMAX  =           6
   number of lm-projection operators is LMMAX =          18
 
 POTCAR:    PAW_PBE H 15Jun2001                   
   SHA256 =  030f79b5d3ab3cf0e668861823c8fb652ff669f3e15e46930bd03bfd63a607b6 H/POTCAR              
   COPYR  = (c) Copyright 15Jun2001 Georg Kresse                                                    
   COPYR  = This file is part of the software VASP. Any use, copying, and all other rights are regul
   COPYR  = If you do not have a valid VASP license, you may not use, copy or distribute this file. 
   VRHFIN =H: ultrasoft test                                                                        
   LEXCH  = PE                                                                                      
   EATOM  =    12.4884 eV,    0.9179 Ry                                                             
                                                                                                    
   TITEL  = PAW_PBE H 15Jun2001                                                                     
   LULTRA =        F    use ultrasoft PP ?                                                          
   IUNSCR =        0    unscreen: 0-lin 1-nonlin 2-no                                               
   RPACOR =    0.000    partial core radius                                                         
   POMASS =    1.000; ZVAL   =    1.000    mass and valenz                                          
   RCORE  =    1.100    outmost cutoff radius                                                       
   RWIGS  =    0.700; RWIGS  =    0.370    wigner-seitz radius (au A)                               
   ENMAX  =  250.000; ENMIN  =  200.000 eV                                                          
   RCLOC  =    0.701    cutoff for local pot                                                        
   LCOR   =        T    correct aug charges                                                         
   LPAW   =        T    paw PP                                                                      
   EAUG   =  400.000                                                                                
   RMAX   =    1.123    core radius for proj-oper                                                   
   RAUG   =    1.200    factor for augmentation sphere                                              
   RDEP   =    1.112    radius for radial grids                                                     
   RDEPT  =    0.926    core radius for aug-charge                                                  
                                                                                                    
   Atomic configuration                                                                             
    2 entries                                                                                       
     n  l   j            E        occ.                                                              
     1  0  0.50        -6.4927   1.0000                                                             
     2  1  0.50        -3.4015   0.0000                                                             
   Description                                                                                      
     l       E           TYP  RCUT    TYP  RCUT                                                     
     0     -6.4927494     23  1.100                                                                 
     0      6.8029130     23  1.100                                                                 
     1     -4.0817478     23  1.100                                                                 
  local pseudopotential read in
  atomic valenz-charges read in
  non local Contribution for L=           0  read in
    real space projection operators read in
  non local Contribution for L=           0  read in
    real space projection operators read in
  non local Contribution for L=           1  read in
    real space projection operators read in
    PAW grid and wavefunctions read in
 
   number of l-projection  operators is LMAX  =           3
   number of lm-projection operators is LMMAX =           5
 
 Optimization of the real space projectors (new method)

 maximal supplied QI-value         = 14.36
 optimisation between [QCUT,QGAM] = [ 13.36, 26.71] = [ 49.96,199.83] Ry 
 Optimized for a Real-space Cutoff    1.42 Angstroem

   l    n(q)    QCUT    max X(q) W(low)/X(q) W(high)/X(q)  e(spline) 
   2     11    13.357    66.195    0.16E-03    0.81E-04    0.36E-06
   2     11    13.357    64.643    0.16E-03    0.82E-04    0.36E-06
   0     11    13.357    95.520    0.60E-04    0.72E-05    0.55E-06
   0     11    13.357    63.403    0.58E-04    0.70E-05    0.53E-06
   1     11    13.357    19.961    0.21E-03    0.56E-03    0.21E-05
   1     11    13.357    13.289    0.17E-03    0.46E-03    0.17E-05
 Optimization of the real space projectors (new method)

 maximal supplied QI-value         = 34.20
 optimisation between [QCUT,QGAM] = [ 13.34, 26.68] = [ 49.83,199.32] Ry 
 Optimized for a Real-space Cutoff    0.91 Angstroem

   l    n(q)    QCUT    max X(q) W(low)/X(q) W(high)/X(q)  e(spline) 
   0      7    13.340    19.460    0.48E-03    0.16E-03    0.16E-06
   0      7    13.340    12.209    0.46E-03    0.14E-03    0.15E-06
   1      7    13.340     4.655    0.46E-03    0.87E-03    0.11E-06
 -----------------------------------------------------------------------------
|                                                                             |
|               ----> ADVICE to this user running VASP <----                  |
|                                                                             |
|     You enforced a specific xc type in the INCAR file but a different       |
|     type was found in the POTCAR file.                                      |
|     I HOPE YOU KNOW WHAT YOU ARE DOING!                                     |
|                                                                             |
 -----------------------------------------------------------------------------

  PAW_PBE Pt 04Feb2005                  :
 energy of atom  1       EATOM= -729.1176
 kinetic energy error for atom=    0.0010 (will be added to EATOM!!)
  PAW_PBE H 15Jun2001                   :
 energy of atom  2       EATOM=  -12.4884
 kinetic energy error for atom=    0.0002 (will be added to EATOM!!)
 
 
 POSCAR: Pt H
  positions in cartesian coordinates
  No initial velocities read in
 exchange correlation table for  LEXCH =       17
   RHO(1)=    0.500       N(1)  =     2000
   RHO(2)=  100.500       N(2)  =     4000
 


--------------------------------------------------------------------------------------------------------


 ion  position               nearest neighbor table
   1  0.000  0.000  0.340-   3 2.81   7 2.81   6 2.82   8 2.82  12 2.82  16 2.82   2 2.83   4 2.83
                            10 2.83
   2  0.334  0.000  0.340-   8 2.81   9 2.82  17 2.82   1 2.83   3 2.83   4 2.83   5 2.83  10 2.83
                            11 2.83
   3  0.668  0.000  0.340-   7 2.81   1 2.81   9 2.81  18 2.82   5 2.83   2 2.83   6 2.83  11 2.83
                            12 2.83
   4  0.000  0.334  0.340-   6 2.81   9 2.82  15 2.82   5 2.83   2 2.83   1 2.83   7 2.83  10 2.83
                            13 2.83
   5  0.334  0.334  0.340-   3 2.83   4 2.83   6 2.83   7 2.83   2 2.83   8 2.83  11 2.83  13 2.83
                            14 2.83
   6  0.668  0.334  0.340-   4 2.81   1 2.82   5 2.83   8 2.83   3 2.83   9 2.83  12 2.83  14 2.83
                            15 2.83
   7  0.000  0.668  0.340-   3 2.81   1 2.81   9 2.81  18 2.82   5 2.83   8 2.83   4 2.83  13 2.83
                            16 2.83
   8  0.334  0.668  0.340-   2 2.81   1 2.82   6 2.83   7 2.83   9 2.83   5 2.83  14 2.83  16 2.83
                            17 2.83
   9  0.668  0.668  0.340-   3 2.81   7 2.81   4 2.82   2 2.82   8 2.83   6 2.83  15 2.83  17 2.83
                            18 2.83
  10  0.111  0.111  0.433-  26 2.80  16 2.81  12 2.81  19 2.82  15 2.82  17 2.82  11 2.83  13 2.83
                             2 2.83   4 2.83   1 2.83  20 2.84
  11  0.445  0.111  0.433-  27 2.80  17 2.81  21 2.82  18 2.82  12 2.83  13 2.83  10 2.83  14 2.83
                             3 2.83   5 2.83   2 2.83  20 2.83
  12  0.779  0.111  0.433-  25 2.79  16 2.81  18 2.81  10 2.81  21 2.82   1 2.82  11 2.83  14 2.83
                            15 2.83   6 2.83   3 2.83  19 2.83
  13  0.111  0.445  0.433-  15 2.81  23 2.81  22 2.82  18 2.82  20 2.83  14 2.83  11 2.83  10 2.83
                            16 2.83   7 2.83   5 2.83   4 2.83
  14  0.445  0.445  0.433-  21 2.80  24 2.81  23 2.81  16 2.83  12 2.83  13 2.83  15 2.83  17 2.83
                            11 2.83   8 2.83   6 2.83   5 2.83
  15  0.779  0.445  0.433-  24 2.81  13 2.81  19 2.81  22 2.82  10 2.82   4 2.82  17 2.83  14 2.83
                            18 2.83  12 2.83   9 2.83   6 2.83
  16  0.111  0.779  0.433-  25 2.80  23 2.81  12 2.81  10 2.81  18 2.81  26 2.82   1 2.82  14 2.83
                            17 2.83  13 2.83   8 2.83   7 2.83
  17  0.445  0.779  0.433-  24 2.80  27 2.81  11 2.81  26 2.81  10 2.82   2 2.82  15 2.83  16 2.83
                            18 2.83  14 2.83   9 2.83   8 2.83
  18  0.779  0.779  0.433-  25 2.80  16 2.81  12 2.81  27 2.81  13 2.82  11 2.82   3 2.82   7 2.82
                            22 2.83  17 2.83  15 2.83   9 2.83
  19  0.890  0.225  0.525-  22 2.80  20 2.81  15 2.81  10 2.82  24 2.82  26 2.83  33 2.83  28 2.83
                            12 2.83  25 2.83  21 2.83  31 2.90
  20  0.223  0.224  0.526-  19 2.81  22 2.81  26 2.82  23 2.82  21 2.82  27 2.82  13 2.83  11 2.83
                            10 2.84  29 2.86  32 2.87  31 2.90
  21  0.556  0.224  0.525-  14 2.80  23 2.82  11 2.82  12 2.82  24 2.82  20 2.82  27 2.82  25 2.83
                            19 2.83  33 2.84  30 2.84  32 2.86
  22  0.890  0.556  0.525-  19 2.80  20 2.81  13 2.82  15 2.82  24 2.82  23 2.82  18 2.83  36 2.83
                            27 2.83  34 2.83  25 2.83  31 2.90
  23  0.223  0.557  0.525-  14 2.81  16 2.81  13 2.81  21 2.82  20 2.82  22 2.82  24 2.82  25 2.83
                            26 2.83  34 2.84  35 2.84  32 2.87
  24  0.556  0.557  0.524-  17 2.80  14 2.81  15 2.81  19 2.82  21 2.82  27 2.82  22 2.82  26 2.82
                            23 2.82  35 2.84  33 2.84  36 2.85
  25  0.890  0.891  0.524-  12 2.79  16 2.80  18 2.80  26 2.82  23 2.83  27 2.83  21 2.83  22 2.83
                            19 2.83  34 2.84  28 2.84  30 2.84
  26  0.223  0.891  0.525-  10 2.80  17 2.81  16 2.82  27 2.82  20 2.82  24 2.82  25 2.82  19 2.83
                            23 2.83  35 2.83  28 2.84  29 2.87
  27  0.556  0.891  0.525-  11 2.80  17 2.81  18 2.81  26 2.82  24 2.82  20 2.82  21 2.82  25 2.83
                            22 2.83  36 2.84  30 2.84  29 2.86
  28  0.000  0.001  0.618-  34 2.80  30 2.81  35 2.82  33 2.83  19 2.83  31 2.83  26 2.84  25 2.84
                            29 2.84
  29  0.337  0.999  0.619-  36 2.79  35 2.81  30 2.82  28 2.84  32 2.85  31 2.86  27 2.86  20 2.86
                            26 2.87
  30  0.668  0.002  0.618-  34 2.81  28 2.81  29 2.82  32 2.82  33 2.82  36 2.82  21 2.84  27 2.84
                            25 2.84
  31  1.000  0.336  0.622-  37 1.65  33 2.82  36 2.82  28 2.83  34 2.84  32 2.85  29 2.86  19 2.90
                            20 2.90  22 2.90
  32  0.336  0.335  0.620-  37 2.15  33 2.80  35 2.81  30 2.82  34 2.84  29 2.85  31 2.85  21 2.86
                            20 2.87  23 2.87
  33  0.667  0.335  0.618-  32 2.80  31 2.82  35 2.82  30 2.82  28 2.83  36 2.83  19 2.83  21 2.84
                            24 2.84
  34  0.000  0.671  0.618-  28 2.80  30 2.81  35 2.82  36 2.82  22 2.83  25 2.84  23 2.84  31 2.84
                            32 2.84
  35  0.334  0.668  0.618-  29 2.81  32 2.81  33 2.82  34 2.82  28 2.82  36 2.82  26 2.83  23 2.84
                            24 2.84
  36  0.667  0.669  0.618-  29 2.79  31 2.82  30 2.82  35 2.82  34 2.82  33 2.83  22 2.83  27 2.84
                            24 2.85
  37  0.171  0.255  0.664-  31 1.65  32 2.15
 

IMPORTANT INFORMATION: All symmetrisations will be switched off!
NOSYMM: (Re-)initialisation of all symmetry stuff for point group C_1.


----------------------------------------------------------------------------------------

                                     Primitive cell                                     

  volume of cell :    1550.4837

  direct lattice vectors                    reciprocal lattice vectors
     8.468310000  0.000000000  0.000000000     0.118087316 -0.068177744  0.000000000
     4.234155000  7.333771587  0.000000000     0.000000000  0.136355488  0.000000000
     0.000000000  0.000000000 24.965661990     0.000000000  0.000000000  0.040055016

  length of vectors
     8.468310000  8.468310000 24.965661990     0.136355488  0.136355488  0.040055016

  position of ions in fractional coordinates (direct lattice)
     0.000000000  0.000000000  0.340467639
     0.334001368  0.000000000  0.340467639
     0.668002736  0.000000000  0.340467639
     1.000000000  0.334001368  0.340467639
     0.334001368  0.334001368  0.340467639
     0.668002736  0.334001368  0.340467639
     1.000000000  0.668002736  0.340467639
     0.334001368  0.668002736  0.340467639
     0.668002736  0.668002736  0.340467639
     0.111333789  0.111333789  0.432970737
     0.445335157  0.111333789  0.432970737
     0.779336525  0.111333789  0.432970737
     0.111333789  0.445335157  0.432970737
     0.445335157  0.445335157  0.432970737
     0.779336525  0.445335157  0.432970737
     0.111333789  0.779336525  0.432970737
     0.445335157  0.779336525  0.432970737
     0.779336525  0.779336525  0.432970737
     0.889948470  0.225387739  0.525246948
     0.222601153  0.224095236  0.525746187
     0.555689639  0.224415324  0.524685430
     0.890039658  0.556062620  0.525226392
     0.222996044  0.556673137  0.524628053
     0.556096751  0.557444156  0.524363893
     0.889727422  0.890819993  0.524174874
     0.223074109  0.891119091  0.524751159
     0.555965329  0.890770705  0.524632601
     0.000075552  0.001092374  0.617515810
     0.337088248  0.998658187  0.619298104
     0.668359122  0.001638408  0.617669082
     0.999522203  0.335509355  0.621610260
     0.336396455  0.335410878  0.619545389
     0.666998369  0.335366148  0.617732806
     0.000035558  0.670587623  0.617514415
     0.334157972  0.668491474  0.617548011
     0.667276753  0.668977163  0.617731154
     0.171458882  0.254776796  0.664337532

  ion indices of the primitive-cell ions
   primitive index   ion index
                 1           1
                 2           2
                 3           3
                 4           4
                 5           5
                 6           6
                 7           7
                 8           8
                 9           9
                10          10
                11          11
                12          12
                13          13
                14          14
                15          15
                16          16
                17          17
                18          18
                19          19
                20          20
                21          21
                22          22
                23          23
                24          24
                25          25
                26          26
                27          27
                28          28
                29          29
                30          30
                31          31
                32          32
                33          33
                34          34
                35          35
                36          36
                37          37

----------------------------------------------------------------------------------------

 
 
 KPOINTS: KPOINTS created by Atomic Simulation Env

Automatic generation of k-mesh.
 Grid dimensions read from file:
 generate k-points for:    5    5    1

 Generating k-lattice:

  Cartesian coordinates                     Fractional coordinates (reciprocal lattice)
     0.023617463 -0.013635549  0.000000000     0.200000000 -0.000000000  0.000000000
     0.000000000  0.027271098  0.000000000     0.000000000  0.200000000  0.000000000
     0.000000000  0.000000000  0.040055016     0.000000000  0.000000000  1.000000000

  Length of vectors
     0.027271098  0.027271098  0.040055016

  Shift w.r.t. Gamma in fractional coordinates (k-lattice)
     0.000000000  0.000000000  0.000000000

 
 Subroutine IBZKPT returns following result:
 ===========================================
 
 Found     13 irreducible k-points:
 
 Following reciprocal coordinates:
            Coordinates               Weight
  0.000000  0.000000  0.000000      1.000000
  0.200000  0.000000  0.000000      2.000000
  0.200000  0.200000  0.000000      2.000000
  0.000000  0.200000  0.000000      2.000000
  0.400000  0.000000  0.000000      2.000000
  0.400000  0.400000  0.000000      2.000000
  0.000000  0.400000  0.000000      2.000000
  0.400000  0.200000  0.000000      2.000000
  0.200000  0.400000  0.000000      2.000000
 -0.200000  0.200000  0.000000      2.000000
 -0.400000  0.200000  0.000000      2.000000
  0.400000 -0.400000  0.000000      2.000000
 -0.200000  0.400000  0.000000      2.000000
 
 Following cartesian coordinates:
            Coordinates               Weight
  0.000000  0.000000  0.000000      1.000000
  0.023617 -0.013636  0.000000      2.000000
  0.023617  0.013636  0.000000      2.000000
  0.000000  0.027271  0.000000      2.000000
  0.047235 -0.027271  0.000000      2.000000
  0.047235  0.027271  0.000000      2.000000
  0.000000  0.054542  0.000000      2.000000
  0.047235  0.000000  0.000000      2.000000
  0.023617  0.040907  0.000000      2.000000
 -0.023617  0.040907  0.000000      2.000000
 -0.047235  0.054542  0.000000      2.000000
  0.047235 -0.081813  0.000000      2.000000
 -0.023617  0.068178  0.000000      2.000000
 


--------------------------------------------------------------------------------------------------------




 Dimension of arrays:
   k-points           NKPTS =     13   k-points in BZ     NKDIM =     13   number of bands    NBANDS=    240
   number of dos      NEDOS =    301   number of ions     NIONS =     37
   non local maximal  LDIM  =      6   non local SUM 2l+1 LMDIM =     18
   total plane-waves  NPLWV = 466560
   max r-space proj   IRMAX =   3679   max aug-charges    IRDMAX=  18423
   dimension x,y,z NGX =    54 NGY =   54 NGZ =  160
   dimension x,y,z NGXF=   108 NGYF=  108 NGZF=  320
   support grid    NGXF=   108 NGYF=  108 NGZF=  320
   ions per type =              36   1
   NGX,Y,Z   is equivalent  to a cutoff of  10.60, 10.60, 10.65 a.u.
   NGXF,Y,Z  is equivalent  to a cutoff of  21.20, 21.20, 21.31 a.u.

 SYSTEM =  unknown system                          
 POSCAR =  Pt H                                    

 Startparameter for this run:
   NWRITE =      2    write-flag & timer
   PREC   = normal    normal or accurate (medium, high low for compatibility)
   ISTART =      1    job   : 0-new  1-cont  2-samecut
   ICHARG =      0    charge: 1-file 2-atom 10-const
   ISPIN  =      1    spin polarized calculation?
   LNONCOLLINEAR =      F non collinear calculations
   LSORBIT =      F    spin-orbit coupling
   INIWAV =      1    electr: 0-lowe 1-rand  2-diag
   LASPH  =      F    aspherical Exc in radial PAW
 Electronic Relaxation 1
   ENCUT  =  680.3 eV  50.00 Ry    7.07 a.u.  18.01 18.01 53.09*2*pi/ulx,y,z
   ENINI  =  680.3     initial cutoff
   ENAUG  =  400.0 eV  augmentation charge cutoff
   NELM   =     60;   NELMIN=  2; NELMDL=  0     # of ELM steps 
   EDIFF  = 0.1E-04   stopping-criterion for ELM
   LREAL  =      T    real-space projection
   NLSPLINE    = F    spline interpolate recip. space projectors
   LCOMPAT=      F    compatible to vasp.4.4
   GGA_COMPAT  = T    GGA compatible to vasp.4.4-vasp.4.6
   LMAXPAW     = -100 max onsite density
   LMAXMIX     =    2 max onsite mixed and CHGCAR
   VOSKOWN=      0    Vosko Wilk Nusair interpolation
   ROPT   =   -0.00050  -0.00050
 Ionic relaxation
   EDIFFG = 0.1E-03   stopping-criterion for IOM
   NSW    =      0    number of steps for IOM
   NBLOCK =      1;   KBLOCK =      1    inner block; outer block 
   IBRION =     -1    ionic relax: 0-MD 1-quasi-New 2-CG
   NFREE  =      0    steps in history (QN), initial steepest desc. (CG)
   ISIF   =      2    stress and relaxation
   IWAVPR =     10    prediction:  0-non 1-charg 2-wave 3-comb
   ISYM   =      0    0-nonsym 1-usesym 2-fastsym
   LCORR  =      T    Harris-Foulkes like correction to forces

   POTIM  = 0.5000    time-step for ionic-motion
   TEIN   =    0.0    initial temperature
   TEBEG  =    0.0;   TEEND  =   0.0 temperature during run
   SMASS  =  -3.00    Nose mass-parameter (am)
   estimated Nose-frequenzy (Omega)   =  0.10E-29 period in steps = 0.13E+47 mass=  -0.164E-26a.u.
   SCALEE = 1.0000    scale energy and forces
   NPACO  =    256;   APACO  = 10.0  distance and # of slots for P.C.
   PSTRESS=    0.0 pullay stress

  Mass of Ions in am
   POMASS = 195.08  1.00
  Ionic Valenz
   ZVAL   =  10.00  1.00
  Atomic Wigner-Seitz radii
   RWIGS  =  -1.00 -1.00
  virtual crystal weights 
   VCA    =   1.00  1.00
   NELECT =     361.0000    total number of electrons
   NUPDOWN=      -1.0000    fix difference up-down

 DOS related values:
   EMIN   =  10.00;   EMAX   =-10.00  energy-range for DOS
   EFERMI =   0.00;   METHOD = LEGACY      
   ISMEAR =     1;   SIGMA  =   0.10  broadening in eV -4-tet -1-fermi 0-gaus

 Electronic relaxation 2 (details)
   IALGO  =     68    algorithm
   LDIAG  =      T    sub-space diagonalisation (order eigenvalues)
   LSUBROT=      F    optimize rotation matrix (better conditioning)
   TURBO    =      0    0=normal 1=particle mesh
   IRESTART =      0    0=no restart 2=restart with 2 vectors
   NREBOOT  =      0    no. of reboots
   NMIN     =      0    reboot dimension
   EREF     =   0.00    reference energy to select bands
   IMIX   =      4    mixing-type and parameters
     AMIX     =   0.40;   BMIX     =  1.00
     AMIX_MAG =   1.60;   BMIX_MAG =  1.00
     AMIN     =   0.10
     WC   =   100.;   INIMIX=   1;  MIXPRE=   1;  MAXMIX= -45

 Intra band minimization:
   WEIMIN = 0.0000     energy-eigenvalue tresh-hold
   EBREAK =  0.10E-07  absolut break condition
   DEPER  =   0.30     relativ break condition  

   TIME   =   0.40     timestep for ELM

  volume/ion in A,a.u.               =      41.90       282.79
  Fermi-wavevector in a.u.,A,eV,Ry     =   1.007136  1.903211 13.800704  1.014323
  Thomas-Fermi vector in A             =   2.139922
 
 Write flags
   LWAVE        =      T    write WAVECAR
   LDOWNSAMPLE  =      F    k-point downsampling of WAVECAR
   LCHARG       =      T    write CHGCAR
   LVTOT        =      F    write LOCPOT, total local potential
   LVHAR        =      F    write LOCPOT, Hartree potential only
   LELF         =      F    write electronic localiz. function (ELF)
   LORBIT       =      0    0 simple, 1 ext, 2 COOP (PROOUT), +10 PAW based schemes


 Dipole corrections
   LMONO  =      F    monopole corrections only (constant potential shift)
   LDIPOL =      F    correct potential (dipole corrections)
   IDIPOL =      0    1-x, 2-y, 3-z, 4-all directions 
   EPSILON=  1.0000000 bulk dielectric constant

 Exchange correlation treatment:
   GGA     =    BF    GGA type
   LEXCH   =    17    internal setting for exchange type
   LIBXC   =     F    Libxc                    
   VOSKOWN =     0    Vosko Wilk Nusair interpolation
   LHFCALC =     F    Hartree Fock is set to
   LHFONE  =     F    Hartree Fock one center treatment
   AEXX    =    0.0000 exact exchange contribution

 vdW DFT:
   LUSE_VDW   =     T    switch on vdW DFT
   IVDW_NL    =     1    kernel type
   LSPIN_VDW  =     F    use spin-polarized vdW DFT
   Zab_VDW    =******    correlation parameter
   PARAM1     =0.1234
   PARAM2     =1.0000
   PARAM3     =0.0000
   -- rVV10 --
   BPARAM     = 6.3000
   CPARAM     = 0.0093

 Linear response parameters
   LEPSILON=     F    determine dielectric tensor
   LRPA    =     F    only Hartree local field effects (RPA)
   LNABLA  =     F    use nabla operator in PAW spheres
   LVEL    =     F    velocity operator in full k-point grid
   CSHIFT  =0.1000    complex shift for real part using Kramers Kronig
   OMEGAMAX=  -1.0    maximum frequency
   DEG_THRESHOLD= 0.2000000E-02 threshold for treating states as degnerate
   RTIME   =   -0.100 relaxation time in fs
  (WPLASMAI=    0.000 imaginary part of plasma frequency in eV, 0.658/RTIME)
   DFIELD  = 0.0000000 0.0000000 0.0000000 field for delta impulse in time
 
  Optional k-point grid parameters
   LKPOINTS_OPT  =     F    use optional k-point grid
   KPOINTS_OPT_MODE=     1    mode for optional k-point grid
 
 Orbital magnetization related:
   ORBITALMAG=     F  switch on orbital magnetization
   LCHIMAG   =     F  perturbation theory with respect to B field
   DQ        =  0.001000  dq finite difference perturbation B field
   LLRAUG    =     F  two centre corrections for induced B field
   LBONE     =     F  B-component reconstruction in AE one-centre
   LVGVCALC  =     T  calculate vGv susceptibility
   LVGVAPPL  =     F  apply vGv susceptibility instead of pGv for G=0

 Random number generation:
   RANDOM_GENERATOR = DEFAULT
   PCG_SEED         = not used


--------------------------------------------------------------------------------------------------------


 Static calculation
 charge density and potential will be updated during run
 non-spin polarized calculation
 RMM-DIIS sequential band-by-band and
  variant of blocked Davidson during initial phase
 perform sub-space diagonalisation
    before iterative eigenvector-optimisation
 modified Broyden-mixing scheme, WC =      100.0
 initial mixing is a Kerker type mixing with AMIX =  0.4000 and BMIX =      1.0000
 Hartree-type preconditioning will be used
 using additional bands           59
 real space projection scheme for non local part
 use partial core corrections
 calculate Harris-corrections to forces 
   (improved forces if not selfconsistent)
 use gradient corrections 
 use of overlap-Matrix (Vanderbilt PP)
 Methfessel and Paxton  Order N= 1 SIGMA  =   0.10


--------------------------------------------------------------------------------------------------------


  energy-cutoff  :      680.29
  volume of cell :     1550.48
      direct lattice vectors                 reciprocal lattice vectors
     8.468310000  0.000000000  0.000000000     0.118087316 -0.068177744  0.000000000
     4.234155000  7.333771587  0.000000000     0.000000000  0.136355488  0.000000000
     0.000000000  0.000000000 24.965661990     0.000000000  0.000000000  0.040055016

  length of vectors
     8.468310000  8.468310000 24.965661990     0.136355488  0.136355488  0.040055016


 
 old parameters found on file WAVECAR:
  energy-cutoff  :      680.29
  volume of cell :     1550.48
      direct lattice vectors                 reciprocal lattice vectors
     8.468310000  0.000000000  0.000000000     0.118087316 -0.068177744  0.000000000
     4.234155000  7.333771587  0.000000000     0.000000000  0.136355488  0.000000000
     0.000000000  0.000000000 24.965661990     0.000000000  0.000000000  0.040055016

  length of vectors

 
 k-points in units of 2pi/SCALE and weight: KPOINTS created by Atomic Simulation Env
   0.00000000  0.00000000  0.00000000       0.040
   0.02361746 -0.01363555  0.00000000       0.080
   0.02361746  0.01363555  0.00000000       0.080
   0.00000000  0.02727110  0.00000000       0.080
   0.04723493 -0.02727110  0.00000000       0.080
   0.04723493  0.02727110  0.00000000       0.080
   0.00000000  0.05454220  0.00000000       0.080
   0.04723493  0.00000000  0.00000000       0.080
   0.02361746  0.04090665  0.00000000       0.080
  -0.02361746  0.04090665  0.00000000       0.080
  -0.04723493  0.05454220  0.00000000       0.080
   0.04723493 -0.08181329  0.00000000       0.080
  -0.02361746  0.06817774  0.00000000       0.080
 
 k-points in reciprocal lattice and weights: KPOINTS created by Atomic Simulation Env
   0.00000000  0.00000000  0.00000000       0.040
   0.20000000  0.00000000  0.00000000       0.080
   0.20000000  0.20000000  0.00000000       0.080
   0.00000000  0.20000000  0.00000000       0.080
   0.40000000  0.00000000  0.00000000       0.080
   0.40000000  0.40000000  0.00000000       0.080
   0.00000000  0.40000000  0.00000000       0.080
   0.40000000  0.20000000  0.00000000       0.080
   0.20000000  0.40000000  0.00000000       0.080
  -0.20000000  0.20000000  0.00000000       0.080
  -0.40000000  0.20000000  0.00000000       0.080
   0.40000000 -0.40000000  0.00000000       0.080
  -0.20000000  0.40000000  0.00000000       0.080
 
 position of ions in fractional coordinates (direct lattice) 
   0.00000000  0.00000000  0.34046764
   0.33400137  0.00000000  0.34046764
   0.66800274  0.00000000  0.34046764
   0.00000000  0.33400137  0.34046764
   0.33400137  0.33400137  0.34046764
   0.66800274  0.33400137  0.34046764
   0.00000000  0.66800274  0.34046764
   0.33400137  0.66800274  0.34046764
   0.66800274  0.66800274  0.34046764
   0.11133379  0.11133379  0.43297074
   0.44533516  0.11133379  0.43297074
   0.77933653  0.11133379  0.43297074
   0.11133379  0.44533516  0.43297074
   0.44533516  0.44533516  0.43297074
   0.77933653  0.44533516  0.43297074
   0.11133379  0.77933653  0.43297074
   0.44533516  0.77933653  0.43297074
   0.77933653  0.77933653  0.43297074
   0.88994847  0.22538774  0.52524695
   0.22260115  0.22409524  0.52574619
   0.55568964  0.22441532  0.52468543
   0.89003966  0.55606262  0.52522639
   0.22299604  0.55667314  0.52462805
   0.55609675  0.55744416  0.52436389
   0.88972742  0.89081999  0.52417487
   0.22307411  0.89111909  0.52475116
   0.55596533  0.89077070  0.52463260
   0.00007555  0.00109237  0.61751581
   0.33708825  0.99865819  0.61929810
   0.66835912  0.00163841  0.61766908
   0.99952220  0.33550936  0.62161026
   0.33639645  0.33541088  0.61954539
   0.66699837  0.33536615  0.61773281
   0.00003556  0.67058762  0.61751441
   0.33415797  0.66849147  0.61754801
   0.66727675  0.66897716  0.61773115
   0.17145888  0.25477680  0.66433753
 
 position of ions in cartesian coordinates  (Angst):
   0.00000000  0.00000000  8.50000000
   2.82842712  0.00000000  8.50000000
   5.65685425  0.00000000  8.50000000
   1.41421356  2.44948974  8.50000000
   4.24264069  2.44948974  8.50000000
   7.07106781  2.44948974  8.50000000
   2.82842712  4.89897949  8.50000000
   5.65685425  4.89897949  8.50000000
   8.48528137  4.89897949  8.50000000
   1.41421356  0.81649658 10.80940108
   4.24264069  0.81649658 10.80940108
   7.07106781  0.81649658 10.80940108
   2.82842712  3.26598632 10.80940108
   5.65685425  3.26598632 10.80940108
   8.48528137  3.26598632 10.80940108
   4.24264069  5.71547607 10.80940108
   7.07106781  5.71547607 10.80940108
   9.89949494  5.71547607 10.80940108
   8.49068615  1.65294219 13.11313777
   2.83390953  1.64346328 13.12560160
   5.65596140  1.64581073 13.09911910
   9.89158706  4.07803624 13.11262457
   4.24543998  4.08251364 13.09768664
   7.06950463  4.08816811 13.09109172
  11.30635755  6.53307035 13.08637273
   5.66219706  6.53526387 13.10076006
   8.47974799  6.53270889 13.09780019
   0.00526508  0.00801122 15.41669099
   7.08304133  7.32393104 15.46118712
   5.66680951  0.01201571 15.42051753
   9.88486248  2.46054898 15.51891163
   4.26889111  2.45982676 15.46736077
   7.06834121  2.45949873 15.42210844
   2.83967305  4.91793646 15.41665616
   5.66024981  4.90256377 15.41749491
   8.48325940  4.90612571 15.42206719
   2.53073141  1.86847483 16.58562626
 


--------------------------------------------------------------------------------------------------------


 k-point   1 :   0.0000 0.0000 0.0000  plane waves:   62399
 k-point   2 :   0.2000 0.0000 0.0000  plane waves:   62407
 k-point   3 :   0.2000 0.2000 0.0000  plane waves:   62407
 k-point   4 :   0.0000 0.2000 0.0000  plane waves:   62407
 k-point   5 :   0.4000 0.0000 0.0000  plane waves:   62451
 k-point   6 :   0.4000 0.4000 0.0000  plane waves:   62451
 k-point   7 :   0.0000 0.4000 0.0000  plane waves:   62451
 k-point   8 :   0.4000 0.2000 0.0000  plane waves:   62510
 k-point   9 :   0.2000 0.4000 0.0000  plane waves:   62510
 k-point  10 :  -0.2000 0.2000 0.0000  plane waves:   62510
 k-point  11 :  -0.4000 0.2000 0.0000  plane waves:   62498
 k-point  12 :   0.4000-0.4000 0.0000  plane waves:   62498
 k-point  13 :  -0.2000 0.4000 0.0000  plane waves:   62498

 maximum and minimum number of plane-waves per node :     62510    62399

 maximum number of plane-waves:     62510
 maximum index in each direction: 
   IXMAX=   18   IYMAX=   18   IZMAX=   53
   IXMIN=  -18   IYMIN=  -18   IZMIN=  -53


 serial   3D FFT for wavefunctions
 parallel 3D FFT for charge:
    minimum data exchange during FFTs selected (reduces bandwidth)


 total amount of memory used by VASP MPI-rank0   148549. kBytes
=======================================================================

   base      :      30000. kBytes
   nonlr-proj:      22476. kBytes
   fftplans  :       5213. kBytes
   grid      :      24541. kBytes
   one-center:        575. kBytes
   wavefun   :      65744. kBytes
 
     INWAV:  cpu time      7.2229: real time     12.8715
 Broyden mixing: mesh for mixing (old mesh)
   NGX = 37   NGY = 37   NGZ =107
  (NGX  =108   NGY  =108   NGZ  =320)
  gives a total of 146483 points

 charge density for first step will be calculated from the start-wavefunctions


--------------------------------------------------------------------------------------------------------


 Maximum index for non-local projection operator         3550
 Maximum index for augmentation-charges         1163 (set IRDMAX)


--------------------------------------------------------------------------------------------------------


 initial charge from wavefunction
 First call to EWALD:  gamma=   0.153
 Maximum number of real-space cells 4x 4x 2
 Maximum number of reciprocal cells 2x 2x 5

    FEWALD:  cpu time      0.0045: real time      0.0045


--------------------------------------- Ionic step        1  -------------------------------------------




--------------------------------------- Iteration      1(   1)  ---------------------------------------


vdW kernel read from vdw_kernel.bindat
  0.0000  0.2424  0.5071  0.7962  1.1119  1.4567  1.8333  2.2446  2.6937  3.1842
  3.7199  4.3049  4.9438  5.6415  6.4036  7.2358  8.1446  9.1372 10.2212 11.4050
 12.6979 14.1099 15.6519 17.3360 19.1751 21.1837 23.3773 25.7729 28.3892 31.2465
 34.3669 37.7748 41.4965 45.5611 50.0000
 
    POTLOK:  cpu time      3.2719: real time      3.3005
    SETDIJ:  cpu time      0.0055: real time      0.0055
     EDDAV:  cpu time     16.2442: real time     16.3686
       DOS:  cpu time      0.0013: real time      0.0013
    CHARGE:  cpu time      0.7699: real time      0.7761
    MIXING:  cpu time      0.0031: real time      0.0031
    --------------------------------------------
      LOOP:  cpu time     20.2960: real time     20.4551

 eigenvalue-minimisations  :  6912
 total energy-change (2. order) :-0.1045767E+03  (-0.9176166E-01)
 number of electron     360.9999940 magnetization 
 augmentation part      114.1727357 magnetization 

 Broyden mixing:
  rms(total) = 0.34710E+00    rms(broyden)= 0.34710E+00
  rms(prec ) = 0.50952E+00
  weight for this iteration     100.00

 Free energy of the ion-electron system (eV)
  ---------------------------------------------------
  alpha Z        PSCENC =       797.33612757
  Ewald energy   TEWEN  =    132100.15246004
  -Hartree energ DENC   =   -159499.84192408
  -exchange      EXHF   =         0.00000000
  -V(xc)+E(xc)   XCENC  =        89.49389285
  PAW double counting   =     32157.27787688   -31159.35159276
  entropy T*S    EENTRO =        -0.09011600
  eigenvalues    EBANDS =     -1086.35653962
  atomic energy  EATOM  =     26496.80315902
  Solvation  Ediel_sol  =         0.00000000
  ---------------------------------------------------
  free energy    TOTEN  =      -104.57665612 eV

  energy without entropy =     -104.48654012  energy(sigma->0) =     -104.54661745


--------------------------------------------------------------------------------------------------------




--------------------------------------- Iteration      1(   2)  ---------------------------------------


    POTLOK:  cpu time      2.4008: real time      2.4160
    SETDIJ:  cpu time      0.0056: real time      0.0056
    EDDIAG:  cpu time      2.8166: real time      2.8367
  RMM-DIIS:  cpu time      8.3374: real time      8.5908
    ORTHCH:  cpu time      0.5409: real time      0.5451
       DOS:  cpu time      0.0011: real time      0.0012
    CHARGE:  cpu time      0.7582: real time      0.7650
    MIXING:  cpu time      0.0026: real time      0.0026
    --------------------------------------------
      LOOP:  cpu time     14.8631: real time     15.1629

 eigenvalue-minimisations  :  6771
 total energy-change (2. order) :-0.1059593E+02  (-0.1723926E+00)
 number of electron     360.9999932 magnetization 
 augmentation part      113.9849216 magnetization 

 Broyden mixing:
  rms(total) = 0.30997E+01    rms(broyden)= 0.30997E+01
  rms(prec ) = 0.45428E+01
  weight for this iteration     100.00

 eigenvalues of (default mixing * dielectric matrix)
  average eigenvalue GAMMA=   0.0971
  0.0971

 Free energy of the ion-electron system (eV)
  ---------------------------------------------------
  alpha Z        PSCENC =       797.33612757
  Ewald energy   TEWEN  =    132100.15246004
  -Hartree energ DENC   =   -159494.00453668
  -exchange      EXHF   =         0.00000000
  -V(xc)+E(xc)   XCENC  =        89.51062286
  PAW double counting   =     32163.08299793   -31165.16620206
  entropy T*S    EENTRO =         0.01807223
  eigenvalues    EBANDS =     -1102.90528868
  atomic energy  EATOM  =     26496.80315902
  Solvation  Ediel_sol  =         0.00000000
  ---------------------------------------------------
  free energy    TOTEN  =      -115.17258778 eV

  energy without entropy =     -115.19066001  energy(sigma->0) =     -115.17861185


--------------------------------------------------------------------------------------------------------




--------------------------------------- Iteration      1(   3)  ---------------------------------------


    POTLOK:  cpu time      2.5456: real time      2.6143
    SETDIJ:  cpu time      0.0045: real time      0.0045
    EDDIAG:  cpu time      2.8805: real time      2.9020
  RMM-DIIS:  cpu time      8.7663: real time      8.8328
    ORTHCH:  cpu time      0.6010: real time      0.6064
       DOS:  cpu time      0.0011: real time      0.0011
    CHARGE:  cpu time      0.7511: real time      0.7566
    MIXING:  cpu time      0.0020: real time      0.0020
    --------------------------------------------
      LOOP:  cpu time     15.5520: real time     15.7197

 eigenvalue-minimisations  :  6848
 total energy-change (2. order) : 0.1060324E+02  (-0.1087558E+00)
 number of electron     360.9999939 magnetization 
 augmentation part      114.1498677 magnetization 

 Broyden mixing:
  rms(total) = 0.28254E+00    rms(broyden)= 0.28254E+00
  rms(prec ) = 0.34081E+00
  weight for this iteration     100.00

 eigenvalues of (default mixing * dielectric matrix)
  average eigenvalue GAMMA=   0.1484
  0.1884  0.1085

 Free energy of the ion-electron system (eV)
  ---------------------------------------------------
  alpha Z        PSCENC =       797.33612757
  Ewald energy   TEWEN  =    132100.15246004
  -Hartree energ DENC   =   -159504.67389751
  -exchange      EXHF   =         0.00000000
  -V(xc)+E(xc)   XCENC  =        89.43982402
  PAW double counting   =     32173.78132598   -31175.98526745
  entropy T*S    EENTRO =        -0.08844102
  eigenvalues    EBANDS =     -1081.33463531
  atomic energy  EATOM  =     26496.80315902
  Solvation  Ediel_sol  =         0.00000000
  ---------------------------------------------------
  free energy    TOTEN  =      -104.56934467 eV

  energy without entropy =     -104.48090365  energy(sigma->0) =     -104.53986433


--------------------------------------------------------------------------------------------------------




--------------------------------------- Iteration      1(   4)  ---------------------------------------


    POTLOK:  cpu time      2.4714: real time      2.4998
    SETDIJ:  cpu time      0.0044: real time      0.0044
    EDDIAG:  cpu time      2.7669: real time      2.7907
  RMM-DIIS:  cpu time      8.5882: real time      8.6486
    ORTHCH:  cpu time      0.5594: real time      0.5662
       DOS:  cpu time      0.0009: real time      0.0009
    CHARGE:  cpu time      0.7560: real time      0.7643
    MIXING:  cpu time      0.0021: real time      0.0021
    --------------------------------------------
      LOOP:  cpu time     15.1493: real time     15.2770

 eigenvalue-minimisations  :  6896
 total energy-change (2. order) : 0.9341822E-01  (-0.1036417E-01)
 number of electron     360.9999939 magnetization 
 augmentation part      114.1830663 magnetization 

 Broyden mixing:
  rms(total) = 0.10301E+00    rms(broyden)= 0.10301E+00
  rms(prec ) = 0.12295E+00
  weight for this iteration     100.00

 eigenvalues of (default mixing * dielectric matrix)
  average eigenvalue GAMMA=   0.2597
  0.4425  0.1025  0.2341

 Free energy of the ion-electron system (eV)
  ---------------------------------------------------
  alpha Z        PSCENC =       797.33612757
  Ewald energy   TEWEN  =    132100.15246004
  -Hartree energ DENC   =   -159497.39563302
  -exchange      EXHF   =         0.00000000
  -V(xc)+E(xc)   XCENC  =        89.46587138
  PAW double counting   =     32170.23587886   -31172.46011427
  entropy T*S    EENTRO =        -0.09273586
  eigenvalues    EBANDS =     -1088.52094016
  atomic energy  EATOM  =     26496.80315902
  Solvation  Ediel_sol  =         0.00000000
  ---------------------------------------------------
  free energy    TOTEN  =      -104.47592645 eV

  energy without entropy =     -104.38319059  energy(sigma->0) =     -104.44501450


--------------------------------------------------------------------------------------------------------




--------------------------------------- Iteration      1(   5)  ---------------------------------------


    POTLOK:  cpu time      2.4734: real time      2.5338
    SETDIJ:  cpu time      0.0043: real time      0.0043
    EDDIAG:  cpu time      2.8973: real time      2.9198
  RMM-DIIS:  cpu time      8.7070: real time      8.7684
    ORTHCH:  cpu time      0.7395: real time      0.7456
       DOS:  cpu time      0.0011: real time      0.0011
    CHARGE:  cpu time      0.7653: real time      0.7713
    MIXING:  cpu time      0.0025: real time      0.0025
    --------------------------------------------
      LOOP:  cpu time     15.5904: real time     15.7470

 eigenvalue-minimisations  :  7023
 total energy-change (2. order) : 0.3930704E-03  (-0.1814287E-02)
 number of electron     360.9999939 magnetization 
 augmentation part      114.1743144 magnetization 

 Broyden mixing:
  rms(total) = 0.73306E-01    rms(broyden)= 0.73306E-01
  rms(prec ) = 0.98162E-01
  weight for this iteration     100.00

 eigenvalues of (default mixing * dielectric matrix)
  average eigenvalue GAMMA=   0.2685
  0.3965  0.3965  0.1040  0.1772

 Free energy of the ion-electron system (eV)
  ---------------------------------------------------
  alpha Z        PSCENC =       797.33612757
  Ewald energy   TEWEN  =    132100.15246004
  -Hartree energ DENC   =   -159499.39936487
  -exchange      EXHF   =         0.00000000
  -V(xc)+E(xc)   XCENC  =        89.47033461
  PAW double counting   =     32167.17428950   -31169.33909410
  entropy T*S    EENTRO =        -0.09229274
  eigenvalues    EBANDS =     -1086.58115240
  atomic energy  EATOM  =     26496.80315902
  Solvation  Ediel_sol  =         0.00000000
  ---------------------------------------------------
  free energy    TOTEN  =      -104.47553338 eV

  energy without entropy =     -104.38324064  energy(sigma->0) =     -104.44476913


--------------------------------------------------------------------------------------------------------




--------------------------------------- Iteration      1(   6)  ---------------------------------------


    POTLOK:  cpu time      2.4305: real time      2.4592
    SETDIJ:  cpu time      0.0054: real time      0.0055
    EDDIAG:  cpu time      2.9460: real time      2.9735
  RMM-DIIS:  cpu time      8.8808: real time      9.0494
    ORTHCH:  cpu time      0.7009: real time      0.7175
       DOS:  cpu time      0.0010: real time      0.0010
    CHARGE:  cpu time      0.7658: real time      0.7737
    MIXING:  cpu time      0.0036: real time      0.0037
    --------------------------------------------
      LOOP:  cpu time     15.7342: real time     15.9834

 eigenvalue-minimisations  :  7031
 total energy-change (2. order) : 0.3784680E-02  (-0.5102174E-03)
 number of electron     360.9999939 magnetization 
 augmentation part      114.1776068 magnetization 

 Broyden mixing:
  rms(total) = 0.40993E-01    rms(broyden)= 0.40993E-01
  rms(prec ) = 0.48691E-01
  weight for this iteration     100.00

 eigenvalues of (default mixing * dielectric matrix)
  average eigenvalue GAMMA=   0.4012
  0.7249  0.7249  0.1036  0.1958  0.2569

 Free energy of the ion-electron system (eV)
  ---------------------------------------------------
  alpha Z        PSCENC =       797.33612757
  Ewald energy   TEWEN  =    132100.15246004
  -Hartree energ DENC   =   -159498.37735531
  -exchange      EXHF   =         0.00000000
  -V(xc)+E(xc)   XCENC  =        89.47726034
  PAW double counting   =     32165.36961533   -31167.51944977
  entropy T*S    EENTRO =        -0.09309605
  eigenvalues    EBANDS =     -1087.62046986
  atomic energy  EATOM  =     26496.80315902
  Solvation  Ediel_sol  =         0.00000000
  ---------------------------------------------------
  free energy    TOTEN  =      -104.47174870 eV

  energy without entropy =     -104.37865265  energy(sigma->0) =     -104.44071668


--------------------------------------------------------------------------------------------------------




--------------------------------------- Iteration      1(   7)  ---------------------------------------


    POTLOK:  cpu time      2.4067: real time      2.4718
    SETDIJ:  cpu time      0.0046: real time      0.0046
    EDDIAG:  cpu time      2.8002: real time      2.8205
  RMM-DIIS:  cpu time      9.0892: real time      9.1483
    ORTHCH:  cpu time      0.5821: real time      0.5885
       DOS:  cpu time      0.0009: real time      0.0009
    CHARGE:  cpu time      0.7549: real time      0.7621
    MIXING:  cpu time      0.0199: real time      0.0201
    --------------------------------------------
      LOOP:  cpu time     15.6585: real time     15.8168

 eigenvalue-minimisations  :  7107
 total energy-change (2. order) : 0.3128255E-03  (-0.1968733E-03)
 number of electron     360.9999939 magnetization 
 augmentation part      114.1746209 magnetization 

 Broyden mixing:
  rms(total) = 0.26276E-01    rms(broyden)= 0.26276E-01
  rms(prec ) = 0.29262E-01
  weight for this iteration     100.00

 eigenvalues of (default mixing * dielectric matrix)
  average eigenvalue GAMMA=   0.4488
  0.9346  0.9346  0.1036  0.1880  0.2660  0.2660

 Free energy of the ion-electron system (eV)
  ---------------------------------------------------
  alpha Z        PSCENC =       797.33612757
  Ewald energy   TEWEN  =    132100.15246004
  -Hartree energ DENC   =   -159499.01511512
  -exchange      EXHF   =         0.00000000
  -V(xc)+E(xc)   XCENC  =        89.48325145
  PAW double counting   =     32161.72857953   -31163.84067170
  entropy T*S    EENTRO =        -0.09324826
  eigenvalues    EBANDS =     -1087.02597840
  atomic energy  EATOM  =     26496.80315902
  Solvation  Ediel_sol  =         0.00000000
  ---------------------------------------------------
  free energy    TOTEN  =      -104.47143587 eV

  energy without entropy =     -104.37818761  energy(sigma->0) =     -104.44035312


--------------------------------------------------------------------------------------------------------




--------------------------------------- Iteration      1(   8)  ---------------------------------------


    POTLOK:  cpu time      2.4460: real time      2.4739
    SETDIJ:  cpu time      0.0044: real time      0.0044
    EDDIAG:  cpu time      2.7945: real time      2.8212
  RMM-DIIS:  cpu time      9.0088: real time      9.0690
    ORTHCH:  cpu time      0.6198: real time      0.6266
       DOS:  cpu time      0.0017: real time      0.0018
    CHARGE:  cpu time      0.7729: real time      0.7801
    MIXING:  cpu time      0.0037: real time      0.0037
    --------------------------------------------
      LOOP:  cpu time     15.6518: real time     15.7807

 eigenvalue-minimisations  :  7019
 total energy-change (2. order) : 0.3821210E-03  (-0.6873769E-04)
 number of electron     360.9999939 magnetization 
 augmentation part      114.1752011 magnetization 

 Broyden mixing:
  rms(total) = 0.12962E-01    rms(broyden)= 0.12962E-01
  rms(prec ) = 0.14608E-01
  weight for this iteration     100.00

 eigenvalues of (default mixing * dielectric matrix)
  average eigenvalue GAMMA=   0.5111
  1.1206  1.1206  0.5393  0.1036  0.2976  0.1918  0.2046

 Free energy of the ion-electron system (eV)
  ---------------------------------------------------
  alpha Z        PSCENC =       797.33612757
  Ewald energy   TEWEN  =    132100.15246004
  -Hartree energ DENC   =   -159498.85863062
  -exchange      EXHF   =         0.00000000
  -V(xc)+E(xc)   XCENC  =        89.48668912
  PAW double counting   =     32160.06874526   -31162.16703957
  entropy T*S    EENTRO =        -0.09334545
  eigenvalues    EBANDS =     -1087.19921912
  atomic energy  EATOM  =     26496.80315902
  Solvation  Ediel_sol  =         0.00000000
  ---------------------------------------------------
  free energy    TOTEN  =      -104.47105375 eV

  energy without entropy =     -104.37770830  energy(sigma->0) =     -104.43993860


--------------------------------------------------------------------------------------------------------




--------------------------------------- Iteration      1(   9)  ---------------------------------------


    POTLOK:  cpu time      2.5774: real time      2.6449
    SETDIJ:  cpu time      0.0046: real time      0.0046
    EDDIAG:  cpu time      2.7675: real time      2.7888
  RMM-DIIS:  cpu time      9.0620: real time      9.1184
    ORTHCH:  cpu time      0.6629: real time      0.6696
       DOS:  cpu time      0.0010: real time      0.0010
    CHARGE:  cpu time      0.7713: real time      0.7775
    MIXING:  cpu time      0.0027: real time      0.0027
    --------------------------------------------
      LOOP:  cpu time     15.8493: real time     16.0075

 eigenvalue-minimisations  :  7037
 total energy-change (2. order) : 0.7893758E-04  (-0.2410705E-04)
 number of electron     360.9999939 magnetization 
 augmentation part      114.1750616 magnetization 

 Broyden mixing:
  rms(total) = 0.67795E-02    rms(broyden)= 0.67795E-02
  rms(prec ) = 0.74032E-02
  weight for this iteration     100.00

 eigenvalues of (default mixing * dielectric matrix)
  average eigenvalue GAMMA=   0.5763
  1.3862  1.2362  0.8374  0.1036  0.3718  0.2851  0.1889  0.2014

 Free energy of the ion-electron system (eV)
  ---------------------------------------------------
  alpha Z        PSCENC =       797.33612757
  Ewald energy   TEWEN  =    132100.15246004
  -Hartree energ DENC   =   -159498.91664235
  -exchange      EXHF   =         0.00000000
  -V(xc)+E(xc)   XCENC  =        89.48783996
  PAW double counting   =     32159.02092113   -31161.11165062
  entropy T*S    EENTRO =        -0.09334860
  eigenvalues    EBANDS =     -1087.14984095
  atomic energy  EATOM  =     26496.80315902
  Solvation  Ediel_sol  =         0.00000000
  ---------------------------------------------------
  free energy    TOTEN  =      -104.47097482 eV

  energy without entropy =     -104.37762621  energy(sigma->0) =     -104.43985861


--------------------------------------------------------------------------------------------------------




--------------------------------------- Iteration      1(  10)  ---------------------------------------


    POTLOK:  cpu time      2.5054: real time      2.5346
    SETDIJ:  cpu time      0.0043: real time      0.0043
    EDDIAG:  cpu time      3.1478: real time      3.3106
  RMM-DIIS:  cpu time      8.4687: real time      8.5305
    ORTHCH:  cpu time      0.8033: real time      0.8113
       DOS:  cpu time      0.0010: real time      0.0010
    CHARGE:  cpu time      0.7599: real time      0.7672
    MIXING:  cpu time      0.0028: real time      0.0029
    --------------------------------------------
      LOOP:  cpu time     15.6931: real time     15.9624

 eigenvalue-minimisations  :  6404
 total energy-change (2. order) : 0.1721988E-04  (-0.7175861E-05)
 number of electron     360.9999939 magnetization 
 augmentation part      114.1754504 magnetization 

 Broyden mixing:
  rms(total) = 0.52224E-02    rms(broyden)= 0.52224E-02
  rms(prec ) = 0.65830E-02
  weight for this iteration     100.00

 eigenvalues of (default mixing * dielectric matrix)
  average eigenvalue GAMMA=   0.6098
  1.5103  1.5103  0.6712  0.6712  0.1036  0.3514  0.2795  0.1894  0.2009

 Free energy of the ion-electron system (eV)
  ---------------------------------------------------
  alpha Z        PSCENC =       797.33612757
  Ewald energy   TEWEN  =    132100.15246004
  -Hartree energ DENC   =   -159498.86455255
  -exchange      EXHF   =         0.00000000
  -V(xc)+E(xc)   XCENC  =        89.48905036
  PAW double counting   =     32158.04433242   -31160.12875987
  entropy T*S    EENTRO =        -0.09333005
  eigenvalues    EBANDS =     -1087.20944453
  atomic energy  EATOM  =     26496.80315902
  Solvation  Ediel_sol  =         0.00000000
  ---------------------------------------------------
  free energy    TOTEN  =      -104.47095760 eV

  energy without entropy =     -104.37762755  energy(sigma->0) =     -104.43984758


--------------------------------------------------------------------------------------------------------




--------------------------------------- Iteration      1(  11)  ---------------------------------------


    POTLOK:  cpu time      2.5127: real time      2.5738
    SETDIJ:  cpu time      0.0046: real time      0.0046
    EDDIAG:  cpu time      2.9625: real time      2.9857
  RMM-DIIS:  cpu time      7.3759: real time      7.4219
    ORTHCH:  cpu time      0.8174: real time      0.8258
       DOS:  cpu time      0.0009: real time      0.0009
    --------------------------------------------
      LOOP:  cpu time     13.6739: real time     13.8128

 eigenvalue-minimisations  :  5259
 total energy-change (2. order) : 0.5091821E-05  (-0.3007492E-05)
 number of electron     360.9999939 magnetization 
 augmentation part      114.1754504 magnetization 

 Free energy of the ion-electron system (eV)
  ---------------------------------------------------
  alpha Z        PSCENC =       797.33612757
  Ewald energy   TEWEN  =    132100.15246004
  -Hartree energ DENC   =   -159498.86384423
  -exchange      EXHF   =         0.00000000
  -V(xc)+E(xc)   XCENC  =        89.48986635
  PAW double counting   =     32157.45797508   -31159.53785526
  entropy T*S    EENTRO =        -0.09338345
  eigenvalues    EBANDS =     -1087.21545762
  atomic energy  EATOM  =     26496.80315902
  Solvation  Ediel_sol  =         0.00000000
  ---------------------------------------------------
  free energy    TOTEN  =      -104.47095250 eV

  energy without entropy =     -104.37756906  energy(sigma->0) =     -104.43982469


--------------------------------------------------------------------------------------------------------




 average (electrostatic) potential at core
  the test charge radii are     1.2059  0.5201
  (the norm of the test charge is              1.0000)
       1 -73.5429       2 -73.5374       3 -73.5323       4 -73.5371       5 -73.5271
       6 -73.5350       7 -73.5394       8 -73.5325       9 -73.5413      10 -73.9739
      11 -73.9656      12 -73.9575      13 -73.9708      14 -73.9873      15 -73.9930
      16 -73.9857      17 -73.9949      18 -73.9650      19 -73.9373      20 -73.9100
      21 -73.9608      22 -73.9393      23 -73.9554      24 -73.9741      25 -73.9967
      26 -73.9583      27 -73.9676      28 -73.5349      29 -73.5256      30 -73.5427
      31 -73.7674      32 -73.5318      33 -73.5545      34 -73.5309      35 -73.5508
      36 -73.5531      37 -38.3729
 
 
 
 E-fermi :  -0.0757     XC(G=0):  -5.8991     alpha+bet : -5.8354

 Fermi energy:        -0.0757199609

 k-point     1 :       0.0000    0.0000    0.0000
  band No.  band energies     occupation 
      1      -8.8917      2.00000
      2      -7.7217      2.00000
      3      -6.9232      2.00000
      4      -6.4989      2.00000
      5      -6.4704      2.00000
      6      -6.4540      2.00000
      7      -6.4481      2.00000
      8      -6.4431      2.00000
      9      -6.4336      2.00000
     10      -6.4237      2.00000
     11      -6.1319      2.00000
     12      -5.9182      2.00000
     13      -5.9139      2.00000
     14      -5.9005      2.00000
     15      -5.8951      2.00000
     16      -5.8912      2.00000
     17      -5.8182      2.00000
     18      -5.4597      2.00000
     19      -5.4580      2.00000
     20      -5.4517      2.00000
     21      -5.4474      2.00000
     22      -5.4460      2.00000
     23      -5.3355      2.00000
     24      -5.2257      2.00000
     25      -5.2222      2.00000
     26      -5.2219      2.00000
     27      -5.2177      2.00000
     28      -5.2123      2.00000
     29      -5.1237      2.00000
     30      -5.0307      2.00000
     31      -5.0223      2.00000
     32      -5.0198      2.00000
     33      -5.0154      2.00000
     34      -5.0144      2.00000
     35      -4.9632      2.00000
     36      -4.9584      2.00000
     37      -4.9528      2.00000
     38      -4.9454      2.00000
     39      -4.9146      2.00000
     40      -4.9085      2.00000
     41      -4.5984      2.00000
     42      -4.3808      2.00000
     43      -4.3783      2.00000
     44      -4.3459      2.00000
     45      -4.3378      2.00000
     46      -4.3212      2.00000
     47      -4.3178      2.00000
     48      -4.3029      2.00000
     49      -4.2858      2.00000
     50      -4.2824      2.00000
     51      -4.1990      2.00000
     52      -4.1349      2.00000
     53      -4.1316      2.00000
     54      -4.0396      2.00000
     55      -4.0301      2.00000
     56      -3.5894      2.00000
     57      -3.5755      2.00000
     58      -3.5649      2.00000
     59      -3.5572      2.00000
     60      -3.5550      2.00000
     61      -3.4951      2.00000
     62      -3.4777      2.00000
     63      -3.3842      2.00000
     64      -3.3791      2.00000
     65      -3.3728      2.00000
     66      -3.3716      2.00000
     67      -3.3657      2.00000
     68      -3.3649      2.00000
     69      -3.3474      2.00000
     70      -3.3182      2.00000
     71      -3.3059      2.00000
     72      -3.2993      2.00000
     73      -3.2945      2.00000
     74      -3.2901      2.00000
     75      -3.2664      2.00000
     76      -3.2596      2.00000
     77      -3.2570      2.00000
     78      -3.1581      2.00000
     79      -3.1489      2.00000
     80      -3.1415      2.00000
     81      -3.1359      2.00000
     82      -3.1330      2.00000
     83      -3.0966      2.00000
     84      -2.9396      2.00000
     85      -2.9315      2.00000
     86      -2.9278      2.00000
     87      -2.9234      2.00000
     88      -2.9149      2.00000
     89      -2.8952      2.00000
     90      -2.8921      2.00000
     91      -2.8821      2.00000
     92      -2.8431      2.00000
     93      -2.8194      2.00000
     94      -2.7832      2.00000
     95      -2.7784      2.00000
     96      -2.7426      2.00000
     97      -2.7398      2.00000
     98      -2.6929      2.00000
     99      -2.6904      2.00000
    100      -2.6863      2.00000
    101      -2.6114      2.00000
    102      -2.5358      2.00000
    103      -2.5228      2.00000
    104      -2.5159      2.00000
    105      -2.5040      2.00000
    106      -2.5006      2.00000
    107      -2.4956      2.00000
    108      -2.2642      2.00000
    109      -2.0274      2.00000
    110      -2.0024      2.00000
    111      -1.9987      2.00000
    112      -1.9928      2.00000
    113      -1.9845      2.00000
    114      -1.9800      2.00000
    115      -1.9778      2.00000
    116      -1.9662      2.00000
    117      -1.9576      2.00000
    118      -1.9538      2.00000
    119      -1.9470      2.00000
    120      -1.8767      2.00000
    121      -1.8661      2.00000
    122      -1.8205      2.00000
    123      -1.7333      2.00000
    124      -1.7209      2.00000
    125      -1.7184      2.00000
    126      -1.7120      2.00000
    127      -1.7079      2.00000
    128      -1.6228      2.00000
    129      -1.5859      2.00000
    130      -1.5371      2.00000
    131      -1.5366      2.00000
    132      -1.5151      2.00000
    133      -1.4992      2.00000
    134      -1.3131      2.00000
    135      -1.2757      2.00000
    136      -1.2684      2.00000
    137      -1.2598      2.00000
    138      -1.2537      2.00000
    139      -1.2458      2.00000
    140      -1.1912      2.00000
    141      -1.1784      2.00000
    142      -1.0986      2.00000
    143      -1.0371      2.00000
    144      -1.0341      2.00000
    145      -1.0292      2.00000
    146      -1.0254      2.00000
    147      -1.0153      2.00000
    148      -0.9044      2.00000
    149      -0.8640      2.00000
    150      -0.8566      2.00000
    151      -0.8475      2.00000
    152      -0.8335      2.00000
    153      -0.8293      2.00000
    154      -0.8179      2.00000
    155      -0.8167      2.00000
    156      -0.8094      2.00000
    157      -0.8051      2.00000
    158      -0.8004      2.00000
    159      -0.7991      2.00000
    160      -0.7317      2.00000
    161      -0.7062      2.00000
    162      -0.6951      2.00000
    163      -0.6828      2.00000
    164      -0.6643      2.00000
    165      -0.6590      2.00000
    166      -0.6460      2.00000
    167      -0.6391      2.00000
    168      -0.6016      2.00000
    169      -0.5942      2.00000
    170      -0.5725      2.00000
    171      -0.5636      2.00000
    172      -0.5516      2.00000
    173      -0.5502      2.00000
    174      -0.5441      2.00000
    175      -0.5377      2.00000
    176      -0.4625      2.00000
    177      -0.4520      2.00000
    178      -0.4454      2.00000
    179      -0.4388      2.00000
    180      -0.4326      2.00001
    181      -0.4275      2.00001
    182      -0.4099      2.00002
    183      -0.3524      2.00065
    184      -0.3360      2.00145
    185      -0.3239      2.00251
    186      -0.3208      2.00288
    187      -0.3117      2.00423
    188      -0.3089      2.00474
    189      -0.1165      1.63127
    190      -0.1071      1.50274
    191      -0.0195      0.19532
    192      -0.0171      0.17273
    193      -0.0033      0.06395
    194       0.0032      0.02528
    195       0.0048      0.01711
    196       0.0119     -0.01414
    197       0.4791     -0.00000
    198       0.8166     -0.00000
    199       0.8477     -0.00000
    200       0.8632     -0.00000
    201       0.8931     -0.00000
    202       0.9015     -0.00000
    203       0.9057     -0.00000
    204       2.7291      0.00000
    205       3.1279      0.00000
    206       3.1613      0.00000
    207       3.1984      0.00000
    208       3.2095      0.00000
    209       3.2194      0.00000
    210       4.5307      0.00000
    211       4.7424      0.00000
    212       4.7597      0.00000
    213       4.8155      0.00000
    214       4.8240      0.00000
    215       4.8262      0.00000
    216       4.8827      0.00000
    217       5.0689      0.00000
    218       5.1370      0.00000
    219       5.4623      0.00000
    220       5.4941      0.00000
    221       5.7837      0.00000
    222       5.8033      0.00000
    223       5.8498      0.00000
    224       5.8562      0.00000
    225       5.8636      0.00000
    226       6.1051      0.00000
    227       6.3565      0.00000
    228       6.6154      0.00000
    229       6.6219      0.00000
    230       6.6263      0.00000
    231       6.7849      0.00000
    232       6.9551      0.00000
    233       7.1176      0.00000
    234       7.1313      0.00000
    235       7.1554      0.00000
    236       7.1592      0.00000
    237       7.1656      0.00000
    238       7.2029      0.00000
    239       7.2831      0.00000
    240       7.6138      0.00000

 k-point     2 :       0.2000    0.0000    0.0000
  band No.  band energies     occupation 
      1      -8.7432      2.00000
      2      -7.5847      2.00000
      3      -6.9752      2.00000
      4      -6.8297      2.00000
      5      -6.5543      2.00000
      6      -6.5430      2.00000
      7      -6.3576      2.00000
      8      -6.2617      2.00000
      9      -6.2170      2.00000
     10      -6.2107      2.00000
     11      -6.1061      2.00000
     12      -6.0105      2.00000
     13      -5.9757      2.00000
     14      -5.8434      2.00000
     15      -5.8303      2.00000
     16      -5.8206      2.00000
     17      -5.7228      2.00000
     18      -5.5333      2.00000
     19      -5.4220      2.00000
     20      -5.4114      2.00000
     21      -5.4035      2.00000
     22      -5.3880      2.00000
     23      -5.3302      2.00000
     24      -5.2996      2.00000
     25      -5.2731      2.00000
     26      -5.2249      2.00000
     27      -5.2164      2.00000
     28      -5.2073      2.00000
     29      -5.1477      2.00000
     30      -5.1117      2.00000
     31      -5.1085      2.00000
     32      -5.0346      2.00000
     33      -5.0185      2.00000
     34      -5.0079      2.00000
     35      -5.0074      2.00000
     36      -4.8680      2.00000
     37      -4.8095      2.00000
     38      -4.7762      2.00000
     39      -4.7660      2.00000
     40      -4.7477      2.00000
     41      -4.6079      2.00000
     42      -4.4953      2.00000
     43      -4.4929      2.00000
     44      -4.4554      2.00000
     45      -4.4113      2.00000
     46      -4.3929      2.00000
     47      -4.3855      2.00000
     48      -4.3177      2.00000
     49      -4.2093      2.00000
     50      -4.1954      2.00000
     51      -4.1188      2.00000
     52      -4.1121      2.00000
     53      -4.0693      2.00000
     54      -4.0510      2.00000
     55      -4.0383      2.00000
     56      -3.8285      2.00000
     57      -3.7385      2.00000
     58      -3.7309      2.00000
     59      -3.6759      2.00000
     60      -3.6593      2.00000
     61      -3.6113      2.00000
     62      -3.5801      2.00000
     63      -3.5628      2.00000
     64      -3.5530      2.00000
     65      -3.5333      2.00000
     66      -3.5264      2.00000
     67      -3.4842      2.00000
     68      -3.4477      2.00000
     69      -3.4038      2.00000
     70      -3.3680      2.00000
     71      -3.3620      2.00000
     72      -3.3283      2.00000
     73      -3.2692      2.00000
     74      -3.2637      2.00000
     75      -3.2570      2.00000
     76      -3.1782      2.00000
     77      -3.1696      2.00000
     78      -3.1570      2.00000
     79      -3.1313      2.00000
     80      -3.0991      2.00000
     81      -3.0771      2.00000
     82      -3.0688      2.00000
     83      -3.0292      2.00000
     84      -2.9912      2.00000
     85      -2.9620      2.00000
     86      -2.9568      2.00000
     87      -2.9399      2.00000
     88      -2.9322      2.00000
     89      -2.9102      2.00000
     90      -2.8946      2.00000
     91      -2.8644      2.00000
     92      -2.8285      2.00000
     93      -2.8018      2.00000
     94      -2.7874      2.00000
     95      -2.7694      2.00000
     96      -2.7557      2.00000
     97      -2.7298      2.00000
     98      -2.7283      2.00000
     99      -2.6973      2.00000
    100      -2.6863      2.00000
    101      -2.6101      2.00000
    102      -2.5550      2.00000
    103      -2.5482      2.00000
    104      -2.5193      2.00000
    105      -2.5058      2.00000
    106      -2.4984      2.00000
    107      -2.4953      2.00000
    108      -2.4933      2.00000
    109      -2.4442      2.00000
    110      -2.4311      2.00000
    111      -2.4259      2.00000
    112      -2.4159      2.00000
    113      -2.2120      2.00000
    114      -2.0733      2.00000
    115      -2.0391      2.00000
    116      -2.0247      2.00000
    117      -1.9992      2.00000
    118      -1.9897      2.00000
    119      -1.9811      2.00000
    120      -1.9610      2.00000
    121      -1.9371      2.00000
    122      -1.8598      2.00000
    123      -1.7934      2.00000
    124      -1.7808      2.00000
    125      -1.7251      2.00000
    126      -1.6631      2.00000
    127      -1.6487      2.00000
    128      -1.6151      2.00000
    129      -1.5855      2.00000
    130      -1.5768      2.00000
    131      -1.5446      2.00000
    132      -1.5361      2.00000
    133      -1.5176      2.00000
    134      -1.4390      2.00000
    135      -1.4290      2.00000
    136      -1.3915      2.00000
    137      -1.3867      2.00000
[...]
    148      -1.1205      2.00000
    149      -1.1051      2.00000
    150      -1.0730      2.00000
    151      -1.0620      2.00000
    152      -1.0371      2.00000
    153      -1.0295      2.00000
    154      -0.8955      2.00000
    155      -0.8608      2.00000
    156      -0.7982      2.00000
    157      -0.7554      2.00000
    158      -0.7054      2.00000
    159      -0.6319      2.00000
    160      -0.6179      2.00000
    161      -0.5676      2.00000
    162      -0.5306      2.00000
    163      -0.5024      2.00000
    164      -0.4934      2.00000
    165      -0.4295      2.00001
    166      -0.3873      2.00010
    167      -0.3186      2.00316
    168      -0.2992      2.00698
    169      -0.2875      2.01071
    170      -0.2735      2.01718
    171      -0.2648      2.02236
    172      -0.2413      2.04103
    173      -0.2139      2.06484
    174      -0.1762      2.05124
    175      -0.1199      1.67328
    176      -0.1114      1.56294
    177      -0.0876      1.19948
    178      -0.0703      0.90777
    179      -0.0533      0.63110
    180      -0.0488      0.56245
    181      -0.0460      0.52075
    182       0.0236     -0.04871
    183       0.1196     -0.01855
    184       0.1557     -0.00509
    185       0.1599     -0.00430
    186       0.1695     -0.00286
    187       0.1726     -0.00249
    188       0.2240     -0.00019
    189       0.2681     -0.00001
    190       0.3541     -0.00000
    191       0.4430     -0.00000
    192       1.1430     -0.00000
    193       1.3333     -0.00000
    194       1.3462     -0.00000
    195       1.5145     -0.00000
    196       1.5692     -0.00000
    197       1.6733     -0.00000
    198       1.7086     -0.00000
    199       1.7138     -0.00000
    200       2.0406     -0.00000
    201       2.2925     -0.00000
    202       2.3474     -0.00000
    203       2.5581     -0.00000
    204       2.7762      0.00000
    205       2.8079      0.00000
    206       2.8830      0.00000
    207       2.9390      0.00000
    208       3.0938      0.00000
    209       3.1614      0.00000
    210       3.2417      0.00000
    211       3.3006      0.00000
    212       3.5590      0.00000
    213       3.6993      0.00000
    214       3.7646      0.00000
    215       4.1651      0.00000
    216       4.3898      0.00000
    217       4.4280      0.00000
    218       4.6411      0.00000
    219       4.7396      0.00000
    220       5.3658      0.00000
    221       5.4983      0.00000
    222       5.5534      0.00000
    223       5.6743      0.00000
    224       5.7314      0.00000
    225       5.7770      0.00000
    226       5.9277      0.00000
    227       5.9506      0.00000
    228       5.9830      0.00000
    229       5.9934      0.00000
    230       6.0492      0.00000
    231       6.2216      0.00000
    232       6.3855      0.00000
    233       6.5764      0.00000
    234       6.6657      0.00000
    235       6.7938      0.00000
    236       6.9017      0.00000
    237       6.9161      0.00000
    238       7.0645      0.00000
    239       7.2252      0.00000
    240       7.3123      0.00000


--------------------------------------------------------------------------------------------------------


 soft charge-density along one line, spin component           1
         0         1         2         3         4         5         6         7         8         9
 total charge-density along one line
 
 pseudopotential strength for first ion, spin component:           1
 -6.579   0.001   0.000  -0.010  -0.001  -6.674   0.001   0.000
  0.001  -6.465   0.000  -0.000  -0.010   0.001  -6.563   0.000
  0.000   0.000  -6.454   0.001   0.000   0.000   0.000  -6.552
 -0.010  -0.000   0.001  -6.464   0.001  -0.009  -0.000   0.001
 -0.001  -0.010   0.000   0.001  -6.579  -0.001  -0.010   0.000
 -6.674   0.001   0.000  -0.009  -0.001  -6.752   0.001   0.000
  0.001  -6.563   0.000  -0.000  -0.010   0.001  -6.644   0.000
  0.000   0.000  -6.552   0.001   0.000   0.000   0.000  -6.635
 -0.009  -0.000   0.001  -6.562   0.001  -0.009  -0.000   0.001
 -0.001  -0.010   0.000   0.001  -6.673  -0.000  -0.010   0.000
  0.000  -0.000  -0.035  -0.001   0.000   0.000  -0.000  -0.034
  0.000  -0.000  -0.052  -0.001   0.000   0.000  -0.000  -0.051
 -0.000  -0.005   0.000  -0.000   0.000  -0.000  -0.004   0.000
 -0.000  -0.000  -0.008  -0.000   0.000  -0.000  -0.000  -0.008
  0.000  -0.000   0.000  -0.005  -0.000   0.000  -0.000   0.000
 -0.000  -0.004   0.000   0.000   0.001  -0.000  -0.003   0.000
  0.000  -0.000  -0.009  -0.000   0.000   0.000  -0.000  -0.008
  0.000   0.000   0.000  -0.004  -0.000   0.000   0.000   0.000
 total augmentation occupancy for first ion, spin component:           1
  3.241   0.006   0.006  -0.258  -0.022  -1.907  -0.003  -0.003   0.080   0.014   0.003   0.000   0.007  -0.000  -0.040  -0.000
  0.006   4.238   0.001   0.000  -0.261  -0.003  -2.182   0.001   0.002   0.089   0.005  -0.002  -0.246   0.002   0.001   0.014
  0.006   0.001   4.371   0.012   0.011  -0.003   0.001  -2.558  -0.006  -0.007   0.841  -0.184  -0.001  -0.280  -0.002   0.000
 -0.258   0.000   0.012   4.256   0.003   0.089   0.002  -0.006  -2.191  -0.001   0.009  -0.004   0.001   0.003  -0.245  -0.000
 -0.022  -0.261   0.011   0.003   3.252   0.014   0.080  -0.007  -0.002  -1.914   0.001  -0.000  -0.048  -0.000   0.006   0.004
 -1.907  -0.003  -0.003   0.089   0.014   2.223   0.002   0.001   0.040  -0.009  -0.003   0.000  -0.007  -0.000   0.040   0.000
 -0.003  -2.182   0.001   0.002   0.080   0.002   1.977  -0.002  -0.004   0.040  -0.003   0.001   0.237  -0.002  -0.001  -0.019
 -0.003   0.001  -2.558  -0.006  -0.007   0.001  -0.002   2.529   0.002   0.004  -0.708   0.127   0.002   0.337   0.004  -0.000
  0.080   0.002  -0.006  -2.191  -0.002   0.040  -0.004   0.002   1.980   0.001  -0.006   0.002  -0.001  -0.004   0.236   0.000
  0.014   0.089  -0.007  -0.001  -1.914  -0.009   0.040   0.004   0.001   2.226  -0.002   0.000   0.049   0.000  -0.006  -0.004
  0.003   0.005   0.841   0.009   0.001  -0.003  -0.003  -0.708  -0.006  -0.002   2.505  -0.575  -0.003   0.191  -0.005   0.000
  0.000  -0.002  -0.184  -0.004  -0.000   0.000   0.001   0.127   0.002   0.000  -0.575   0.148   0.001  -0.068   0.001  -0.000
  0.007  -0.246  -0.001   0.001  -0.048  -0.007   0.237   0.002  -0.001   0.049  -0.003   0.001   0.254  -0.000  -0.000  -0.018
 -0.000   0.002  -0.280   0.003  -0.000  -0.000  -0.002   0.337  -0.004   0.000   0.191  -0.068  -0.000   0.142  -0.000   0.000
 -0.040   0.001  -0.002  -0.245   0.006   0.040  -0.001   0.004   0.236  -0.006  -0.005   0.001  -0.000  -0.000   0.254   0.000
 -0.000   0.014   0.000  -0.000   0.004   0.000  -0.019  -0.000   0.000  -0.004   0.000  -0.000  -0.018   0.000   0.000   0.001
  0.000  -0.000   0.007  -0.000   0.000   0.000   0.000  -0.023   0.000   0.000  -0.021   0.007   0.000  -0.011   0.000  -0.000
  0.003  -0.000   0.000   0.014  -0.000  -0.003   0.000  -0.000  -0.019   0.000   0.000  -0.000   0.000   0.000  -0.018  -0.000


------------------------ aborting loop because EDIFF is reached ----------------------------------------


    CHARGE:  cpu time      0.7576: real time      0.7646
    FORLOC:  cpu time      0.0193: real time      0.0194
    FORNL :  cpu time      2.5885: real time      2.6135
    STRESS:  cpu time      7.7914: real time      7.8733
    FORCOR:  cpu time      2.4762: real time      2.4934
    FORHAR:  cpu time      0.0159: real time      0.0160
    MIXING:  cpu time      0.0041: real time      0.0041
    OFIELD:  cpu time      0.0000: real time      0.0000

  FORCE on cell =-STRESS in cart. coord.  units (eV):
  Direction    XX          YY          ZZ          XY          YZ          ZX
  --------------------------------------------------------------------------------------
  Alpha Z   797.33613   797.33613   797.33613
  Ewald  151830.67526151818.40586************   -12.42373    -8.58247     9.10174
  Hartree157786.54642157783.17365************    -3.42980    -1.51540     1.34044
  E(xc)   -1657.50149 -1657.64277 -1666.61552    -0.13915    -0.09017     0.06719
  Local  ************************321079.21097    13.29612     7.81705    -8.42682
  n-local   108.57495   108.85025    86.59706    -0.23628    -0.86853     1.19147
  augment  1891.28385  1891.50636  1954.21193     0.66207     0.84792    -0.68176
  Kinetic  5208.88651  5210.91200  5368.72148     2.30088     2.22179    -2.19433
  Fock        0.00000     0.00000     0.00000     0.00000     0.00000     0.00000
  -------------------------------------------------------------------------------------
  Total     -33.60059   -33.52745     1.85040     0.03010    -0.16982     0.39793
  in kB     -34.72085   -34.64527     1.91210     0.03111    -0.17548     0.41120
  external pressure =      -22.48 kB  Pullay stress =        0.00 kB


 VOLUME and BASIS-vectors are now :
 -----------------------------------------------------------------------------
  energy-cutoff  :      680.29
  volume of cell :     1550.48
      direct lattice vectors                 reciprocal lattice vectors
     8.468310000  0.000000000  0.000000000     0.118087316 -0.068177744  0.000000000
     4.234155000  7.333771587  0.000000000     0.000000000  0.136355488  0.000000000
     0.000000000  0.000000000 24.965661990     0.000000000  0.000000000  0.040055016

  length of vectors
     8.468310000  8.468310000 24.965661990     0.136355488  0.136355488  0.040055016


 FORCES acting on ions
    electron-ion (+dipol)            ewald-force                    non-local-force                 convergence-correction
 -----------------------------------------------------------------------------------------------
   -.374E+01 -.228E+01 0.248E+04   0.370E+01 0.228E+01 -.248E+04   0.918E-01 0.504E-01 -.130E+01   0.555E-02 -.160E-01 0.128E-01
   -.383E+00 -.406E+01 0.247E+04   0.400E+00 0.401E+01 -.247E+04   0.220E-01 0.110E+00 -.129E+01   -.224E-01 -.127E-01 0.348E-02
   0.352E+01 -.578E+01 0.248E+04   -.357E+01 0.580E+01 -.247E+04   -.125E-01 0.101E+00 -.128E+01   0.171E-01 -.380E-01 0.353E-02
   -.360E+01 0.156E+01 0.247E+04   0.356E+01 -.154E+01 -.247E+04   0.104E+00 -.322E-01 -.127E+01   -.642E-02 -.697E-02 0.200E-01
   0.115E-01 -.626E-01 0.247E+04   0.248E-01 0.557E-01 -.247E+04   -.841E-02 -.122E-02 -.130E+01   -.245E-01 0.831E-03 -.587E-02
   0.340E+01 -.213E+01 0.247E+04   -.340E+01 0.212E+01 -.247E+04   -.746E-01 0.259E-01 -.131E+01   0.312E-01 -.147E-01 0.152E-01
   -.314E+01 0.609E+01 0.248E+04   0.310E+01 -.611E+01 -.247E+04   0.823E-01 -.740E-01 -.129E+01   -.787E-02 0.281E-01 -.211E-02
   -.937E-01 0.414E+01 0.247E+04   0.103E+00 -.416E+01 -.247E+04   -.142E-01 -.722E-01 -.131E+01   -.109E-01 0.454E-01 -.605E-02
   0.363E+01 0.227E+01 0.247E+04   -.360E+01 -.226E+01 -.247E+04   -.103E+00 -.516E-01 -.129E+01   0.190E-01 0.138E-01 0.966E-02
   -.497E+01 -.433E+01 0.833E+03   0.495E+01 0.430E+01 -.832E+03   0.120E+00 0.886E-01 -.250E+00   -.307E-01 0.960E-02 0.129E+00
   0.248E+01 -.583E+01 0.834E+03   -.243E+01 0.580E+01 -.834E+03   -.355E-01 0.119E+00 -.260E+00   -.106E-01 -.168E-01 0.123E+00
   0.181E+01 -.765E+01 0.833E+03   -.189E+01 0.757E+01 -.833E+03   -.449E-01 0.191E+00 -.291E+00   0.415E-01 -.857E-02 0.137E+00
   -.233E+01 0.436E+01 0.833E+03   0.235E+01 -.434E+01 -.833E+03   0.643E-01 -.490E-01 -.252E+00   -.444E-01 0.123E-02 0.127E+00
   0.112E+01 0.995E+00 0.837E+03   -.117E+01 -.102E+01 -.837E+03   0.360E-02 0.227E-01 -.356E+00   0.259E-01 0.266E-02 0.143E+00
   0.144E+01 -.275E+00 0.834E+03   -.141E+01 0.262E+00 -.834E+03   -.990E-01 0.469E-01 -.305E+00   0.179E-01 -.192E-01 0.149E+00
   -.414E+01 0.574E+01 0.835E+03   0.411E+01 -.575E+01 -.834E+03   0.102E+00 -.131E+00 -.313E+00   -.105E-01 0.390E-01 0.107E+00
   0.409E+00 0.233E+01 0.835E+03   -.406E+00 -.230E+01 -.835E+03   -.317E-01 -.910E-01 -.334E+00   0.223E-02 0.404E-02 0.114E+00
   0.420E+01 0.390E+01 0.832E+03   -.415E+01 -.380E+01 -.832E+03   -.151E+00 -.116E+00 -.270E+00   0.807E-02 -.112E-01 0.107E+00
   -.185E+01 -.181E+00 -.829E+03   0.203E+01 0.384E+00 0.828E+03   -.190E+00 -.209E+00 0.226E+00   0.105E-01 -.513E-03 0.188E+00
   0.760E+00 -.141E+01 -.837E+03   -.739E+00 0.143E+01 0.836E+03   0.156E-01 -.271E-01 0.623E+00   -.422E-01 0.456E-02 0.198E+00
   0.155E+01 -.283E+00 -.817E+03   -.165E+01 0.339E+00 0.817E+03   0.470E-01 -.562E-01 0.426E+00   0.321E-01 -.212E-02 0.201E+00
   -.139E+01 0.241E+01 -.829E+03   0.134E+01 -.261E+01 0.828E+03   0.713E-01 0.237E+00 0.263E+00   -.123E-01 -.300E-01 0.196E+00
   0.112E+01 0.275E+01 -.818E+03   -.114E+01 -.284E+01 0.817E+03   0.346E-01 0.753E-01 0.437E+00   -.589E-02 0.909E-02 0.219E+00
   -.165E+00 0.763E+00 -.813E+03   0.153E+00 -.748E+00 0.812E+03   -.887E-02 0.659E-02 0.525E+00   0.195E-01 -.222E-01 0.195E+00
   0.680E+00 -.256E+00 -.812E+03   -.693E+00 0.240E+00 0.811E+03   -.824E-02 -.922E-02 0.539E+00   0.210E-01 0.193E-01 0.203E+00
   -.101E+01 -.154E+01 -.821E+03   0.108E+01 0.158E+01 0.820E+03   -.447E-01 -.706E-01 0.416E+00   -.209E-01 0.261E-01 0.205E+00
   0.177E+00 -.118E+01 -.818E+03   -.235E+00 0.123E+01 0.817E+03   0.520E-01 -.284E-01 0.455E+00   0.701E-03 -.659E-02 0.195E+00
   0.538E+00 0.184E+01 -.245E+04   -.753E+00 -.194E+01 0.245E+04   0.200E+00 0.106E+00 0.128E+01   0.770E-02 0.866E-03 0.768E-01
   0.573E+00 0.125E+02 -.246E+04   -.283E+00 -.134E+02 0.245E+04   -.271E+00 0.961E+00 0.122E+01   -.258E-01 0.585E-02 0.895E-01
   -.218E+01 0.120E+01 -.245E+04   0.219E+01 -.120E+01 0.245E+04   -.389E-01 0.569E-02 0.118E+01   0.210E-01 -.379E-02 0.929E-01
   0.284E+02 -.162E+02 -.246E+04   -.270E+02 0.154E+02 0.246E+04   -.140E+01 0.769E+00 -.187E+01   -.778E-02 -.790E-02 0.597E-01
   -.127E+02 -.726E+01 -.246E+04   0.136E+02 0.746E+01 0.246E+04   -.891E+00 -.203E+00 0.111E+01   -.128E-01 0.999E-02 0.912E-01
   -.220E+00 -.121E+01 -.245E+04   0.197E+00 0.121E+01 0.245E+04   -.799E-03 0.821E-02 0.119E+01   0.189E-01 -.127E-01 0.678E-01
   -.954E+00 -.712E+00 -.245E+04   0.950E+00 0.100E+01 0.245E+04   -.168E-01 -.299E+00 0.131E+01   0.107E-01 0.249E-02 0.916E-01
   0.303E+00 0.295E+00 -.245E+04   -.305E+00 -.298E+00 0.245E+04   0.131E-01 -.834E-02 0.117E+01   -.166E-01 0.149E-01 0.919E-01
   0.530E+00 0.156E+01 -.245E+04   -.519E+00 -.151E+01 0.245E+04   -.198E-01 -.370E-01 0.119E+01   0.905E-02 -.112E-01 0.844E-01
   -.103E+02 0.593E+01 -.315E+03   0.115E+02 -.658E+01 0.317E+03   -.110E+01 0.628E+00 -.175E+01   -.325E-02 0.931E-03 -.363E-02
 -----------------------------------------------------------------------------------------------
   0.351E+01 -.199E+01 0.657E+00   0.124E-12 0.156E-12 0.381E-11   -.354E+01 0.199E+01 -.432E+01   0.376E-02 -.245E-02 0.373E+01
 
 
 POSITION                                       TOTAL-FORCE (eV/Angst)
 -----------------------------------------------------------------------------------
      0.00000      0.00000      8.50000         0.059676      0.035210     -0.135501
      2.82843      0.00000      8.50000         0.017307      0.050930     -0.090692
      5.65685      0.00000      8.50000        -0.052703      0.077512     -0.166721
      1.41421      2.44949      8.50000         0.055231     -0.019690     -0.080669
      4.24264      2.44949      8.50000         0.004095     -0.007191     -0.064997
      7.07107      2.44949      8.50000        -0.044536      0.001592     -0.081930
      2.82843      4.89898      8.50000         0.039952     -0.063836     -0.123655
      5.65685      4.89898      8.50000        -0.014990     -0.045598     -0.086511
      8.48528      4.89898      8.50000        -0.057087     -0.037325     -0.095894
      1.41421      0.81650     10.80940         0.067274      0.069615      0.187004
      4.24264      0.81650     10.80940         0.006518      0.079986      0.116771
      7.07107      0.81650     10.80940        -0.078794      0.097629      0.038855
      2.82843      3.26599     10.80940         0.040611     -0.030907      0.182888
      5.65685      3.26599     10.80940        -0.015822     -0.000188      0.082722
      8.48528      3.26599     10.80940        -0.049421      0.015296      0.182566
      4.24264      5.71548     10.80940         0.060978     -0.096549      0.060110
      7.07107      5.71548     10.80940        -0.025370     -0.059469      0.109083
      9.89949      5.71548     10.80940        -0.086607     -0.026282      0.062721
      8.49069      1.65294     13.11314         0.001586     -0.006688     -0.003865
      2.83391      1.64346     13.12560        -0.004140     -0.001069     -0.022427
      5.65596      1.64581     13.09912        -0.014976     -0.002315      0.003482
      9.89159      4.07804     13.11262         0.010926      0.000009     -0.001694
      4.24544      4.08251     13.09769         0.011975     -0.005459      0.003594
      7.06950      4.08817     13.09109        -0.000072     -0.000886     -0.011810
     11.30636      6.53307     13.08637        -0.000208     -0.005390     -0.006645
      5.66220      6.53526     13.10076         0.007913     -0.007590      0.001826
      8.47975      6.53271     13.09780        -0.004762      0.007900      0.015981
      0.00527      0.00801     15.41669        -0.006027      0.004116     -0.009147
      7.08304      7.32393     15.46119        -0.007322     -0.001972      0.017815
      5.66681      0.01202     15.42052        -0.001122     -0.003001      0.005990
      9.88486      2.46055     15.51891        -0.004900      0.002076     -0.007125
      4.26889      2.45983     15.46736        -0.003230      0.006538      0.033374
      7.06834      2.45950     15.42211        -0.003971     -0.006892     -0.002998
      2.83967      4.91794     15.41666        -0.009548     -0.005610     -0.010018
      5.66025      4.90256     15.41749        -0.004017      0.004551      0.004533
      8.48326      4.90613     15.42207         0.001246      0.003638     -0.003257
      2.53073      1.86847     16.58563         0.104339     -0.022687     -0.103758
 -----------------------------------------------------------------------------------
    total drift:                               -0.028082     -0.003259      0.067560


--------------------------------------------------------------------------------------------------------



  FREE ENERGIE OF THE ION-ELECTRON SYSTEM (eV)
  ---------------------------------------------------
  free  energy   TOTEN  =      -104.47095250 eV

  energy  without entropy=     -104.37756906  energy(sigma->0) =     -104.43982469
 


--------------------------------------------------------------------------------------------------------


    POTLOK:  cpu time      2.3434: real time      2.3721


--------------------------------------------------------------------------------------------------------


 writing wavefunctions
     LOOP+:  cpu time    201.1131: real time    203.9843
    4ORBIT:  cpu time      0.0000: real time      0.0000

 total amount of memory used by VASP MPI-rank0   148549. kBytes
=======================================================================

   base      :      30000. kBytes
   nonlr-proj:      22476. kBytes
   fftplans  :       5213. kBytes
   grid      :      24541. kBytes
   one-center:        575. kBytes
   wavefun   :      65744. kBytes
 
  
  
 General timing and accounting informations for this job:
 ========================================================
  
                  Total CPU time used (sec):      213.953
                            User time (sec):      209.868
                          System time (sec):        4.085
                         Elapsed time (sec):      223.211
  
                   Maximum memory used (kb):      629836.
                   Average memory used (kb):          N/A
  
                          Minor page faults:       425244
                          Major page faults:          741
                 Voluntary context switches:         6075
