<?xml version="1.0" encoding="ISO-8859-1"?>
<modeling>
 <generator>
  <i name="program" type="string">vasp </i>
  <i name="version" type="string">6.4.2  </i>
  <i name="subversion" type="string">20Jul23 (build Mar 01 2024 16:46:03) complex                          parallel </i>
  <i name="platform" type="string">LinuxIFC </i>
  <i name="date" type="string">2025 01 15 </i>
  <i name="time" type="string">04:52:36 </i>
 </generator>
 <incar>
  <i type="string" name="ALGO">Fast</i>
  <i type="int" name="ISPIN">     1</i>
  <i type="int" name="IBRION">    -1</i>
  <i name="EDIFF">      0.00001000</i>
  <i type="int" name="ISYM">     0</i>
  <i name="ENCUT">    680.29000000</i>
  <i type="string" name="LREAL">Auto</i>
  <i type="int" name="ISMEAR">     1</i>
  <i name="SIGMA">      0.10000000</i>
  <i type="string" name="GGA">BF</i>
  <i type="logical" name="LUSE_VDW"> T  </i>
  <i name="Zab_VDW">     -1.88670000</i>
 </incar>
 <primitive_cell>
  <structure name="primitive_cell" >
   <crystal>
    <varray name="basis" >
     <v>       8.46831000       0.00000000       0.00000000 </v>
     <v>       4.23415500       7.33377159       0.00000000 </v>
     <v>       0.00000000       0.00000000      24.96566199 </v>
    </varray>
    <i name="volume">   1550.48373159 </i>
    <varray name="rec_basis" >
     <v>       0.11808732      -0.06817774       0.00000000 </v>
     <v>       0.00000000       0.13635549       0.00000000 </v>
     <v>       0.00000000       0.00000000       0.04005502 </v>
    </varray>
   </crystal>
   <varray name="positions" >
    <v>       0.00000000       0.00000000       0.34046764 </v>
    <v>       0.33400137       0.00000000       0.34046764 </v>
    <v>       0.66800274       0.00000000       0.34046764 </v>
    <v>       1.00000000       0.33400137       0.34046764 </v>
    <v>       0.33400137       0.33400137       0.34046764 </v>
    <v>       0.66800274       0.33400137       0.34046764 </v>
    <v>       1.00000000       0.66800274       0.34046764 </v>
    <v>       0.33400137       0.66800274       0.34046764 </v>
    <v>       0.66800274       0.66800274       0.34046764 </v>
    <v>       0.11133379       0.11133379       0.43297074 </v>
    <v>       0.44533516       0.11133379       0.43297074 </v>
    <v>       0.77933653       0.11133379       0.43297074 </v>
    <v>       0.11133379       0.44533516       0.43297074 </v>
    <v>       0.44533516       0.44533516       0.43297074 </v>
    <v>       0.77933653       0.44533516       0.43297074 </v>
    <v>       0.11133379       0.77933653       0.43297074 </v>
    <v>       0.44533516       0.77933653       0.43297074 </v>
    <v>       0.77933653       0.77933653       0.43297074 </v>
    <v>       0.88994847       0.22538774       0.52524695 </v>
    <v>       0.22260115       0.22409524       0.52574619 </v>
    <v>       0.55568964       0.22441532       0.52468543 </v>
    <v>       0.89003966       0.55606262       0.52522639 </v>
    <v>       0.22299604       0.55667314       0.52462805 </v>
    <v>       0.55609675       0.55744416       0.52436389 </v>
    <v>       0.88972742       0.89081999       0.52417487 </v>
    <v>       0.22307411       0.89111909       0.52475116 </v>
    <v>       0.55596533       0.89077070       0.52463260 </v>
    <v>       0.00007555       0.00109237       0.61751581 </v>
    <v>       0.33708825       0.99865819       0.61929810 </v>
    <v>       0.66835912       0.00163841       0.61766908 </v>
    <v>       0.99952220       0.33550936       0.62161026 </v>
    <v>       0.33639645       0.33541088       0.61954539 </v>
    <v>       0.66699837       0.33536615       0.61773281 </v>
    <v>       0.00003556       0.67058762       0.61751441 </v>
    <v>       0.33415797       0.66849147       0.61754801 </v>
    <v>       0.66727675       0.66897716       0.61773115 </v>
    <v>       0.17145888       0.25477680       0.66433753 </v>
   </varray>
  </structure>
  <varray name="primitive_index" >
   <v type="int" >        1 </v>
   <v type="int" >        2 </v>
   <v type="int" >        3 </v>
   <v type="int" >        4 </v>
   <v type="int" >        5 </v>
   <v type="int" >        6 </v>
   <v type="int" >        7 </v>
   <v type="int" >        8 </v>
   <v type="int" >        9 </v>
   <v type="int" >       10 </v>
   <v type="int" >       11 </v>
   <v type="int" >       12 </v>
   <v type="int" >       13 </v>
   <v type="int" >       14 </v>
   <v type="int" >       15 </v>
   <v type="int" >       16 </v>
   <v type="int" >       17 </v>
   <v type="int" >       18 </v>
   <v type="int" >       19 </v>
   <v type="int" >       20 </v>
   <v type="int" >       21 </v>
   <v type="int" >       22 </v>
   <v type="int" >       23 </v>
   <v type="int" >       24 </v>
   <v type="int" >       25 </v>
   <v type="int" >       26 </v>
   <v type="int" >       27 </v>
   <v type="int" >       28 </v>
   <v type="int" >       29 </v>
   <v type="int" >       30 </v>
   <v type="int" >       31 </v>
   <v type="int" >       32 </v>
   <v type="int" >       33 </v>
   <v type="int" >       34 </v>
   <v type="int" >       35 </v>
   <v type="int" >       36 </v>
   <v type="int" >       37 </v>
  </varray>
 </primitive_cell>
 <kpoints>
  <generation param="Monkhorst-Pack">
   <v type="int" name="divisions">       5        5        1 </v>
   <v name="usershift">      0.00000000       0.00000000       0.00000000 </v>
   <v name="genvec1">      0.20000000      -0.00000000       0.00000000 </v>
   <v name="genvec2">      0.00000000       0.20000000       0.00000000 </v>
   <v name="genvec3">      0.00000000       0.00000000       1.00000000 </v>
   <v name="shift">      0.00000000       0.00000000       0.00000000 </v>
  </generation>
  <varray name="kpointlist" >
   <v>       0.00000000       0.00000000       0.00000000 </v>
   <v>       0.20000000       0.00000000       0.00000000 </v>
   <v>       0.20000000       0.20000000       0.00000000 </v>
   <v>       0.00000000       0.20000000       0.00000000 </v>
   <v>       0.40000000       0.00000000       0.00000000 </v>
   <v>       0.40000000       0.40000000       0.00000000 </v>
   <v>       0.00000000       0.40000000       0.00000000 </v>
   <v>       0.40000000       0.20000000       0.00000000 </v>
   <v>       0.20000000       0.40000000       0.00000000 </v>
   <v>      -0.20000000       0.20000000       0.00000000 </v>
   <v>      -0.40000000       0.20000000       0.00000000 </v>
   <v>       0.40000000      -0.40000000       0.00000000 </v>
   <v>      -0.20000000       0.40000000       0.00000000 </v>
  </varray>
  <varray name="weights" >
   <v>       0.04000000 </v>
   <v>       0.08000000 </v>
   <v>       0.08000000 </v>
   <v>       0.08000000 </v>
   <v>       0.08000000 </v>
   <v>       0.08000000 </v>
   <v>       0.08000000 </v>
   <v>       0.08000000 </v>
   <v>       0.08000000 </v>
   <v>       0.08000000 </v>
   <v>       0.08000000 </v>
   <v>       0.08000000 </v>
   <v>       0.08000000 </v>
  </varray>
 </kpoints>
 <parameters>
  <separator name="general" >
   <i type="string" name="SYSTEM">unknown system</i>
   <i type="logical" name="LCOMPAT"> F  </i>
  </separator>
  <separator name="electronic" >
   <i type="string" name="PREC">normal</i>
   <i name="ENMAX">    680.29000000</i>
   <i name="ENAUG">    400.00000000</i>
   <i name="EDIFF">      0.00001000</i>
   <i type="int" name="IALGO">    68</i>
   <i type="int" name="IWAVPR">    10</i>
   <i type="int" name="NBANDS">   240</i>
   <i type="int" name="NBANDSLOW">    -1</i>
   <i type="int" name="NBANDSHIGH">    -1</i>
   <i name="NELECT">    361.00000000</i>
   <i type="int" name="TURBO">     0</i>
   <i type="int" name="IRESTART">     0</i>
   <i type="int" name="NREBOOT">     0</i>
   <i type="int" name="NMIN">     0</i>
   <i name="EREF">      0.00000000</i>
   <separator name="electronic smearing" >
    <i type="int" name="ISMEAR">     1</i>
    <i name="SIGMA">      0.10000000</i>
    <i name="KSPACING">      0.50000000</i>
    <i type="logical" name="KGAMMA"> T  </i>
    <i type="logical" name="KBLOWUP"> T  </i>
   </separator>
   <separator name="electronic projectors" >
    <i type="logical" name="LREAL"> T  </i>
    <v name="ROPT">     -0.00050000     -0.00050000</v>
    <i type="int" name="LMAXPAW">  -100</i>
    <i type="int" name="LMAXMIX">     2</i>
    <i type="logical" name="NLSPLINE"> F  </i>
   </separator>
   <separator name="electronic startup" >
    <i type="int" name="ISTART">     1</i>
    <i type="int" name="ICHARG">     0</i>
    <i type="int" name="INIWAV">     1</i>
   </separator>
   <separator name="electronic spin" >
    <i type="int" name="ISPIN">     1</i>
    <i type="logical" name="LNONCOLLINEAR"> F  </i>
    <v name="MAGMOM">      1.00000000      1.00000000      1.00000000      1.00000000      1.00000000      1.00000000      1.00000000      1.00000000      1.00000000      1.00000000      1.00000000      1.00000000      1.00000000      1.00000000      1.00000000      1.00000000      1.00000000      1.00000000      1.00000000      1.00000000
      1.00000000      1.00000000      1.00000000      1.00000000      1.00000000      1.00000000      1.00000000      1.00000000      1.00000000      1.00000000      1.00000000      1.00000000      1.00000000      1.00000000      1.00000000      1.00000000      1.00000000</v>
    <i name="NUPDOWN">     -1.00000000</i>
    <i type="logical" name="LSORBIT"> F  </i>
    <v name="SAXIS">      0.00000000      0.00000000      1.00000000</v>
    <i type="logical" name="LSPIRAL"> F  </i>
    <v name="QSPIRAL">      0.00000000      0.00000000      0.00000000</v>
    <i type="logical" name="LZEROZ"> F  </i>
   </separator>
   <separator name="electronic exchange-correlation" >
    <i type="logical" name="LASPH"> F  </i>
    <i type="logical" name="LMETAGGA"> F  </i>
   </separator>
   <separator name="electronic convergence" >
    <i type="int" name="NELM">    60</i>
    <i type="int" name="NELMDL">     0</i>
    <i type="int" name="NELMIN">     2</i>
    <i name="ENINI">    680.29000000</i>
    <separator name="electronic convergence detail" >
     <i type="logical" name="LDIAG"> T  </i>
     <i type="logical" name="LSUBROT"> F  </i>
     <i name="WEIMIN">      0.00000000</i>
     <i name="EBREAK">      0.00000001</i>
     <i name="DEPER">      0.30000000</i>
     <i type="int" name="NRMM">     4</i>
     <i name="TIME">      0.40000000</i>
    </separator>
   </separator>
   <separator name="electronic mixer" >
    <i name="AMIX">      0.40000000</i>
    <i name="BMIX">      1.00000000</i>
    <i name="AMIN">      0.10000000</i>
    <i name="AMIX_MAG">      1.60000000</i>
    <i name="BMIX_MAG">      1.00000000</i>
    <separator name="electronic mixer details" >
     <i type="int" name="IMIX">     4</i>
     <i type="logical" name="MIXFIRST"> F  </i>
     <i type="int" name="MAXMIX">   -45</i>
     <i name="WC">    100.00000000</i>
     <i type="int" name="INIMIX">     1</i>
     <i type="int" name="MIXPRE">     1</i>
     <i type="int" name="MREMOVE">     5</i>
    </separator>
   </separator>
   <separator name="electronic dipolcorrection" >
    <i type="logical" name="LDIPOL"> F  </i>
    <i type="logical" name="LMONO"> F  </i>
    <i type="int" name="IDIPOL">     0</i>
    <i name="EPSILON">      1.00000000</i>
    <v name="DIPOL">   -100.00000000   -100.00000000   -100.00000000</v>
    <i name="EFIELD">      0.00000000</i>
   </separator>
  </separator>
  <separator name="grids" >
   <i type="int" name="NGX">    54</i>
   <i type="int" name="NGY">    54</i>
   <i type="int" name="NGZ">   160</i>
   <i type="int" name="NGXF">   108</i>
   <i type="int" name="NGYF">   108</i>
   <i type="int" name="NGZF">   320</i>
   <i type="logical" name="ADDGRID"> F  </i>
  </separator>
  <separator name="ionic" >
   <i type="int" name="NSW">     0</i>
   <i type="int" name="IBRION">    -1</i>
   <i type="int" name="MDALGO">     0</i>
   <i type="int" name="ISIF">     2</i>
   <i name="PSTRESS">      0.00000000</i>
   <i name="EDIFFG">      0.00010000</i>
   <i type="int" name="NFREE">     0</i>
   <i name="POTIM">      0.50000000</i>
   <i name="SMASS">     -3.00000000</i>
   <i name="SCALEE">      1.00000000</i>
  </separator>
  <separator name="ionic md" >
   <i name="TEBEG">      0.00010000</i>
   <i name="TEEND">      0.00010000</i>
   <i type="int" name="NBLOCK">     1</i>
   <i type="int" name="KBLOCK">     1</i>
   <i type="int" name="NPACO">   256</i>
   <i name="APACO">     10.00000000</i>
  </separator>
  <separator name="symmetry" >
   <i type="int" name="ISYM">     0</i>
   <i name="SYMPREC">      0.00001000</i>
  </separator>
  <separator name="dos" >
   <i type="int" name="LORBIT">     0</i>
   <v name="RWIGS">     -1.00000000     -1.00000000</v>
   <i type="int" name="NEDOS">   301</i>
   <i name="EMIN">     10.00000000</i>
   <i name="EMAX">    -10.00000000</i>
   <i name="EFERMI">      0.00000000</i>
  </separator>
  <separator name="writing" >
   <i type="int" name="NWRITE">     2</i>
   <i type="logical" name="LWAVE"> T  </i>
   <i type="logical" name="LDOWNSAMPLE"> F  </i>
   <i type="logical" name="LCHARG"> T  </i>
   <i type="logical" name="LPARD"> F  </i>
   <i type="logical" name="LVTOT"> F  </i>
   <i type="logical" name="LVHAR"> F  </i>
   <i type="logical" name="LELF"> F  </i>
   <i type="logical" name="LOPTICS"> F  </i>
   <v name="STM">      0.00000000      0.00000000      0.00000000      0.00000000      0.00000000      0.00000000      0.00000000</v>
  </separator>
  <separator name="performance" >
   <i type="int" name="NPAR">    48</i>
   <i type="int" name="NSIM">     4</i>
   <i type="int" name="NBLK">    -1</i>
   <i type="logical" name="LPLANE"> T  </i>
   <i type="logical" name="LSCALAPACK"> T  </i>
   <i type="logical" name="LSCAAWARE"> F  </i>
   <i type="logical" name="LSCALU"> F  </i>
   <i type="logical" name="LASYNC"> F  </i>
   <i type="logical" name="LORBITALREAL"> F  </i>
  </separator>
  <separator name="miscellaneous" >
   <i type="int" name="IDIOT">     3</i>
   <i type="int" name="PHON_NSTRUCT">    -1</i>
   <i type="logical" name="LMUSIC"> F  </i>
   <v name="POMASS">    195.08000000      1.00000000</v>
   <v name="DARWINR">      0.00000000      0.00000000</v>
   <v name="DARWINV">      1.00000000      1.00000000</v>
   <i type="logical" name="LCORR"> T  </i>
  </separator>
  <i type="logical" name="GGA_COMPAT"> T  </i>
  <i type="logical" name="LBERRY"> F  </i>
  <i type="int" name="ICORELEVEL">     0</i>
  <i type="logical" name="LDAU"> F  </i>
  <i type="int" name="I_CONSTRAINED_M">     0</i>
  <separator name="electronic exchange-correlation" >
   <i type="string" name="GGA">BF</i>
   <i type="int" name="VOSKOWN">     0</i>
   <i type="logical" name="LHFCALC"> F  </i>
   <i type="string" name="PRECFOCK"></i>
   <i type="logical" name="LSYMGRAD"> F  </i>
   <i type="logical" name="LHFONE"> F  </i>
   <i type="logical" name="LRHFCALC"> F  </i>
   <i type="logical" name="LTHOMAS"> F  </i>
   <i type="logical" name="LMODELHF"> F  </i>
   <i type="logical" name="LFOCKACE"> F  </i>
   <i name="ENCUT4O">     -1.00000000</i>
   <i type="int" name="EXXOEP">     0</i>
   <i type="int" name="FOURORBIT">     0</i>
   <i name="AEXX">      0.00000000</i>
   <i name="HFALPHA">      0.00000000</i>
   <i name="MCALPHA">      0.00000000</i>
   <i name="ALDAX">      1.00000000</i>
   <i name="AGGAX">      1.00000000</i>
   <i name="ALDAC">      1.00000000</i>
   <i name="AGGAC">      1.00000000</i>
   <i type="int" name="NKREDX">     1</i>
   <i type="int" name="NKREDY">     1</i>
   <i type="int" name="NKREDZ">     1</i>
   <i type="logical" name="SHIFTRED"> F  </i>
   <i type="logical" name="ODDONLY"> F  </i>
   <i type="logical" name="EVENONLY"> F  </i>
   <i type="int" name="LMAXFOCK">     0</i>
   <i type="int" name="NMAXFOCKAE">     0</i>
   <i type="logical" name="LFOCKAEDFT"> F  </i>
   <i name="HFSCREEN">      0.00000000</i>
   <i name="HFSCREENC">      0.00000000</i>
   <i type="int" name="NBANDSGWLOW">     0</i>
  </separator>
  <separator name="vdW DFT" >
   <i type="logical" name="LUSE_VDW"> T  </i>
   <i type="int" name="IVDW_NL">     1</i>
   <i type="logical" name="LSPIN_VDW"> F  </i>
   <i name="Zab_VDW">     -1.88670000</i>
   <i name="PARAM1">      0.12340000</i>
   <i name="PARAM2">      1.00000000</i>
   <i name="PARAM3">      0.00000000</i>
  </separator>
  <separator name="model GW" >
   <i type="int" name="MODEL_GW">     0</i>
   <i name="MODEL_EPS0">     25.14297943</i>
   <i name="MODEL_ALPHA">      1.00000000</i>
  </separator>
  <separator name="linear response parameters" >
   <i type="logical" name="LEPSILON"> F  </i>
   <i type="logical" name="LRPA"> F  </i>
   <i type="logical" name="LNABLA"> F  </i>
   <i type="logical" name="LVEL"> F  </i>
   <i name="CSHIFT">      0.10000000</i>
   <i name="OMEGAMAX">     -1.00000000</i>
   <i name="DEG_THRESHOLD">      0.00200000</i>
   <i name="RTIME">     -0.10000000</i>
   <i name="WPLASMAI">      0.00000000</i>
   <v name="DFIELD">      0.00000000      0.00000000      0.00000000</v>
   <v name="WPLASMA">      0.00000000      0.00000000      0.00000000      0.00000000      0.00000000      0.00000000      0.00000000      0.00000000      0.00000000</v>
  </separator>
  <separator name="orbital magnetization" >
   <i type="logical" name="NUCIND"> F  </i>
   <v name="MAGPOS">      0.00000000      0.00000000      0.00000000</v>
   <i type="logical" name="LNICSALL"> T  </i>
   <i type="logical" name="ORBITALMAG"> F  </i>
   <i type="logical" name="LMAGBLOCH"> F  </i>
   <i type="logical" name="LCHIMAG"> F  </i>
   <i type="logical" name="LGAUGE"> T  </i>
   <i type="int" name="MAGATOM">     0</i>
   <v name="MAGDIPOL">      0.00000000      0.00000000      0.00000000</v>
   <v name="AVECCONST">      0.00000000      0.00000000      0.00000000</v>
  </separator>
  <separator name="response functions" >
   <i type="logical" name="LALL_IN_ONE"> F  </i>
   <i type="int" name="IALL_IN_ONE">    -1</i>
   <i type="int" name="NBANDS_WAVE">    -1</i>
   <i type="logical" name="LFINITE_TEMPERATURE"> F  </i>
   <i type="logical" name="LADDER"> F  </i>
   <i type="logical" name="LRPAFORCE"> F  </i>
   <i type="logical" name="LFXC"> F  </i>
   <i type="logical" name="LHARTREE"> T  </i>
   <i type="int" name="IBSE">     0</i>
   <v type="int" name="KPOINT">    -1     0     0     0</v>
   <i type="logical" name="LTCTC"> F  </i>
   <i type="logical" name="LTCTE"> F  </i>
   <i type="logical" name="LTETE"> F  </i>
   <i type="logical" name="LTRIPLET"> F  </i>
   <i type="logical" name="LFXCEPS"> F  </i>
   <i type="logical" name="LFXHEG"> F  </i>
   <i type="int" name="NATURALO">     2</i>
   <i type="logical" name="LHOLEGF"> F  </i>
   <i type="logical" name="L2ORDER"> F  </i>
   <i type="logical" name="LDMP1"> F  </i>
   <i type="logical" name="LMP2LT"> F  </i>
   <i type="logical" name="LSMP2LT"> F  </i>
   <i type="logical" name="LGWLF"> F  </i>
   <i name="ENCUTGW">     -1.60000002</i>
   <i name="ENCUTGWSOFT">     -1.60000002</i>
   <i name="ENCUTLF">     -1.00000000</i>
   <i type="logical" name="LESF_SPLINES"> F  </i>
   <i type="int" name="LMAXMP2">    -1</i>
   <i name="SCISSOR">      0.00000000</i>
   <i type="int" name="NOMEGA">     0</i>
   <i type="int" name="NOMEGAR">     0</i>
   <i type="int" name="NBANDSGW">    -1</i>
   <i type="int" name="NBANDSO">    -1</i>
   <i type="int" name="NBANDSV">    -1</i>
   <i type="int" name="NELMGW">     1</i>
   <i type="int" name="NELMHF">     1</i>
   <i type="int" name="DIM">     3</i>
   <i type="int" name="IESPILON">     4</i>
   <i type="int" name="ANTIRES">     0</i>
   <i name="OMEGAMAX">    -30.00000000</i>
   <i name="OMEGAMIN">    -30.00000000</i>
   <i name="OMEGATL">   -200.00000000</i>
   <i type="int" name="OMEGAGRID">     0</i>
   <i name="CSHIFT">     -0.10000000</i>
   <i type="logical" name="LSELFENERGY"> F  </i>
   <i type="logical" name="LSPECTRAL"> F  </i>
   <i type="logical" name="LSPECTRALGW"> F  </i>
   <i type="logical" name="LSINGLES"> F  </i>
   <i type="logical" name="LFERMIGW"> F  </i>
   <i type="logical" name="ODDONLYGW"> F  </i>
   <i type="logical" name="EVENONLYGW"> F  </i>
   <i type="int" name="NKREDLFX">     1</i>
   <i type="int" name="NKREDLFY">     1</i>
   <i type="int" name="NKREDLFZ">     1</i>
   <i type="int" name="MAXMEM">  2800</i>
   <i type="int" name="TELESCOPE">     0</i>
   <i type="int" name="NTAUPAR">    -1</i>
   <i type="int" name="NOMEGAPAR">    -1</i>
   <i name="DAMP_NEWTON">      0.80000001</i>
   <i name="LAMBDA">      1.00000000</i>
  </separator>
  <separator name="External order field" >
   <i name="OFIELD_KAPPA">      0.00000000</i>
   <v name="OFIELD_K">      0.00000000      0.00000000      0.00000000</v>
   <i name="OFIELD_Q6_NEAR">      0.00000000</i>
   <i name="OFIELD_Q6_FAR">      0.00000000</i>
   <i name="OFIELD_A">      0.00000000</i>
  </separator>
  <separator name="optional k-points parameters" >
   <i type="int" name="KPOINTS_OPT_MODE">     1</i>
   <i type="logical" name="LKPOINTS_OPT"> F  </i>
  </separator>
 </parameters>
 <atominfo>
  <atoms>      37 </atoms>
  <types>       2 </types>
  <array name="atoms" >
   <dimension dim="1">ion</dimension>
   <field type="string">element</field>
   <field type="int">atomtype</field>
   <set>
    <rc><c>Pt</c><c>   1</c></rc>
    <rc><c>Pt</c><c>   1</c></rc>
    <rc><c>Pt</c><c>   1</c></rc>
    <rc><c>Pt</c><c>   1</c></rc>
    <rc><c>Pt</c><c>   1</c></rc>
    <rc><c>Pt</c><c>   1</c></rc>
    <rc><c>Pt</c><c>   1</c></rc>
    <rc><c>Pt</c><c>   1</c></rc>
    <rc><c>Pt</c><c>   1</c></rc>
    <rc><c>Pt</c><c>   1</c></rc>
    <rc><c>Pt</c><c>   1</c></rc>
    <rc><c>Pt</c><c>   1</c></rc>
    <rc><c>Pt</c><c>   1</c></rc>
    <rc><c>Pt</c><c>   1</c></rc>
    <rc><c>Pt</c><c>   1</c></rc>
    <rc><c>Pt</c><c>   1</c></rc>
    <rc><c>Pt</c><c>   1</c></rc>
    <rc><c>Pt</c><c>   1</c></rc>
    <rc><c>Pt</c><c>   1</c></rc>
    <rc><c>Pt</c><c>   1</c></rc>
    <rc><c>Pt</c><c>   1</c></rc>
    <rc><c>Pt</c><c>   1</c></rc>
    <rc><c>Pt</c><c>   1</c></rc>
    <rc><c>Pt</c><c>   1</c></rc>
    <rc><c>Pt</c><c>   1</c></rc>
    <rc><c>Pt</c><c>   1</c></rc>
    <rc><c>Pt</c><c>   1</c></rc>
    <rc><c>Pt</c><c>   1</c></rc>
    <rc><c>Pt</c><c>   1</c></rc>
    <rc><c>Pt</c><c>   1</c></rc>
    <rc><c>Pt</c><c>   1</c></rc>
    <rc><c>Pt</c><c>   1</c></rc>
    <rc><c>Pt</c><c>   1</c></rc>
    <rc><c>Pt</c><c>   1</c></rc>
    <rc><c>Pt</c><c>   1</c></rc>
    <rc><c>Pt</c><c>   1</c></rc>
    <rc><c>H </c><c>   2</c></rc>
   </set>
  </array>
  <array name="atomtypes" >
   <dimension dim="1">type</dimension>
   <field type="int">atomspertype</field>
   <field type="string">element</field>
   <field>mass</field>
   <field>valence</field>
   <field type="string">pseudopotential</field>
   <set>
    <rc><c>  36</c><c>Pt</c><c>    195.08000000</c><c>     10.00000000</c><c>  PAW_PBE Pt 04Feb2005                  </c></rc>
    <rc><c>   1</c><c>H </c><c>      1.00000000</c><c>      1.00000000</c><c>  PAW_PBE H 15Jun2001                   </c></rc>
   </set>
  </array>
 </atominfo>
 <structure name="initialpos" >
  <crystal>
   <varray name="basis" >
    <v>       8.46831000       0.00000000       0.00000000 </v>
    <v>       4.23415500       7.33377159       0.00000000 </v>
    <v>       0.00000000       0.00000000      24.96566199 </v>
   </varray>
   <i name="volume">   1550.48373159 </i>
   <varray name="rec_basis" >
    <v>       0.11808732      -0.06817774       0.00000000 </v>
    <v>       0.00000000       0.13635549       0.00000000 </v>
    <v>       0.00000000       0.00000000       0.04005502 </v>
   </varray>
  </crystal>
  <varray name="positions" >
   <v>       0.00000000       0.00000000       0.34046764 </v>
   <v>       0.33400137       0.00000000       0.34046764 </v>
   <v>       0.66800274       0.00000000       0.34046764 </v>
   <v>       0.00000000       0.33400137       0.34046764 </v>
   <v>       0.33400137       0.33400137       0.34046764 </v>
   <v>       0.66800274       0.33400137       0.34046764 </v>
   <v>       0.00000000       0.66800274       0.34046764 </v>
   <v>       0.33400137       0.66800274       0.34046764 </v>
   <v>       0.66800274       0.66800274       0.34046764 </v>
   <v>       0.11133379       0.11133379       0.43297074 </v>
   <v>       0.44533516       0.11133379       0.43297074 </v>
   <v>       0.77933653       0.11133379       0.43297074 </v>
   <v>       0.11133379       0.44533516       0.43297074 </v>
   <v>       0.44533516       0.44533516       0.43297074 </v>
   <v>       0.77933653       0.44533516       0.43297074 </v>
   <v>       0.11133379       0.77933653       0.43297074 </v>
   <v>       0.44533516       0.77933653       0.43297074 </v>
   <v>       0.77933653       0.77933653       0.43297074 </v>
   <v>       0.88994847       0.22538774       0.52524695 </v>
   <v>       0.22260115       0.22409524       0.52574619 </v>
   <v>       0.55568964       0.22441532       0.52468543 </v>
   <v>       0.89003966       0.55606262       0.52522639 </v>
   <v>       0.22299604       0.55667314       0.52462805 </v>
   <v>       0.55609675       0.55744416       0.52436389 </v>
   <v>       0.88972742       0.89081999       0.52417487 </v>
   <v>       0.22307411       0.89111909       0.52475116 </v>
   <v>       0.55596533       0.89077070       0.52463260 </v>
   <v>       0.00007555       0.00109237       0.61751581 </v>
   <v>       0.33708825       0.99865819       0.61929810 </v>
   <v>       0.66835912       0.00163841       0.61766908 </v>
   <v>       0.99952220       0.33550936       0.62161026 </v>
   <v>       0.33639645       0.33541088       0.61954539 </v>
   <v>       0.66699837       0.33536615       0.61773281 </v>
   <v>       0.00003556       0.67058762       0.61751441 </v>
   <v>       0.33415797       0.66849147       0.61754801 </v>
   <v>       0.66727675       0.66897716       0.61773115 </v>
   <v>       0.17145888       0.25477680       0.66433753 </v>
  </varray>
  <varray name="selective"  type="logical" >
   <v type="logical" >  F  F  F </v>
   <v type="logical" >  F  F  F </v>
   <v type="logical" >  F  F  F </v>
   <v type="logical" >  F  F  F </v>
   <v type="logical" >  F  F  F </v>
   <v type="logical" >  F  F  F </v>
   <v type="logical" >  F  F  F </v>
   <v type="logical" >  F  F  F </v>
   <v type="logical" >  F  F  F </v>
   <v type="logical" >  F  F  F </v>
   <v type="logical" >  F  F  F </v>
   <v type="logical" >  F  F  F </v>
   <v type="logical" >  F  F  F </v>
   <v type="logical" >  F  F  F </v>
   <v type="logical" >  F  F  F </v>
   <v type="logical" >  F  F  F </v>
   <v type="logical" >  F  F  F </v>
   <v type="logical" >  F  F  F </v>
   <v type="logical" >  T  T  T </v>
   <v type="logical" >  T  T  T </v>
   <v type="logical" >  T  T  T </v>
   <v type="logical" >  T  T  T </v>
   <v type="logical" >  T  T  T </v>
   <v type="logical" >  T  T  T </v>
   <v type="logical" >  T  T  T </v>
   <v type="logical" >  T  T  T </v>
   <v type="logical" >  T  T  T </v>
   <v type="logical" >  T  T  T </v>
   <v type="logical" >  T  T  T </v>
   <v type="logical" >  T  T  T </v>
   <v type="logical" >  T  T  T </v>
   <v type="logical" >  T  T  T </v>
   <v type="logical" >  T  T  T </v>
   <v type="logical" >  T  T  T </v>
   <v type="logical" >  T  T  T </v>
   <v type="logical" >  T  T  T </v>
   <v type="logical" >  T  T  T </v>
  </varray>
  <nose>
   <v>      -3.00000000       0.00000000       0.00010000       0.00010000 </v>
  </nose>
 </structure>
 <calculation>
  <scstep>
   <time name="dav">   16.24   16.37</time>
   <time name="total">   20.30   20.46</time>
   <energy>
    <i name="alphaZ">    797.33612757 </i>
    <i name="ewald"> 132100.15246004 </i>
    <i name="hartreedc">-159499.84192408 </i>
    <i name="XCdc">     89.49389285 </i>
    <i name="pawpsdc">  32157.27787688 </i>
    <i name="pawaedc"> -31159.35159276 </i>
    <i name="eentropy">     -0.09011600 </i>
    <i name="bandstr">  -1086.35653962 </i>
    <i name="atom">  26496.80315902 </i>
    <i name="e_fr_energy">   -104.57665612 </i>
    <i name="e_wo_entrp">   -104.48654012 </i>
    <i name="e_0_energy">   -104.54661745 </i>
   </energy>
  </scstep>
  <scstep>
   <time name="diag">    2.82    2.84</time>
   <time name="diis">    8.34    8.59</time>
   <time name="orth">    0.54    0.55</time>
   <time name="total">   14.86   15.16</time>
   <energy>
    <i name="e_fr_energy">   -115.17258778 </i>
    <i name="e_wo_entrp">   -115.19066001 </i>
    <i name="e_0_energy">   -115.17861185 </i>
   </energy>
  </scstep>
  <scstep>
   <time name="diag">    2.88    2.90</time>
   <time name="diis">    8.77    8.83</time>
   <time name="orth">    0.60    0.61</time>
   <time name="total">   15.55   15.72</time>
   <energy>
    <i name="e_fr_energy">   -104.56934467 </i>
    <i name="e_wo_entrp">   -104.48090365 </i>
    <i name="e_0_energy">   -104.53986433 </i>
   </energy>
  </scstep>
  <scstep>
   <time name="diag">    2.77    2.79</time>
   <time name="diis">    8.59    8.65</time>
   <time name="orth">    0.56    0.57</time>
   <time name="total">   15.15   15.28</time>
   <energy>
    <i name="e_fr_energy">   -104.47592645 </i>
    <i name="e_wo_entrp">   -104.38319059 </i>
    <i name="e_0_energy">   -104.44501450 </i>
   </energy>
  </scstep>
  <scstep>
   <time name="diag">    2.90    2.92</time>
   <time name="diis">    8.71    8.77</time>
   <time name="orth">    0.74    0.75</time>
   <time name="total">   15.59   15.75</time>
   <energy>
    <i name="e_fr_energy">   -104.47553338 </i>
    <i name="e_wo_entrp">   -104.38324064 </i>
    <i name="e_0_energy">   -104.44476913 </i>
   </energy>
  </scstep>
  <scstep>
   <time name="diag">    2.95    2.97</time>
   <time name="diis">    8.88    9.05</time>
   <time name="orth">    0.70    0.72</time>
   <time name="total">   15.73   15.98</time>
   <energy>
    <i name="e_fr_energy">   -104.47174870 </i>
    <i name="e_wo_entrp">   -104.37865265 </i>
    <i name="e_0_energy">   -104.44071668 </i>
   </energy>
  </scstep>
  <scstep>
   <time name="diag">    2.80    2.82</time>
   <time name="diis">    9.09    9.15</time>
   <time name="orth">    0.58    0.59</time>
   <time name="total">   15.66   15.82</time>
   <energy>
    <i name="e_fr_energy">   -104.47143587 </i>
    <i name="e_wo_entrp">   -104.37818761 </i>
    <i name="e_0_energy">   -104.44035312 </i>
   </energy>
  </scstep>
  <scstep>
   <time name="diag">    2.79    2.82</time>
   <time name="diis">    9.01    9.07</time>
   <time name="orth">    0.62    0.63</time>
   <time name="total">   15.65   15.78</time>
   <energy>
    <i name="e_fr_energy">   -104.47105375 </i>
    <i name="e_wo_entrp">   -104.37770830 </i>
    <i name="e_0_energy">   -104.43993860 </i>
   </energy>
  </scstep>
  <scstep>
   <time name="diag">    2.77    2.79</time>
   <time name="diis">    9.06    9.12</time>
   <time name="orth">    0.66    0.67</time>
   <time name="total">   15.85   16.01</time>
   <energy>
    <i name="e_fr_energy">   -104.47097482 </i>
    <i name="e_wo_entrp">   -104.37762621 </i>
    <i name="e_0_energy">   -104.43985861 </i>
   </energy>
  </scstep>
  <scstep>
   <time name="diag">    3.15    3.31</time>
   <time name="diis">    8.47    8.53</time>
   <time name="orth">    0.80    0.81</time>
   <time name="total">   15.69   15.96</time>
   <energy>
    <i name="e_fr_energy">   -104.47095760 </i>
    <i name="e_wo_entrp">   -104.37762755 </i>
    <i name="e_0_energy">   -104.43984758 </i>
   </energy>
  </scstep>
  <scstep>
   <time name="diag">    2.96    2.99</time>
   <time name="diis">    7.38    7.42</time>
   <time name="orth">    0.82    0.83</time>
   <time name="total">   13.67   13.81</time>
   <energy>
    <i name="alphaZ">    797.33612757 </i>
    <i name="ewald"> 132100.15246004 </i>
    <i name="hartreedc">-159498.86384423 </i>
    <i name="XCdc">     89.48986635 </i>
    <i name="pawpsdc">  32157.45797508 </i>
    <i name="pawaedc"> -31159.53785526 </i>
    <i name="eentropy">     -0.09338345 </i>
    <i name="bandstr">  -1087.21545762 </i>
    <i name="atom">  26496.80315902 </i>
    <i name="e_fr_energy">   -104.47095250 </i>
    <i name="e_wo_entrp">   -104.37756906 </i>
    <i name="e_0_energy">   -104.43982469 </i>
   </energy>
  </scstep>
  <structure>
   <crystal>
    <varray name="basis" >
     <v>       8.46831000       0.00000000       0.00000000 </v>
     <v>       4.23415500       7.33377159       0.00000000 </v>
     <v>       0.00000000       0.00000000      24.96566199 </v>
    </varray>
    <i name="volume">   1550.48373159 </i>
    <varray name="rec_basis" >
     <v>       0.11808732      -0.06817774       0.00000000 </v>
     <v>       0.00000000       0.13635549       0.00000000 </v>
     <v>       0.00000000       0.00000000       0.04005502 </v>
    </varray>
   </crystal>
   <varray name="positions" >
    <v>       0.00000000       0.00000000       0.34046764 </v>
    <v>       0.33400137       0.00000000       0.34046764 </v>
    <v>       0.66800274       0.00000000       0.34046764 </v>
    <v>       0.00000000       0.33400137       0.34046764 </v>
    <v>       0.33400137       0.33400137       0.34046764 </v>
    <v>       0.66800274       0.33400137       0.34046764 </v>
    <v>       0.00000000       0.66800274       0.34046764 </v>
    <v>       0.33400137       0.66800274       0.34046764 </v>
    <v>       0.66800274       0.66800274       0.34046764 </v>
    <v>       0.11133379       0.11133379       0.43297074 </v>
    <v>       0.44533516       0.11133379       0.43297074 </v>
    <v>       0.77933653       0.11133379       0.43297074 </v>
    <v>       0.11133379       0.44533516       0.43297074 </v>
    <v>       0.44533516       0.44533516       0.43297074 </v>
    <v>       0.77933653       0.44533516       0.43297074 </v>
    <v>       0.11133379       0.77933653       0.43297074 </v>
    <v>       0.44533516       0.77933653       0.43297074 </v>
    <v>       0.77933653       0.77933653       0.43297074 </v>
    <v>       0.88994847       0.22538774       0.52524695 </v>
    <v>       0.22260115       0.22409524       0.52574619 </v>
    <v>       0.55568964       0.22441532       0.52468543 </v>
    <v>       0.89003966       0.55606262       0.52522639 </v>
    <v>       0.22299604       0.55667314       0.52462805 </v>
    <v>       0.55609675       0.55744416       0.52436389 </v>
    <v>       0.88972742       0.89081999       0.52417487 </v>
    <v>       0.22307411       0.89111909       0.52475116 </v>
    <v>       0.55596533       0.89077070       0.52463260 </v>
    <v>       0.00007555       0.00109237       0.61751581 </v>
    <v>       0.33708825       0.99865819       0.61929810 </v>
    <v>       0.66835912       0.00163841       0.61766908 </v>
    <v>       0.99952220       0.33550936       0.62161026 </v>
    <v>       0.33639645       0.33541088       0.61954539 </v>
    <v>       0.66699837       0.33536615       0.61773281 </v>
    <v>       0.00003556       0.67058762       0.61751441 </v>
    <v>       0.33415797       0.66849147       0.61754801 </v>
    <v>       0.66727675       0.66897716       0.61773115 </v>
    <v>       0.17145888       0.25477680       0.66433753 </v>
   </varray>
  </structure>
  <varray name="forces" >
   <v>       0.05967609       0.03521034      -0.13550133 </v>
   <v>       0.01730684       0.05092983      -0.09069185 </v>
   <v>      -0.05270301       0.07751168      -0.16672088 </v>
   <v>       0.05523063      -0.01968960      -0.08066921 </v>
   <v>       0.00409508      -0.00719120      -0.06499746 </v>
   <v>      -0.04453644       0.00159165      -0.08193018 </v>
   <v>       0.03995196      -0.06383579      -0.12365525 </v>
   <v>      -0.01499044      -0.04559773      -0.08651065 </v>
   <v>      -0.05708672      -0.03732523      -0.09589409 </v>
   <v>       0.06727374       0.06961534       0.18700384 </v>
   <v>       0.00651770       0.07998562       0.11677134 </v>
   <v>      -0.07879446       0.09762858       0.03885455 </v>
   <v>       0.04061062      -0.03090704       0.18288788 </v>
   <v>      -0.01582171      -0.00018835       0.08272247 </v>
   <v>      -0.04942101       0.01529554       0.18256590 </v>
   <v>       0.06097847      -0.09654915       0.06011034 </v>
   <v>      -0.02536950      -0.05946917       0.10908290 </v>
   <v>      -0.08660668      -0.02628236       0.06272125 </v>
   <v>       0.00158568      -0.00668846      -0.00386521 </v>
   <v>      -0.00413980      -0.00106940      -0.02242711 </v>
   <v>      -0.01497631      -0.00231467       0.00348152 </v>
   <v>       0.01092592       0.00000900      -0.00169380 </v>
   <v>       0.01197520      -0.00545883       0.00359393 </v>
   <v>      -0.00007178      -0.00088553      -0.01181008 </v>
   <v>      -0.00020847      -0.00539030      -0.00664465 </v>
   <v>       0.00791253      -0.00759003       0.00182583 </v>
   <v>      -0.00476217       0.00789988       0.01598140 </v>
   <v>      -0.00602734       0.00411554      -0.00914676 </v>
   <v>      -0.00732157      -0.00197219       0.01781479 </v>
   <v>      -0.00112222      -0.00300070       0.00598993 </v>
   <v>      -0.00489990       0.00207592      -0.00712476 </v>
   <v>      -0.00322957       0.00653776       0.03337406 </v>
   <v>      -0.00397118      -0.00689234      -0.00299815 </v>
   <v>      -0.00954763      -0.00561039      -0.01001810 </v>
   <v>      -0.00401745       0.00455094       0.00453289 </v>
   <v>       0.00124579       0.00363795      -0.00325749 </v>
   <v>       0.10433913      -0.02268712      -0.10375781 </v>
  </varray>
  <varray name="stress" >
   <v>     -34.72084768       0.03110847       0.41119530 </v>
   <v>       0.03110862     -34.64526994      -0.17547780 </v>
   <v>       0.41119519      -0.17547794       1.91209526 </v>
  </varray>
  <energy>
   <i name="e_fr_energy">   -104.47095250 </i>
   <i name="e_wo_entrp">   -104.37756906 </i>
   <i name="e_0_energy">   -104.43982469 </i>
  </energy>
  <time name="totalsc">  201.11  203.98</time>
  <eigenvalues>
   <array>
    <dimension dim="1">band</dimension>
    <dimension dim="2">kpoint</dimension>
    <dimension dim="3">spin</dimension>
    <field>eigene</field>
    <field>occ</field>
    <set>
     <set comment="spin 1">
      <set comment="kpoint 1">
       <r>   -8.8917    1.0000 </r>
       <r>   -7.7217    1.0000 </r>
       <r>   -6.9232    1.0000 </r>
       <r>   -6.4989    1.0000 </r>
       <r>   -6.4704    1.0000 </r>
       <r>   -6.4540    1.0000 </r>
       <r>   -6.4481    1.0000 </r>
       <r>   -6.4431    1.0000 </r>
       <r>   -6.4336    1.0000 </r>
       <r>   -6.4237    1.0000 </r>
       <r>   -6.1319    1.0000 </r>
       <r>   -5.9182    1.0000 </r>
       <r>   -5.9139    1.0000 </r>
       <r>   -5.9005    1.0000 </r>
       <r>   -5.8951    1.0000 </r>
       <r>   -5.8912    1.0000 </r>
       <r>   -5.8182    1.0000 </r>
       <r>   -5.4597    1.0000 </r>
       <r>   -5.4580    1.0000 </r>
       <r>   -5.4517    1.0000 </r>
       <r>   -5.4474    1.0000 </r>
       <r>   -5.4460    1.0000 </r>
       <r>   -5.3355    1.0000 </r>
       <r>   -5.2257    1.0000 </r>
       <r>   -5.2222    1.0000 </r>
       <r>   -5.2219    1.0000 </r>
       <r>   -5.2177    1.0000 </r>
       <r>   -5.2123    1.0000 </r>
       <r>   -5.1237    1.0000 </r>
       <r>   -5.0307    1.0000 </r>
       <r>   -5.0223    1.0000 </r>
       <r>   -5.0198    1.0000 </r>
       <r>   -5.0154    1.0000 </r>
       <r>   -5.0144    1.0000 </r>
       <r>   -4.9632    1.0000 </r>
       <r>   -4.9584    1.0000 </r>
       <r>   -4.9528    1.0000 </r>
       <r>   -4.9454    1.0000 </r>
       <r>   -4.9146    1.0000 </r>
       <r>   -4.9085    1.0000 </r>
       <r>   -4.5984    1.0000 </r>
       <r>   -4.3808    1.0000 </r>
       <r>   -4.3783    1.0000 </r>
       <r>   -4.3459    1.0000 </r>
       <r>   -4.3378    1.0000 </r>
       <r>   -4.3212    1.0000 </r>
       <r>   -4.3178    1.0000 </r>
       <r>   -4.3029    1.0000 </r>
       <r>   -4.2858    1.0000 </r>
       <r>   -4.2824    1.0000 </r>
       <r>   -4.1990    1.0000 </r>
       <r>   -4.1349    1.0000 </r>
       <r>   -4.1316    1.0000 </r>
       <r>   -4.0396    1.0000 </r>
       <r>   -4.0301    1.0000 </r>
       <r>   -3.5894    1.0000 </r>
       <r>   -3.5755    1.0000 </r>
       <r>   -3.5649    1.0000 </r>
       <r>   -3.5572    1.0000 </r>
       <r>   -3.5550    1.0000 </r>
       <r>   -3.4951    1.0000 </r>
       <r>   -3.4777    1.0000 </r>
       <r>   -3.3842    1.0000 </r>
       <r>   -3.3791    1.0000 </r>
       <r>   -3.3728    1.0000 </r>
       <r>   -3.3716    1.0000 </r>
       <r>   -3.3657    1.0000 </r>
       <r>   -3.3649    1.0000 </r>
       <r>   -3.3474    1.0000 </r>
       <r>   -3.3182    1.0000 </r>
       <r>   -3.3059    1.0000 </r>
       <r>   -3.2993    1.0000 </r>
       <r>   -3.2945    1.0000 </r>
       <r>   -3.2901    1.0000 </r>
       <r>   -3.2664    1.0000 </r>
       <r>   -3.2596    1.0000 </r>
       <r>   -3.2570    1.0000 </r>
       <r>   -3.1581    1.0000 </r>
       <r>   -3.1489    1.0000 </r>
       <r>   -3.1415    1.0000 </r>
       <r>   -3.1359    1.0000 </r>
       <r>   -3.1330    1.0000 </r>
       <r>   -3.0966    1.0000 </r>
       <r>   -2.9396    1.0000 </r>
       <r>   -2.9315    1.0000 </r>
       <r>   -2.9278    1.0000 </r>
       <r>   -2.9234    1.0000 </r>
       <r>   -2.9149    1.0000 </r>
       <r>   -2.8952    1.0000 </r>
       <r>   -2.8921    1.0000 </r>
       <r>   -2.8821    1.0000 </r>
       <r>   -2.8431    1.0000 </r>
       <r>   -2.8194    1.0000 </r>
       <r>   -2.7832    1.0000 </r>
       <r>   -2.7784    1.0000 </r>
       <r>   -2.7426    1.0000 </r>
       <r>   -2.7398    1.0000 </r>
       <r>   -2.6929    1.0000 </r>
       <r>   -2.6904    1.0000 </r>
       <r>   -2.6863    1.0000 </r>
       <r>   -2.6114    1.0000 </r>
       <r>   -2.5358    1.0000 </r>
       <r>   -2.5228    1.0000 </r>
       <r>   -2.5159    1.0000 </r>
       <r>   -2.5040    1.0000 </r>
       <r>   -2.5006    1.0000 </r>
       <r>   -2.4956    1.0000 </r>
       <r>   -2.2642    1.0000 </r>
       <r>   -2.0274    1.0000 </r>
       <r>   -2.0024    1.0000 </r>
       <r>   -1.9987    1.0000 </r>
       <r>   -1.9928    1.0000 </r>
       <r>   -1.9845    1.0000 </r>
       <r>   -1.9800    1.0000 </r>
       <r>   -1.9778    1.0000 </r>
       <r>   -1.9662    1.0000 </r>
       <r>   -1.9576    1.0000 </r>
       <r>   -1.9538    1.0000 </r>
       <r>   -1.9470    1.0000 </r>
       <r>   -1.8767    1.0000 </r>
       <r>   -1.8661    1.0000 </r>
       <r>   -1.8205    1.0000 </r>
       <r>   -1.7333    1.0000 </r>
       <r>   -1.7209    1.0000 </r>
       <r>   -1.7184    1.0000 </r>
       <r>   -1.7120    1.0000 </r>
       <r>   -1.7079    1.0000 </r>
       <r>   -1.6228    1.0000 </r>
       <r>   -1.5859    1.0000 </r>
       <r>   -1.5371    1.0000 </r>
       <r>   -1.5366    1.0000 </r>
       <r>   -1.5151    1.0000 </r>
       <r>   -1.4992    1.0000 </r>
       <r>   -1.3131    1.0000 </r>
       <r>   -1.2757    1.0000 </r>
       <r>   -1.2684    1.0000 </r>
       <r>   -1.2598    1.0000 </r>
       <r>   -1.2537    1.0000 </r>
       <r>   -1.2458    1.0000 </r>
       <r>   -1.1912    1.0000 </r>
       <r>   -1.1784    1.0000 </r>
       <r>   -1.0986    1.0000 </r>
       <r>   -1.0371    1.0000 </r>
       <r>   -1.0341    1.0000 </r>
       <r>   -1.0292    1.0000 </r>
       <r>   -1.0254    1.0000 </r>
       <r>   -1.0153    1.0000 </r>
       <r>   -0.9044    1.0000 </r>
       <r>   -0.8640    1.0000 </r>
       <r>   -0.8566    1.0000 </r>
       <r>   -0.8475    1.0000 </r>
       <r>   -0.8335    1.0000 </r>
       <r>   -0.8293    1.0000 </r>
       <r>   -0.8179    1.0000 </r>
       <r>   -0.8167    1.0000 </r>
       <r>   -0.8094    1.0000 </r>
       <r>   -0.8051    1.0000 </r>
       <r>   -0.8004    1.0000 </r>
       <r>   -0.7991    1.0000 </r>
       <r>   -0.7317    1.0000 </r>
       <r>   -0.7062    1.0000 </r>
       <r>   -0.6951    1.0000 </r>
       <r>   -0.6828    1.0000 </r>
       <r>   -0.6643    1.0000 </r>
       <r>   -0.6590    1.0000 </r>
       <r>   -0.6460    1.0000 </r>
       <r>   -0.6391    1.0000 </r>
       <r>   -0.6016    1.0000 </r>
       <r>   -0.5942    1.0000 </r>
       <r>   -0.5725    1.0000 </r>
       <r>   -0.5636    1.0000 </r>
       <r>   -0.5516    1.0000 </r>
       <r>   -0.5502    1.0000 </r>
       <r>   -0.5441    1.0000 </r>
       <r>   -0.5377    1.0000 </r>
       <r>   -0.4625    1.0000 </r>
       <r>   -0.4520    1.0000 </r>
       <r>   -0.4454    1.0000 </r>
       <r>   -0.4388    1.0000 </r>
       <r>   -0.4326    1.0000 </r>
       <r>   -0.4275    1.0000 </r>
       <r>   -0.4099    1.0000 </r>
       <r>   -0.3524    1.0003 </r>
       <r>   -0.3360    1.0007 </r>
       <r>   -0.3239    1.0013 </r>
       <r>   -0.3208    1.0014 </r>
       <r>   -0.3117    1.0021 </r>
       <r>   -0.3089    1.0024 </r>
       <r>   -0.1165    0.8156 </r>
       <r>   -0.1071    0.7514 </r>
       <r>   -0.0195    0.0977 </r>
       <r>   -0.0171    0.0864 </r>
       <r>   -0.0033    0.0320 </r>
       <r>    0.0032    0.0126 </r>
       <r>    0.0048    0.0086 </r>
       <r>    0.0119   -0.0071 </r>
       <r>    0.4791   -0.0000 </r>
       <r>    0.8166   -0.0000 </r>
       <r>    0.8477   -0.0000 </r>
       <r>    0.8632   -0.0000 </r>
       <r>    0.8931   -0.0000 </r>
       <r>    0.9015   -0.0000 </r>
       <r>    0.9057   -0.0000 </r>
       <r>    2.7291    0.0000 </r>
       <r>    3.1279    0.0000 </r>
       <r>    3.1613    0.0000 </r>
       <r>    3.1984    0.0000 </r>
       <r>    3.2095    0.0000 </r>
       <r>    3.2194    0.0000 </r>
       <r>    4.5307    0.0000 </r>
       <r>    4.7424    0.0000 </r>
       <r>    4.7597    0.0000 </r>
       <r>    4.8155    0.0000 </r>
       <r>    4.8240    0.0000 </r>
       <r>    4.8262    0.0000 </r>
       <r>    4.8827    0.0000 </r>
       <r>    5.0689    0.0000 </r>
       <r>    5.1370    0.0000 </r>
       <r>    5.4623    0.0000 </r>
       <r>    5.4941    0.0000 </r>
       <r>    5.7837    0.0000 </r>
       <r>    5.8033    0.0000 </r>
       <r>    5.8498    0.0000 </r>
       <r>    5.8562    0.0000 </r>
       <r>    5.8636    0.0000 </r>
       <r>    6.1051    0.0000 </r>
       <r>    6.3565    0.0000 </r>
       <r>    6.6154    0.0000 </r>
       <r>    6.6219    0.0000 </r>
       <r>    6.6263    0.0000 </r>
       <r>    6.7849    0.0000 </r>
       <r>    6.9551    0.0000 </r>
       <r>    7.1176    0.0000 </r>
       <r>    7.1313    0.0000 </r>
       <r>    7.1554    0.0000 </r>
       <r>    7.1592    0.0000 </r>
       <r>    7.1656    0.0000 </r>
       <r>    7.2029    0.0000 </r>
       <r>    7.2831    0.0000 </r>
       <r>    7.6138    0.0000 </r>
      </set>
      <set comment="kpoint 2">
       <r>   -8.7432    1.0000 </r>
       <r>   -7.5847    1.0000 </r>
       <r>   -6.9752    1.0000 </r>
       <r>   -6.8297    1.0000 </r>
       <r>   -6.5543    1.0000 </r>
       <r>   -6.5430    1.0000 </r>
       <r>   -6.3576    1.0000 </r>
       <r>   -6.2617    1.0000 </r>
       <r>   -6.2170    1.0000 </r>
       <r>   -6.2107    1.0000 </r>
       <r>   -6.1061    1.0000 </r>
       <r>   -6.0105    1.0000 </r>
       <r>   -5.9757    1.0000 </r>
       <r>   -5.8434    1.0000 </r>
       <r>   -5.8303    1.0000 </r>
       <r>   -5.8206    1.0000 </r>
       <r>   -5.7228    1.0000 </r>
       <r>   -5.5333    1.0000 </r>
       <r>   -5.4220    1.0000 </r>
       <r>   -5.4114    1.0000 </r>
       <r>   -5.4035    1.0000 </r>
       <r>   -5.3880    1.0000 </r>
       <r>   -5.3302    1.0000 </r>
       <r>   -5.2996    1.0000 </r>
       <r>   -5.2731    1.0000 </r>
       <r>   -5.2249    1.0000 </r>
       <r>   -5.2164    1.0000 </r>
       <r>   -5.2073    1.0000 </r>
       <r>   -5.1477    1.0000 </r>
       <r>   -5.1117    1.0000 </r>
       <r>   -5.1085    1.0000 </r>
       <r>   -5.0346    1.0000 </r>
       <r>   -5.0185    1.0000 </r>
       <r>   -5.0079    1.0000 </r>
       <r>   -5.0074    1.0000 </r>
       <r>   -4.8680    1.0000 </r>
       <r>   -4.8095    1.0000 </r>
       <r>   -4.7762    1.0000 </r>
       <r>   -4.7660    1.0000 </r>
       <r>   -4.7477    1.0000 </r>
       <r>   -4.6079    1.0000 </r>
       <r>   -4.4953    1.0000 </r>
       <r>   -4.4929    1.0000 </r>
       <r>   -4.4554    1.0000 </r>
       <r>   -4.4113    1.0000 </r>
       <r>   -4.3929    1.0000 </r>
       <r>   -4.3855    1.0000 </r>
       <r>   -4.3177    1.0000 </r>
       <r>   -4.2093    1.0000 </r>
       <r>   -4.1954    1.0000 </r>
       <r>   -4.1188    1.0000 </r>
       <r>   -4.1121    1.0000 </r>
       <r>   -4.0693    1.0000 </r>
       <r>   -4.0510    1.0000 </r>
       <r>   -4.0383    1.0000 </r>
       <r>   -3.8285    1.0000 </r>
       <r>   -3.7385    1.0000 </r>
       <r>   -3.7309    1.0000 </r>
       <r>   -3.6759    1.0000 </r>
       <r>   -3.6593    1.0000 </r>
       <r>   -3.6113    1.0000 </r>
       <r>   -3.5801    1.0000 </r>
       <r>   -3.5628    1.0000 </r>
       <r>   -3.5530    1.0000 </r>
       <r>   -3.5333    1.0000 </r>
       <r>   -3.5264    1.0000 </r>
       <r>   -3.4842    1.0000 </r>
       <r>   -3.4477    1.0000 </r>
       <r>   -3.4038    1.0000 </r>
       <r>   -3.3680    1.0000 </r>
       <r>   -3.3620    1.0000 </r>
       <r>   -3.3283    1.0000 </r>
       <r>   -3.2692    1.0000 </r>
       <r>   -3.2637    1.0000 </r>
       <r>   -3.2570    1.0000 </r>
       <r>   -3.1782    1.0000 </r>
       <r>   -3.1696    1.0000 </r>
       <r>   -3.1570    1.0000 </r>
       <r>   -3.1313    1.0000 </r>
       <r>   -3.0991    1.0000 </r>
       <r>   -3.0771    1.0000 </r>
       <r>   -3.0688    1.0000 </r>
       <r>   -3.0292    1.0000 </r>
       <r>   -2.9912    1.0000 </r>
       <r>   -2.9620    1.0000 </r>
       <r>   -2.9568    1.0000 </r>
       <r>   -2.9399    1.0000 </r>
       <r>   -2.9322    1.0000 </r>
       <r>   -2.9102    1.0000 </r>
       <r>   -2.8946    1.0000 </r>
       <r>   -2.8644    1.0000 </r>
       <r>   -2.8285    1.0000 </r>
       <r>   -2.8018    1.0000 </r>
       <r>   -2.7874    1.0000 </r>
       <r>   -2.7694    1.0000 </r>
       <r>   -2.7557    1.0000 </r>
       <r>   -2.7298    1.0000 </r>
       <r>   -2.7283    1.0000 </r>
       <r>   -2.6973    1.0000 </r>
       <r>   -2.6863    1.0000 </r>
       <r>   -2.6101    1.0000 </r>
       <r>   -2.5550    1.0000 </r>
       <r>   -2.5482    1.0000 </r>
       <r>   -2.5193    1.0000 </r>
       <r>   -2.5058    1.0000 </r>
       <r>   -2.4984    1.0000 </r>
       <r>   -2.4953    1.0000 </r>
       <r>   -2.4933    1.0000 </r>
       <r>   -2.4442    1.0000 </r>
       <r>   -2.4311    1.0000 </r>
       <r>   -2.4259    1.0000 </r>
       <r>   -2.4159    1.0000 </r>
       <r>   -2.2120    1.0000 </r>
       <r>   -2.0733    1.0000 </r>
       <r>   -2.0391    1.0000 </r>
       <r>   -2.0247    1.0000 </r>
       <r>   -1.9992    1.0000 </r>
       <r>   -1.9897    1.0000 </r>
       <r>   -1.9811    1.0000 </r>
       <r>   -1.9610    1.0000 </r>
       <r>   -1.9371    1.0000 </r>
       <r>   -1.8598    1.0000 </r>
       <r>   -1.7934    1.0000 </r>
       <r>   -1.7808    1.0000 </r>
       <r>   -1.7251    1.0000 </r>
       <r>   -1.6631    1.0000 </r>
       <r>   -1.6487    1.0000 </r>
       <r>   -1.6151    1.0000 </r>
       <r>   -1.5855    1.0000 </r>
       <r>   -1.5768    1.0000 </r>
       <r>   -1.5446    1.0000 </r>
       <r>   -1.5361    1.0000 </r>
       <r>   -1.5176    1.0000 </r>
       <r>   -1.4390    1.0000 </r>
       <r>   -1.4290    1.0000 </r>
       <r>   -1.3915    1.0000 </r>
       <r>   -1.3867    1.0000 </r>
       <r>   -1.3740    1.0000 </r>
       <r>   -1.2912    1.0000 </r>
       <r>   -1.1966    1.0000 </r>
       <r>   -1.1699    1.0000 </r>
       <r>   -1.1626    1.0000 </r>
       <r>   -1.1458    1.0000 </r>
       <r>   -1.1389    1.0000 </r>
       <r>   -1.1237    1.0000 </r>
       <r>   -1.0609    1.0000 </r>
       <r>   -1.0333    1.0000 </r>
       <r>   -1.0003    1.0000 </r>
       <r>   -0.9967    1.0000 </r>
       <r>   -0.9863    1.0000 </r>
       <r>   -0.9514    1.0000 </r>
       <r>   -0.9161    1.0000 </r>
       <r>   -0.9075    1.0000 </r>
       <r>   -0.8913    1.0000 </r>
       <r>   -0.8364    1.0000 </r>
       <r>   -0.7866    1.0000 </r>
       <r>   -0.7765    1.0000 </r>
       <r>   -0.7585    1.0000 </r>
       <r>   -0.7327    1.0000 </r>
       <r>   -0.6606    1.0000 </r>
       <r>   -0.6366    1.0000 </r>
       <r>   -0.6347    1.0000 </r>
       <r>   -0.5993    1.0000 </r>
       <r>   -0.5875    1.0000 </r>
       <r>   -0.5668    1.0000 </r>
       <r>   -0.5443    1.0000 </r>
       <r>   -0.4890    1.0000 </r>
       <r>   -0.4687    1.0000 </r>
       <r>   -0.4137    1.0000 </r>
       <r>   -0.4016    1.0000 </r>
       <r>   -0.3950    1.0000 </r>
       <r>   -0.3866    1.0001 </r>
       <r>   -0.3592    1.0002 </r>
       <r>   -0.3537    1.0003 </r>
       <r>   -0.3467    1.0004 </r>
       <r>   -0.3416    1.0006 </r>
       <r>   -0.3300    1.0010 </r>
       <r>   -0.2750    1.0082 </r>
       <r>   -0.2685    1.0100 </r>
       <r>   -0.1253    0.8676 </r>
       <r>   -0.1235    0.8578 </r>
       <r>   -0.0999    0.6979 </r>
       <r>   -0.0866    0.5912 </r>
       <r>   -0.0761    0.5028 </r>
       <r>   -0.0688    0.4415 </r>
       <r>   -0.0337    0.1770 </r>
       <r>   -0.0176    0.0888 </r>
       <r>   -0.0140    0.0724 </r>
       <r>    0.0075    0.0021 </r>
       <r>    0.0536   -0.0348 </r>
       <r>    0.1064   -0.0136 </r>
       <r>    0.1330   -0.0060 </r>
       <r>    0.1831   -0.0008 </r>
       <r>    0.2951   -0.0000 </r>
       <r>    0.2966   -0.0000 </r>
       <r>    0.3127   -0.0000 </r>
       <r>    0.3493   -0.0000 </r>
       <r>    0.6706   -0.0000 </r>
       <r>    0.7543   -0.0000 </r>
       <r>    1.2215   -0.0000 </r>
       <r>    1.4679   -0.0000 </r>
       <r>    1.4827   -0.0000 </r>
       <r>    1.5996   -0.0000 </r>
       <r>    2.3693   -0.0000 </r>
       <r>    2.7657    0.0000 </r>
       <r>    2.9093    0.0000 </r>
       <r>    3.5103    0.0000 </r>
       <r>    3.6529    0.0000 </r>
       <r>    3.6559    0.0000 </r>
       <r>    3.7423    0.0000 </r>
       <r>    3.9819    0.0000 </r>
       <r>    4.3823    0.0000 </r>
       <r>    4.6117    0.0000 </r>
       <r>    4.7284    0.0000 </r>
       <r>    4.9539    0.0000 </r>
       <r>    4.9828    0.0000 </r>
       <r>    4.9951    0.0000 </r>
       <r>    5.1729    0.0000 </r>
       <r>    5.2459    0.0000 </r>
       <r>    5.4655    0.0000 </r>
       <r>    5.6473    0.0000 </r>
       <r>    5.7174    0.0000 </r>
       <r>    5.7572    0.0000 </r>
       <r>    5.9094    0.0000 </r>
       <r>    6.1128    0.0000 </r>
       <r>    6.2142    0.0000 </r>
       <r>    6.2392    0.0000 </r>
       <r>    6.3200    0.0000 </r>
       <r>    6.3436    0.0000 </r>
       <r>    6.6522    0.0000 </r>
       <r>    6.6824    0.0000 </r>
       <r>    6.7313    0.0000 </r>
       <r>    6.7838    0.0000 </r>
       <r>    6.8641    0.0000 </r>
       <r>    6.8873    0.0000 </r>
       <r>    7.0328    0.0000 </r>
       <r>    7.2302    0.0000 </r>
       <r>    7.4743    0.0000 </r>
       <r>    7.4869    0.0000 </r>
       <r>    7.6117    0.0000 </r>
      </set>
      <set comment="kpoint 3">
       <r>   -8.7437    1.0000 </r>
       <r>   -7.5887    1.0000 </r>
       <r>   -6.9928    1.0000 </r>
       <r>   -6.8097    1.0000 </r>
       <r>   -6.5572    1.0000 </r>
       <r>   -6.5457    1.0000 </r>
       <r>   -6.3580    1.0000 </r>
       <r>   -6.2635    1.0000 </r>
       <r>   -6.2155    1.0000 </r>
       <r>   -6.2106    1.0000 </r>
       <r>   -6.1289    1.0000 </r>
       <r>   -6.0013    1.0000 </r>
       <r>   -5.9307    1.0000 </r>
       <r>   -5.8481    1.0000 </r>
       <r>   -5.8278    1.0000 </r>
       <r>   -5.8225    1.0000 </r>
       <r>   -5.7506    1.0000 </r>
       <r>   -5.5310    1.0000 </r>
       <r>   -5.4206    1.0000 </r>
       <r>   -5.4103    1.0000 </r>
       <r>   -5.4040    1.0000 </r>
       <r>   -5.3716    1.0000 </r>
       <r>   -5.3295    1.0000 </r>
       <r>   -5.2950    1.0000 </r>
       <r>   -5.2721    1.0000 </r>
       <r>   -5.2425    1.0000 </r>
       <r>   -5.2141    1.0000 </r>
       <r>   -5.2100    1.0000 </r>
       <r>   -5.1470    1.0000 </r>
       <r>   -5.1085    1.0000 </r>
       <r>   -5.1055    1.0000 </r>
       <r>   -5.0342    1.0000 </r>
       <r>   -5.0146    1.0000 </r>
       <r>   -5.0077    1.0000 </r>
       <r>   -5.0041    1.0000 </r>
       <r>   -4.8611    1.0000 </r>
       <r>   -4.8069    1.0000 </r>
       <r>   -4.7760    1.0000 </r>
       <r>   -4.7688    1.0000 </r>
       <r>   -4.7506    1.0000 </r>
       <r>   -4.6050    1.0000 </r>
       <r>   -4.4951    1.0000 </r>
       <r>   -4.4880    1.0000 </r>
       <r>   -4.4587    1.0000 </r>
       <r>   -4.4156    1.0000 </r>
       <r>   -4.3969    1.0000 </r>
       <r>   -4.3845    1.0000 </r>
       <r>   -4.3252    1.0000 </r>
       <r>   -4.2069    1.0000 </r>
       <r>   -4.1737    1.0000 </r>
       <r>   -4.1238    1.0000 </r>
       <r>   -4.1071    1.0000 </r>
       <r>   -4.0733    1.0000 </r>
       <r>   -4.0517    1.0000 </r>
       <r>   -4.0436    1.0000 </r>
       <r>   -3.8279    1.0000 </r>
       <r>   -3.7360    1.0000 </r>
       <r>   -3.7299    1.0000 </r>
       <r>   -3.6760    1.0000 </r>
       <r>   -3.6547    1.0000 </r>
       <r>   -3.6167    1.0000 </r>
       <r>   -3.5810    1.0000 </r>
       <r>   -3.5683    1.0000 </r>
       <r>   -3.5463    1.0000 </r>
       <r>   -3.5290    1.0000 </r>
       <r>   -3.5256    1.0000 </r>
       <r>   -3.4866    1.0000 </r>
       <r>   -3.4466    1.0000 </r>
       <r>   -3.4013    1.0000 </r>
       <r>   -3.3706    1.0000 </r>
       <r>   -3.3619    1.0000 </r>
       <r>   -3.3490    1.0000 </r>
       <r>   -3.2749    1.0000 </r>
       <r>   -3.2659    1.0000 </r>
       <r>   -3.2520    1.0000 </r>
       <r>   -3.1805    1.0000 </r>
       <r>   -3.1690    1.0000 </r>
       <r>   -3.1523    1.0000 </r>
       <r>   -3.1335    1.0000 </r>
       <r>   -3.0932    1.0000 </r>
       <r>   -3.0703    1.0000 </r>
       <r>   -3.0668    1.0000 </r>
       <r>   -3.0321    1.0000 </r>
       <r>   -3.0032    1.0000 </r>
       <r>   -2.9623    1.0000 </r>
       <r>   -2.9581    1.0000 </r>
       <r>   -2.9357    1.0000 </r>
       <r>   -2.9285    1.0000 </r>
       <r>   -2.9087    1.0000 </r>
       <r>   -2.8978    1.0000 </r>
       <r>   -2.8680    1.0000 </r>
       <r>   -2.8218    1.0000 </r>
       <r>   -2.7990    1.0000 </r>
       <r>   -2.7887    1.0000 </r>
       <r>   -2.7723    1.0000 </r>
       <r>   -2.7546    1.0000 </r>
       <r>   -2.7300    1.0000 </r>
       <r>   -2.7205    1.0000 </r>
       <r>   -2.7056    1.0000 </r>
       <r>   -2.6885    1.0000 </r>
       <r>   -2.6139    1.0000 </r>
       <r>   -2.5613    1.0000 </r>
       <r>   -2.5425    1.0000 </r>
       <r>   -2.5231    1.0000 </r>
       <r>   -2.5129    1.0000 </r>
       <r>   -2.5039    1.0000 </r>
       <r>   -2.4978    1.0000 </r>
       <r>   -2.4890    1.0000 </r>
       <r>   -2.4470    1.0000 </r>
       <r>   -2.4320    1.0000 </r>
       <r>   -2.4284    1.0000 </r>
       <r>   -2.4192    1.0000 </r>
       <r>   -2.1752    1.0000 </r>
       <r>   -2.0862    1.0000 </r>
       <r>   -2.0536    1.0000 </r>
       <r>   -2.0121    1.0000 </r>
       <r>   -2.0021    1.0000 </r>
       <r>   -1.9937    1.0000 </r>
       <r>   -1.9823    1.0000 </r>
       <r>   -1.9461    1.0000 </r>
       <r>   -1.9419    1.0000 </r>
       <r>   -1.8830    1.0000 </r>
       <r>   -1.8059    1.0000 </r>
       <r>   -1.7857    1.0000 </r>
       <r>   -1.7170    1.0000 </r>
       <r>   -1.6627    1.0000 </r>
       <r>   -1.6515    1.0000 </r>
       <r>   -1.6140    1.0000 </r>
       <r>   -1.5905    1.0000 </r>
       <r>   -1.5775    1.0000 </r>
       <r>   -1.5469    1.0000 </r>
       <r>   -1.5324    1.0000 </r>
       <r>   -1.5268    1.0000 </r>
       <r>   -1.4443    1.0000 </r>
       <r>   -1.4104    1.0000 </r>
       <r>   -1.3946    1.0000 </r>
       <r>   -1.3845    1.0000 </r>
       <r>   -1.3774    1.0000 </r>
       <r>   -1.2802    1.0000 </r>
       <r>   -1.1975    1.0000 </r>
       <r>   -1.1796    1.0000 </r>
       <r>   -1.1663    1.0000 </r>
       <r>   -1.1535    1.0000 </r>
       <r>   -1.1414    1.0000 </r>
       <r>   -1.1156    1.0000 </r>
       <r>   -1.0687    1.0000 </r>
       <r>   -1.0331    1.0000 </r>
       <r>   -1.0069    1.0000 </r>
       <r>   -0.9904    1.0000 </r>
       <r>   -0.9822    1.0000 </r>
       <r>   -0.9320    1.0000 </r>
       <r>   -0.9170    1.0000 </r>
       <r>   -0.9074    1.0000 </r>
       <r>   -0.8997    1.0000 </r>
       <r>   -0.8191    1.0000 </r>
       <r>   -0.7940    1.0000 </r>
       <r>   -0.7750    1.0000 </r>
       <r>   -0.7597    1.0000 </r>
       <r>   -0.7186    1.0000 </r>
       <r>   -0.6703    1.0000 </r>
       <r>   -0.6434    1.0000 </r>
       <r>   -0.6233    1.0000 </r>
       <r>   -0.6086    1.0000 </r>
       <r>   -0.5978    1.0000 </r>
       <r>   -0.5690    1.0000 </r>
       <r>   -0.5443    1.0000 </r>
       <r>   -0.4837    1.0000 </r>
       <r>   -0.4739    1.0000 </r>
       <r>   -0.4219    1.0000 </r>
       <r>   -0.4053    1.0000 </r>
       <r>   -0.3905    1.0000 </r>
       <r>   -0.3835    1.0001 </r>
       <r>   -0.3567    1.0003 </r>
       <r>   -0.3527    1.0003 </r>
       <r>   -0.3485    1.0004 </r>
       <r>   -0.3401    1.0006 </r>
       <r>   -0.3291    1.0010 </r>
       <r>   -0.2755    1.0081 </r>
       <r>   -0.2720    1.0090 </r>
       <r>   -0.1372    0.9265 </r>
       <r>   -0.1232    0.8561 </r>
       <r>   -0.1018    0.7126 </r>
       <r>   -0.0849    0.5777 </r>
       <r>   -0.0679    0.4341 </r>
       <r>   -0.0667    0.4244 </r>
       <r>   -0.0331    0.1730 </r>
       <r>   -0.0197    0.0986 </r>
       <r>   -0.0008    0.0241 </r>
       <r>    0.0067    0.0039 </r>
       <r>    0.0724   -0.0285 </r>
       <r>    0.1076   -0.0132 </r>
       <r>    0.1294   -0.0068 </r>
       <r>    0.1863   -0.0007 </r>
       <r>    0.2936   -0.0000 </r>
       <r>    0.2978   -0.0000 </r>
       <r>    0.3102   -0.0000 </r>
       <r>    0.3507   -0.0000 </r>
       <r>    0.6909   -0.0000 </r>
       <r>    0.7485   -0.0000 </r>
       <r>    1.2265   -0.0000 </r>
       <r>    1.4588   -0.0000 </r>
       <r>    1.4823   -0.0000 </r>
       <r>    1.6017   -0.0000 </r>
       <r>    2.3534   -0.0000 </r>
       <r>    2.7964    0.0000 </r>
       <r>    2.9031    0.0000 </r>
       <r>    3.5133    0.0000 </r>
       <r>    3.6514    0.0000 </r>
       <r>    3.6619    0.0000 </r>
       <r>    3.7352    0.0000 </r>
       <r>    3.9565    0.0000 </r>
       <r>    4.3865    0.0000 </r>
       <r>    4.6052    0.0000 </r>
       <r>    4.7225    0.0000 </r>
       <r>    4.9590    0.0000 </r>
       <r>    4.9831    0.0000 </r>
       <r>    4.9969    0.0000 </r>
       <r>    5.2041    0.0000 </r>
       <r>    5.2564    0.0000 </r>
       <r>    5.4582    0.0000 </r>
       <r>    5.6342    0.0000 </r>
       <r>    5.7082    0.0000 </r>
       <r>    5.8176    0.0000 </r>
       <r>    5.9036    0.0000 </r>
       <r>    6.0942    0.0000 </r>
       <r>    6.2120    0.0000 </r>
       <r>    6.2227    0.0000 </r>
       <r>    6.3223    0.0000 </r>
       <r>    6.3462    0.0000 </r>
       <r>    6.5710    0.0000 </r>
       <r>    6.6985    0.0000 </r>
       <r>    6.7373    0.0000 </r>
       <r>    6.7799    0.0000 </r>
       <r>    6.8546    0.0000 </r>
       <r>    6.8938    0.0000 </r>
       <r>    7.0344    0.0000 </r>
       <r>    7.2300    0.0000 </r>
       <r>    7.4729    0.0000 </r>
       <r>    7.5213    0.0000 </r>
       <r>    7.5973    0.0000 </r>
      </set>
      <set comment="kpoint 4">
       <r>   -8.7437    1.0000 </r>
       <r>   -7.5896    1.0000 </r>
       <r>   -6.9941    1.0000 </r>
       <r>   -6.8056    1.0000 </r>
       <r>   -6.5587    1.0000 </r>
       <r>   -6.5493    1.0000 </r>
       <r>   -6.3578    1.0000 </r>
       <r>   -6.2594    1.0000 </r>
       <r>   -6.2175    1.0000 </r>
       <r>   -6.2120    1.0000 </r>
       <r>   -6.1343    1.0000 </r>
       <r>   -6.0010    1.0000 </r>
       <r>   -5.9212    1.0000 </r>
       <r>   -5.8468    1.0000 </r>
       <r>   -5.8277    1.0000 </r>
       <r>   -5.8212    1.0000 </r>
       <r>   -5.7565    1.0000 </r>
       <r>   -5.5325    1.0000 </r>
       <r>   -5.4178    1.0000 </r>
       <r>   -5.4102    1.0000 </r>
       <r>   -5.4019    1.0000 </r>
       <r>   -5.3681    1.0000 </r>
       <r>   -5.3297    1.0000 </r>
       <r>   -5.2972    1.0000 </r>
       <r>   -5.2723    1.0000 </r>
       <r>   -5.2470    1.0000 </r>
       <r>   -5.2137    1.0000 </r>
       <r>   -5.2101    1.0000 </r>
       <r>   -5.1400    1.0000 </r>
       <r>   -5.1113    1.0000 </r>
       <r>   -5.1034    1.0000 </r>
       <r>   -5.0298    1.0000 </r>
       <r>   -5.0134    1.0000 </r>
       <r>   -5.0075    1.0000 </r>
       <r>   -5.0046    1.0000 </r>
       <r>   -4.8589    1.0000 </r>
       <r>   -4.8065    1.0000 </r>
       <r>   -4.7769    1.0000 </r>
       <r>   -4.7681    1.0000 </r>
       <r>   -4.7563    1.0000 </r>
       <r>   -4.6036    1.0000 </r>
       <r>   -4.4985    1.0000 </r>
       <r>   -4.4903    1.0000 </r>
       <r>   -4.4585    1.0000 </r>
       <r>   -4.4132    1.0000 </r>
       <r>   -4.3959    1.0000 </r>
       <r>   -4.3849    1.0000 </r>
       <r>   -4.3276    1.0000 </r>
       <r>   -4.2091    1.0000 </r>
       <r>   -4.1762    1.0000 </r>
       <r>   -4.1236    1.0000 </r>
       <r>   -4.1090    1.0000 </r>
       <r>   -4.0701    1.0000 </r>
       <r>   -4.0519    1.0000 </r>
       <r>   -4.0407    1.0000 </r>
       <r>   -3.8327    1.0000 </r>
       <r>   -3.7334    1.0000 </r>
       <r>   -3.7306    1.0000 </r>
       <r>   -3.6807    1.0000 </r>
       <r>   -3.6581    1.0000 </r>
       <r>   -3.6197    1.0000 </r>
       <r>   -3.5862    1.0000 </r>
       <r>   -3.5636    1.0000 </r>
       <r>   -3.5446    1.0000 </r>
       <r>   -3.5269    1.0000 </r>
       <r>   -3.5241    1.0000 </r>
       <r>   -3.4877    1.0000 </r>
       <r>   -3.4457    1.0000 </r>
       <r>   -3.4035    1.0000 </r>
       <r>   -3.3754    1.0000 </r>
       <r>   -3.3617    1.0000 </r>
       <r>   -3.3516    1.0000 </r>
       <r>   -3.2672    1.0000 </r>
       <r>   -3.2608    1.0000 </r>
       <r>   -3.2376    1.0000 </r>
       <r>   -3.1816    1.0000 </r>
       <r>   -3.1712    1.0000 </r>
       <r>   -3.1548    1.0000 </r>
       <r>   -3.1323    1.0000 </r>
       <r>   -3.0941    1.0000 </r>
       <r>   -3.0787    1.0000 </r>
       <r>   -3.0732    1.0000 </r>
       <r>   -3.0263    1.0000 </r>
       <r>   -3.0018    1.0000 </r>
       <r>   -2.9613    1.0000 </r>
       <r>   -2.9580    1.0000 </r>
       <r>   -2.9366    1.0000 </r>
       <r>   -2.9290    1.0000 </r>
       <r>   -2.9066    1.0000 </r>
       <r>   -2.8973    1.0000 </r>
       <r>   -2.8711    1.0000 </r>
       <r>   -2.8222    1.0000 </r>
       <r>   -2.8044    1.0000 </r>
       <r>   -2.7824    1.0000 </r>
       <r>   -2.7771    1.0000 </r>
       <r>   -2.7538    1.0000 </r>
       <r>   -2.7284    1.0000 </r>
       <r>   -2.7211    1.0000 </r>
       <r>   -2.7008    1.0000 </r>
       <r>   -2.6877    1.0000 </r>
       <r>   -2.6137    1.0000 </r>
       <r>   -2.5609    1.0000 </r>
       <r>   -2.5457    1.0000 </r>
       <r>   -2.5254    1.0000 </r>
       <r>   -2.5113    1.0000 </r>
       <r>   -2.5026    1.0000 </r>
       <r>   -2.4980    1.0000 </r>
       <r>   -2.4897    1.0000 </r>
       <r>   -2.4464    1.0000 </r>
       <r>   -2.4356    1.0000 </r>
       <r>   -2.4308    1.0000 </r>
       <r>   -2.4170    1.0000 </r>
       <r>   -2.1775    1.0000 </r>
       <r>   -2.0870    1.0000 </r>
       <r>   -2.0574    1.0000 </r>
       <r>   -2.0118    1.0000 </r>
       <r>   -1.9991    1.0000 </r>
       <r>   -1.9916    1.0000 </r>
       <r>   -1.9813    1.0000 </r>
       <r>   -1.9477    1.0000 </r>
       <r>   -1.9387    1.0000 </r>
       <r>   -1.8879    1.0000 </r>
       <r>   -1.8063    1.0000 </r>
       <r>   -1.7835    1.0000 </r>
       <r>   -1.7141    1.0000 </r>
       <r>   -1.6629    1.0000 </r>
       <r>   -1.6493    1.0000 </r>
       <r>   -1.6153    1.0000 </r>
       <r>   -1.5916    1.0000 </r>
       <r>   -1.5764    1.0000 </r>
       <r>   -1.5454    1.0000 </r>
       <r>   -1.5294    1.0000 </r>
       <r>   -1.5262    1.0000 </r>
       <r>   -1.4414    1.0000 </r>
       <r>   -1.4118    1.0000 </r>
       <r>   -1.3939    1.0000 </r>
       <r>   -1.3857    1.0000 </r>
       <r>   -1.3775    1.0000 </r>
       <r>   -1.2714    1.0000 </r>
       <r>   -1.1970    1.0000 </r>
       <r>   -1.1789    1.0000 </r>
       <r>   -1.1676    1.0000 </r>
       <r>   -1.1557    1.0000 </r>
       <r>   -1.1442    1.0000 </r>
       <r>   -1.1158    1.0000 </r>
       <r>   -1.0701    1.0000 </r>
       <r>   -1.0361    1.0000 </r>
       <r>   -1.0092    1.0000 </r>
       <r>   -0.9912    1.0000 </r>
       <r>   -0.9840    1.0000 </r>
       <r>   -0.9347    1.0000 </r>
       <r>   -0.9155    1.0000 </r>
       <r>   -0.9088    1.0000 </r>
       <r>   -0.9000    1.0000 </r>
       <r>   -0.8177    1.0000 </r>
       <r>   -0.7949    1.0000 </r>
       <r>   -0.7749    1.0000 </r>
       <r>   -0.7617    1.0000 </r>
       <r>   -0.7133    1.0000 </r>
       <r>   -0.6693    1.0000 </r>
       <r>   -0.6470    1.0000 </r>
       <r>   -0.6202    1.0000 </r>
       <r>   -0.6085    1.0000 </r>
       <r>   -0.5965    1.0000 </r>
       <r>   -0.5636    1.0000 </r>
       <r>   -0.5425    1.0000 </r>
       <r>   -0.4838    1.0000 </r>
       <r>   -0.4748    1.0000 </r>
       <r>   -0.4213    1.0000 </r>
       <r>   -0.4072    1.0000 </r>
       <r>   -0.3889    1.0000 </r>
       <r>   -0.3809    1.0001 </r>
       <r>   -0.3587    1.0002 </r>
       <r>   -0.3536    1.0003 </r>
       <r>   -0.3479    1.0004 </r>
       <r>   -0.3387    1.0006 </r>
       <r>   -0.3312    1.0009 </r>
       <r>   -0.2717    1.0091 </r>
       <r>   -0.2683    1.0101 </r>
       <r>   -0.1336    0.9104 </r>
       <r>   -0.1220    0.8491 </r>
       <r>   -0.1052    0.7378 </r>
       <r>   -0.0863    0.5891 </r>
       <r>   -0.0705    0.4556 </r>
       <r>   -0.0669    0.4257 </r>
       <r>   -0.0363    0.1936 </r>
       <r>   -0.0190    0.0951 </r>
       <r>   -0.0049    0.0375 </r>
       <r>    0.0016    0.0170 </r>
       <r>    0.0750   -0.0274 </r>
       <r>    0.1078   -0.0131 </r>
       <r>    0.1292   -0.0068 </r>
       <r>    0.1865   -0.0007 </r>
       <r>    0.2909   -0.0000 </r>
       <r>    0.2971   -0.0000 </r>
       <r>    0.3090   -0.0000 </r>
       <r>    0.3567   -0.0000 </r>
       <r>    0.6874   -0.0000 </r>
       <r>    0.7422   -0.0000 </r>
       <r>    1.2287   -0.0000 </r>
       <r>    1.4578   -0.0000 </r>
       <r>    1.4840   -0.0000 </r>
       <r>    1.6054   -0.0000 </r>
       <r>    2.3531   -0.0000 </r>
       <r>    2.8027    0.0000 </r>
       <r>    2.8979    0.0000 </r>
       <r>    3.5100    0.0000 </r>
       <r>    3.6518    0.0000 </r>
       <r>    3.6625    0.0000 </r>
       <r>    3.7336    0.0000 </r>
       <r>    3.9525    0.0000 </r>
       <r>    4.3870    0.0000 </r>
       <r>    4.6062    0.0000 </r>
       <r>    4.7269    0.0000 </r>
       <r>    4.9623    0.0000 </r>
       <r>    4.9837    0.0000 </r>
       <r>    4.9949    0.0000 </r>
       <r>    5.2089    0.0000 </r>
       <r>    5.2601    0.0000 </r>
       <r>    5.4516    0.0000 </r>
       <r>    5.6286    0.0000 </r>
       <r>    5.7120    0.0000 </r>
       <r>    5.8239    0.0000 </r>
       <r>    5.9000    0.0000 </r>
       <r>    6.0963    0.0000 </r>
       <r>    6.2134    0.0000 </r>
       <r>    6.2235    0.0000 </r>
       <r>    6.3209    0.0000 </r>
       <r>    6.3400    0.0000 </r>
       <r>    6.5724    0.0000 </r>
       <r>    6.6933    0.0000 </r>
       <r>    6.7383    0.0000 </r>
       <r>    6.7813    0.0000 </r>
       <r>    6.8463    0.0000 </r>
       <r>    6.8947    0.0000 </r>
       <r>    7.0344    0.0000 </r>
       <r>    7.2261    0.0000 </r>
       <r>    7.4780    0.0000 </r>
       <r>    7.5345    0.0000 </r>
       <r>    7.5977    0.0000 </r>
      </set>
      <set comment="kpoint 5">
       <r>   -8.3164    1.0000 </r>
       <r>   -7.6775    1.0000 </r>
       <r>   -7.2199    1.0000 </r>
       <r>   -6.7568    1.0000 </r>
       <r>   -6.5835    1.0000 </r>
       <r>   -6.5603    1.0000 </r>
       <r>   -6.3653    1.0000 </r>
       <r>   -6.2372    1.0000 </r>
       <r>   -6.0838    1.0000 </r>
       <r>   -5.9724    1.0000 </r>
       <r>   -5.8751    1.0000 </r>
       <r>   -5.8697    1.0000 </r>
       <r>   -5.8453    1.0000 </r>
       <r>   -5.7081    1.0000 </r>
       <r>   -5.6643    1.0000 </r>
       <r>   -5.6531    1.0000 </r>
       <r>   -5.6448    1.0000 </r>
       <r>   -5.6249    1.0000 </r>
       <r>   -5.5111    1.0000 </r>
       <r>   -5.4794    1.0000 </r>
       <r>   -5.4784    1.0000 </r>
       <r>   -5.4313    1.0000 </r>
       <r>   -5.4299    1.0000 </r>
       <r>   -5.4231    1.0000 </r>
       <r>   -5.3443    1.0000 </r>
       <r>   -5.3120    1.0000 </r>
       <r>   -5.3060    1.0000 </r>
       <r>   -5.2673    1.0000 </r>
       <r>   -5.0569    1.0000 </r>
       <r>   -5.0492    1.0000 </r>
       <r>   -5.0365    1.0000 </r>
       <r>   -5.0298    1.0000 </r>
       <r>   -5.0218    1.0000 </r>
       <r>   -4.9366    1.0000 </r>
       <r>   -4.7992    1.0000 </r>
       <r>   -4.7906    1.0000 </r>
       <r>   -4.7811    1.0000 </r>
       <r>   -4.7547    1.0000 </r>
       <r>   -4.7315    1.0000 </r>
       <r>   -4.6545    1.0000 </r>
       <r>   -4.5484    1.0000 </r>
       <r>   -4.4789    1.0000 </r>
       <r>   -4.4638    1.0000 </r>
       <r>   -4.4567    1.0000 </r>
       <r>   -4.4101    1.0000 </r>
       <r>   -4.3949    1.0000 </r>
       <r>   -4.3616    1.0000 </r>
       <r>   -4.3189    1.0000 </r>
       <r>   -4.3089    1.0000 </r>
       <r>   -4.2807    1.0000 </r>
       <r>   -4.2584    1.0000 </r>
       <r>   -4.2256    1.0000 </r>
       <r>   -4.0866    1.0000 </r>
       <r>   -4.0847    1.0000 </r>
       <r>   -4.0686    1.0000 </r>
       <r>   -4.0130    1.0000 </r>
       <r>   -3.9413    1.0000 </r>
       <r>   -3.9088    1.0000 </r>
       <r>   -3.8672    1.0000 </r>
       <r>   -3.8637    1.0000 </r>
       <r>   -3.8029    1.0000 </r>
       <r>   -3.7181    1.0000 </r>
       <r>   -3.6637    1.0000 </r>
       <r>   -3.6576    1.0000 </r>
       <r>   -3.6501    1.0000 </r>
       <r>   -3.6029    1.0000 </r>
       <r>   -3.5522    1.0000 </r>
       <r>   -3.5442    1.0000 </r>
       <r>   -3.4771    1.0000 </r>
       <r>   -3.4306    1.0000 </r>
       <r>   -3.4140    1.0000 </r>
       <r>   -3.3957    1.0000 </r>
       <r>   -3.3670    1.0000 </r>
       <r>   -3.2978    1.0000 </r>
       <r>   -3.2924    1.0000 </r>
       <r>   -3.2599    1.0000 </r>
       <r>   -3.2497    1.0000 </r>
       <r>   -3.2468    1.0000 </r>
       <r>   -3.1897    1.0000 </r>
       <r>   -3.1649    1.0000 </r>
       <r>   -3.1584    1.0000 </r>
       <r>   -3.1511    1.0000 </r>
       <r>   -3.1245    1.0000 </r>
       <r>   -3.1182    1.0000 </r>
       <r>   -3.1030    1.0000 </r>
       <r>   -3.0962    1.0000 </r>
       <r>   -3.0592    1.0000 </r>
       <r>   -2.9919    1.0000 </r>
       <r>   -2.9752    1.0000 </r>
       <r>   -2.9733    1.0000 </r>
       <r>   -2.9537    1.0000 </r>
       <r>   -2.9471    1.0000 </r>
       <r>   -2.9300    1.0000 </r>
       <r>   -2.8440    1.0000 </r>
       <r>   -2.7882    1.0000 </r>
       <r>   -2.7825    1.0000 </r>
       <r>   -2.7422    1.0000 </r>
       <r>   -2.7361    1.0000 </r>
       <r>   -2.7152    1.0000 </r>
       <r>   -2.6996    1.0000 </r>
       <r>   -2.6512    1.0000 </r>
       <r>   -2.6426    1.0000 </r>
       <r>   -2.5681    1.0000 </r>
       <r>   -2.5499    1.0000 </r>
       <r>   -2.4967    1.0000 </r>
       <r>   -2.4824    1.0000 </r>
       <r>   -2.4546    1.0000 </r>
       <r>   -2.4293    1.0000 </r>
       <r>   -2.3930    1.0000 </r>
       <r>   -2.2785    1.0000 </r>
       <r>   -2.2658    1.0000 </r>
       <r>   -2.1784    1.0000 </r>
       <r>   -2.1737    1.0000 </r>
       <r>   -2.1132    1.0000 </r>
       <r>   -2.1100    1.0000 </r>
       <r>   -2.0655    1.0000 </r>
       <r>   -2.0552    1.0000 </r>
       <r>   -2.0525    1.0000 </r>
       <r>   -2.0456    1.0000 </r>
       <r>   -2.0076    1.0000 </r>
       <r>   -1.9920    1.0000 </r>
       <r>   -1.9511    1.0000 </r>
       <r>   -1.9454    1.0000 </r>
       <r>   -1.9373    1.0000 </r>
       <r>   -1.9062    1.0000 </r>
       <r>   -1.9029    1.0000 </r>
       <r>   -1.8754    1.0000 </r>
       <r>   -1.8561    1.0000 </r>
       <r>   -1.8248    1.0000 </r>
       <r>   -1.7205    1.0000 </r>
       <r>   -1.7073    1.0000 </r>
       <r>   -1.6901    1.0000 </r>
       <r>   -1.6353    1.0000 </r>
       <r>   -1.6334    1.0000 </r>
       <r>   -1.5171    1.0000 </r>
       <r>   -1.4948    1.0000 </r>
       <r>   -1.4295    1.0000 </r>
       <r>   -1.3882    1.0000 </r>
       <r>   -1.3489    1.0000 </r>
       <r>   -1.3013    1.0000 </r>
       <r>   -1.2460    1.0000 </r>
       <r>   -1.2132    1.0000 </r>
       <r>   -1.1683    1.0000 </r>
       <r>   -1.1614    1.0000 </r>
       <r>   -1.1415    1.0000 </r>
       <r>   -1.1190    1.0000 </r>
       <r>   -1.0886    1.0000 </r>
       <r>   -1.0624    1.0000 </r>
       <r>   -1.0378    1.0000 </r>
       <r>   -1.0213    1.0000 </r>
       <r>   -0.9562    1.0000 </r>
       <r>   -0.9543    1.0000 </r>
       <r>   -0.9065    1.0000 </r>
       <r>   -0.8721    1.0000 </r>
       <r>   -0.8493    1.0000 </r>
       <r>   -0.8454    1.0000 </r>
       <r>   -0.8370    1.0000 </r>
       <r>   -0.7950    1.0000 </r>
       <r>   -0.7150    1.0000 </r>
       <r>   -0.6533    1.0000 </r>
       <r>   -0.6008    1.0000 </r>
       <r>   -0.5906    1.0000 </r>
       <r>   -0.5585    1.0000 </r>
       <r>   -0.5481    1.0000 </r>
       <r>   -0.5031    1.0000 </r>
       <r>   -0.4636    1.0000 </r>
       <r>   -0.4446    1.0000 </r>
       <r>   -0.3855    1.0001 </r>
       <r>   -0.3568    1.0003 </r>
       <r>   -0.3509    1.0004 </r>
       <r>   -0.3373    1.0007 </r>
       <r>   -0.2842    1.0060 </r>
       <r>   -0.2617    1.0122 </r>
       <r>   -0.2535    1.0153 </r>
       <r>   -0.2263    1.0274 </r>
       <r>   -0.1248    0.8652 </r>
       <r>   -0.1154    0.8085 </r>
       <r>   -0.0963    0.6699 </r>
       <r>   -0.0934    0.6471 </r>
       <r>   -0.0878    0.6013 </r>
       <r>   -0.0783    0.5221 </r>
       <r>   -0.0544    0.3240 </r>
       <r>   -0.0409    0.2242 </r>
       <r>    0.1286   -0.0069 </r>
       <r>    0.1483   -0.0034 </r>
       <r>    0.1545   -0.0027 </r>
       <r>    0.1698   -0.0014 </r>
[...]
       <r>    6.9017    0.0000 </r>
       <r>    6.9161    0.0000 </r>
       <r>    7.0645    0.0000 </r>
       <r>    7.2252    0.0000 </r>
       <r>    7.3123    0.0000 </r>
      </set>
     </set>
    </set>
   </array>
  </eigenvalues>
  <separator name="orbital magnetization" >
   <v name="MAGDIPOLOUT">      0.00000000      0.00000000      0.00000000</v>
  </separator>
  <dos>
   <i name="efermi">     -0.07571996 </i>
   <total>
    <array>
     <dimension dim="1">gridpoints</dimension>
     <dimension dim="2">spin</dimension>
     <field>energy</field>
     <field>total</field>
     <field>integrated</field>
     <set>
      <set comment="spin 1">
       <r>    -9.8917     0.0000     0.0000 </r>
       <r>    -9.8300     0.0000     0.0000 </r>
       <r>    -9.7683     0.0000     0.0000 </r>
       <r>    -9.7066    -0.0000    -0.0000 </r>
       <r>    -9.6449    -0.0000    -0.0000 </r>
       <r>    -9.5832    -0.0000    -0.0000 </r>
       <r>    -9.5216    -0.0000    -0.0000 </r>
       <r>    -9.4599    -0.0000    -0.0000 </r>
       <r>    -9.3982    -0.0000    -0.0000 </r>
       <r>    -9.3365    -0.0000    -0.0000 </r>
       <r>    -9.2748    -0.0000    -0.0000 </r>
       <r>    -9.2131    -0.0000    -0.0000 </r>
       <r>    -9.1514    -0.0009    -0.0001 </r>
       <r>    -9.0898    -0.0101    -0.0007 </r>
       <r>    -9.0281    -0.0334    -0.0027 </r>
       <r>    -8.9664     0.0487     0.0003 </r>
       <r>    -8.9047     0.3271     0.0204 </r>
       <r>    -8.8430     0.5960     0.0572 </r>
       <r>    -8.7813     1.9997     0.1806 </r>
       <r>    -8.7197     3.8030     0.4151 </r>
       <r>    -8.6580     2.3162     0.5580 </r>
       <r>    -8.5963     0.0085     0.5585 </r>
       <r>    -8.5346     0.1385     0.5671 </r>
       <r>    -8.4729     2.4782     0.7199 </r>
       <r>    -8.4112     3.8072     0.9548 </r>
       <r>    -8.3495     3.5335     1.1728 </r>
       <r>    -8.2879     3.7685     1.4052 </r>
       <r>    -8.2262     1.9908     1.5280 </r>
       <r>    -8.1645     0.0503     1.5311 </r>
       <r>    -8.1028    -0.3499     1.5095 </r>
       <r>    -8.0411    -0.3460     1.4882 </r>
       <r>    -7.9794     1.8072     1.5997 </r>
       <r>    -7.9177     6.5623     2.0045 </r>
       <r>    -7.8561     6.3391     2.3955 </r>
       <r>    -7.7944     1.6232     2.4956 </r>
       <r>    -7.7327     1.2749     2.5743 </r>
       <r>    -7.6710     4.3195     2.8407 </r>
       <r>    -7.6093     5.5373     3.1823 </r>
       <r>    -7.5476     4.1295     3.4370 </r>
       <r>    -7.4860     1.2001     3.5110 </r>
       <r>    -7.4243     0.8755     3.5650 </r>
       <r>    -7.3626     4.4536     3.8398 </r>
       <r>    -7.3009     7.2983     4.2900 </r>
       <r>    -7.2392     9.8173     4.8955 </r>
       <r>    -7.1775    11.0748     5.5787 </r>
       <r>    -7.1158     5.5509     5.9211 </r>
       <r>    -7.0542     2.9429     6.1026 </r>
       <r>    -6.9925     6.3620     6.4951 </r>
       <r>    -6.9308     5.6879     6.8459 </r>
       <r>    -6.8691     2.5655     7.0042 </r>
       <r>    -6.8074     4.0724     7.2554 </r>
       <r>    -6.7457     7.9093     7.7433 </r>
       <r>    -6.6840     9.9979     8.3600 </r>
       <r>    -6.6224    10.8636     9.0301 </r>
       <r>    -6.5607    14.3781     9.9170 </r>
       <r>    -6.4990    13.3983    10.7435 </r>
       <r>    -6.4373     9.1424    11.3074 </r>
       <r>    -6.3756    10.5543    11.9585 </r>
       <r>    -6.3139    10.9083    12.6314 </r>
       <r>    -6.2523    11.4355    13.3368 </r>
       <r>    -6.1906    19.4181    14.5346 </r>
       <r>    -6.1289    32.0618    16.5123 </r>
       <r>    -6.0672    36.6530    18.7732 </r>
       <r>    -6.0055    30.7779    20.6718 </r>
       <r>    -5.9438    29.3636    22.4831 </r>
       <r>    -5.8821    32.6117    24.4947 </r>
       <r>    -5.8205    35.0522    26.6569 </r>
       <r>    -5.7588    29.7721    28.4934 </r>
       <r>    -5.6971    26.9957    30.1586 </r>
       <r>    -5.6354    33.5680    32.2293 </r>
       <r>    -5.5737    40.2851    34.7143 </r>
       <r>    -5.5120    43.1320    37.3749 </r>
       <r>    -5.4503    51.3460    40.5421 </r>
       <r>    -5.3887    62.2519    44.3821 </r>
       <r>    -5.3270    62.4583    48.2349 </r>
       <r>    -5.2653    55.4193    51.6534 </r>
       <r>    -5.2036    48.2106    54.6273 </r>
       <r>    -5.1419    43.5900    57.3161 </r>
       <r>    -5.0802    49.3661    60.3613 </r>
       <r>    -5.0186    68.2404    64.5707 </r>
       <r>    -4.9569    62.0719    68.3996 </r>
       <r>    -4.8952    33.0460    70.4380 </r>
       <r>    -4.8335    25.2027    71.9927 </r>
       <r>    -4.7718    40.6533    74.5004 </r>
       <r>    -4.7101    38.6147    76.8823 </r>
       <r>    -4.6484    22.0373    78.2417 </r>
       <r>    -4.5868    25.4069    79.8089 </r>
       <r>    -4.5251    43.3674    82.4840 </r>
       <r>    -4.4634    58.6228    86.1002 </r>
       <r>    -4.4017    62.0350    89.9268 </r>
       <r>    -4.3400    53.8204    93.2467 </r>
       <r>    -4.2783    47.2732    96.1628 </r>
       <r>    -4.2166    45.3507    98.9602 </r>
       <r>    -4.1550    45.3473   101.7575 </r>
       <r>    -4.0933    55.8762   105.2042 </r>
       <r>    -4.0316    59.0003   108.8436 </r>
       <r>    -3.9699    46.8216   111.7318 </r>
       <r>    -3.9082    40.5653   114.2341 </r>
       <r>    -3.8465    39.2817   116.6572 </r>
       <r>    -3.7849    36.3225   118.8977 </r>
       <r>    -3.7232    41.0680   121.4310 </r>
       <r>    -3.6615    58.7547   125.0553 </r>
       <r>    -3.5998    64.8848   129.0577 </r>
       <r>    -3.5381    58.3465   132.6568 </r>
       <r>    -3.4764    57.3122   136.1921 </r>
       <r>    -3.4147    68.2334   140.4011 </r>
       <r>    -3.3531    77.5797   145.1866 </r>
       <r>    -3.2914    74.5072   149.7826 </r>
       <r>    -3.2297    68.3360   153.9979 </r>
       <r>    -3.1680    72.2260   158.4531 </r>
       <r>    -3.1063    85.6428   163.7360 </r>
       <r>    -3.0446    83.0989   168.8620 </r>
       <r>    -2.9830    75.0610   173.4921 </r>
       <r>    -2.9213    78.0491   178.3065 </r>
       <r>    -2.8596    76.5450   183.0282 </r>
       <r>    -2.7979    84.2654   188.2261 </r>
       <r>    -2.7362   103.0485   194.5827 </r>
       <r>    -2.6745   105.6329   201.0986 </r>
       <r>    -2.6128    81.8431   206.1471 </r>
       <r>    -2.5512    61.0192   209.9111 </r>
       <r>    -2.4895    64.0115   213.8596 </r>
       <r>    -2.4278    60.5842   217.5968 </r>
       <r>    -2.3661    43.8512   220.3017 </r>
       <r>    -2.3044    29.6029   222.1278 </r>
       <r>    -2.2427    25.2014   223.6823 </r>
       <r>    -2.1810    31.2815   225.6119 </r>
       <r>    -2.1194    44.9067   228.3820 </r>
       <r>    -2.0577    65.3570   232.4136 </r>
       <r>    -1.9960    87.2076   237.7929 </r>
       <r>    -1.9343    91.3758   243.4295 </r>
       <r>    -1.8726    78.7654   248.2881 </r>
       <r>    -1.8109    59.8038   251.9771 </r>
       <r>    -1.7493    44.7562   254.7379 </r>
       <r>    -1.6876    43.4182   257.4161 </r>
       <r>    -1.6259    48.4220   260.4030 </r>
       <r>    -1.5642    56.0957   263.8633 </r>
       <r>    -1.5025    58.2563   267.4568 </r>
       <r>    -1.4408    55.6234   270.8880 </r>
       <r>    -1.3791    58.9121   274.5220 </r>
       <r>    -1.3175    59.0123   278.1621 </r>
       <r>    -1.2558    52.0540   281.3731 </r>
       <r>    -1.1941    55.2603   284.7818 </r>
       <r>    -1.1324    73.5264   289.3173 </r>
       <r>    -1.0707    85.2640   294.5768 </r>
       <r>    -1.0090    85.0901   299.8256 </r>
       <r>    -0.9473    70.0144   304.1444 </r>
       <r>    -0.8857    57.2937   307.6786 </r>
       <r>    -0.8240    57.9776   311.2549 </r>
       <r>    -0.7623    51.0522   314.4041 </r>
       <r>    -0.7006    41.5534   316.9673 </r>
       <r>    -0.6389    51.2282   320.1273 </r>
       <r>    -0.5772    63.2599   324.0295 </r>
       <r>    -0.5156    60.6586   327.7712 </r>
       <r>    -0.4539    60.1798   331.4834 </r>
       <r>    -0.3922    69.4216   335.7657 </r>
       <r>    -0.3305    87.1380   341.1408 </r>
       <r>    -0.2688    93.9943   346.9388 </r>
       <r>    -0.2071    71.5215   351.3506 </r>
       <r>    -0.1454    57.3723   354.8896 </r>
       <r>    -0.0838    85.8464   360.1851 </r>
       <r>    -0.0221    95.4741   366.0744 </r>
       <r>     0.0396    55.0420   369.4697 </r>
       <r>     0.1013    32.4343   371.4704 </r>
       <r>     0.1630    51.9079   374.6723 </r>
       <r>     0.2247    57.1099   378.1951 </r>
       <r>     0.2864    43.4759   380.8769 </r>
       <r>     0.3480    37.0459   383.1621 </r>
       <r>     0.4097    26.4403   384.7931 </r>
       <r>     0.4714    13.7339   385.6403 </r>
       <r>     0.5331     5.6690   385.9900 </r>
       <r>     0.5948     2.9610   386.1726 </r>
       <r>     0.6565     4.4324   386.4460 </r>
       <r>     0.7181    10.8725   387.1167 </r>
       <r>     0.7798    15.5500   388.0759 </r>
       <r>     0.8415    11.0784   388.7592 </r>
       <r>     0.9032     7.3226   389.2109 </r>
       <r>     0.9649    10.7619   389.8748 </r>
       <r>     1.0266     9.9383   390.4878 </r>
       <r>     1.0883     4.0317   390.7365 </r>
       <r>     1.1499     4.6776   391.0251 </r>
       <r>     1.2116    10.5773   391.6775 </r>
       <r>     1.2733    12.6832   392.4599 </r>
       <r>     1.3350    11.4821   393.1682 </r>
       <r>     1.3967     9.9937   393.7846 </r>
       <r>     1.4584    13.7702   394.6340 </r>
       <r>     1.5201    25.8124   396.2263 </r>
       <r>     1.5817    26.3555   397.8520 </r>
       <r>     1.6434    18.7856   399.0108 </r>
       <r>     1.7051    16.1705   400.0083 </r>
       <r>     1.7668    10.2613   400.6413 </r>
       <r>     1.8285     1.9076   400.7589 </r>
       <r>     1.8902     1.8405   400.8725 </r>
       <r>     1.9518     6.5812   401.2784 </r>
       <r>     2.0135     7.5886   401.7465 </r>
       <r>     2.0752     4.6548   402.0337 </r>
       <r>     2.1369     3.4589   402.2470 </r>
       <r>     2.1986     8.3893   402.7645 </r>
       <r>     2.2603    11.6380   403.4824 </r>
       <r>     2.3220    10.9885   404.1602 </r>
       <r>     2.3836    14.5612   405.0584 </r>
       <r>     2.4453    21.2052   406.3665 </r>
       <r>     2.5070    20.7718   407.6478 </r>
       <r>     2.5687    11.2977   408.3447 </r>
       <r>     2.6304     6.3019   408.7334 </r>
       <r>     2.6921     7.1307   409.1733 </r>
       <r>     2.7538    12.4020   409.9383 </r>
       <r>     2.8154    19.1806   411.1214 </r>
       <r>     2.8771    17.1860   412.1816 </r>
       <r>     2.9388    11.6133   412.8979 </r>
       <r>     3.0005     7.7441   413.3756 </r>
       <r>     3.0622    10.8860   414.0471 </r>
       <r>     3.1239    15.3489   414.9939 </r>
       <r>     3.1855    12.5723   415.7694 </r>
       <r>     3.2472     9.6581   416.3652 </r>
       <r>     3.3089     7.5077   416.8283 </r>
       <r>     3.3706     3.1724   417.0240 </r>
       <r>     3.4323     2.1336   417.1556 </r>
       <r>     3.4940     6.5271   417.5582 </r>
       <r>     3.5557    11.5821   418.2727 </r>
       <r>     3.6173    17.0783   419.3262 </r>
       <r>     3.6790    22.8853   420.7378 </r>
       <r>     3.7407    21.5128   422.0648 </r>
       <r>     3.8024    12.2470   422.8203 </r>
       <r>     3.8641     5.0721   423.1332 </r>
       <r>     3.9258     3.6113   423.3559 </r>
       <r>     3.9875     4.7017   423.6460 </r>
       <r>     4.0491     6.6976   424.0591 </r>
       <r>     4.1108     8.0056   424.5529 </r>
       <r>     4.1725     7.1241   424.9924 </r>
       <r>     4.2342     5.0572   425.3043 </r>
       <r>     4.2959     4.5182   425.5830 </r>
       <r>     4.3576    12.9808   426.3838 </r>
       <r>     4.4192    25.4519   427.9538 </r>
       <r>     4.4809    21.0214   429.2505 </r>
       <r>     4.5426     9.0632   429.8095 </r>
       <r>     4.6043     7.6604   430.2820 </r>
       <r>     4.6660    11.5875   430.9968 </r>
       <r>     4.7277    14.5990   431.8974 </r>
       <r>     4.7894    12.5634   432.6723 </r>
       <r>     4.8510     7.6508   433.1443 </r>
       <r>     4.9127     5.9961   433.5141 </r>
       <r>     4.9744     9.5242   434.1016 </r>
       <r>     5.0361    10.6835   434.7607 </r>
       <r>     5.0978     7.7286   435.2374 </r>
       <r>     5.1595     8.5434   435.7644 </r>
       <r>     5.2212    11.8640   436.4962 </r>
       <r>     5.2828    13.1460   437.3071 </r>
       <r>     5.3445     9.2868   437.8800 </r>
       <r>     5.4062     7.1869   438.3233 </r>
       <r>     5.4679    14.3843   439.2106 </r>
       <r>     5.5296    22.2264   440.5816 </r>
       <r>     5.5913    23.6350   442.0396 </r>
       <r>     5.6529    23.3467   443.4797 </r>
       <r>     5.7146    25.6769   445.0636 </r>
       <r>     5.7763    25.0060   446.6061 </r>
       <r>     5.8380    17.8277   447.7058 </r>
       <r>     5.8997    14.4013   448.5941 </r>
       <r>     5.9614    22.9268   450.0084 </r>
       <r>     6.0231    31.6826   451.9627 </r>
       <r>     6.0847    26.2983   453.5849 </r>
       <r>     6.1464    15.6117   454.5479 </r>
       <r>     6.2081    16.0445   455.5376 </r>
       <r>     6.2698    22.6835   456.9369 </r>
       <r>     6.3315    28.2820   458.6814 </r>
       <r>     6.3932    26.3524   460.3070 </r>
       <r>     6.4549    15.9083   461.2883 </r>
       <r>     6.5165    15.3237   462.2335 </r>
       <r>     6.5782    26.3866   463.8612 </r>
       <r>     6.6399    29.5656   465.6849 </r>
       <r>     6.7016    25.8435   467.2791 </r>
       <r>     6.7633    21.9642   468.6340 </r>
       <r>     6.8250    16.5709   469.6561 </r>
       <r>     6.8866    17.5730   470.7401 </r>
       <r>     6.9483    18.8188   471.9010 </r>
       <r>     7.0100    13.3827   472.7265 </r>
       <r>     7.0717    14.9551   473.6490 </r>
       <r>     7.1334    22.7375   475.0515 </r>
       <r>     7.1951    23.7888   476.5189 </r>
       <r>     7.2568    18.3371   477.6501 </r>
       <r>     7.3184    10.3703   478.2898 </r>
       <r>     7.3801     3.1770   478.4857 </r>
       <r>     7.4418     2.3700   478.6319 </r>
       <r>     7.5035     6.3092   479.0211 </r>
       <r>     7.5652     7.5840   479.4889 </r>
       <r>     7.6269     5.8563   479.8502 </r>
       <r>     7.6886     2.5950   480.0102 </r>
       <r>     7.7502     0.1211   480.0177 </r>
       <r>     7.8119    -0.2290   480.0036 </r>
       <r>     7.8736    -0.0538   480.0003 </r>
       <r>     7.9353    -0.0043   480.0000 </r>
       <r>     7.9970    -0.0001   480.0000 </r>
       <r>     8.0587    -0.0000   480.0000 </r>
       <r>     8.1203    -0.0000   480.0000 </r>
       <r>     8.1820    -0.0000   480.0000 </r>
       <r>     8.2437    -0.0000   480.0000 </r>
       <r>     8.3054     0.0000   480.0000 </r>
       <r>     8.3671     0.0000   480.0000 </r>
       <r>     8.4288     0.0000   480.0000 </r>
       <r>     8.4905     0.0000   480.0000 </r>
       <r>     8.5521     0.0000   480.0000 </r>
       <r>     8.6138     0.0000   480.0000 </r>
      </set>
     </set>
    </array>
   </total>
  </dos>
 </calculation>
 <structure name="finalpos" >
  <crystal>
   <varray name="basis" >
    <v>       8.46831000       0.00000000       0.00000000 </v>
    <v>       4.23415500       7.33377159       0.00000000 </v>
    <v>       0.00000000       0.00000000      24.96566199 </v>
   </varray>
   <i name="volume">   1550.48373159 </i>
   <varray name="rec_basis" >
    <v>       0.11808732      -0.06817774       0.00000000 </v>
    <v>       0.00000000       0.13635549       0.00000000 </v>
    <v>       0.00000000       0.00000000       0.04005502 </v>
   </varray>
  </crystal>
  <varray name="positions" >
   <v>       0.00000000       0.00000000       0.34046764 </v>
   <v>       0.33400137       0.00000000       0.34046764 </v>
   <v>       0.66800274       0.00000000       0.34046764 </v>
   <v>       0.00000000       0.33400137       0.34046764 </v>
   <v>       0.33400137       0.33400137       0.34046764 </v>
   <v>       0.66800274       0.33400137       0.34046764 </v>
   <v>       0.00000000       0.66800274       0.34046764 </v>
   <v>       0.33400137       0.66800274       0.34046764 </v>
   <v>       0.66800274       0.66800274       0.34046764 </v>
   <v>       0.11133379       0.11133379       0.43297074 </v>
   <v>       0.44533516       0.11133379       0.43297074 </v>
   <v>       0.77933653       0.11133379       0.43297074 </v>
   <v>       0.11133379       0.44533516       0.43297074 </v>
   <v>       0.44533516       0.44533516       0.43297074 </v>
   <v>       0.77933653       0.44533516       0.43297074 </v>
   <v>       0.11133379       0.77933653       0.43297074 </v>
   <v>       0.44533516       0.77933653       0.43297074 </v>
   <v>       0.77933653       0.77933653       0.43297074 </v>
   <v>       0.88994847       0.22538774       0.52524695 </v>
   <v>       0.22260115       0.22409524       0.52574619 </v>
   <v>       0.55568964       0.22441532       0.52468543 </v>
   <v>       0.89003966       0.55606262       0.52522639 </v>
   <v>       0.22299604       0.55667314       0.52462805 </v>
   <v>       0.55609675       0.55744416       0.52436389 </v>
   <v>       0.88972742       0.89081999       0.52417487 </v>
   <v>       0.22307411       0.89111909       0.52475116 </v>
   <v>       0.55596533       0.89077070       0.52463260 </v>
   <v>       0.00007555       0.00109237       0.61751581 </v>
   <v>       0.33708825       0.99865819       0.61929810 </v>
   <v>       0.66835912       0.00163841       0.61766908 </v>
   <v>       0.99952220       0.33550936       0.62161026 </v>
   <v>       0.33639645       0.33541088       0.61954539 </v>
   <v>       0.66699837       0.33536615       0.61773281 </v>
   <v>       0.00003556       0.67058762       0.61751441 </v>
   <v>       0.33415797       0.66849147       0.61754801 </v>
   <v>       0.66727675       0.66897716       0.61773115 </v>
   <v>       0.17145888       0.25477680       0.66433753 </v>
  </varray>
  <varray name="selective"  type="logical" >
   <v type="logical" >  F  F  F </v>
   <v type="logical" >  F  F  F </v>
   <v type="logical" >  F  F  F </v>
   <v type="logical" >  F  F  F </v>
   <v type="logical" >  F  F  F </v>
   <v type="logical" >  F  F  F </v>
   <v type="logical" >  F  F  F </v>
   <v type="logical" >  F  F  F </v>
   <v type="logical" >  F  F  F </v>
   <v type="logical" >  F  F  F </v>
   <v type="logical" >  F  F  F </v>
   <v type="logical" >  F  F  F </v>
   <v type="logical" >  F  F  F </v>
   <v type="logical" >  F  F  F </v>
   <v type="logical" >  F  F  F </v>
   <v type="logical" >  F  F  F </v>
   <v type="logical" >  F  F  F </v>
   <v type="logical" >  F  F  F </v>
   <v type="logical" >  T  T  T </v>
   <v type="logical" >  T  T  T </v>
   <v type="logical" >  T  T  T </v>
   <v type="logical" >  T  T  T </v>
   <v type="logical" >  T  T  T </v>
   <v type="logical" >  T  T  T </v>
   <v type="logical" >  T  T  T </v>
   <v type="logical" >  T  T  T </v>
   <v type="logical" >  T  T  T </v>
   <v type="logical" >  T  T  T </v>
   <v type="logical" >  T  T  T </v>
   <v type="logical" >  T  T  T </v>
   <v type="logical" >  T  T  T </v>
   <v type="logical" >  T  T  T </v>
   <v type="logical" >  T  T  T </v>
   <v type="logical" >  T  T  T </v>
   <v type="logical" >  T  T  T </v>
   <v type="logical" >  T  T  T </v>
   <v type="logical" >  T  T  T </v>
  </varray>
  <nose>
   <v>      -3.00000000       0.00000000       0.00010000       0.00010000 </v>
  </nose>
 </structure>
</modeling>
