 running   48 mpi-ranks, on    1 nodes
 distrk:  each k-point on   48 cores,    1 groups
 distr:  one band on    1 cores,   48 groups
 vasp.6.4.2 20Jul23 (build Mar 01 2024 16:46:03) complex                        
  
 POSCAR found type information on POSCAR PtH 
 POSCAR found :  2 types and      37 ions
 Reading from existing POTCAR
 scaLAPACK will be used
 -----------------------------------------------------------------------------
|                                                                             |
|           W    W    AA    RRRRR   N    N  II  N    N   GGGG   !!!           |
|           W    W   A  A   R    R  NN   N  II  NN   N  G    G  !!!           |
|           W    W  A    A  R    R  N N  N  II  N N  N  G       !!!           |
|           W WW W  AAAAAA  RRRRR   N  N N  II  N  N N  G  GGG   !            |
|           WW  WW  A    A  R   R   N   NN  II  N   NN  G    G                |
|           W    W  A    A  R    R  N    N  II  N    N   GGGG   !!!           |
|                                                                             |
|     For optimal performance we recommend to set                             |
|       NCORE = 2 up to number-of-cores-per-socket                            |
|     NCORE specifies how many cores store one orbital (NPAR=cpu/NCORE).      |
|     This setting can greatly improve the performance of VASP for DFT.       |
|     The default, NCORE=1 might be grossly inefficient on modern             |
|     multi-core architectures or massively parallel machines. Do your        |
|     own testing! More info at https://www.vasp.at/wiki/index.php/NCORE      |
|     Unfortunately you need to use the default for GW and RPA                |
|     calculations (for HF NCORE is supported but not extensively tested      |
|     yet).                                                                   |
|                                                                             |
 -----------------------------------------------------------------------------


     **************************************************************************
     Initializing libbeef V0.1.3 with the BEEF-vdW functional.
     Citation: Wellendorff et al., PRB 85, 235149 (2012).
     **************************************************************************

 -----------------------------------------------------------------------------
|                                                                             |
|               ----> ADVICE to this user running VASP <----                  |
|                                                                             |
|     You have switched on vdW-DFT.                                           |
|     This routine was written and supplied by Jiri Klimes. We recommend      |
|     that you carefully read and cite the following publications:            |
|       J. Klimes, D.R. Bowler, A. Michelides                                 |
|          J. Phys.: Cond Matt. 22 022201 (2010)                              |
|       J. Klimes, D.R. Bowler, A. Michelides                                 |
|          Phys. Rev. B. 83, 195131 (2011)                                    |
|     and references therein.                                                 |
|                                                                             |
 -----------------------------------------------------------------------------

 Reading from existing POTCAR
 -----------------------------------------------------------------------------
|                                                                             |
|               ----> ADVICE to this user running VASP <----                  |
|                                                                             |
|     You enforced a specific xc type in the INCAR file but a different       |
|     type was found in the POTCAR file.                                      |
|     I HOPE YOU KNOW WHAT YOU ARE DOING!                                     |
|                                                                             |
 -----------------------------------------------------------------------------

 LDA part: xc-table for Pade appr. of Perdew
 found WAVECAR, reading the header
 POSCAR, INCAR and KPOINTS ok, starting setup
 FFT: planning ... GRIDC
 FFT: planning ... GRID_SOFT
 FFT: planning ... GRID
 reading WAVECAR
 the WAVECAR file was read successfully
 initial charge from wavefunction
 entering main loop
       N       E                     dE             d eps       ncg     rms          rms(c)
Total vdW correction in eV:     52.0186238
DAV:   1    -0.104576656120E+03   -0.10458E+03   -0.91762E-01  6912   0.152E+00    0.347E+00
Total vdW correction in eV:     52.0120324
RMM:   2    -0.115172587778E+03   -0.10596E+02   -0.17239E+00  6771   0.194E+00    0.310E+01
Total vdW correction in eV:     52.0098947
RMM:   3    -0.104569344673E+03    0.10603E+02   -0.10876E+00  6848   0.178E+00    0.283E+00
Total vdW correction in eV:     52.0116441
RMM:   4    -0.104475926450E+03    0.93418E-01   -0.10364E-01  6896   0.516E-01    0.103E+00
Total vdW correction in eV:     52.0139614
RMM:   5    -0.104475533380E+03    0.39307E-03   -0.18143E-02  7023   0.210E-01    0.733E-01
Total vdW correction in eV:     52.0147939
RMM:   6    -0.104471748699E+03    0.37847E-02   -0.51022E-03  7031   0.110E-01    0.410E-01
Total vdW correction in eV:     52.0162852
RMM:   7    -0.104471435874E+03    0.31283E-03   -0.19687E-03  7107   0.664E-02    0.263E-01
Total vdW correction in eV:     52.0168721
RMM:   8    -0.104471053753E+03    0.38212E-03   -0.68738E-04  7019   0.423E-02    0.130E-01
Total vdW correction in eV:     52.0171149
RMM:   9    -0.104470974815E+03    0.78938E-04   -0.24107E-04  7037   0.244E-02    0.678E-02
Total vdW correction in eV:     52.0172895
RMM:  10    -0.104470957595E+03    0.17220E-04   -0.71759E-05  6404   0.136E-02    0.522E-02
Total vdW correction in eV:     52.0174186
RMM:  11    -0.104470952504E+03    0.50918E-05   -0.30075E-05  5259   0.876E-03
Total vdW correction in eV:     52.0175502
Total vdW correction in eV:     52.0175554
   1 F= -.10447095E+03 E0= -.10443982E+03  d E =-.933834E-01
 writing wavefunctions
