unknown system                          
           1
     8.468310    0.000000    0.000000
     4.234155    7.333772    0.000000
     0.000000    0.000000   24.965662
   Pt   H 
    36     1
Direct configuration=     1
   0.00000000  0.00000000  0.34046764
   0.33400137  0.00000000  0.34046764
   0.66800274  0.00000000  0.34046764
   0.00000000  0.33400137  0.34046764
   0.33400137  0.33400137  0.34046764
   0.66800274  0.33400137  0.34046764
   0.00000000  0.66800274  0.34046764
   0.33400137  0.66800274  0.34046764
   0.66800274  0.66800274  0.34046764
   0.11133379  0.11133379  0.43297074
   0.44533516  0.11133379  0.43297074
   0.77933653  0.11133379  0.43297074
   0.11133379  0.44533516  0.43297074
   0.44533516  0.44533516  0.43297074
   0.77933653  0.44533516  0.43297074
   0.11133379  0.77933653  0.43297074
   0.44533516  0.77933653  0.43297074
   0.77933653  0.77933653  0.43297074
   0.88994847  0.22538774  0.52524695
   0.22260115  0.22409524  0.52574619
   0.55568964  0.22441532  0.52468543
   0.89003966  0.55606262  0.52522639
   0.22299604  0.55667314  0.52462805
   0.55609675  0.55744416  0.52436389
   0.88972742  0.89081999  0.52417487
   0.22307411  0.89111909  0.52475116
   0.55596533  0.89077070  0.52463260
   0.00007555  0.00109237  0.61751581
   0.33708825  0.99865819  0.61929810
   0.66835912  0.00163841  0.61766908
   0.99952220  0.33550936  0.62161026
   0.33639645  0.33541088  0.61954539
   0.66699837  0.33536615  0.61773281
   0.00003556  0.67058762  0.61751441
   0.33415797  0.66849147  0.61754801
   0.66727675  0.66897716  0.61773115
   0.17145888  0.25477680  0.66433753
