
     Program PWSCF v.7.1 starts on 21Nov2025 at 13:14:41 
        Git branch: heads/qe-7.1
        Last git commit: 48ba0178f8fede6d020eb786884699a9f063f55d-dirty
        Last git commit date: Fri Jan 27 14:22:33 2023 +0000
        Last git commit subject: Merge branch 'fix_hubbard' into 'develop'

     This program is part of the open-source Quantum ESPRESSO suite
     for quantum simulation of materials; please cite
         "P. Giannozzi et al., J. Phys.:Condens. Matter 21 395502 (2009);
         "P. Giannozzi et al., J. Phys.:Condens. Matter 29 465901 (2017);
         "P. Giannozzi et al., J. Chem. Phys. 152 154105 (2020);
          URL http://www.quantum-espresso.org", 
     in publications or presentations arising from this work. More details at
     http://www.quantum-espresso.org/quote

     Parallel version (MPI), running on    96 processors

     MPI processes distributed on     2 nodes
     55580 MiB available memory on the printing compute node when the environment starts

     Reading input from espresso.pwi
Warning: card &CELL ignored
Warning: card / ignored
Warning: card &FCP ignored
Warning: card / ignored
Warning: card &RISM ignored
Warning: card / ignored

     Current dimensions of program PWSCF are:
     Max number of different atomic species (ntypx) = 10
     Max number of k-points (npk) =  40000
     Max angular momentum in pseudopotentials (lmaxx) =  4
     file Co.pbe-n-kjpaw_psl.1.0.0.UPF: wavefunction(s)  4S 3D renormalized
     file C.pbe-n-kjpaw_psl.1.0.0.UPF: wavefunction(s)  2S 2P renormalized
     file O.pbe-nl-kjpaw_psl.1.0.0.UPF: wavefunction(s)  2S 2P renormalized
     file H.pbe-kjpaw_psl.1.0.0.UPF: wavefunction(s)  1S renormalized

     **************************************************************************
     Initializing libbeef V0.1.2 with the BEEF-vdW functional.
     Citation: Wellendorff et al., PRB 85, 235149 (2012).
     **************************************************************************


     IMPORTANT: XC functional enforced from input :
     Exchange-correlation= BEEF-VDW
                           (   1   4  43  14   2   0   0)
     Any further DFT definition will be discarded
     Please, verify this is what you really want


     R & G space division:  proc/nbgrp/npool/nimage =      96
     Subspace diagonalization in iterative solution of the eigenvalue problem:
     one sub-group per band group will be used
     custom distributed-memory algorithm (size of sub-group:  2*  2 procs)


     Parallelization info
     --------------------
     sticks:   dense  smooth     PW     G-vecs:    dense   smooth      PW
     Min          43      23      6                 7829     3049     440
     Max          44      24      7                 7845     3068     465
     Sum        4153    2221    613               752179   293251   42993

     Using Slab Decomposition



     bravais-lattice index     =            0
     lattice parameter (alat)  =      14.1729  a.u.
     unit-cell volume          =    8574.3059 (a.u.)^3
     number of atoms/cell      =           39
     number of atomic types    =            4
     number of electrons       =       335.00
     number of Kohn-Sham states=          202
     kinetic-energy cutoff     =      40.0000  Ry
     charge density cutoff     =     300.0000  Ry
     scf convergence threshold =      1.0E-06
     mixing beta               =       0.7000
     number of iterations used =            8  local-TF  mixing
     Exchange-correlation= BEEF-VDW
                           (   1   4  43  14   2   0   0)

     celldm(1)=  14.172946  celldm(2)=   0.000000  celldm(3)=   0.000000
     celldm(4)=   0.000000  celldm(5)=   0.000000  celldm(6)=   0.000000

     crystal axes: (cart. coord. in units of alat)
               a(1) = (   1.000000   0.000000   0.000000 )  
               a(2) = (   0.500000   0.866025   0.000000 )  
               a(3) = (   0.000000   0.000000   3.477667 )  

     reciprocal axes: (cart. coord. in units 2 pi/alat)
               b(1) = (  1.000000 -0.577350  0.000000 )  
               b(2) = (  0.000000  1.154701  0.000000 )  
               b(3) = (  0.000000  0.000000  0.287549 )  


     PseudoPot. # 1 for Co read from file:
     /users/kbadger1/espresso/pseudo/pslibrary.1.0.0/pbe/PSEUDOPOTENTIALS/Co.pbe-n-kjpaw_psl.1.0.0.UPF
     MD5 check sum: 88af6ec42553d4236c267fdfcb472151
     Pseudo is Projector augmented-wave + core cor, Zval =  9.0
     Generated using 'atomic' code by A. Dal Corso  v.7.0
     Shape of augmentation charge: PSQ
     Using radial grid of 1193 points,  6 beta functions with: 
                l(1) =   0
                l(2) =   0
                l(3) =   1
                l(4) =   1
                l(5) =   2
                l(6) =   2
     Q(r) pseudized with 0 coefficients 


     PseudoPot. # 2 for C  read from file:
     /users/kbadger1/espresso/pseudo/pslibrary.1.0.0/pbe/PSEUDOPOTENTIALS/C.pbe-n-kjpaw_psl.1.0.0.UPF
     MD5 check sum: 6408e75cdba28732cea38a4db8498ce4
     Pseudo is Projector augmented-wave + core cor, Zval =  4.0
     Generated using 'atomic' code by A. Dal Corso  v.7.0
     Shape of augmentation charge: PSQ
     Using radial grid of 1073 points,  4 beta functions with: 
                l(1) =   0
                l(2) =   0
                l(3) =   1
                l(4) =   1
     Q(r) pseudized with 0 coefficients 


     PseudoPot. # 3 for O  read from file:
     /users/kbadger1/espresso/pseudo/pslibrary.1.0.0/pbe/PSEUDOPOTENTIALS/O.pbe-nl-kjpaw_psl.1.0.0.UPF
     MD5 check sum: f0439fab3598ca4e468f064226030408
     Pseudo is Projector augmented-wave + core cor, Zval =  6.0
     Generated using 'atomic' code by A. Dal Corso  v.7.0
     Shape of augmentation charge: PSQ
     Using radial grid of 1095 points,  4 beta functions with: 
                l(1) =   0
                l(2) =   0
                l(3) =   1
                l(4) =   1
     Q(r) pseudized with 0 coefficients 


     PseudoPot. # 4 for H  read from file:
     /users/kbadger1/espresso/pseudo/pslibrary.1.0.0/pbe/PSEUDOPOTENTIALS/H.pbe-kjpaw_psl.1.0.0.UPF
     MD5 check sum: fe4c6fa958fa6d3815bf5d2419cbf1df
     Pseudo is Projector augmented-wave, Zval =  1.0
     Generated using 'atomic' code by A. Dal Corso  v.7.0
     Shape of augmentation charge: PSQ
     Using radial grid of  929 points,  2 beta functions with: 
                l(1) =   0
                l(2) =   0
     Q(r) pseudized with 0 coefficients 


     atomic species   valence    mass     pseudopotential
        Co             9.00    58.93319     Co( 1.00)
        C              4.00    12.00000     C ( 1.00)
        O              6.00    15.99491     O ( 1.00)
        H              1.00     1.00783     H ( 1.00)

     Starting magnetic structure 
     atomic species   magnetization
        Co           1.000
        C            1.000
        O            0.000
        H            0.000

     No symmetry found



   Cartesian axes

     site n.     atom                  positions (alat units)
         1           Co  tau(   1) = (   0.0000000   0.1924501   1.3333333  )
         2           Co  tau(   2) = (   0.3333333   0.1924501   1.3333333  )
         3           Co  tau(   3) = (   0.6666667   0.1924501   1.3333333  )
         4           Co  tau(   4) = (   0.1666667   0.4811252   1.3333333  )
         5           Co  tau(   5) = (   0.5000000   0.4811252   1.3333333  )
         6           Co  tau(   6) = (   0.8333333   0.4811252   1.3333333  )
         7           Co  tau(   7) = (   0.3333333   0.7698004   1.3333333  )
         8           Co  tau(   8) = (   0.6666667   0.7698004   1.3333333  )
         9           Co  tau(   9) = (   1.0000000   0.7698004   1.3333333  )
        10           Co  tau(  10) = (   0.0000000   0.0000000   1.6036667  )
        11           Co  tau(  11) = (   0.3333333   0.0000000   1.6036667  )
        12           Co  tau(  12) = (   0.6666667   0.0000000   1.6036667  )
        13           Co  tau(  13) = (   0.1666667   0.2886751   1.6036667  )
        14           Co  tau(  14) = (   0.5000000   0.2886751   1.6036667  )
        15           Co  tau(  15) = (   0.8333333   0.2886751   1.6036667  )
        16           Co  tau(  16) = (   0.3333333   0.5773503   1.6036667  )
        17           Co  tau(  17) = (   0.6666667   0.5773503   1.6036667  )
        18           Co  tau(  18) = (   1.0000000   0.5773503   1.6036667  )
        19           Co  tau(  19) = (   0.0000000   0.1924501   1.8740000  )
        20           Co  tau(  20) = (   0.3333333   0.1924501   1.8740000  )
        21           Co  tau(  21) = (   0.6666667   0.1924501   1.8740000  )
        22           Co  tau(  22) = (   0.1666667   0.4811252   1.8740000  )
        23           Co  tau(  23) = (   0.5000000   0.4811252   1.8740000  )
        24           Co  tau(  24) = (   0.8333333   0.4811252   1.8740000  )
        25           Co  tau(  25) = (   0.3333333   0.7698004   1.8740000  )
        26           Co  tau(  26) = (   0.6666667   0.7698004   1.8740000  )
        27           Co  tau(  27) = (   1.0000000   0.7698004   1.8740000  )
        28           Co  tau(  28) = (   0.0000000   0.0000000   2.1443333  )
        29           Co  tau(  29) = (   0.3333333   0.0000000   2.1443333  )
        30           Co  tau(  30) = (   0.6666667   0.0000000   2.1443333  )
        31           Co  tau(  31) = (   0.1666667   0.2886751   2.1443333  )
        32           Co  tau(  32) = (   0.5000000   0.2886751   2.1443333  )
        33           Co  tau(  33) = (   0.8333333   0.2886751   2.1443333  )
        34           Co  tau(  34) = (   0.3333333   0.5773503   2.1443333  )
        35           Co  tau(  35) = (   0.6666667   0.5773503   2.1443333  )
        36           Co  tau(  36) = (   1.0000000   0.5773503   2.1443333  )
        37           C   tau(  37) = (   0.3556665   0.2042652   2.3348150  )
        38           O   tau(  38) = (   0.2490019   0.1524945   2.4500925  )
        39           H   tau(  39) = (   0.4866713   0.2758104   2.3872469  )

     number of k points=    13  Marzari-Vanderbilt smearing, width (Ry)=  0.0010
                       cart. coord. in units 2pi/alat
        k(    1) = (   0.0000000   0.0000000   0.0000000), wk =   0.0400000
        k(    2) = (   0.0000000   0.2309401   0.0000000), wk =   0.0800000
        k(    3) = (   0.0000000   0.4618802   0.0000000), wk =   0.0800000
        k(    4) = (   0.2000000  -0.1154701   0.0000000), wk =   0.0800000
        k(    5) = (   0.2000000   0.1154701   0.0000000), wk =   0.0800000
        k(    6) = (   0.2000000   0.3464102   0.0000000), wk =   0.0800000
        k(    7) = (   0.2000000  -0.5773503   0.0000000), wk =   0.0800000
        k(    8) = (   0.2000000  -0.3464102   0.0000000), wk =   0.0800000
        k(    9) = (   0.4000000  -0.2309401   0.0000000), wk =   0.0800000
        k(   10) = (   0.4000000   0.0000000   0.0000000), wk =   0.0800000
        k(   11) = (   0.4000000   0.2309401   0.0000000), wk =   0.0800000
        k(   12) = (   0.4000000  -0.6928203   0.0000000), wk =   0.0800000
        k(   13) = (   0.4000000  -0.4618802   0.0000000), wk =   0.0800000

     Dense  grid:   752179 G-vectors     FFT dimensions: (  80,  80, 288)

     Smooth grid:   293251 G-vectors     FFT dimensions: (  60,  60, 200)

     Estimated max dynamical RAM per process >      84.82 MB

     Estimated total dynamical RAM >       7.95 GB
     Generating pointlists ...
     new r_m :   0.1005 (alat units)  1.4243 (a.u.) for type    1
     new r_m :   0.0653 (alat units)  0.9249 (a.u.) for type    2
     new r_m :   0.0682 (alat units)  0.9668 (a.u.) for type    3
     new r_m :   0.0653 (alat units)  0.9249 (a.u.) for type    4

     Initial potential from superposition of free atoms

     starting charge     334.9897, renormalised to     335.0000

     negative rho (up, down):  3.055E-03 4.701E-04


     %%%%%%%%%%%%%%%%%%%%%%%%%%%%%%%%%%%%%%%%%%%%%%%%%%%%%%%%%%%%%%%%%%%%%%%%
     %                                                                      %
     % You are using vdW-DF, which was implemented by the Thonhauser group. %
     % Please cite the following two papers that made this development      %
     % possible and the two reviews that describe the various versions:     %
     %                                                                      %
     %   T. Thonhauser et al., PRL 115, 136402 (2015).                      %
     %   T. Thonhauser et al., PRB 76, 125112 (2007).                       %
     %   K. Berland et al., Rep. Prog. Phys. 78, 066501 (2015).             %
     %   D.C. Langreth et al., J. Phys.: Condens. Matter 21, 084203 (2009). %
     %                                                                      %
     % If you are calculating stress with vdW-DF, please also cite:         %
     %                                                                      %
     %   R. Sabatini et al., J. Phys.: Condens. Matter 24, 424209 (2012).   %
     %   C.M. Frostenson et al., Electr. Struct. 4, 014001 (2022).          %
     %                                                                      %
     %%%%%%%%%%%%%%%%%%%%%%%%%%%%%%%%%%%%%%%%%%%%%%%%%%%%%%%%%%%%%%%%%%%%%%%%

     %%%%%%%%%%%%%%%%%%%%%%%%%%%%%%%%%%%%%%%%%%%%%%%%%%%%%%%%%%%%%%%%%%%%%%%%
     %                                                                      %
     %  vdW-DF NEWS:                                                        %
     %                                                                      %
     %  * vdW-DF3 is now available. DOI: 10.1021/acs.jctc.0c00471           %
     %    use with input_dft = 'vdW-DF3-opt1' or 'vdW-DF3-opt2'             %
     %                                                                      %
     %  * Unscreened and range-separated hybrid vdW-DF-cx functionals       %
     %    DOI: 10.1063/1.4986522 and 10.1088/1361-648X/ac2ad2               %
     %    use with input_dft = 'vdW-DF-cx0'    and 'vdW-DF-ahcx'            %
     %  * Unscreened and range-separated hybrid vdW-DF2-b86r functionals    %
     %    DOI: 10.1063/1.4986522 and DOI: 10.1103/PhysRevX.12.041003        %
     %    use with input_dft = 'vdW-DF2-br0' and 'vdW-DF2-ahbr'             %
     %                                                                      %
     %%%%%%%%%%%%%%%%%%%%%%%%%%%%%%%%%%%%%%%%%%%%%%%%%%%%%%%%%%%%%%%%%%%%%%%%


     Starting wfcs are  333 randomized atomic wfcs
     Checking if some PAW data can be deallocated... 

     total cpu time spent up to now is       11.6 secs

     per-process dynamical memory:   212.0 Mb

     Self-consistent Calculation

     iteration #  1     ecut=    40.00 Ry     beta= 0.70
     Davidson diagonalization with overlap
     ethr =  1.00E-02,  avg # of iterations =  2.0

     negative rho (up, down):  5.648E-05 1.133E-06

     total cpu time spent up to now is       26.7 secs

     total energy              =   -6052.96616590 Ry
     estimated scf accuracy    <      39.53308911 Ry

     total magnetization       =    69.00 Bohr mag/cell
     absolute magnetization    =    81.39 Bohr mag/cell

     iteration #  2     ecut=    40.00 Ry     beta= 0.70
     Davidson diagonalization with overlap
     ethr =  1.00E-02,  avg # of iterations =  1.0

     negative rho (up, down):  2.258E-05 5.621E-07

     total cpu time spent up to now is       38.8 secs

     total energy              =   -6052.46682063 Ry
     estimated scf accuracy    <      24.33066415 Ry

     total magnetization       =    68.52 Bohr mag/cell
     absolute magnetization    =    76.77 Bohr mag/cell

     iteration #  3     ecut=    40.00 Ry     beta= 0.70
     Davidson diagonalization with overlap
     ethr =  7.26E-03,  avg # of iterations =  1.1

     negative rho (up, down):  1.150E-06 1.877E-06

     total cpu time spent up to now is       51.1 secs

     total energy              =   -6054.99114247 Ry
     estimated scf accuracy    <      86.42807519 Ry

     total magnetization       =    65.69 Bohr mag/cell
     absolute magnetization    =    73.12 Bohr mag/cell

     iteration #  4     ecut=    40.00 Ry     beta= 0.70
     Davidson diagonalization with overlap
     ethr =  7.26E-03,  avg # of iterations =  1.0

     negative rho (up, down):  1.195E-06 5.427E-07

     total cpu time spent up to now is       63.4 secs

     total energy              =   -6056.23096357 Ry
     estimated scf accuracy    <       5.37767975 Ry

     total magnetization       =    60.53 Bohr mag/cell
     absolute magnetization    =    70.53 Bohr mag/cell

     iteration #  5     ecut=    40.00 Ry     beta= 0.70
     Davidson diagonalization with overlap
     ethr =  1.61E-03,  avg # of iterations =  1.5

     negative rho (up, down):  1.290E-06 5.831E-07

     total cpu time spent up to now is       75.6 secs

     total energy              =   -6056.24611371 Ry
     estimated scf accuracy    <       2.23270770 Ry

     total magnetization       =    60.26 Bohr mag/cell
     absolute magnetization    =    69.77 Bohr mag/cell

     iteration #  6     ecut=    40.00 Ry     beta= 0.70
     Davidson diagonalization with overlap
     ethr =  6.66E-04,  avg # of iterations =  1.7

     negative rho (up, down):  1.342E-06 7.275E-07

     total cpu time spent up to now is       88.8 secs

     total energy              =   -6056.36043615 Ry
     estimated scf accuracy    <       0.61002051 Ry

     total magnetization       =    60.20 Bohr mag/cell
     absolute magnetization    =    69.51 Bohr mag/cell

     iteration #  7     ecut=    40.00 Ry     beta= 0.70
     Davidson diagonalization with overlap
     ethr =  1.82E-04,  avg # of iterations =  4.8

     negative rho (up, down):  1.053E-06 5.782E-07

     total cpu time spent up to now is      104.6 secs

     total energy              =   -6056.39415203 Ry
     estimated scf accuracy    <       0.79121994 Ry

     total magnetization       =    60.20 Bohr mag/cell
     absolute magnetization    =    69.18 Bohr mag/cell

     iteration #  8     ecut=    40.00 Ry     beta= 0.70
     Davidson diagonalization with overlap
     ethr =  1.82E-04,  avg # of iterations =  1.5

     negative rho (up, down):  4.461E-07 2.581E-07

     total cpu time spent up to now is      117.1 secs

     total energy              =   -6056.40264495 Ry
     estimated scf accuracy    <       0.13205975 Ry

     total magnetization       =    60.21 Bohr mag/cell
     absolute magnetization    =    69.04 Bohr mag/cell

     iteration #  9     ecut=    40.00 Ry     beta= 0.70
     Davidson diagonalization with overlap
     c_bands:  1 eigenvalues not converged
     c_bands:  1 eigenvalues not converged
     c_bands:  3 eigenvalues not converged
     ethr =  3.94E-05,  avg # of iterations = 12.2

     negative rho (up, down):  1.961E-07 9.045E-08

     total cpu time spent up to now is      145.2 secs

     total energy              =   -6056.42042564 Ry
     estimated scf accuracy    <       0.23832278 Ry

     total magnetization       =    61.02 Bohr mag/cell
     absolute magnetization    =    68.97 Bohr mag/cell

     iteration # 10     ecut=    40.00 Ry     beta= 0.70
     Davidson diagonalization with overlap
     ethr =  3.94E-05,  avg # of iterations =  2.3

     negative rho (up, down):  4.286E-07 2.711E-07

     total cpu time spent up to now is      158.1 secs

     total energy              =   -6056.42928007 Ry
     estimated scf accuracy    <       0.22681447 Ry

     total magnetization       =    61.09 Bohr mag/cell
     absolute magnetization    =    68.88 Bohr mag/cell

     iteration # 11     ecut=    40.00 Ry     beta= 0.70
     Davidson diagonalization with overlap
     ethr =  3.94E-05,  avg # of iterations =  1.1

     negative rho (up, down):  1.564E-08 6.994E-09

     total cpu time spent up to now is      169.6 secs

     total energy              =   -6056.41879123 Ry
     estimated scf accuracy    <       0.10783973 Ry

     total magnetization       =    61.09 Bohr mag/cell
     absolute magnetization    =    68.82 Bohr mag/cell

     iteration # 12     ecut=    40.00 Ry     beta= 0.70
     Davidson diagonalization with overlap
     ethr =  3.22E-05,  avg # of iterations =  2.0

     negative rho (up, down):  6.384E-07 7.638E-08

     total cpu time spent up to now is      183.0 secs

     total energy              =   -6056.42374522 Ry
     estimated scf accuracy    <       0.11162109 Ry

     total magnetization       =    61.05 Bohr mag/cell
     absolute magnetization    =    68.52 Bohr mag/cell

     iteration # 13     ecut=    40.00 Ry     beta= 0.70
     Davidson diagonalization with overlap
     ethr =  3.22E-05,  avg # of iterations =  1.0

     negative rho (up, down):  3.314E-08 2.284E-08

     total cpu time spent up to now is      194.2 secs

     total energy              =   -6056.42192776 Ry
     estimated scf accuracy    <       0.09366791 Ry

     total magnetization       =    61.10 Bohr mag/cell
     absolute magnetization    =    68.49 Bohr mag/cell

     iteration # 14     ecut=    40.00 Ry     beta= 0.70
     Davidson diagonalization with overlap
     ethr =  2.80E-05,  avg # of iterations =  1.2

     total cpu time spent up to now is      206.0 secs

     total energy              =   -6056.42062761 Ry
     estimated scf accuracy    <       0.08197121 Ry

     total magnetization       =    61.09 Bohr mag/cell
     absolute magnetization    =    68.53 Bohr mag/cell

     iteration # 15     ecut=    40.00 Ry     beta= 0.70
     Davidson diagonalization with overlap
     ethr =  2.45E-05,  avg # of iterations =  1.0

     negative rho (up, down):  1.921E-04 5.591E-05

     total cpu time spent up to now is      217.3 secs

     total energy              =   -6056.41972948 Ry
     estimated scf accuracy    <       0.11524887 Ry

     total magnetization       =    61.09 Bohr mag/cell
     absolute magnetization    =    68.50 Bohr mag/cell

     iteration # 16     ecut=    40.00 Ry     beta= 0.70
     Davidson diagonalization with overlap
     ethr =  2.45E-05,  avg # of iterations =  1.3

     negative rho (up, down):  8.721E-03 7.394E-03

     total cpu time spent up to now is      229.3 secs

     total energy              =   -6056.41474344 Ry
     estimated scf accuracy    <       0.10388875 Ry

     total magnetization       =    61.09 Bohr mag/cell
     absolute magnetization    =    68.46 Bohr mag/cell

     iteration # 17     ecut=    40.00 Ry     beta= 0.70
     Davidson diagonalization with overlap
     ethr =  2.45E-05,  avg # of iterations =  1.2

     negative rho (up, down):  2.451E-02 2.254E-02

     total cpu time spent up to now is      241.6 secs

     total energy              =   -6056.41392863 Ry
     estimated scf accuracy    <       0.04169735 Ry

     total magnetization       =    61.09 Bohr mag/cell
     absolute magnetization    =    68.47 Bohr mag/cell

     iteration # 18     ecut=    40.00 Ry     beta= 0.70
     Davidson diagonalization with overlap
     ethr =  1.24E-05,  avg # of iterations =  2.4

     negative rho (up, down):  1.394E-02 1.252E-02

     total cpu time spent up to now is      254.5 secs

     total energy              =   -6056.41500141 Ry
     estimated scf accuracy    <       0.02355463 Ry

     total magnetization       =    61.08 Bohr mag/cell
     absolute magnetization    =    68.43 Bohr mag/cell

     iteration # 19     ecut=    40.00 Ry     beta= 0.70
     Davidson diagonalization with overlap
     c_bands:  2 eigenvalues not converged
     ethr =  7.03E-06,  avg # of iterations =  2.3

     negative rho (up, down):  1.584E-02 1.451E-02

     total cpu time spent up to now is      267.5 secs

     total energy              =   -6056.41483083 Ry
     estimated scf accuracy    <       0.02092123 Ry

     total magnetization       =    61.09 Bohr mag/cell
     absolute magnetization    =    68.45 Bohr mag/cell

     iteration # 20     ecut=    40.00 Ry     beta= 0.70
     Davidson diagonalization with overlap
     ethr =  6.25E-06,  avg # of iterations =  1.3

     negative rho (up, down):  1.912E-02 1.784E-02

     total cpu time spent up to now is      279.3 secs

     total energy              =   -6056.41455468 Ry
     estimated scf accuracy    <       0.01515827 Ry

     total magnetization       =    61.08 Bohr mag/cell
     absolute magnetization    =    68.46 Bohr mag/cell

     iteration # 21     ecut=    40.00 Ry     beta= 0.70
     Davidson diagonalization with overlap
     ethr =  4.52E-06,  avg # of iterations =  1.9

     negative rho (up, down):  1.666E-02 1.545E-02

     total cpu time spent up to now is      291.4 secs

     total energy              =   -6056.41444634 Ry
     estimated scf accuracy    <       0.01462090 Ry

     total magnetization       =    61.08 Bohr mag/cell
     absolute magnetization    =    68.47 Bohr mag/cell

     iteration # 22     ecut=    40.00 Ry     beta= 0.70
     Davidson diagonalization with overlap
     ethr =  4.36E-06,  avg # of iterations =  1.1

     negative rho (up, down):  1.500E-02 1.428E-02

     total cpu time spent up to now is      303.9 secs

     total energy              =   -6056.41455165 Ry
     estimated scf accuracy    <       0.00605545 Ry

     total magnetization       =    61.08 Bohr mag/cell
     absolute magnetization    =    68.47 Bohr mag/cell

     iteration # 23     ecut=    40.00 Ry     beta= 0.70
     Davidson diagonalization with overlap
     c_bands:  1 eigenvalues not converged
     ethr =  1.81E-06,  avg # of iterations =  2.8

     negative rho (up, down):  1.278E-02 1.214E-02

     total cpu time spent up to now is      316.9 secs

     total energy              =   -6056.41472031 Ry
     estimated scf accuracy    <       0.00157744 Ry

     total magnetization       =    61.08 Bohr mag/cell
     absolute magnetization    =    68.50 Bohr mag/cell

     iteration # 24     ecut=    40.00 Ry     beta= 0.70
     Davidson diagonalization with overlap
     ethr =  4.71E-07,  avg # of iterations =  3.4

     negative rho (up, down):  1.029E-02 9.646E-03

     total cpu time spent up to now is      330.6 secs

     total energy              =   -6056.41481472 Ry
     estimated scf accuracy    <       0.00174590 Ry

     total magnetization       =    61.08 Bohr mag/cell
     absolute magnetization    =    68.51 Bohr mag/cell

     iteration # 25     ecut=    40.00 Ry     beta= 0.70
     Davidson diagonalization with overlap
     ethr =  4.71E-07,  avg # of iterations =  1.3

     negative rho (up, down):  7.922E-03 7.311E-03

     total cpu time spent up to now is      342.4 secs

     total energy              =   -6056.41496364 Ry
     estimated scf accuracy    <       0.00048731 Ry

     total magnetization       =    61.08 Bohr mag/cell
     absolute magnetization    =    68.51 Bohr mag/cell

     iteration # 26     ecut=    40.00 Ry     beta= 0.70
     Davidson diagonalization with overlap
     ethr =  1.45E-07,  avg # of iterations =  4.0

     negative rho (up, down):  5.872E-03 5.178E-03

     total cpu time spent up to now is      357.4 secs

     total energy              =   -6056.41503911 Ry
     estimated scf accuracy    <       0.00051310 Ry

     total magnetization       =    61.08 Bohr mag/cell
     absolute magnetization    =    68.51 Bohr mag/cell

     iteration # 27     ecut=    40.00 Ry     beta= 0.70
     Davidson diagonalization with overlap
     ethr =  1.45E-07,  avg # of iterations =  1.7

     negative rho (up, down):  4.876E-03 4.130E-03

     total cpu time spent up to now is      369.8 secs

     total energy              =   -6056.41502902 Ry
     estimated scf accuracy    <       0.00032134 Ry

     total magnetization       =    61.08 Bohr mag/cell
     absolute magnetization    =    68.52 Bohr mag/cell

     iteration # 28     ecut=    40.00 Ry     beta= 0.70
     Davidson diagonalization with overlap
     ethr =  9.59E-08,  avg # of iterations =  1.4

     negative rho (up, down):  3.735E-03 2.847E-03

     total cpu time spent up to now is      381.6 secs

     total energy              =   -6056.41504392 Ry
     estimated scf accuracy    <       0.00019504 Ry

     total magnetization       =    61.08 Bohr mag/cell
     absolute magnetization    =    68.51 Bohr mag/cell

     iteration # 29     ecut=    40.00 Ry     beta= 0.70
     Davidson diagonalization with overlap
     ethr =  5.82E-08,  avg # of iterations =  1.8

     negative rho (up, down):  2.716E-03 1.616E-03

     total cpu time spent up to now is      394.1 secs

     total energy              =   -6056.41506512 Ry
     estimated scf accuracy    <       0.00023160 Ry

     total magnetization       =    61.08 Bohr mag/cell
     absolute magnetization    =    68.51 Bohr mag/cell

     iteration # 30     ecut=    40.00 Ry     beta= 0.70
     Davidson diagonalization with overlap
     ethr =  5.82E-08,  avg # of iterations =  1.8

     negative rho (up, down):  2.725E-03 1.591E-03

     total cpu time spent up to now is      406.4 secs

     total energy              =   -6056.41507447 Ry
     estimated scf accuracy    <       0.00057235 Ry

     total magnetization       =    61.08 Bohr mag/cell
     absolute magnetization    =    68.51 Bohr mag/cell

     iteration # 31     ecut=    40.00 Ry     beta= 0.70
     Davidson diagonalization with overlap
     ethr =  5.82E-08,  avg # of iterations =  1.1

     negative rho (up, down):  2.993E-03 1.891E-03

     total cpu time spent up to now is      419.0 secs

     total energy              =   -6056.41508632 Ry
     estimated scf accuracy    <       0.00003982 Ry

     total magnetization       =    61.08 Bohr mag/cell
     absolute magnetization    =    68.51 Bohr mag/cell

     iteration # 32     ecut=    40.00 Ry     beta= 0.70
     Davidson diagonalization with overlap
     c_bands:  1 eigenvalues not converged
     ethr =  1.19E-08,  avg # of iterations =  6.1

     negative rho (up, down):  3.008E-03 1.892E-03

     total cpu time spent up to now is      434.6 secs

     total energy              =   -6056.41509543 Ry
     estimated scf accuracy    <       0.00004130 Ry

     total magnetization       =    61.08 Bohr mag/cell
     absolute magnetization    =    68.51 Bohr mag/cell

     iteration # 33     ecut=    40.00 Ry     beta= 0.70
     Davidson diagonalization with overlap
     ethr =  1.19E-08,  avg # of iterations =  1.8

     negative rho (up, down):  3.005E-03 1.900E-03

     total cpu time spent up to now is      447.1 secs

     total energy              =   -6056.41509741 Ry
     estimated scf accuracy    <       0.00001860 Ry

     total magnetization       =    61.08 Bohr mag/cell
     absolute magnetization    =    68.51 Bohr mag/cell

     iteration # 34     ecut=    40.00 Ry     beta= 0.70
     Davidson diagonalization with overlap
     ethr =  5.55E-09,  avg # of iterations =  2.0

     negative rho (up, down):  3.011E-03 1.903E-03

     total cpu time spent up to now is      459.7 secs

     total energy              =   -6056.41509778 Ry
     estimated scf accuracy    <       0.00001313 Ry

     total magnetization       =    61.08 Bohr mag/cell
     absolute magnetization    =    68.51 Bohr mag/cell

     iteration # 35     ecut=    40.00 Ry     beta= 0.70
     Davidson diagonalization with overlap
     ethr =  3.92E-09,  avg # of iterations =  2.7

     negative rho (up, down):  3.050E-03 1.960E-03

     total cpu time spent up to now is      472.7 secs

     total energy              =   -6056.41509885 Ry
     estimated scf accuracy    <       0.00001239 Ry

     total magnetization       =    61.08 Bohr mag/cell
     absolute magnetization    =    68.51 Bohr mag/cell

     iteration # 36     ecut=    40.00 Ry     beta= 0.70
     Davidson diagonalization with overlap
     ethr =  3.70E-09,  avg # of iterations =  2.2

     negative rho (up, down):  3.172E-03 2.098E-03

     total cpu time spent up to now is      486.3 secs

     total energy              =   -6056.41509881 Ry
     estimated scf accuracy    <       0.00001445 Ry

     total magnetization       =    61.08 Bohr mag/cell
     absolute magnetization    =    68.51 Bohr mag/cell

     iteration # 37     ecut=    40.00 Ry     beta= 0.70
     Davidson diagonalization with overlap
     ethr =  3.70E-09,  avg # of iterations =  2.3

     negative rho (up, down):  3.050E-03 1.980E-03

     total cpu time spent up to now is      499.3 secs

     total energy              =   -6056.41509892 Ry
     estimated scf accuracy    <       0.00001253 Ry

     total magnetization       =    61.08 Bohr mag/cell
     absolute magnetization    =    68.51 Bohr mag/cell

     iteration # 38     ecut=    40.00 Ry     beta= 0.70
     Davidson diagonalization with overlap
     ethr =  3.70E-09,  avg # of iterations =  1.3

     negative rho (up, down):  2.858E-03 1.759E-03

     total cpu time spent up to now is      510.9 secs

     total energy              =   -6056.41509801 Ry
     estimated scf accuracy    <       0.00000966 Ry

     total magnetization       =    61.08 Bohr mag/cell
     absolute magnetization    =    68.51 Bohr mag/cell

     iteration # 39     ecut=    40.00 Ry     beta= 0.70
     Davidson diagonalization with overlap
     ethr =  2.88E-09,  avg # of iterations =  1.4

     negative rho (up, down):  2.773E-03 1.668E-03

     total cpu time spent up to now is      522.9 secs

     total energy              =   -6056.41509793 Ry
     estimated scf accuracy    <       0.00001150 Ry

     total magnetization       =    61.08 Bohr mag/cell
     absolute magnetization    =    68.51 Bohr mag/cell

     iteration # 40     ecut=    40.00 Ry     beta= 0.70
     Davidson diagonalization with overlap
     ethr =  2.88E-09,  avg # of iterations =  1.1

     negative rho (up, down):  2.545E-03 1.445E-03

     total cpu time spent up to now is      534.5 secs

     total energy              =   -6056.41509778 Ry
     estimated scf accuracy    <       0.00000359 Ry

     total magnetization       =    61.08 Bohr mag/cell
     absolute magnetization    =    68.51 Bohr mag/cell

     iteration # 41     ecut=    40.00 Ry     beta= 0.70
     Davidson diagonalization with overlap
     ethr =  1.07E-09,  avg # of iterations =  3.6

     negative rho (up, down):  2.395E-03 1.289E-03

     total cpu time spent up to now is      549.7 secs

     total energy              =   -6056.41509769 Ry
     estimated scf accuracy    <       0.00001320 Ry

     total magnetization       =    61.08 Bohr mag/cell
     absolute magnetization    =    68.51 Bohr mag/cell

     iteration # 42     ecut=    40.00 Ry     beta= 0.70
     Davidson diagonalization with overlap
     ethr =  1.07E-09,  avg # of iterations =  1.8

     negative rho (up, down):  2.375E-03 1.264E-03

     total cpu time spent up to now is      562.1 secs

     total energy              =   -6056.41509789 Ry
     estimated scf accuracy    <       0.00000710 Ry

     total magnetization       =    61.08 Bohr mag/cell
     absolute magnetization    =    68.51 Bohr mag/cell

     iteration # 43     ecut=    40.00 Ry     beta= 0.70
     Davidson diagonalization with overlap
     ethr =  1.07E-09,  avg # of iterations =  1.4

     negative rho (up, down):  2.357E-03 1.245E-03

     total cpu time spent up to now is      574.0 secs

     total energy              =   -6056.41509785 Ry
     estimated scf accuracy    <       0.00000926 Ry

     total magnetization       =    61.08 Bohr mag/cell
     absolute magnetization    =    68.51 Bohr mag/cell

     iteration # 44     ecut=    40.00 Ry     beta= 0.70
     Davidson diagonalization with overlap
     ethr =  1.07E-09,  avg # of iterations =  1.2

     negative rho (up, down):  2.350E-03 1.241E-03

     total cpu time spent up to now is      585.6 secs

     total energy              =   -6056.41509791 Ry
     estimated scf accuracy    <       0.00000499 Ry

     total magnetization       =    61.08 Bohr mag/cell
     absolute magnetization    =    68.51 Bohr mag/cell

     iteration # 45     ecut=    40.00 Ry     beta= 0.70
     Davidson diagonalization with overlap
     ethr =  1.07E-09,  avg # of iterations =  1.0

     negative rho (up, down):  2.306E-03 1.198E-03

     total cpu time spent up to now is      597.1 secs

     total energy              =   -6056.41509806 Ry
     estimated scf accuracy    <       0.00000205 Ry

     total magnetization       =    61.08 Bohr mag/cell
     absolute magnetization    =    68.51 Bohr mag/cell

     iteration # 46     ecut=    40.00 Ry     beta= 0.70
     Davidson diagonalization with overlap
     ethr =  6.11E-10,  avg # of iterations =  1.5

     negative rho (up, down):  2.302E-03 1.193E-03

     total cpu time spent up to now is      610.2 secs

     total energy              =   -6056.41509808 Ry
     estimated scf accuracy    <       0.00000365 Ry

     total magnetization       =    61.08 Bohr mag/cell
     absolute magnetization    =    68.51 Bohr mag/cell

     iteration # 47     ecut=    40.00 Ry     beta= 0.70
     Davidson diagonalization with overlap
     ethr =  6.11E-10,  avg # of iterations =  1.1

     negative rho (up, down):  2.285E-03 1.178E-03

     total cpu time spent up to now is      621.8 secs

     total energy              =   -6056.41509808 Ry
     estimated scf accuracy    <       0.00000292 Ry

     total magnetization       =    61.08 Bohr mag/cell
     absolute magnetization    =    68.51 Bohr mag/cell

     iteration # 48     ecut=    40.00 Ry     beta= 0.70
     Davidson diagonalization with overlap
     ethr =  6.11E-10,  avg # of iterations =  1.4

     negative rho (up, down):  2.225E-03 1.120E-03

     total cpu time spent up to now is      633.7 secs

     total energy              =   -6056.41509797 Ry
     estimated scf accuracy    <       0.00000313 Ry

     total magnetization       =    61.08 Bohr mag/cell
     absolute magnetization    =    68.51 Bohr mag/cell

     iteration # 49     ecut=    40.00 Ry     beta= 0.70
     Davidson diagonalization with overlap
     ethr =  6.11E-10,  avg # of iterations =  1.0

     negative rho (up, down):  2.237E-03 1.137E-03

     Magnetic moment per site  (integrated on atomic sphere of radius R)
     atom   1 (R=0.100)  charge=  6.1345  magn=  1.7496
     atom   2 (R=0.100)  charge=  6.1354  magn=  1.7414
     atom   3 (R=0.100)  charge=  6.1344  magn=  1.7476
     atom   4 (R=0.100)  charge=  6.1342  magn=  1.7486
     atom   5 (R=0.100)  charge=  6.1344  magn=  1.7484
     atom   6 (R=0.100)  charge=  6.1341  magn=  1.7532
     atom   7 (R=0.100)  charge=  6.1344  magn=  1.7555
     atom   8 (R=0.100)  charge=  6.1346  magn=  1.7490
     atom   9 (R=0.100)  charge=  6.1342  magn=  1.7489
     atom  10 (R=0.100)  charge=  6.1393  magn=  1.6738
     atom  11 (R=0.100)  charge=  6.1390  magn=  1.6722
     atom  12 (R=0.100)  charge=  6.1386  magn=  1.6757
     atom  13 (R=0.100)  charge=  6.1390  magn=  1.6729
     atom  14 (R=0.100)  charge=  6.1393  magn=  1.6766
     atom  15 (R=0.100)  charge=  6.1388  magn=  1.6808
     atom  16 (R=0.100)  charge=  6.1388  magn=  1.6746
     atom  17 (R=0.100)  charge=  6.1389  magn=  1.6803
     atom  18 (R=0.100)  charge=  6.1383  magn=  1.6775
     atom  19 (R=0.100)  charge=  6.1377  magn=  1.6832
     atom  20 (R=0.100)  charge=  6.1347  magn=  1.6997
     atom  21 (R=0.100)  charge=  6.1374  magn=  1.6753
     atom  22 (R=0.100)  charge=  6.1375  magn=  1.6874
     atom  23 (R=0.100)  charge=  6.1372  magn=  1.6753
     atom  24 (R=0.100)  charge=  6.1372  magn=  1.6862
     atom  25 (R=0.100)  charge=  6.1386  magn=  1.6883
     atom  26 (R=0.100)  charge=  6.1376  magn=  1.6838
     atom  27 (R=0.100)  charge=  6.1377  magn=  1.6871
     atom  28 (R=0.100)  charge=  6.1366  magn=  1.7597
     atom  29 (R=0.100)  charge=  6.1536  magn=  1.5132
     atom  30 (R=0.100)  charge=  6.1364  magn=  1.7604
     atom  31 (R=0.100)  charge=  6.1530  magn=  1.5348
     atom  32 (R=0.100)  charge=  6.1631  magn=  1.2316
     atom  33 (R=0.100)  charge=  6.1362  magn=  1.7378
     atom  34 (R=0.100)  charge=  6.1361  magn=  1.7617
     atom  35 (R=0.100)  charge=  6.1356  magn=  1.7373
     atom  36 (R=0.100)  charge=  6.1326  magn=  1.7550
     atom  37 (R=0.065)  charge=  1.0303  magn= -0.0211
     atom  38 (R=0.068)  charge=  3.1126  magn=  0.0092
     atom  39 (R=0.065)  charge=  0.5268  magn=  0.0062

     total cpu time spent up to now is      644.8 secs

     End of self-consistent calculation

 ------ SPIN UP ------------


          k = 0.0000 0.0000 0.0000 ( 36693 PWs)   bands (ev):

   -21.5933 -10.7837  -7.5782  -6.9693  -6.3024  -5.7492  -5.4376  -4.7096
    -4.6852  -4.6842  -4.6819  -4.6669  -4.6472  -4.6215  -4.3110  -4.1488
    -4.1469  -4.1457  -4.1212  -4.0981  -4.0837  -3.6310  -3.6242  -3.6235
    -3.6152  -3.6029  -3.5691  -3.4983  -3.4959  -3.4930  -3.4891  -3.4845
    -3.4488  -3.4212  -3.4184  -3.1219  -3.1067  -3.1057  -3.1015  -3.0880
    -3.0535  -3.0387  -3.0335  -3.0329  -3.0284  -3.0217  -3.0203  -2.8779
    -2.8757  -2.8508  -2.8224  -2.8028  -2.7998  -2.7962  -2.7821  -2.7713
    -2.7690  -2.7647  -2.7613  -2.6697  -2.6667  -2.6587  -2.6565  -2.6541
    -2.5953  -2.3711  -2.1347  -2.1291  -2.1282  -2.1134  -2.1025  -2.0188
    -2.0041  -1.9903  -1.9739  -1.9622  -1.9584  -1.9506  -1.9476  -1.9455
    -1.9339  -1.8885  -1.8844  -1.8396  -1.8378  -1.8306  -1.8224  -1.8116
    -1.8034  -1.7990  -1.7978  -1.7944  -1.7785  -1.7714  -1.7671  -1.7591
    -1.7542  -1.7536  -1.7511  -1.7504  -1.7487  -1.7432  -1.7425  -1.7388
    -1.7379  -1.6991  -1.6690  -1.6646  -1.6588  -1.5894  -1.5863  -1.5401
    -1.3532  -1.3276  -1.2923  -1.2908  -1.2873  -1.2846  -1.2752  -1.2727
    -1.2592  -1.2572  -1.2217  -1.2132  -1.2077  -1.1531  -1.0814  -1.0747
    -1.0460  -1.0443  -0.9594  -0.9065  -0.8903  -0.8744  -0.8693  -0.8539
    -0.8030  -0.7986  -0.7970  -0.7918  -0.7900  -0.7669  -0.6801  -0.6745
    -0.5709  -0.5604  -0.5544  -0.5532  -0.5210  -0.5161  -0.4966  -0.4920
    -0.4903  -0.4867  -0.4769  -0.4756  -0.4718  -0.4701  -0.4690  -0.4601
    -0.4578  -0.4571  -0.4394  -0.4258  -0.4147  -0.4082  -0.4021  -0.3967
    -0.3938  -0.3820  -0.3686  -0.3576  -0.3522  -0.3316  -0.3278  -0.3255
    -0.3238  -0.3145  -0.3077  -0.3005  -0.2841  -0.2578  -0.2541  -0.2491
    -0.2463  -0.2435  -0.2404  -0.2302  -0.2294  -0.2224  -0.1756  -0.1735
    -0.1602  -0.1584  -0.0933  -0.0899  -0.0876  -0.0781  -0.0745  -0.0686
     0.3493   1.0875

          k = 0.0000 0.2309 0.0000 ( 36641 PWs)   bands (ev):

   -21.5933 -10.7824  -7.4364  -6.9546  -6.2174  -5.7427  -5.4863  -5.3346
    -4.9304  -4.9201  -4.5528  -4.4165  -4.3415  -4.3372  -4.2703  -4.2189
    -4.1770  -4.1450  -4.0654  -4.0160  -4.0037  -3.7468  -3.6353  -3.6257
    -3.5528  -3.5269  -3.5101  -3.5042  -3.5012  -3.4892  -3.4746  -3.4563
    -3.4260  -3.3880  -3.3755  -3.3498  -3.3478  -3.1730  -3.1266  -3.1202
    -3.0813  -3.0669  -3.0621  -3.0524  -2.9960  -2.9575  -2.9317  -2.9108
    -2.8975  -2.8914  -2.8700  -2.8558  -2.7654  -2.7591  -2.7309  -2.7038
    -2.6897  -2.6682  -2.6559  -2.6387  -2.6351  -2.6067  -2.5884  -2.5832
    -2.5221  -2.3750  -2.2504  -2.2338  -2.2155  -2.2007  -2.1529  -2.1014
    -2.0884  -2.0807  -2.0715  -2.0615  -2.0508  -2.0365  -2.0162  -1.9827
    -1.9530  -1.9483  -1.9273  -1.8869  -1.8841  -1.8805  -1.8668  -1.8541
    -1.8474  -1.8413  -1.8354  -1.8325  -1.8203  -1.8119  -1.7584  -1.7500
    -1.7370  -1.7231  -1.6766  -1.6571  -1.6496  -1.6435  -1.6333  -1.6255
    -1.6148  -1.6028  -1.5996  -1.5963  -1.5900  -1.5667  -1.5483  -1.5423
    -1.5289  -1.5220  -1.4871  -1.4446  -1.4330  -1.3784  -1.3192  -1.3160
    -1.3061  -1.3023  -1.2930  -1.2896  -1.2823  -1.2755  -1.1893  -1.1495
    -1.1229  -1.1028  -1.0288  -1.0256  -1.0055  -0.9622  -0.9360  -0.9275
    -0.8830  -0.8544  -0.8309  -0.8067  -0.7935  -0.7860  -0.7491  -0.7427
    -0.7238  -0.7093  -0.6936  -0.6592  -0.6571  -0.6400  -0.6348  -0.6245
    -0.5896  -0.5604  -0.5534  -0.5490  -0.5289  -0.5059  -0.4912  -0.4884
    -0.4815  -0.4700  -0.4683  -0.4570  -0.4299  -0.4262  -0.4184  -0.3944
    -0.3607  -0.3488  -0.3312  -0.3222  -0.2957  -0.2900  -0.2571  -0.2382
    -0.2301  -0.2285  -0.2218  -0.2108  -0.1963  -0.1892  -0.1770  -0.1538
    -0.1345  -0.0914  -0.0880  -0.0834  -0.0610  -0.0585  -0.0200  -0.0118
     0.0029   0.0438   0.2572   0.2843   0.3668   0.4651   0.5313   0.5698
     0.6072   0.8059

          k = 0.0000 0.4619 0.0000 ( 36606 PWs)   bands (ev):

   -21.5932 -10.7803  -7.0901  -6.8647  -6.2983  -6.0224  -5.5989  -5.3391
    -5.0716  -5.0547  -4.9295  -4.2297  -4.1767  -4.1694  -4.1347  -4.0920
    -3.9818  -3.9776  -3.9341  -3.8473  -3.8443  -3.8353  -3.7327  -3.6668
    -3.6607  -3.6489  -3.6473  -3.5940  -3.5433  -3.5360  -3.5282  -3.3817
    -3.3770  -3.3620  -3.3545  -3.3286  -3.3245  -3.2403  -3.2148  -3.2109
    -3.2032  -3.1986  -3.0888  -3.0158  -2.9840  -2.9202  -2.8910  -2.8736
    -2.8568  -2.8261  -2.8116  -2.8099  -2.8032  -2.7708  -2.7286  -2.7125
    -2.6914  -2.6498  -2.6415  -2.5466  -2.5014  -2.4967  -2.4804  -2.4413
    -2.3904  -2.3730  -2.3640  -2.3503  -2.3036  -2.2501  -2.2293  -2.2132
    -2.2101  -2.2066  -2.1889  -2.1739  -2.1645  -2.1585  -2.1183  -2.1095
    -2.0722  -2.0603  -2.0401  -2.0230  -1.9833  -1.9791  -1.9381  -1.8997
    -1.8840  -1.8781  -1.8508  -1.8369  -1.8049  -1.7789  -1.7754  -1.7663
    -1.7565  -1.7356  -1.7304  -1.7086  -1.7042  -1.6871  -1.6729  -1.6589
    -1.6396  -1.6305  -1.5851  -1.5563  -1.5245  -1.4995  -1.4788  -1.4739
    -1.4541  -1.4376  -1.4108  -1.3699  -1.3636  -1.3481  -1.3332  -1.3307
    -1.3241  -1.3170  -1.3047  -1.3017  -1.2962  -1.2919  -1.2800  -1.2646
    -1.2543  -1.2325  -1.1607  -1.1281  -1.1079  -1.0966  -1.0745  -1.0620
    -1.0421  -0.9883  -0.9732  -0.9506  -0.9458  -0.8968  -0.8778  -0.8271
    -0.8214  -0.7925  -0.7752  -0.7466  -0.7372  -0.7224  -0.6888  -0.6531
    -0.6155  -0.5752  -0.5593  -0.5544  -0.5525  -0.5480  -0.5356  -0.5271
    -0.5151  -0.4971  -0.4332  -0.3996  -0.3882  -0.3845  -0.3769  -0.3732
    -0.3592  -0.3378  -0.3269  -0.3235  -0.3162  -0.2977  -0.2211  -0.2061
    -0.1996  -0.1942  -0.1678  -0.1304  -0.1040  -0.0900  -0.0649  -0.0377
    -0.0332   0.0123   0.0163   0.0357   0.0384   0.0413   0.0506   0.0796
     0.1503   0.1696   0.2903   0.8627   1.0785   1.1896   1.2704   1.3269
     1.4674   1.6343

          k = 0.2000-0.1155 0.0000 ( 36641 PWs)   bands (ev):

   -21.5933 -10.7824  -7.4364  -6.9547  -6.2167  -5.7405  -5.4869  -5.3372
    -4.9305  -4.9187  -4.5540  -4.4173  -4.3415  -4.3369  -4.2706  -4.2188
    -4.1759  -4.1450  -4.0660  -4.0159  -4.0032  -3.7473  -3.6350  -3.6257
    -3.5532  -3.5268  -3.5096  -3.5044  -3.5007  -3.4891  -3.4745  -3.4568
    -3.4253  -3.3883  -3.3750  -3.3499  -3.3471  -3.1716  -3.1280  -3.1205
    -3.0839  -3.0669  -3.0620  -3.0525  -2.9944  -2.9603  -2.9312  -2.9104
    -2.8968  -2.8917  -2.8698  -2.8562  -2.7665  -2.7595  -2.7330  -2.7037
    -2.6902  -2.6677  -2.6552  -2.6386  -2.6316  -2.6068  -2.5876  -2.5826
    -2.5231  -2.3764  -2.2497  -2.2343  -2.2154  -2.2008  -2.1532  -2.1017
    -2.0886  -2.0804  -2.0712  -2.0612  -2.0510  -2.0366  -2.0153  -1.9831
    -1.9526  -1.9479  -1.9266  -1.8867  -1.8840  -1.8792  -1.8663  -1.8546
    -1.8481  -1.8406  -1.8354  -1.8327  -1.8202  -1.8108  -1.7605  -1.7496
    -1.7367  -1.7243  -1.6757  -1.6573  -1.6489  -1.6430  -1.6329  -1.6263
    -1.6153  -1.6020  -1.5997  -1.5963  -1.5900  -1.5672  -1.5477  -1.5422
    -1.5284  -1.5220  -1.4860  -1.4459  -1.4330  -1.3782  -1.3187  -1.3167
    -1.3059  -1.3020  -1.2935  -1.2894  -1.2822  -1.2753  -1.1912  -1.1459
    -1.1222  -1.1019  -1.0289  -1.0258  -1.0054  -0.9628  -0.9360  -0.9288
    -0.8842  -0.8544  -0.8329  -0.8077  -0.7935  -0.7858  -0.7475  -0.7428
    -0.7238  -0.7094  -0.6926  -0.6604  -0.6570  -0.6401  -0.6350  -0.6241
    -0.5912  -0.5591  -0.5537  -0.5484  -0.5310  -0.5051  -0.4910  -0.4880
    -0.4809  -0.4695  -0.4682  -0.4568  -0.4288  -0.4270  -0.4189  -0.3968
    -0.3615  -0.3479  -0.3320  -0.3209  -0.2956  -0.2897  -0.2568  -0.2383
    -0.2308  -0.2277  -0.2217  -0.2117  -0.1956  -0.1890  -0.1770  -0.1535
    -0.1341  -0.0916  -0.0884  -0.0836  -0.0612  -0.0586  -0.0190  -0.0121
     0.0028   0.0442   0.2583   0.2847   0.3643   0.4663   0.5303   0.5740
     0.6097   0.7933

          k = 0.2000 0.1155 0.0000 ( 36641 PWs)   bands (ev):

   -21.5933 -10.7825  -7.4383  -6.9565  -6.2095  -5.7191  -5.4453  -5.4137
    -4.9261  -4.9066  -4.5587  -4.4352  -4.3422  -4.3343  -4.2726  -4.2228
    -4.1643  -4.1363  -4.0751  -4.0061  -4.0050  -3.7479  -3.6319  -3.6307
    -3.5514  -3.5297  -3.5059  -3.5042  -3.5000  -3.4913  -3.4724  -3.4575
    -3.4238  -3.3861  -3.3775  -3.3478  -3.3458  -3.1582  -3.1306  -3.1228
    -3.0931  -3.0673  -3.0651  -3.0601  -2.9880  -2.9592  -2.9413  -2.9083
    -2.8939  -2.8904  -2.8697  -2.8618  -2.7760  -2.7639  -2.7454  -2.7069
    -2.6920  -2.6605  -2.6598  -2.6368  -2.6176  -2.5925  -2.5891  -2.5799
    -2.5320  -2.3793  -2.2595  -2.2391  -2.2209  -2.1915  -2.1464  -2.0945
    -2.0877  -2.0849  -2.0703  -2.0652  -2.0567  -2.0318  -2.0065  -1.9774
    -1.9626  -1.9419  -1.9157  -1.8891  -1.8822  -1.8805  -1.8692  -1.8520
    -1.8465  -1.8454  -1.8354  -1.8347  -1.8162  -1.7923  -1.7678  -1.7613
    -1.7369  -1.7056  -1.6684  -1.6493  -1.6481  -1.6424  -1.6281  -1.6224
    -1.6163  -1.6089  -1.6026  -1.5928  -1.5897  -1.5766  -1.5490  -1.5451
    -1.5276  -1.5220  -1.4786  -1.4630  -1.4328  -1.3914  -1.3163  -1.3130
    -1.3117  -1.3028  -1.2934  -1.2888  -1.2828  -1.2801  -1.1560  -1.1356
    -1.1311  -1.0980  -1.0285  -1.0276  -1.0011  -0.9690  -0.9376  -0.9315
    -0.8762  -0.8455  -0.8328  -0.8073  -0.8009  -0.7889  -0.7489  -0.7473
    -0.7205  -0.7087  -0.6921  -0.6583  -0.6530  -0.6447  -0.6405  -0.6265
    -0.5921  -0.5613  -0.5524  -0.5462  -0.5293  -0.4969  -0.4902  -0.4848
    -0.4804  -0.4667  -0.4625  -0.4539  -0.4362  -0.4323  -0.4179  -0.4128
    -0.3590  -0.3408  -0.3261  -0.3215  -0.2951  -0.2933  -0.2550  -0.2362
    -0.2334  -0.2251  -0.2230  -0.2109  -0.1956  -0.1897  -0.1766  -0.1554
    -0.1329  -0.0958  -0.0904  -0.0860  -0.0605  -0.0599  -0.0147  -0.0092
     0.0095   0.0406   0.2515   0.2812   0.3262   0.4567   0.5194   0.5608
     0.6548   0.7397

          k = 0.2000 0.3464 0.0000 ( 36608 PWs)   bands (ev):

   -21.5932 -10.7808  -7.1886  -6.9085  -6.0982  -5.8073  -5.7564  -5.5374
    -5.3855  -4.6489  -4.5860  -4.3498  -4.3403  -4.2880  -4.1262  -4.1202
    -4.0298  -4.0248  -4.0070  -3.8917  -3.8667  -3.7491  -3.7386  -3.6795
    -3.6319  -3.5452  -3.5435  -3.5122  -3.4924  -3.4816  -3.4729  -3.4514
    -3.4371  -3.4198  -3.3938  -3.3685  -3.3267  -3.2928  -3.2839  -3.1697
    -3.1533  -3.0684  -3.0591  -3.0270  -3.0169  -3.0058  -2.9147  -2.9032
    -2.8579  -2.8336  -2.8273  -2.8224  -2.7739  -2.7637  -2.7441  -2.7321
    -2.7198  -2.6286  -2.5976  -2.5454  -2.5373  -2.5192  -2.5107  -2.4803
    -2.4708  -2.3630  -2.3307  -2.2836  -2.2695  -2.2297  -2.2091  -2.1942
    -2.1846  -2.1690  -2.1585  -2.1480  -2.1292  -2.1126  -2.1072  -2.0942
    -2.0782  -2.0547  -2.0052  -1.9750  -1.9196  -1.9129  -1.9008  -1.8774
    -1.8635  -1.8397  -1.8323  -1.8015  -1.7906  -1.7710  -1.7587  -1.7566
    -1.7415  -1.7346  -1.7192  -1.7110  -1.7028  -1.6916  -1.6751  -1.6590
    -1.6504  -1.6332  -1.5954  -1.5836  -1.5652  -1.5460  -1.5207  -1.5168
    -1.4951  -1.4877  -1.4780  -1.4443  -1.4158  -1.4134  -1.3880  -1.3503
    -1.3434  -1.3388  -1.3340  -1.3084  -1.2973  -1.2968  -1.2762  -1.2375
    -1.1934  -1.1727  -1.1603  -1.1168  -1.0423  -1.0377  -1.0221  -0.9358
    -0.9088  -0.9020  -0.8945  -0.8901  -0.8763  -0.8674  -0.8496  -0.8460
    -0.8186  -0.7986  -0.7733  -0.7421  -0.7319  -0.7228  -0.7041  -0.6974
    -0.6685  -0.6567  -0.6252  -0.6165  -0.6090  -0.5848  -0.5175  -0.4558
    -0.4521  -0.4207  -0.4141  -0.4053  -0.3957  -0.3764  -0.3697  -0.3624
    -0.3546  -0.3325  -0.2841  -0.2702  -0.2562  -0.2496  -0.2074  -0.1985
    -0.1843  -0.1811  -0.1748  -0.1549  -0.1443  -0.1370  -0.1345  -0.1129
    -0.1094  -0.0505  -0.0199  -0.0109  -0.0080   0.0384   0.0444   0.0579
     0.3651   0.3773   0.4530   0.5395   0.6615   0.7226   1.0301   1.1975
     1.2777   1.4284

          k = 0.2000-0.5774 0.0000 ( 36660 PWs)   bands (ev):

   -21.5933 -10.7797  -7.0218  -6.5552  -6.5147  -6.0118  -5.8308  -5.5252
    -5.1604  -5.0835  -4.6723  -4.3331  -4.0865  -4.0431  -3.9440  -3.9098
    -3.9064  -3.8848  -3.8799  -3.8513  -3.8070  -3.7989  -3.7948  -3.7838
    -3.7117  -3.6772  -3.6455  -3.6381  -3.6136  -3.6067  -3.4954  -3.4646
    -3.4576  -3.4460  -3.4321  -3.3902  -3.3015  -3.2899  -3.1895  -3.1670
    -3.1616  -3.0919  -3.0776  -3.0628  -3.0346  -2.9639  -2.9503  -2.9430
    -2.8801  -2.8724  -2.8079  -2.7597  -2.7388  -2.7221  -2.6898  -2.6642
    -2.6179  -2.5828  -2.5695  -2.5606  -2.5533  -2.5241  -2.5142  -2.4399
    -2.3852  -2.3678  -2.3554  -2.3440  -2.3128  -2.2821  -2.2496  -2.2306
    -2.2057  -2.1821  -2.1744  -2.1648  -2.1568  -2.1285  -2.1053  -2.0886
    -2.0843  -2.0709  -2.0594  -2.0356  -2.0300  -2.0088  -1.9581  -1.9455
    -1.9294  -1.8996  -1.8694  -1.8490  -1.8023  -1.8009  -1.7941  -1.7645
    -1.7543  -1.7371  -1.7355  -1.7261  -1.7179  -1.6971  -1.6816  -1.6645
    -1.6126  -1.5972  -1.5833  -1.5805  -1.5648  -1.5587  -1.5552  -1.5440
    -1.5348  -1.5251  -1.5081  -1.4797  -1.4621  -1.4299  -1.4247  -1.3932
    -1.3412  -1.3315  -1.2932  -1.2860  -1.2799  -1.2634  -1.2524  -1.1963
    -1.1822  -1.1701  -1.1607  -1.0998  -1.0687  -1.0414  -1.0258  -1.0045
    -0.9928  -0.9794  -0.9664  -0.9495  -0.9197  -0.9085  -0.8830  -0.8577
    -0.8362  -0.8227  -0.8099  -0.7905  -0.7753  -0.7418  -0.7179  -0.7060
    -0.6887  -0.6799  -0.6761  -0.6537  -0.6243  -0.6036  -0.5849  -0.4920
    -0.4179  -0.4053  -0.4031  -0.3942  -0.3850  -0.3814  -0.3707  -0.3558
    -0.3234  -0.3191  -0.3089  -0.3013  -0.2597  -0.2461  -0.1825  -0.1784
    -0.1670  -0.1552  -0.1361  -0.1271  -0.0921  -0.0775  -0.0710  -0.0625
    -0.0516   0.0161   0.0187   0.0229   0.0415   0.0466   0.0703   0.1022
     0.2318   0.4054   0.4911   0.7306   1.2207   1.3111   1.4607   1.6215
     1.8093   1.8759

          k = 0.2000-0.3464 0.0000 ( 36608 PWs)   bands (ev):

   -21.5932 -10.7807  -7.1770  -6.9178  -6.1058  -5.8324  -5.7598  -5.5411
    -5.3455  -4.6633  -4.5682  -4.3508  -4.3400  -4.2860  -4.1252  -4.1206
    -4.0308  -4.0197  -3.9994  -3.8929  -3.8773  -3.7486  -3.7380  -3.6839
    -3.6334  -3.5508  -3.5413  -3.5130  -3.4899  -3.4821  -3.4759  -3.4542
    -3.4362  -3.4210  -3.4043  -3.3653  -3.3266  -3.2878  -3.2773  -3.1733
    -3.1600  -3.0640  -3.0539  -3.0324  -3.0187  -3.0048  -2.9138  -2.8576
    -2.8512  -2.8432  -2.8276  -2.8179  -2.7711  -2.7668  -2.7384  -2.7314
    -2.7201  -2.6052  -2.6009  -2.5694  -2.5443  -2.5236  -2.4976  -2.4831
    -2.4644  -2.3758  -2.3398  -2.2856  -2.2614  -2.2290  -2.2133  -2.1902
    -2.1820  -2.1725  -2.1585  -2.1474  -2.1312  -2.1174  -2.1087  -2.0881
    -2.0876  -2.0575  -2.0029  -1.9798  -1.9199  -1.9178  -1.8899  -1.8729
    -1.8685  -1.8458  -1.8316  -1.8044  -1.7962  -1.7742  -1.7613  -1.7543
    -1.7382  -1.7359  -1.7281  -1.7112  -1.6996  -1.6971  -1.6740  -1.6621
    -1.6445  -1.6315  -1.6149  -1.5824  -1.5697  -1.5504  -1.5250  -1.5193
    -1.5025  -1.4848  -1.4836  -1.4381  -1.4175  -1.4082  -1.3894  -1.3649
    -1.3414  -1.3377  -1.3321  -1.3129  -1.3017  -1.2890  -1.2743  -1.2296
    -1.1979  -1.1681  -1.1638  -1.1188  -1.0523  -1.0371  -1.0244  -0.9236
    -0.9100  -0.9041  -0.8921  -0.8855  -0.8737  -0.8705  -0.8531  -0.8300
    -0.8126  -0.7999  -0.7743  -0.7436  -0.7367  -0.7219  -0.7088  -0.6948
    -0.6727  -0.6416  -0.6338  -0.6147  -0.6092  -0.5850  -0.5037  -0.4647
    -0.4482  -0.4224  -0.4174  -0.4098  -0.3936  -0.3778  -0.3704  -0.3604
    -0.3542  -0.3379  -0.2754  -0.2731  -0.2524  -0.2506  -0.2125  -0.1947
    -0.1850  -0.1821  -0.1775  -0.1544  -0.1406  -0.1381  -0.1320  -0.1193
    -0.1064  -0.0461  -0.0189  -0.0082  -0.0073   0.0403   0.0473   0.0622
     0.3460   0.3781   0.4690   0.5329   0.6265   0.7278   1.1292   1.2236
     1.2627   1.4605

          k = 0.4000-0.2309 0.0000 ( 36606 PWs)   bands (ev):

   -21.5932 -10.7804  -7.0910  -6.8638  -6.2963  -6.0214  -5.5956  -5.3448
    -5.0721  -5.0523  -4.9322  -4.2303  -4.1757  -4.1686  -4.1356  -4.0926
    -3.9816  -3.9774  -3.9346  -3.8473  -3.8442  -3.8352  -3.7329  -3.6669
    -3.6605  -3.6488  -3.6468  -3.5942  -3.5433  -3.5353  -3.5280  -3.3814
    -3.3766  -3.3619  -3.3537  -3.3285  -3.3235  -3.2390  -3.2161  -3.2115
    -3.2039  -3.1991  -3.0890  -3.0195  -2.9845  -2.9220  -2.8917  -2.8744
    -2.8570  -2.8270  -2.8119  -2.8098  -2.8021  -2.7724  -2.7259  -2.7126
    -2.6912  -2.6503  -2.6421  -2.5447  -2.5017  -2.4974  -2.4794  -2.4418
    -2.3907  -2.3733  -2.3644  -2.3500  -2.3026  -2.2506  -2.2249  -2.2140
    -2.2096  -2.2061  -2.1875  -2.1733  -2.1634  -2.1590  -2.1196  -2.1090
    -2.0721  -2.0591  -2.0397  -2.0229  -1.9835  -1.9786  -1.9384  -1.8980
    -1.8830  -1.8783  -1.8517  -1.8364  -1.8051  -1.7796  -1.7753  -1.7660
    -1.7575  -1.7355  -1.7308  -1.7085  -1.7036  -1.6868  -1.6736  -1.6587
    -1.6397  -1.6312  -1.5845  -1.5568  -1.5261  -1.4999  -1.4786  -1.4762
    -1.4531  -1.4378  -1.4085  -1.3701  -1.3629  -1.3464  -1.3339  -1.3297
    -1.3243  -1.3155  -1.3058  -1.3014  -1.2965  -1.2916  -1.2797  -1.2641
    -1.2551  -1.2314  -1.1618  -1.1279  -1.1076  -1.0960  -1.0754  -1.0627
    -1.0406  -0.9877  -0.9730  -0.9513  -0.9459  -0.8974  -0.8779  -0.8270
    -0.8215  -0.7939  -0.7746  -0.7475  -0.7375  -0.7226  -0.6898  -0.6550
    -0.6137  -0.5754  -0.5594  -0.5546  -0.5525  -0.5479  -0.5360  -0.5267
    -0.5148  -0.4986  -0.4333  -0.4001  -0.3881  -0.3847  -0.3764  -0.3740
    -0.3580  -0.3393  -0.3270  -0.3245  -0.3150  -0.2960  -0.2207  -0.2061
    -0.1997  -0.1936  -0.1674  -0.1305  -0.1041  -0.0902  -0.0662  -0.0373
    -0.0324   0.0121   0.0162   0.0357   0.0383   0.0415   0.0521   0.0792
     0.1505   0.1697   0.2854   0.8696   1.0659   1.1887   1.2709   1.3256
     1.4639   1.6368

          k = 0.4000 0.0000 0.0000 ( 36608 PWs)   bands (ev):

   -21.5932 -10.7809  -7.1889  -6.9081  -6.0971  -5.8045  -5.7566  -5.5382
    -5.3880  -4.6473  -4.5881  -4.3494  -4.3396  -4.2887  -4.1262  -4.1206
    -4.0300  -4.0249  -4.0076  -3.8914  -3.8661  -3.7489  -3.7394  -3.6789
    -3.6315  -3.5448  -3.5440  -3.5128  -3.4918  -3.4814  -3.4734  -3.4507
    -3.4371  -3.4200  -3.3904  -3.3689  -3.3267  -3.2946  -3.2844  -3.1699
    -3.1530  -3.0693  -3.0590  -3.0271  -3.0165  -3.0055  -2.9202  -2.9048
    -2.8574  -2.8333  -2.8263  -2.8224  -2.7746  -2.7641  -2.7431  -2.7322
    -2.7204  -2.6289  -2.5973  -2.5454  -2.5351  -2.5174  -2.5113  -2.4791
    -2.4718  -2.3625  -2.3311  -2.2840  -2.2701  -2.2299  -2.2082  -2.1951
    -2.1838  -2.1690  -2.1584  -2.1474  -2.1291  -2.1132  -2.1083  -2.0955
    -2.0762  -2.0537  -2.0055  -1.9748  -1.9188  -1.9122  -1.8987  -1.8789
    -1.8639  -1.8398  -1.8328  -1.8023  -1.7923  -1.7709  -1.7586  -1.7564
    -1.7408  -1.7346  -1.7190  -1.7104  -1.7029  -1.6915  -1.6754  -1.6593
    -1.6506  -1.6333  -1.5942  -1.5821  -1.5647  -1.5458  -1.5204  -1.5167
    -1.4942  -1.4868  -1.4760  -1.4441  -1.4155  -1.4128  -1.3880  -1.3500
    -1.3436  -1.3392  -1.3337  -1.3086  -1.2979  -1.2947  -1.2766  -1.2384
    -1.1935  -1.1724  -1.1605  -1.1163  -1.0438  -1.0371  -1.0217  -0.9369
    -0.9098  -0.9023  -0.8949  -0.8911  -0.8766  -0.8666  -0.8520  -0.8467
    -0.8181  -0.7983  -0.7739  -0.7415  -0.7325  -0.7240  -0.7047  -0.6972
    -0.6685  -0.6562  -0.6252  -0.6162  -0.6088  -0.5854  -0.5185  -0.4552
    -0.4524  -0.4216  -0.4140  -0.4071  -0.3926  -0.3762  -0.3695  -0.3631
    -0.3547  -0.3319  -0.2842  -0.2707  -0.2551  -0.2494  -0.2070  -0.1995
    -0.1844  -0.1811  -0.1751  -0.1550  -0.1442  -0.1366  -0.1352  -0.1130
    -0.1086  -0.0499  -0.0195  -0.0108  -0.0083   0.0380   0.0445   0.0568
     0.3652   0.3775   0.4469   0.5479   0.6636   0.7199   1.0269   1.1980
     1.2744   1.4315

          k = 0.4000 0.2309 0.0000 ( 36606 PWs)   bands (ev):

   -21.5932 -10.7806  -7.1143  -6.8496  -6.2685  -6.0152  -5.5112  -5.4578
    -5.0721  -5.0272  -4.9682  -4.2409  -4.1695  -4.1599  -4.1253  -4.1005
    -3.9822  -3.9748  -3.9369  -3.8438  -3.8400  -3.8391  -3.7412  -3.6642
    -3.6607  -3.6492  -3.6442  -3.5966  -3.5443  -3.5353  -3.5223  -3.3835
    -3.3795  -3.3564  -3.3478  -3.3248  -3.3186  -3.2336  -3.2115  -3.2109
    -3.2049  -3.2012  -3.0951  -3.0321  -2.9982  -2.9216  -2.9011  -2.8710
    -2.8611  -2.8292  -2.8165  -2.8093  -2.8065  -2.7838  -2.7175  -2.7140
    -2.6925  -2.6602  -2.6451  -2.5375  -2.4980  -2.4931  -2.4924  -2.4358
    -2.3910  -2.3690  -2.3672  -2.3536  -2.2922  -2.2627  -2.2382  -2.2174
    -2.2090  -2.2062  -2.1821  -2.1739  -2.1618  -2.1590  -2.1307  -2.0872
    -2.0758  -2.0554  -2.0353  -2.0099  -1.9863  -1.9695  -1.9230  -1.9088
    -1.8873  -1.8794  -1.8549  -1.8361  -1.8013  -1.7765  -1.7706  -1.7700
    -1.7543  -1.7333  -1.7248  -1.7064  -1.6979  -1.6892  -1.6654  -1.6480
    -1.6408  -1.6353  -1.5836  -1.5332  -1.5093  -1.5073  -1.4852  -1.4734
    -1.4468  -1.4372  -1.4059  -1.3659  -1.3565  -1.3482  -1.3368  -1.3307
    -1.3216  -1.3198  -1.3068  -1.3029  -1.3000  -1.2985  -1.2781  -1.2610
    -1.2378  -1.2165  -1.1795  -1.1256  -1.1079  -1.0884  -1.0833  -1.0398
    -1.0348  -0.9912  -0.9764  -0.9533  -0.9466  -0.8919  -0.8898  -0.8438
    -0.8247  -0.7931  -0.7718  -0.7606  -0.7392  -0.7174  -0.6893  -0.6573
    -0.6184  -0.5858  -0.5648  -0.5545  -0.5490  -0.5392  -0.5315  -0.5233
    -0.5079  -0.5011  -0.4426  -0.4018  -0.3958  -0.3838  -0.3742  -0.3730
    -0.3518  -0.3323  -0.3258  -0.3200  -0.3184  -0.2934  -0.2200  -0.2034
    -0.2014  -0.1947  -0.1636  -0.1343  -0.1045  -0.0894  -0.0672  -0.0411
    -0.0355   0.0126   0.0147   0.0359   0.0369   0.0407   0.0659   0.0857
     0.1494   0.1658   0.2343   0.9237   0.9985   1.1332   1.2622   1.2855
     1.4876   1.6436

          k = 0.4000-0.6928 0.0000 ( 36660 PWs)   bands (ev):

   -21.5933 -10.7799  -7.0401  -6.5431  -6.4869  -6.0360  -5.8325  -5.4232
    -5.2747  -5.0962  -4.6423  -4.3300  -4.0887  -4.0484  -3.9581  -3.9088
    -3.9055  -3.8872  -3.8758  -3.8545  -3.8018  -3.7989  -3.7946  -3.7820
    -3.7145  -3.6781  -3.6453  -3.6342  -3.6137  -3.6101  -3.4893  -3.4588
    -3.4567  -3.4464  -3.4242  -3.3804  -3.3093  -3.2830  -3.1944  -3.1661
    -3.1640  -3.1041  -3.0799  -3.0643  -3.0358  -2.9591  -2.9557  -2.9423
    -2.8784  -2.8695  -2.8289  -2.7682  -2.7466  -2.7274  -2.6831  -2.6631
    -2.6090  -2.5856  -2.5725  -2.5647  -2.5547  -2.5223  -2.5156  -2.4384
    -2.3755  -2.3682  -2.3585  -2.3475  -2.3044  -2.2857  -2.2668  -2.2214
    -2.2121  -2.1803  -2.1728  -2.1649  -2.1489  -2.1292  -2.1032  -2.0901
    -2.0800  -2.0714  -2.0663  -2.0366  -2.0314  -1.9770  -1.9613  -1.9420
    -1.9329  -1.9202  -1.8588  -1.8490  -1.8129  -1.7912  -1.7737  -1.7679
    -1.7484  -1.7412  -1.7316  -1.7234  -1.7122  -1.6866  -1.6792  -1.6559
    -1.6004  -1.5976  -1.5850  -1.5716  -1.5622  -1.5576  -1.5564  -1.5431
    -1.5361  -1.5292  -1.5106  -1.4850  -1.4646  -1.4273  -1.4227  -1.4035
    -1.3442  -1.3286  -1.2970  -1.2808  -1.2744  -1.2633  -1.2521  -1.2004
    -1.1890  -1.1736  -1.1662  -1.0930  -1.0578  -1.0431  -1.0247  -1.0070
    -0.9945  -0.9690  -0.9582  -0.9524  -0.9249  -0.9149  -0.8693  -0.8649
    -0.8279  -0.8207  -0.8055  -0.7918  -0.7687  -0.7507  -0.7162  -0.7112
    -0.7023  -0.6826  -0.6726  -0.6614  -0.6261  -0.6041  -0.5838  -0.4980
    -0.4156  -0.4056  -0.4039  -0.3891  -0.3842  -0.3800  -0.3717  -0.3609
    -0.3258  -0.3155  -0.3103  -0.3034  -0.2510  -0.2455  -0.1847  -0.1790
    -0.1743  -0.1517  -0.1331  -0.1236  -0.0903  -0.0754  -0.0705  -0.0623
    -0.0592   0.0161   0.0185   0.0336   0.0414   0.0452   0.0686   0.1002
     0.1663   0.4157   0.5329   0.7534   1.1577   1.3113   1.4128   1.7123
     1.7404   1.8178

          k = 0.4000-0.4619 0.0000 ( 36660 PWs)   bands (ev):

   -21.5933 -10.7798  -7.0226  -6.5538  -6.5137  -6.0131  -5.8310  -5.5191
    -5.1702  -5.0814  -4.6702  -4.3329  -4.0869  -4.0437  -3.9459  -3.9096
    -3.9064  -3.8845  -3.8796  -3.8512  -3.8067  -3.7989  -3.7948  -3.7838
    -3.7121  -3.6765  -3.6456  -3.6376  -3.6138  -3.6068  -3.4965  -3.4637
    -3.4576  -3.4451  -3.4310  -3.3892  -3.3002  -3.2907  -3.1907  -3.1681
    -3.1619  -3.0935  -3.0773  -3.0628  -3.0350  -2.9647  -2.9505  -2.9426
    -2.8804  -2.8721  -2.8094  -2.7616  -2.7389  -2.7222  -2.6874  -2.6646
    -2.6174  -2.5831  -2.5700  -2.5608  -2.5526  -2.5250  -2.5140  -2.4395
    -2.3835  -2.3692  -2.3559  -2.3441  -2.3126  -2.2821  -2.2481  -2.2298
    -2.2022  -2.1837  -2.1742  -2.1644  -2.1570  -2.1295  -2.1057  -2.0884
    -2.0840  -2.0711  -2.0594  -2.0339  -2.0298  -2.0065  -1.9578  -1.9448
    -1.9293  -1.9012  -1.8699  -1.8502  -1.8023  -1.8005  -1.7936  -1.7649
    -1.7545  -1.7367  -1.7355  -1.7269  -1.7183  -1.6974  -1.6811  -1.6639
    -1.6126  -1.5962  -1.5830  -1.5807  -1.5649  -1.5583  -1.5547  -1.5435
    -1.5349  -1.5251  -1.5097  -1.4799  -1.4628  -1.4300  -1.4248  -1.3930
    -1.3411  -1.3305  -1.2943  -1.2856  -1.2792  -1.2625  -1.2521  -1.1969
    -1.1821  -1.1701  -1.1616  -1.0993  -1.0698  -1.0411  -1.0242  -1.0039
    -0.9923  -0.9796  -0.9668  -0.9501  -0.9201  -0.9085  -0.8832  -0.8574
    -0.8363  -0.8224  -0.8100  -0.7889  -0.7763  -0.7433  -0.7180  -0.7054
    -0.6893  -0.6799  -0.6758  -0.6551  -0.6252  -0.6033  -0.5841  -0.4929
    -0.4175  -0.4050  -0.4029  -0.3939  -0.3853  -0.3817  -0.3713  -0.3566
    -0.3232  -0.3191  -0.3091  -0.3005  -0.2579  -0.2465  -0.1824  -0.1780
    -0.1682  -0.1547  -0.1361  -0.1271  -0.0914  -0.0776  -0.0707  -0.0625
    -0.0537   0.0158   0.0209   0.0258   0.0418   0.0466   0.0703   0.1021
     0.2226   0.4059   0.4943   0.7286   1.2247   1.3114   1.4619   1.6254
     1.8009   1.8694

 ------ SPIN DOWN ----------


          k = 0.0000 0.0000 0.0000 ( 36693 PWs)   bands (ev):

   -21.5783 -10.8171  -7.6983  -6.9111  -6.3539  -5.7218  -5.4328  -4.5110
    -4.4835  -4.4833  -4.4824  -4.4620  -4.4443  -4.3453  -3.6131  -3.6070
    -3.6069  -3.5765  -3.5664  -3.5567  -3.4292  -2.6714  -2.6575  -2.6569
    -2.6385  -2.6332  -2.5727  -2.2841  -2.1997  -2.1886  -2.1839  -2.1827
    -2.1779  -2.0005  -1.9912  -1.9603  -1.9079  -1.8985  -1.8946  -1.8755
    -1.8101  -1.8077  -1.7543  -1.7533  -1.7188  -1.6628  -1.6425  -1.6398
    -1.6174  -1.5302  -1.4474  -1.3898  -1.3811  -1.3752  -1.3534  -1.3509
    -1.3506  -1.3457  -1.3311  -1.3063  -1.2942  -1.2726  -1.2705  -1.2686
    -1.2447  -1.1493  -0.8743  -0.7130  -0.7127  -0.6956  -0.6951  -0.5374
    -0.4843  -0.4288  -0.3901  -0.3734  -0.3687  -0.3667  -0.3551  -0.3500
    -0.3096  -0.3011  -0.2831  -0.2726  -0.2711  -0.2643  -0.2263  -0.2096
    -0.1980  -0.1814  -0.1709  -0.1689  -0.1343  -0.1241  -0.1190  -0.1143
    -0.1109  -0.1071  -0.0897  -0.0852  -0.0824  -0.0816  -0.0189   0.0027
     0.0498   0.0709   0.0740   0.1062   0.1259   0.1364   0.1405   0.1425
     0.1456   0.1490   0.1518   0.1521   0.2252   0.2255   0.2819   0.2987
     0.3156   0.3228   0.3333   0.3358   0.5045   0.5246   0.5593   0.5702
     0.5991   0.6264   0.6294   0.6338   0.6969   0.8985   0.9041   0.9619
     0.9656   1.1005   1.1297   1.1595   1.1639   1.1910   1.1950   1.2022
     1.3367   1.3495   1.3525   1.3622   1.3665   1.3743   1.3761   1.4022
     1.4212   1.4455   1.4542   1.4616   1.4871   1.4889   1.5027   1.5143
     1.5186   1.5199   1.5254   1.5538   1.5585   1.5784   1.6022   1.6201
     1.6212   1.6358   1.6411   1.6444   1.6499   1.6508   1.6580   1.6925
     1.6942   1.7197   1.7246   1.7268   1.7404   1.7428   1.7499   1.7668
     1.7820   1.7889   1.7902   1.7965   1.7981   1.8020   1.8072   1.8130
     1.8267   1.8404   1.8720   1.8744   2.0198   2.0239   2.0284   2.0300
     2.0306   2.0317

          k = 0.0000 0.2309 0.0000 ( 36641 PWs)   bands (ev):

   -21.5783 -10.8158  -7.5524  -6.8972  -6.2608  -5.7429  -5.4860  -5.3406
    -4.8619  -4.8516  -4.3347  -4.2005  -3.9339  -3.9298  -3.8275  -3.7960
    -3.6402  -3.3783  -3.2521  -3.2412  -3.1474  -2.8736  -2.6664  -2.6490
    -2.6023  -2.5539  -2.5351  -2.3454  -2.2511  -2.2237  -2.2191  -2.2095
    -2.1774  -2.1411  -2.1327  -2.1165  -2.0917  -1.9832  -1.9532  -1.9230
    -1.8660  -1.8588  -1.8065  -1.7020  -1.6835  -1.6659  -1.6349  -1.5676
    -1.5187  -1.4850  -1.4576  -1.4297  -1.4020  -1.3875  -1.3668  -1.3606
    -1.3566  -1.3344  -1.2797  -1.2381  -1.2229  -1.2113  -1.1867  -1.1648
    -1.0970  -1.0363  -0.9107  -0.7642  -0.7516  -0.7420  -0.7052  -0.6372
    -0.6027  -0.5815  -0.5332  -0.5152  -0.4252  -0.4089  -0.3908  -0.3738
    -0.3445  -0.3401  -0.3301  -0.3219  -0.3074  -0.2933  -0.2554  -0.2258
    -0.1882  -0.1735  -0.1621  -0.1589  -0.1397  -0.1165  -0.1023  -0.0894
    -0.0838  -0.0736  -0.0647  -0.0588  -0.0574  -0.0530  -0.0364  -0.0129
     0.0207   0.0285   0.0386   0.0436   0.0660   0.0883   0.0976   0.1127
     0.1458   0.1597   0.1852   0.2093   0.2422   0.2535   0.2604   0.2920
     0.4111   0.4269   0.4817   0.4928   0.5212   0.5365   0.5532   0.5676
     0.5854   0.5929   0.6070   0.6134   0.7844   0.8779   0.9024   0.9360
     0.9393   0.9569   0.9760   0.9887   1.0314   1.0543   1.1247   1.1334
     1.1480   1.1972   1.2090   1.2497   1.2586   1.2987   1.3052   1.3127
     1.3637   1.3986   1.4132   1.4298   1.4354   1.4552   1.4752   1.4895
     1.5139   1.5439   1.5596   1.5799   1.5935   1.6063   1.6188   1.6524
     1.6751   1.6806   1.6862   1.6965   1.6994   1.7165   1.7670   1.7730
     1.7775   1.7843   1.8204   1.8302   1.8402   1.8592   1.8675   1.8758
     1.8901   1.9268   1.9303   1.9427   1.9595   1.9652   1.9699   1.9921
     1.9931   2.0162   2.0191   2.0336   2.1116   2.1264   2.1350   2.1670
     2.2011   2.2242

          k = 0.0000 0.4619 0.0000 ( 36606 PWs)   bands (ev):

   -21.5782 -10.8136  -7.1451  -6.8642  -6.3865  -6.0347  -5.6262  -5.3476
    -5.0777  -5.0546  -4.9128  -3.9980  -3.9530  -3.8539  -3.3652  -3.3145
    -3.3088  -3.1960  -3.0386  -2.9880  -2.8645  -2.8581  -2.7153  -2.7101
    -2.6461  -2.6400  -2.5976  -2.5535  -2.4759  -2.4617  -2.4273  -2.3954
    -2.3865  -2.2086  -2.1771  -2.1272  -2.0905  -2.0376  -1.9775  -1.9696
    -1.9578  -1.9413  -1.8331  -1.6905  -1.6599  -1.6390  -1.6146  -1.5701
    -1.4478  -1.4394  -1.4253  -1.4104  -1.4047  -1.3816  -1.3695  -1.3632
    -1.3160  -1.2692  -1.2527  -1.2446  -1.2257  -1.1850  -1.0847  -1.0008
    -0.9636  -0.8909  -0.8729  -0.7890  -0.7769  -0.7461  -0.7119  -0.7031
    -0.6831  -0.6716  -0.6381  -0.6062  -0.5869  -0.5418  -0.5168  -0.4999
    -0.4669  -0.4353  -0.4187  -0.4077  -0.3917  -0.3657  -0.3109  -0.2578
    -0.2257  -0.2241  -0.1946  -0.1631  -0.1385  -0.1159  -0.1093  -0.0738
    -0.0531  -0.0453  -0.0284  -0.0126  -0.0066  -0.0010   0.0128   0.0359
     0.0534   0.0796   0.0867   0.0977   0.1053   0.1093   0.1301   0.1500
     0.1573   0.1799   0.2083   0.2956   0.3035   0.3089   0.3423   0.3576
     0.3628   0.3847   0.3881   0.4543   0.4611   0.4751   0.4929   0.5096
     0.5393   0.5534   0.5743   0.5797   0.6163   0.6913   0.7557   0.7901
     0.7943   0.8282   0.8751   0.9752   0.9852   1.0225   1.0415   1.0575
     1.0589   1.1110   1.1249   1.1402   1.1649   1.2096   1.2464   1.3278
     1.3432   1.3799   1.3995   1.4287   1.4456   1.4642   1.4777   1.5006
     1.5241   1.5434   1.5661   1.6142   1.6361   1.6524   1.6646   1.6920
     1.6978   1.7079   1.7409   1.7553   1.7646   1.7818   1.7897   1.8242
     1.8325   1.8684   1.8970   1.9201   1.9367   1.9610   1.9701   1.9769
     1.9874   1.9977   2.0179   2.0236   2.0289   2.0564   2.0581   2.0601
     2.0694   2.1097   2.1978   2.2768   2.3146   2.3918   2.4949   2.7260
     2.7833   2.8337

          k = 0.2000-0.1155 0.0000 ( 36641 PWs)   bands (ev):

   -21.5783 -10.8158  -7.5524  -6.8974  -6.2599  -5.7403  -5.4869  -5.3436
    -4.8614  -4.8504  -4.3363  -4.2010  -3.9339  -3.9298  -3.8271  -3.7950
    -3.6403  -3.3782  -3.2524  -3.2410  -3.1477  -2.8745  -2.6664  -2.6481
    -2.6036  -2.5545  -2.5334  -2.3460  -2.2508  -2.2234  -2.2202  -2.2091
    -2.1776  -2.1400  -2.1329  -2.1164  -2.0914  -1.9825  -1.9537  -1.9257
    -1.8656  -1.8585  -1.8083  -1.7015  -1.6836  -1.6658  -1.6322  -1.5706
    -1.5177  -1.4855  -1.4573  -1.4292  -1.4027  -1.3863  -1.3665  -1.3615
    -1.3562  -1.3310  -1.2795  -1.2372  -1.2217  -1.2118  -1.1881  -1.1647
    -1.0968  -1.0386  -0.9097  -0.7641  -0.7527  -0.7418  -0.7044  -0.6374
    -0.6033  -0.5814  -0.5331  -0.5150  -0.4251  -0.4085  -0.3907  -0.3739
    -0.3446  -0.3401  -0.3307  -0.3220  -0.3080  -0.2928  -0.2554  -0.2254
    -0.1883  -0.1730  -0.1617  -0.1592  -0.1394  -0.1145  -0.1029  -0.0891
    -0.0842  -0.0736  -0.0643  -0.0589  -0.0572  -0.0529  -0.0365  -0.0130
     0.0203   0.0291   0.0376   0.0436   0.0671   0.0875   0.0981   0.1132
     0.1469   0.1595   0.1863   0.2101   0.2417   0.2532   0.2605   0.2917
     0.4102   0.4292   0.4790   0.4930   0.5163   0.5360   0.5559   0.5668
     0.5844   0.5926   0.6079   0.6131   0.7879   0.8759   0.9062   0.9332
     0.9390   0.9570   0.9776   0.9870   1.0279   1.0564   1.1208   1.1281
     1.1473   1.1943   1.2114   1.2460   1.2592   1.2953   1.3058   1.3166
     1.3637   1.3974   1.4139   1.4299   1.4357   1.4580   1.4768   1.4936
     1.5153   1.5430   1.5602   1.5810   1.5965   1.6056   1.6188   1.6490
     1.6752   1.6820   1.6862   1.6963   1.6996   1.7159   1.7666   1.7728
     1.7776   1.7844   1.8206   1.8304   1.8397   1.8586   1.8673   1.8758
     1.8899   1.9273   1.9302   1.9439   1.9589   1.9650   1.9711   1.9915
     1.9932   2.0167   2.0196   2.0337   2.1118   2.1261   2.1351   2.1629
     2.2021   2.2248

          k = 0.2000 0.1155 0.0000 ( 36641 PWs)   bands (ev):

   -21.5783 -10.8159  -7.5535  -6.9010  -6.2519  -5.7136  -5.4452  -5.4284
    -4.8519  -4.8404  -4.3418  -4.2234  -3.9323  -3.9320  -3.8158  -3.7807
    -3.6425  -3.3781  -3.2494  -3.2381  -3.1536  -2.8848  -2.6673  -2.6416
    -2.6002  -2.5554  -2.5325  -2.3240  -2.2752  -2.2239  -2.2234  -2.2075
    -2.1856  -2.1352  -2.1328  -2.1107  -2.0968  -1.9678  -1.9534  -1.9468
    -1.8649  -1.8472  -1.7975  -1.7462  -1.6684  -1.6670  -1.6187  -1.5453
    -1.5425  -1.4849  -1.4634  -1.4378  -1.4051  -1.3760  -1.3723  -1.3593
    -1.3551  -1.3014  -1.2790  -1.2404  -1.2290  -1.2166  -1.1873  -1.1622
    -1.1069  -1.0133  -0.9295  -0.7561  -0.7513  -0.7267  -0.7011  -0.6417
    -0.6229  -0.5727  -0.5402  -0.5139  -0.4271  -0.4003  -0.3940  -0.3667
    -0.3465  -0.3402  -0.3295  -0.3148  -0.3142  -0.2902  -0.2576  -0.2472
    -0.1842  -0.1646  -0.1620  -0.1580  -0.1413  -0.1110  -0.1016  -0.0866
    -0.0784  -0.0746  -0.0705  -0.0614  -0.0587  -0.0505  -0.0289  -0.0141
     0.0247   0.0293   0.0416   0.0435   0.0717   0.0896   0.1005   0.1030
     0.1467   0.1586   0.1964   0.2099   0.2415   0.2440   0.2611   0.2923
     0.4175   0.4353   0.4563   0.4924   0.4973   0.5500   0.5555   0.5637
     0.5701   0.5971   0.6075   0.6148   0.7895   0.8846   0.9071   0.9289
     0.9435   0.9485   0.9759   0.9884   1.0160   1.0745   1.0900   1.1217
     1.1318   1.2052   1.2169   1.2498   1.2676   1.2828   1.3058   1.3365
     1.3594   1.4063   1.4211   1.4259   1.4385   1.4559   1.4829   1.4867
     1.5169   1.5402   1.5555   1.5887   1.5924   1.6199   1.6227   1.6520
     1.6624   1.6821   1.6883   1.6969   1.7046   1.7081   1.7627   1.7656
     1.7775   1.7834   1.8262   1.8300   1.8393   1.8618   1.8655   1.8759
     1.8873   1.9300   1.9322   1.9386   1.9566   1.9644   1.9660   1.9893
     1.9943   2.0219   2.0225   2.0322   2.1114   2.1211   2.1320   2.1566
     2.2058   2.2205

          k = 0.2000 0.3464 0.0000 ( 36608 PWs)   bands (ev):

   -21.5782 -10.8142  -7.2766  -6.8765  -6.1130  -5.8776  -5.8284  -5.5437
    -5.3906  -4.5947  -4.4969  -4.1309  -4.1134  -3.9991  -3.2932  -3.2850
    -3.2784  -3.2695  -3.1611  -3.0820  -2.9877  -2.9676  -2.9263  -2.6138
    -2.5529  -2.5298  -2.5239  -2.4475  -2.4258  -2.4091  -2.3498  -2.3224
    -2.3094  -2.3043  -2.2887  -2.1645  -2.1396  -2.0415  -1.9313  -1.9226
    -1.8884  -1.8709  -1.8076  -1.7929  -1.7303  -1.6428  -1.5973  -1.5770
    -1.4756  -1.4468  -1.4109  -1.4089  -1.3994  -1.3816  -1.3688  -1.3439
    -1.3307  -1.2828  -1.2736  -1.2264  -1.1756  -1.1371  -1.0737  -1.0267
    -0.9579  -0.9328  -0.9035  -0.8155  -0.7324  -0.7161  -0.6934  -0.6664
    -0.6462  -0.6304  -0.6197  -0.5893  -0.5446  -0.5255  -0.5101  -0.4879
    -0.4754  -0.4472  -0.4372  -0.4253  -0.3793  -0.3181  -0.2674  -0.2496
    -0.2426  -0.2278  -0.1902  -0.1706  -0.1579  -0.1433  -0.1273  -0.1187
    -0.0987  -0.0755  -0.0658  -0.0484  -0.0392  -0.0221   0.0053   0.0232
     0.0305   0.0404   0.0567   0.0717   0.0820   0.0894   0.1123   0.1195
     0.1354   0.1989   0.2071   0.2256   0.3324   0.3440   0.3635   0.3760
     0.4026   0.4252   0.4523   0.4679   0.5012   0.5268   0.5365   0.5451
     0.5534   0.5661   0.6143   0.6382   0.6889   0.7373   0.8259   0.8511
     0.9162   0.9340   0.9719   0.9984   1.0081   1.0130   1.0213   1.0428
     1.0575   1.0738   1.0955   1.1140   1.1410   1.1735   1.2355   1.2599
     1.2794   1.2954   1.3376   1.3558   1.3591   1.3728   1.4179   1.4421
     1.5048   1.5576   1.6253   1.6475   1.6652   1.6817   1.6950   1.7039
     1.7130   1.7290   1.7359   1.7525   1.7623   1.8218   1.8314   1.8370
     1.8441   1.8761   1.8878   1.8949   1.9101   1.9349   1.9431   1.9640
     1.9691   1.9799   1.9846   2.0014   2.0118   2.0433   2.0589   2.0842
     2.1041   2.1140   2.1992   2.2362   2.3014   2.3516   2.3862   2.4994
     2.6564   2.7012

          k = 0.2000-0.5774 0.0000 ( 36660 PWs)   bands (ev):

   -21.5782 -10.8130  -6.9754  -6.6671  -6.5993  -6.0350  -5.8790  -5.5548
    -5.1851  -5.0909  -4.6287  -4.1807  -3.6499  -3.5073  -3.3181  -3.3125
    -3.2789  -3.0845  -3.0595  -2.9044  -2.8986  -2.8927  -2.7653  -2.7543
    -2.7417  -2.7222  -2.7085  -2.6870  -2.5252  -2.4012  -2.3758  -2.3535
    -2.3352  -2.3229  -2.2829  -2.2702  -2.1952  -2.1511  -1.9576  -1.9254
    -1.8342  -1.8128  -1.8095  -1.7499  -1.7124  -1.6416  -1.5754  -1.5629
    -1.5257  -1.5159  -1.5038  -1.4067  -1.3548  -1.3429  -1.3332  -1.3192
    -1.2707  -1.2179  -1.1889  -1.1705  -1.1175  -1.0882  -1.0753  -0.9909
    -0.9856  -0.9290  -0.8296  -0.7904  -0.7893  -0.7509  -0.7199  -0.7115
    -0.6611  -0.6486  -0.6229  -0.5936  -0.5521  -0.5448  -0.5019  -0.4907
    -0.4848  -0.4525  -0.4424  -0.4292  -0.4205  -0.4125  -0.3845  -0.3578
    -0.3496  -0.3237  -0.3059  -0.2748  -0.2234  -0.2022  -0.1764  -0.1401
    -0.1147  -0.0925  -0.0623  -0.0443  -0.0271  -0.0063   0.0035   0.0220
     0.0544   0.0837   0.0997   0.1149   0.1279   0.1427   0.2080   0.2349
     0.2568   0.2788   0.2823   0.2987   0.3151   0.3423   0.3723   0.3930
     0.4008   0.4065   0.4587   0.4913   0.5029   0.5172   0.5364   0.5588
     0.5806   0.5865   0.6078   0.6391   0.6498   0.6571   0.6691   0.6970
     0.7599   0.8337   0.9057   0.9222   0.9524   0.9576   0.9900   1.0108
     1.0159   1.0398   1.0602   1.1038   1.1518   1.1949   1.2009   1.2195
     1.2564   1.2634   1.2877   1.3289   1.3484   1.3728   1.4238   1.4462
     1.4586   1.5842   1.6163   1.6406   1.6821   1.7025   1.7282   1.7507
     1.7554   1.7612   1.7785   1.7901   1.8184   1.8367   1.8442   1.8543
     1.8840   1.9061   1.9272   1.9383   1.9421   1.9451   1.9533   1.9561
     1.9678   2.0122   2.0187   2.0415   2.0519   2.0645   2.0743   2.0811
     2.1019   2.1610   2.2466   2.4122   2.5989   2.7286   2.8718   2.9477
     2.9606   3.0005

          k = 0.2000-0.3464 0.0000 ( 36608 PWs)   bands (ev):

   -21.5782 -10.8140  -7.2703  -6.8791  -6.1218  -5.9009  -5.8319  -5.5478
    -5.3500  -4.6102  -4.4796  -4.1298  -4.1138  -3.9967  -3.2942  -3.2866
[...]
     atom    8 type  1   force =    -0.00159458   -0.00179659   -0.10399900
     atom    9 type  1   force =     0.00071317   -0.00009559   -0.10534488
     atom   10 type  1   force =     0.00170680    0.00086474   -0.00941709
     atom   11 type  1   force =     0.00004491   -0.00186045   -0.01009761
     atom   12 type  1   force =    -0.00148381    0.00027866   -0.01000687
     atom   13 type  1   force =    -0.00129601    0.00104853   -0.00975074
     atom   14 type  1   force =     0.00056351    0.00018971   -0.00698568
     atom   15 type  1   force =     0.00050152    0.00047924   -0.00990625
     atom   16 type  1   force =    -0.00056729   -0.00126008   -0.01042720
     atom   17 type  1   force =     0.00104935    0.00042742   -0.00961698
     atom   18 type  1   force =     0.00015166    0.00015411   -0.01005037
     atom   19 type  1   force =    -0.00345163   -0.00305568    0.00966256
     atom   20 type  1   force =    -0.00566352   -0.00375665    0.00214758
     atom   21 type  1   force =     0.00945473   -0.00573675    0.00222104
     atom   22 type  1   force =     0.00250211    0.00331728    0.01166658
     atom   23 type  1   force =    -0.00020714    0.01094188    0.00250741
     atom   24 type  1   force =    -0.00264264   -0.00177212    0.01887197
     atom   25 type  1   force =     0.00043395    0.00014277    0.02091495
     atom   26 type  1   force =    -0.00424828   -0.00134714    0.00978915
     atom   27 type  1   force =     0.00387889    0.00089829    0.01252556
     atom   28 type  1   force =     0.01961111    0.01187627    0.13550417
     atom   29 type  1   force =    -0.02781915    0.04030987    0.15294724
     atom   30 type  1   force =    -0.01079210    0.00802707    0.12389592
     atom   31 type  1   force =     0.02407574   -0.04492581    0.16325348
     atom   32 type  1   force =    -0.04225089   -0.03072028    0.19904704
     atom   33 type  1   force =     0.00172880   -0.00179371    0.12182704
     atom   34 type  1   force =     0.00074377   -0.01103256    0.12229849
     atom   35 type  1   force =     0.00016136    0.00273528    0.11985081
     atom   36 type  1   force =     0.00014702   -0.00018529    0.10281000
     atom   37 type  2   force =    -0.09431932   -0.03572412    0.25572705
     atom   38 type  3   force =     1.63232183    0.80213847   -1.89403927
     atom   39 type  4   force =    -0.04430474   -0.02399585   -0.02757767
     The ionic contribution  to forces
     atom    1 type  1   force =    -0.00908790    0.00029839 -111.18801249
     atom    2 type  1   force =     0.00032047    0.00004345 -111.20565030
     atom    3 type  1   force =     0.00876739   -0.00031002 -111.18736502
     atom    4 type  1   force =    -0.00459133    0.00840278 -111.18662270
     atom    5 type  1   force =     0.00423642    0.00783310 -111.18733886
     atom    6 type  1   force =     0.00035493    0.00036066 -111.17823806
     atom    7 type  1   force =    -0.00068253   -0.00040939 -111.17813726
     atom    8 type  1   force =    -0.00416255   -0.00810427 -111.18774166
     atom    9 type  1   force =     0.00484509   -0.00811470 -111.18637855
     atom   10 type  1   force =    -0.05029030   -0.02989928  -40.13518208
     atom   11 type  1   force =     0.00457395   -0.07296375  -40.22800850
     atom   12 type  1   force =     0.04571294   -0.03156980  -40.12583845
     atom   13 type  1   force =    -0.06014155    0.03970174  -40.23011588
     atom   14 type  1   force =     0.06084922    0.03482350  -40.22921235
     atom   15 type  1   force =    -0.00070022    0.01381290  -40.11071023
     atom   16 type  1   force =    -0.00373989    0.05611113  -40.12634952
     atom   17 type  1   force =     0.01189061   -0.00648826  -40.10925798
     atom   18 type  1   force =    -0.00815222   -0.00352647  -40.10203245
     atom   19 type  1   force =    -0.45025637    0.01828670   31.29830124
     atom   20 type  1   force =     0.01192487   -0.00067223   30.30027983
     atom   21 type  1   force =     0.43673548   -0.01865432   31.33427384
     atom   22 type  1   force =    -0.22263144    0.41061467   31.37289364
     atom   23 type  1   force =     0.20754121    0.39138513   31.33593668
     atom   24 type  1   force =     0.01550676    0.01630078   31.72498935
     atom   25 type  1   force =    -0.03426147   -0.02059508   31.72929650
     atom   26 type  1   force =    -0.20238255   -0.40237462   31.31245762
     atom   27 type  1   force =     0.23672570   -0.39490168   31.38492295
     atom   28 type  1   force =    -1.93440995   -1.15821188  103.40984946
     atom   29 type  1   force =     0.37202817   -4.74845030   99.51797733
     atom   30 type  1   force =     1.56137760   -1.08911201  103.97317990
     atom   31 type  1   force =    -3.88500453    2.68874248   99.32928613
     atom   32 type  1   force =     4.25082260    2.46367606   98.73904596
     atom   33 type  1   force =    -0.06292111    0.38326641  104.26191751
     atom   34 type  1   force =    -0.13058092    1.92215305  103.96013053
     atom   35 type  1   force =     0.31266277   -0.20116643  104.30127739
     atom   36 type  1   force =    -0.18785238   -0.05942051  104.45670455
     atom   37 type  2   force =     3.92892001    1.80786245   53.76527581
     atom   38 type  3   force =    -6.08820359   -2.99980116   89.39110968
     atom   39 type  4   force =     1.86425659    0.99107082   15.18308644
     The local contribution  to forces
     atom    1 type  1   force =     0.01180463    0.00131427  111.29339650
     atom    2 type  1   force =    -0.00009156    0.00030774  111.30623548
     atom    3 type  1   force =    -0.01131908    0.00137034  111.29093415
     atom    4 type  1   force =     0.00427814   -0.01006847  111.29306198
     atom    5 type  1   force =    -0.00486970   -0.01044227  111.29079041
     atom    6 type  1   force =     0.00055498    0.00032555  111.28204199
     atom    7 type  1   force =    -0.00062172   -0.00053685  111.28375734
     atom    8 type  1   force =     0.00702547    0.00955995  111.29374955
     atom    9 type  1   force =    -0.00669893    0.00832819  111.29292475
     atom   10 type  1   force =     0.04870305    0.02912101   40.12501758
     atom   11 type  1   force =    -0.00505165    0.07511445   40.21737088
     atom   12 type  1   force =    -0.04353171    0.03222671   40.11739343
     atom   13 type  1   force =     0.06183627   -0.04102199   40.21958029
     atom   14 type  1   force =    -0.06168227   -0.03485541   40.21484383
     atom   15 type  1   force =     0.00008286   -0.01484377   40.10063422
     atom   16 type  1   force =     0.00548433   -0.05473059   40.11778799
     atom   17 type  1   force =    -0.01345774    0.00617863   40.09919446
     atom   18 type  1   force =     0.00796332    0.00326463   40.09153211
     atom   19 type  1   force =     0.45092590   -0.01563338  -31.28766336
     atom   20 type  1   force =    -0.00611236    0.00464930  -30.28743317
     atom   21 type  1   force =    -0.44345929    0.02394809  -31.31704226
     atom   22 type  1   force =     0.21932120   -0.41349979  -31.36275816
     atom   23 type  1   force =    -0.20626108   -0.40052114  -31.31855280
     atom   24 type  1   force =    -0.01231393   -0.01422790  -31.72023656
     atom   25 type  1   force =     0.03396676    0.02056136  -31.72459163
     atom   26 type  1   force =     0.20448252    0.40150704  -31.30292160
     atom   27 type  1   force =    -0.24025882    0.39316185  -31.37570006
     atom   28 type  1   force =     1.90701798    1.14156814 -103.55598665
     atom   29 type  1   force =    -0.34019136    4.68742725  -99.67701746
     atom   30 type  1   force =    -1.54196739    1.06980920 -104.10790658
     atom   31 type  1   force =     3.84352180   -2.63040585  -99.50076773
     atom   32 type  1   force =    -4.18790198   -2.41977191  -98.93610037
     atom   33 type  1   force =     0.06504293   -0.37929437 -104.39758190
     atom   34 type  1   force =     0.12531553   -1.89832976 -104.09304602
     atom   35 type  1   force =    -0.30887499    0.20099994 -104.43441419
     atom   36 type  1   force =     0.18585468    0.05903508 -104.56886885
     atom   37 type  2   force =    -3.84114960   -1.77517537  -54.01866136
     atom   38 type  3   force =     4.47444113    2.20693379  -87.50719011
     atom   39 type  4   force =    -1.81659631   -0.96481004  -15.16696692
     The core correction contribution to forces
     atom    1 type  1   force =     0.00019432    0.00003271    0.01021923
     atom    2 type  1   force =     0.00004864    0.00007229    0.01007976
     atom    3 type  1   force =    -0.00008943    0.00008789    0.01043500
     atom    4 type  1   force =    -0.00007800   -0.00006814    0.01030400
     atom    5 type  1   force =    -0.00002149   -0.00017224    0.01046128
     atom    6 type  1   force =     0.00005870    0.00004516    0.00979082
     atom    7 type  1   force =    -0.00001270   -0.00000208    0.01072314
     atom    8 type  1   force =     0.00013082    0.00011691    0.01020749
     atom    9 type  1   force =    -0.00008766   -0.00000789    0.01025165
     atom   10 type  1   force =    -0.00027442   -0.00017872   -0.00180597
     atom   11 type  1   force =     0.00001057   -0.00013991   -0.00177707
     atom   12 type  1   force =     0.00033860   -0.00025170   -0.00204821
     atom   13 type  1   force =    -0.00011007    0.00003495   -0.00171677
     atom   14 type  1   force =     0.00008263    0.00006183   -0.00169582
     atom   15 type  1   force =     0.00012326    0.00004643   -0.00189551
     atom   16 type  1   force =    -0.00003951    0.00043389   -0.00206367
     atom   17 type  1   force =     0.00007549    0.00006196   -0.00182664
     atom   18 type  1   force =    -0.00012260   -0.00004899   -0.00147115
     atom   19 type  1   force =     0.00008244   -0.00022536    0.00147663
     atom   20 type  1   force =     0.00049954    0.00045634    0.00215823
     atom   21 type  1   force =     0.00012654    0.00003686    0.00066304
     atom   22 type  1   force =    -0.00012381    0.00000174    0.00141011
     atom   23 type  1   force =     0.00011787    0.00017548    0.00078465
     atom   24 type  1   force =     0.00009330    0.00006814    0.00200316
     atom   25 type  1   force =     0.00048093    0.00027163    0.00222598
     atom   26 type  1   force =    -0.00022057    0.00021163    0.00151730
     atom   27 type  1   force =    -0.00009861   -0.00007894    0.00147176
     atom   28 type  1   force =     0.00181006    0.00107831   -0.00822784
     atom   29 type  1   force =    -0.00009658    0.00980146   -0.00218557
     atom   30 type  1   force =    -0.00275837    0.00337063   -0.00877346
     atom   31 type  1   force =     0.00927957   -0.00552725   -0.00122236
     atom   32 type  1   force =    -0.01879809   -0.01167287    0.01745310
     atom   33 type  1   force =    -0.00175199   -0.00018921   -0.00838567
     atom   34 type  1   force =     0.00145846   -0.00393392   -0.00884795
     atom   35 type  1   force =    -0.00106075   -0.00156439   -0.00863454
     atom   36 type  1   force =    -0.00030383   -0.00015121   -0.01078305
     atom   37 type  2   force =    -0.00078675   -0.00084554   -0.00184952
     atom   38 type  3   force =    -0.01324062   -0.00652803    0.01557972
     atom   39 type  4   force =     0.00000000    0.00000000    0.00000000
     The Hubbard contrib.    to forces
     atom    1 type  1   force =     0.00000000    0.00000000    0.00000000
     atom    2 type  1   force =     0.00000000    0.00000000    0.00000000
     atom    3 type  1   force =     0.00000000    0.00000000    0.00000000
     atom    4 type  1   force =     0.00000000    0.00000000    0.00000000
     atom    5 type  1   force =     0.00000000    0.00000000    0.00000000
     atom    6 type  1   force =     0.00000000    0.00000000    0.00000000
     atom    7 type  1   force =     0.00000000    0.00000000    0.00000000
     atom    8 type  1   force =     0.00000000    0.00000000    0.00000000
     atom    9 type  1   force =     0.00000000    0.00000000    0.00000000
     atom   10 type  1   force =     0.00000000    0.00000000    0.00000000
     atom   11 type  1   force =     0.00000000    0.00000000    0.00000000
     atom   12 type  1   force =     0.00000000    0.00000000    0.00000000
     atom   13 type  1   force =     0.00000000    0.00000000    0.00000000
     atom   14 type  1   force =     0.00000000    0.00000000    0.00000000
     atom   15 type  1   force =     0.00000000    0.00000000    0.00000000
     atom   16 type  1   force =     0.00000000    0.00000000    0.00000000
     atom   17 type  1   force =     0.00000000    0.00000000    0.00000000
     atom   18 type  1   force =     0.00000000    0.00000000    0.00000000
     atom   19 type  1   force =     0.00000000    0.00000000    0.00000000
     atom   20 type  1   force =     0.00000000    0.00000000    0.00000000
     atom   21 type  1   force =     0.00000000    0.00000000    0.00000000
     atom   22 type  1   force =     0.00000000    0.00000000    0.00000000
     atom   23 type  1   force =     0.00000000    0.00000000    0.00000000
     atom   24 type  1   force =     0.00000000    0.00000000    0.00000000
     atom   25 type  1   force =     0.00000000    0.00000000    0.00000000
     atom   26 type  1   force =     0.00000000    0.00000000    0.00000000
     atom   27 type  1   force =     0.00000000    0.00000000    0.00000000
     atom   28 type  1   force =     0.00000000    0.00000000    0.00000000
     atom   29 type  1   force =     0.00000000    0.00000000    0.00000000
     atom   30 type  1   force =     0.00000000    0.00000000    0.00000000
     atom   31 type  1   force =     0.00000000    0.00000000    0.00000000
     atom   32 type  1   force =     0.00000000    0.00000000    0.00000000
     atom   33 type  1   force =     0.00000000    0.00000000    0.00000000
     atom   34 type  1   force =     0.00000000    0.00000000    0.00000000
     atom   35 type  1   force =     0.00000000    0.00000000    0.00000000
     atom   36 type  1   force =     0.00000000    0.00000000    0.00000000
     atom   37 type  2   force =     0.00000000    0.00000000    0.00000000
     atom   38 type  3   force =     0.00000000    0.00000000    0.00000000
     atom   39 type  4   force =     0.00000000    0.00000000    0.00000000
     The SCF correction term to forces
     atom    1 type  1   force =    -0.00000000   -0.00000000    0.00000000
     atom    2 type  1   force =    -0.00000000   -0.00000000    0.00000000
     atom    3 type  1   force =     0.00000000   -0.00000000    0.00000000
     atom    4 type  1   force =    -0.00000000    0.00000000    0.00000000
     atom    5 type  1   force =    -0.00000000    0.00000000    0.00000000
     atom    6 type  1   force =     0.00000000    0.00000000    0.00000000
     atom    7 type  1   force =    -0.00000000    0.00000000    0.00000000
     atom    8 type  1   force =     0.00000000    0.00000000    0.00000000
     atom    9 type  1   force =     0.00000000   -0.00000000    0.00000000
     atom   10 type  1   force =    -0.00000000    0.00000000    0.00000000
     atom   11 type  1   force =     0.00000000   -0.00000000    0.00000000
     atom   12 type  1   force =    -0.00000000   -0.00000000    0.00000000
     atom   13 type  1   force =     0.00000000    0.00000000    0.00000000
     atom   14 type  1   force =    -0.00000000   -0.00000000    0.00000000
     atom   15 type  1   force =     0.00000000   -0.00000000    0.00000000
     atom   16 type  1   force =    -0.00000000    0.00000000    0.00000000
     atom   17 type  1   force =     0.00000000    0.00000000    0.00000000
     atom   18 type  1   force =     0.00000000    0.00000000    0.00000000
     atom   19 type  1   force =     0.00000000   -0.00000000    0.00000000
     atom   20 type  1   force =    -0.00000000   -0.00000000    0.00000000
     atom   21 type  1   force =    -0.00000000   -0.00000000    0.00000000
     atom   22 type  1   force =     0.00000000    0.00000000    0.00000000
     atom   23 type  1   force =    -0.00000000    0.00000000    0.00000000
     atom   24 type  1   force =     0.00000000    0.00000000    0.00000000
     atom   25 type  1   force =    -0.00000000   -0.00000000    0.00000000
     atom   26 type  1   force =    -0.00000000    0.00000000    0.00000000
     atom   27 type  1   force =     0.00000000    0.00000000    0.00000000
     atom   28 type  1   force =     0.00000000   -0.00000000    0.00000000
     atom   29 type  1   force =    -0.00000000    0.00000000    0.00000000
     atom   30 type  1   force =     0.00000000   -0.00000000    0.00000000
     atom   31 type  1   force =     0.00000000   -0.00000000    0.00000000
     atom   32 type  1   force =    -0.00000000    0.00000000    0.00000000
     atom   33 type  1   force =    -0.00000000   -0.00000000    0.00000000
     atom   34 type  1   force =     0.00000000    0.00000000    0.00000000
     atom   35 type  1   force =    -0.00000000    0.00000000    0.00000000
     atom   36 type  1   force =     0.00000000    0.00000000    0.00000000
     atom   37 type  2   force =    -0.00000004   -0.00000528   -0.00007819
     atom   38 type  3   force =     0.00000603   -0.00001513   -0.00013700
     atom   39 type  4   force =    -0.00000276    0.00000281   -0.00001977

     Total force =     0.016859     Total SCF correction =     0.000160

     Writing all to output data dir ./pwscf.save/

     init_run     :     10.66s CPU     11.25s WALL (       1 calls)
     electrons    :    625.45s CPU    633.41s WALL (       1 calls)
     forces       :      3.19s CPU      3.28s WALL (       1 calls)

     Called by init_run:
     wfcinit      :      7.38s CPU      7.86s WALL (       1 calls)
     potinit      :      2.19s CPU      2.28s WALL (       1 calls)
     hinit0       :      0.83s CPU      0.85s WALL (       1 calls)

     Called by electrons:
     c_bands      :    524.37s CPU    530.37s WALL (      49 calls)
     sum_band     :     67.93s CPU     68.93s WALL (      49 calls)
     v_of_rho     :      8.74s CPU      9.17s WALL (      50 calls)
     newd         :      2.69s CPU      2.76s WALL (      50 calls)
     PAW_pot      :     12.69s CPU     12.83s WALL (      50 calls)
     mix_rho      :     10.43s CPU     10.61s WALL (      49 calls)
     vdW_kernel   :      1.12s CPU      1.13s WALL (       1 calls)

     Called by c_bands:
     init_us_2    :      6.11s CPU      6.22s WALL (    2600 calls)
     init_us_2:cp :      6.09s CPU      6.21s WALL (    2600 calls)
     cegterg      :    507.68s CPU    513.25s WALL (    1274 calls)

     Called by *egterg:
     cdiaghg      :    181.00s CPU    182.11s WALL (    3909 calls)
     h_psi        :    229.17s CPU    232.96s WALL (    3935 calls)
     s_psi        :     26.69s CPU     26.95s WALL (    3935 calls)
     g_psi        :      0.54s CPU      0.55s WALL (    2635 calls)

     Called by h_psi:
     h_psi:calbec :     36.41s CPU     37.00s WALL (    3935 calls)
     vloc_psi     :    163.65s CPU    166.37s WALL (    3935 calls)
     add_vuspsi   :     27.75s CPU     28.22s WALL (    3935 calls)

     General routines
     calbec       :     53.78s CPU     54.55s WALL (    5313 calls)
     fft          :      6.04s CPU      6.49s WALL (    4527 calls)
     ffts         :      6.73s CPU      6.85s WALL (   18138 calls)
     fftw         :    187.57s CPU    190.64s WALL ( 1319248 calls)
     interpolate  :      0.52s CPU      0.53s WALL (     100 calls)

     Parallel routines

     PWSCF        :  10m43.62s CPU  10m56.86s WALL


   This run was terminated on:  13:25:38  21Nov2025            

=------------------------------------------------------------------------------=
   JOB DONE.
=------------------------------------------------------------------------------=
