
     Program PWSCF v.7.1 starts on 11Dec2025 at  5: 7: 5 
        Git branch: heads/qe-7.1
        Last git commit: 48ba0178f8fede6d020eb786884699a9f063f55d-dirty
        Last git commit date: Fri Jan 27 14:22:33 2023 +0000
        Last git commit subject: Merge branch 'fix_hubbard' into 'develop'

     This program is part of the open-source Quantum ESPRESSO suite
     for quantum simulation of materials; please cite
         "P. Giannozzi et al., J. Phys.:Condens. Matter 21 395502 (2009);
         "P. Giannozzi et al., J. Phys.:Condens. Matter 29 465901 (2017);
         "P. Giannozzi et al., J. Chem. Phys. 152 154105 (2020);
          URL http://www.quantum-espresso.org", 
     in publications or presentations arising from this work. More details at
     http://www.quantum-espresso.org/quote

     Parallel version (MPI), running on    96 processors

     MPI processes distributed on     2 nodes
     114125 MiB available memory on the printing compute node when the environment starts

     Reading input from espresso.pwi
Warning: card &CELL ignored
Warning: card / ignored
Warning: card &FCP ignored
Warning: card / ignored
Warning: card &RISM ignored
Warning: card / ignored

     Current dimensions of program PWSCF are:
     Max number of different atomic species (ntypx) = 10
     Max number of k-points (npk) =  40000
     Max angular momentum in pseudopotentials (lmaxx) =  4
     file Co.pbe-n-kjpaw_psl.1.0.0.UPF: wavefunction(s)  4S 3D renormalized
     file C.pbe-n-kjpaw_psl.1.0.0.UPF: wavefunction(s)  2S 2P renormalized
     file O.pbe-nl-kjpaw_psl.1.0.0.UPF: wavefunction(s)  2S 2P renormalized
     file H.pbe-kjpaw_psl.1.0.0.UPF: wavefunction(s)  1S renormalized

     **************************************************************************
     Initializing libbeef V0.1.2 with the BEEF-vdW functional.
     Citation: Wellendorff et al., PRB 85, 235149 (2012).
     **************************************************************************


     IMPORTANT: XC functional enforced from input :
     Exchange-correlation= BEEF-VDW
                           (   1   4  43  14   2   0   0)
     Any further DFT definition will be discarded
     Please, verify this is what you really want


     R & G space division:  proc/nbgrp/npool/nimage =      96
     Subspace diagonalization in iterative solution of the eigenvalue problem:
     one sub-group per band group will be used
     custom distributed-memory algorithm (size of sub-group:  2*  2 procs)


     Parallelization info
     --------------------
     sticks:   dense  smooth     PW     G-vecs:    dense   smooth      PW
     Min          43      28      7                 7829     4248     595
     Max          44      29      8                 7845     4281     630
     Sum        4153    2773    757               752179   409445   59217

     Using Slab Decomposition



     bravais-lattice index     =            0
     lattice parameter (alat)  =      14.1729  a.u.
     unit-cell volume          =    8574.3059 (a.u.)^3
     number of atoms/cell      =           39
     number of atomic types    =            4
     number of electrons       =       335.00
     number of Kohn-Sham states=          202
     kinetic-energy cutoff     =      50.0000  Ry
     charge density cutoff     =     300.0000  Ry
     scf convergence threshold =      1.0E-08
     mixing beta               =       0.7000
     number of iterations used =            8  local-TF  mixing
     Exchange-correlation= BEEF-VDW
                           (   1   4  43  14   2   0   0)

     celldm(1)=  14.172946  celldm(2)=   0.000000  celldm(3)=   0.000000
     celldm(4)=   0.000000  celldm(5)=   0.000000  celldm(6)=   0.000000

     crystal axes: (cart. coord. in units of alat)
               a(1) = (   1.000000   0.000000   0.000000 )  
               a(2) = (   0.500000   0.866025   0.000000 )  
               a(3) = (   0.000000   0.000000   3.477667 )  

     reciprocal axes: (cart. coord. in units 2 pi/alat)
               b(1) = (  1.000000 -0.577350  0.000000 )  
               b(2) = (  0.000000  1.154701  0.000000 )  
               b(3) = (  0.000000  0.000000  0.287549 )  


     PseudoPot. # 1 for Co read from file:
     /users/kbadger1/espresso/pseudo/pslibrary.1.0.0/pbe/PSEUDOPOTENTIALS/Co.pbe-n-kjpaw_psl.1.0.0.UPF
     MD5 check sum: 88af6ec42553d4236c267fdfcb472151
     Pseudo is Projector augmented-wave + core cor, Zval =  9.0
     Generated using 'atomic' code by A. Dal Corso  v.7.0
     Shape of augmentation charge: PSQ
     Using radial grid of 1193 points,  6 beta functions with: 
                l(1) =   0
                l(2) =   0
                l(3) =   1
                l(4) =   1
                l(5) =   2
                l(6) =   2
     Q(r) pseudized with 0 coefficients 


     PseudoPot. # 2 for C  read from file:
     /users/kbadger1/espresso/pseudo/pslibrary.1.0.0/pbe/PSEUDOPOTENTIALS/C.pbe-n-kjpaw_psl.1.0.0.UPF
     MD5 check sum: 6408e75cdba28732cea38a4db8498ce4
     Pseudo is Projector augmented-wave + core cor, Zval =  4.0
     Generated using 'atomic' code by A. Dal Corso  v.7.0
     Shape of augmentation charge: PSQ
     Using radial grid of 1073 points,  4 beta functions with: 
                l(1) =   0
                l(2) =   0
                l(3) =   1
                l(4) =   1
     Q(r) pseudized with 0 coefficients 


     PseudoPot. # 3 for O  read from file:
     /users/kbadger1/espresso/pseudo/pslibrary.1.0.0/pbe/PSEUDOPOTENTIALS/O.pbe-nl-kjpaw_psl.1.0.0.UPF
     MD5 check sum: f0439fab3598ca4e468f064226030408
     Pseudo is Projector augmented-wave + core cor, Zval =  6.0
     Generated using 'atomic' code by A. Dal Corso  v.7.0
     Shape of augmentation charge: PSQ
     Using radial grid of 1095 points,  4 beta functions with: 
                l(1) =   0
                l(2) =   0
                l(3) =   1
                l(4) =   1
     Q(r) pseudized with 0 coefficients 


     PseudoPot. # 4 for H  read from file:
     /users/kbadger1/espresso/pseudo/pslibrary.1.0.0/pbe/PSEUDOPOTENTIALS/H.pbe-kjpaw_psl.1.0.0.UPF
     MD5 check sum: fe4c6fa958fa6d3815bf5d2419cbf1df
     Pseudo is Projector augmented-wave, Zval =  1.0
     Generated using 'atomic' code by A. Dal Corso  v.7.0
     Shape of augmentation charge: PSQ
     Using radial grid of  929 points,  2 beta functions with: 
                l(1) =   0
                l(2) =   0
     Q(r) pseudized with 0 coefficients 


     atomic species   valence    mass     pseudopotential
        Co             9.00    58.93319     Co( 1.00)
        C              4.00    12.01100     C ( 1.00)
        O              6.00    15.99900     O ( 1.00)
        H              1.00     1.00800     H ( 1.00)

     Starting magnetic structure 
     atomic species   magnetization
        Co           1.000
        C            1.000
        O            0.000
        H            0.000

     No symmetry found



   Cartesian axes

     site n.     atom                  positions (alat units)
         1           Co  tau(   1) = (   0.0000000   0.1924501   1.3333333  )
         2           Co  tau(   2) = (   0.3333333   0.1924501   1.3333333  )
         3           Co  tau(   3) = (   0.6666667   0.1924501   1.3333333  )
         4           Co  tau(   4) = (   0.1666667   0.4811252   1.3333333  )
         5           Co  tau(   5) = (   0.5000000   0.4811252   1.3333333  )
         6           Co  tau(   6) = (   0.8333333   0.4811252   1.3333333  )
         7           Co  tau(   7) = (   0.3333333   0.7698004   1.3333333  )
         8           Co  tau(   8) = (   0.6666667   0.7698004   1.3333333  )
         9           Co  tau(   9) = (   1.0000000   0.7698004   1.3333333  )
        10           Co  tau(  10) = (   0.0000000   0.0000000   1.6036667  )
        11           Co  tau(  11) = (   0.3333333   0.0000000   1.6036667  )
        12           Co  tau(  12) = (   0.6666667   0.0000000   1.6036667  )
        13           Co  tau(  13) = (   0.1666667   0.2886751   1.6036667  )
        14           Co  tau(  14) = (   0.5000000   0.2886751   1.6036667  )
        15           Co  tau(  15) = (   0.8333333   0.2886751   1.6036667  )
        16           Co  tau(  16) = (   0.3333333   0.5773503   1.6036667  )
        17           Co  tau(  17) = (   0.6666667   0.5773503   1.6036667  )
        18           Co  tau(  18) = (   1.0000000   0.5773503   1.6036667  )
        19           Co  tau(  19) = (   0.0000000   0.1924501   1.8740000  )
        20           Co  tau(  20) = (   0.3333333   0.1924501   1.8740000  )
        21           Co  tau(  21) = (   0.6666667   0.1924501   1.8740000  )
        22           Co  tau(  22) = (   0.1666667   0.4811252   1.8740000  )
        23           Co  tau(  23) = (   0.5000000   0.4811252   1.8740000  )
        24           Co  tau(  24) = (   0.8333333   0.4811252   1.8740000  )
        25           Co  tau(  25) = (   0.3333333   0.7698004   1.8740000  )
        26           Co  tau(  26) = (   0.6666667   0.7698004   1.8740000  )
        27           Co  tau(  27) = (   1.0000000   0.7698004   1.8740000  )
        28           Co  tau(  28) = (   0.0000000   0.0000000   2.1443333  )
        29           Co  tau(  29) = (   0.3333333   0.0000000   2.1443333  )
        30           Co  tau(  30) = (   0.6666667   0.0000000   2.1443333  )
        31           Co  tau(  31) = (   0.1666667   0.2886751   2.1443333  )
        32           Co  tau(  32) = (   0.5000000   0.2886751   2.1443333  )
        33           Co  tau(  33) = (   0.8333333   0.2886751   2.1443333  )
        34           Co  tau(  34) = (   0.3333333   0.5773503   2.1443333  )
        35           Co  tau(  35) = (   0.6666667   0.5773503   2.1443333  )
        36           Co  tau(  36) = (   1.0000000   0.5773503   2.1443333  )
        37           C   tau(  37) = (   0.1906473  -0.0003531   2.3457114  )
        38           O   tau(  38) = (   0.0917705   0.0015547   2.4754496  )
        39           H   tau(  39) = (   0.3487987  -0.0143875   2.3778738  )

     number of k points=    13  Marzari-Vanderbilt smearing, width (Ry)=  0.0010
                       cart. coord. in units 2pi/alat
        k(    1) = (   0.0000000   0.0000000   0.0000000), wk =   0.0400000
        k(    2) = (   0.0000000   0.2309401   0.0000000), wk =   0.0800000
        k(    3) = (   0.0000000   0.4618802   0.0000000), wk =   0.0800000
        k(    4) = (   0.2000000  -0.1154701   0.0000000), wk =   0.0800000
        k(    5) = (   0.2000000   0.1154701   0.0000000), wk =   0.0800000
        k(    6) = (   0.2000000   0.3464102   0.0000000), wk =   0.0800000
        k(    7) = (   0.2000000  -0.5773503   0.0000000), wk =   0.0800000
        k(    8) = (   0.2000000  -0.3464102   0.0000000), wk =   0.0800000
        k(    9) = (   0.4000000  -0.2309401   0.0000000), wk =   0.0800000
        k(   10) = (   0.4000000   0.0000000   0.0000000), wk =   0.0800000
        k(   11) = (   0.4000000   0.2309401   0.0000000), wk =   0.0800000
        k(   12) = (   0.4000000  -0.6928203   0.0000000), wk =   0.0800000
        k(   13) = (   0.4000000  -0.4618802   0.0000000), wk =   0.0800000

     Dense  grid:   752179 G-vectors     FFT dimensions: (  80,  80, 288)

     Smooth grid:   409445 G-vectors     FFT dimensions: (  64,  64, 225)

     Estimated max dynamical RAM per process >      99.02 MB

     Estimated total dynamical RAM >       9.28 GB
     Generating pointlists ...
     new r_m :   0.0967 (alat units)  1.3709 (a.u.) for type    1
     new r_m :   0.0668 (alat units)  0.9471 (a.u.) for type    2
     new r_m :   0.0673 (alat units)  0.9537 (a.u.) for type    3
     new r_m :   0.0668 (alat units)  0.9471 (a.u.) for type    4

     Initial potential from superposition of free atoms

     starting charge     334.9897, renormalised to     335.0000

     negative rho (up, down):  3.041E-03 4.673E-04


     %%%%%%%%%%%%%%%%%%%%%%%%%%%%%%%%%%%%%%%%%%%%%%%%%%%%%%%%%%%%%%%%%%%%%%%%
     %                                                                      %
     % You are using vdW-DF, which was implemented by the Thonhauser group. %
     % Please cite the following two papers that made this development      %
     % possible and the two reviews that describe the various versions:     %
     %                                                                      %
     %   T. Thonhauser et al., PRL 115, 136402 (2015).                      %
     %   T. Thonhauser et al., PRB 76, 125112 (2007).                       %
     %   K. Berland et al., Rep. Prog. Phys. 78, 066501 (2015).             %
     %   D.C. Langreth et al., J. Phys.: Condens. Matter 21, 084203 (2009). %
     %                                                                      %
     % If you are calculating stress with vdW-DF, please also cite:         %
     %                                                                      %
     %   R. Sabatini et al., J. Phys.: Condens. Matter 24, 424209 (2012).   %
     %   C.M. Frostenson et al., Electr. Struct. 4, 014001 (2022).          %
     %                                                                      %
     %%%%%%%%%%%%%%%%%%%%%%%%%%%%%%%%%%%%%%%%%%%%%%%%%%%%%%%%%%%%%%%%%%%%%%%%

     %%%%%%%%%%%%%%%%%%%%%%%%%%%%%%%%%%%%%%%%%%%%%%%%%%%%%%%%%%%%%%%%%%%%%%%%
     %                                                                      %
     %  vdW-DF NEWS:                                                        %
     %                                                                      %
     %  * vdW-DF3 is now available. DOI: 10.1021/acs.jctc.0c00471           %
     %    use with input_dft = 'vdW-DF3-opt1' or 'vdW-DF3-opt2'             %
     %                                                                      %
     %  * Unscreened and range-separated hybrid vdW-DF-cx functionals       %
     %    DOI: 10.1063/1.4986522 and 10.1088/1361-648X/ac2ad2               %
     %    use with input_dft = 'vdW-DF-cx0'    and 'vdW-DF-ahcx'            %
     %  * Unscreened and range-separated hybrid vdW-DF2-b86r functionals    %
     %    DOI: 10.1063/1.4986522 and DOI: 10.1103/PhysRevX.12.041003        %
     %    use with input_dft = 'vdW-DF2-br0' and 'vdW-DF2-ahbr'             %
     %                                                                      %
     %%%%%%%%%%%%%%%%%%%%%%%%%%%%%%%%%%%%%%%%%%%%%%%%%%%%%%%%%%%%%%%%%%%%%%%%


     Starting wfcs are  333 randomized atomic wfcs
     Checking if some PAW data can be deallocated... 

     total cpu time spent up to now is       12.2 secs

     per-process dynamical memory:   231.8 Mb

     Self-consistent Calculation

     iteration #  1     ecut=    50.00 Ry     beta= 0.70
     Davidson diagonalization with overlap
     ethr =  1.00E-02,  avg # of iterations =  2.0

     negative rho (up, down):  2.820E-05 6.003E-08

     total cpu time spent up to now is       30.6 secs

     total energy              =   -6053.07249112 Ry
     estimated scf accuracy    <      39.61349317 Ry

     total magnetization       =    69.00 Bohr mag/cell
     absolute magnetization    =    81.32 Bohr mag/cell

     iteration #  2     ecut=    50.00 Ry     beta= 0.70
     Davidson diagonalization with overlap
     ethr =  1.00E-02,  avg # of iterations =  1.0

     negative rho (up, down):  3.633E-06 2.921E-08

     total cpu time spent up to now is       44.7 secs

     total energy              =   -6052.55381423 Ry
     estimated scf accuracy    <      24.40043065 Ry

     total magnetization       =    68.52 Bohr mag/cell
     absolute magnetization    =    76.70 Bohr mag/cell

     iteration #  3     ecut=    50.00 Ry     beta= 0.70
     Davidson diagonalization with overlap
     ethr =  7.28E-03,  avg # of iterations =  1.0

     negative rho (up, down):  1.833E-08 0.000E+00

     total cpu time spent up to now is       59.1 secs

     total energy              =   -6055.11054922 Ry
     estimated scf accuracy    <      87.16131735 Ry

     total magnetization       =    65.75 Bohr mag/cell
     absolute magnetization    =    73.10 Bohr mag/cell

     iteration #  4     ecut=    50.00 Ry     beta= 0.70
     Davidson diagonalization with overlap
     ethr =  7.28E-03,  avg # of iterations =  1.0

     total cpu time spent up to now is       72.9 secs

     total energy              =   -6056.33698715 Ry
     estimated scf accuracy    <       5.67547913 Ry

     total magnetization       =    60.36 Bohr mag/cell
     absolute magnetization    =    70.40 Bohr mag/cell

     iteration #  5     ecut=    50.00 Ry     beta= 0.70
     Davidson diagonalization with overlap
     ethr =  1.69E-03,  avg # of iterations =  1.3

     total cpu time spent up to now is       88.1 secs

     total energy              =   -6056.34262178 Ry
     estimated scf accuracy    <       2.60791661 Ry

     total magnetization       =    60.20 Bohr mag/cell
     absolute magnetization    =    69.74 Bohr mag/cell

     iteration #  6     ecut=    50.00 Ry     beta= 0.70
     Davidson diagonalization with overlap
     ethr =  7.78E-04,  avg # of iterations =  1.7

     total cpu time spent up to now is      102.0 secs

     total energy              =   -6056.47272299 Ry
     estimated scf accuracy    <       0.58572994 Ry

     total magnetization       =    60.20 Bohr mag/cell
     absolute magnetization    =    69.51 Bohr mag/cell

     iteration #  7     ecut=    50.00 Ry     beta= 0.70
     Davidson diagonalization with overlap
     ethr =  1.75E-04,  avg # of iterations =  5.2

     total cpu time spent up to now is      122.0 secs

     total energy              =   -6056.50975063 Ry
     estimated scf accuracy    <       0.86762097 Ry

     total magnetization       =    60.20 Bohr mag/cell
     absolute magnetization    =    69.12 Bohr mag/cell

     iteration #  8     ecut=    50.00 Ry     beta= 0.70
     Davidson diagonalization with overlap
     ethr =  1.75E-04,  avg # of iterations =  2.0

     total cpu time spent up to now is      136.2 secs

     total energy              =   -6056.52344778 Ry
     estimated scf accuracy    <       0.13682906 Ry

     total magnetization       =    60.40 Bohr mag/cell
     absolute magnetization    =    69.11 Bohr mag/cell

     iteration #  9     ecut=    50.00 Ry     beta= 0.70
     Davidson diagonalization with overlap
     c_bands:  1 eigenvalues not converged
     c_bands:  3 eigenvalues not converged
     ethr =  4.08E-05,  avg # of iterations = 11.8

     total cpu time spent up to now is      164.9 secs

     total energy              =   -6056.53724070 Ry
     estimated scf accuracy    <       0.20494074 Ry

     total magnetization       =    61.11 Bohr mag/cell
     absolute magnetization    =    69.16 Bohr mag/cell

     iteration # 10     ecut=    50.00 Ry     beta= 0.70
     Davidson diagonalization with overlap
     ethr =  4.08E-05,  avg # of iterations =  1.9

     total cpu time spent up to now is      180.9 secs

     total energy              =   -6056.54501837 Ry
     estimated scf accuracy    <       0.20941067 Ry

     total magnetization       =    61.24 Bohr mag/cell
     absolute magnetization    =    69.10 Bohr mag/cell

     iteration # 11     ecut=    50.00 Ry     beta= 0.70
     Davidson diagonalization with overlap
     ethr =  4.08E-05,  avg # of iterations =  1.2

     total cpu time spent up to now is      194.9 secs

     total energy              =   -6056.53266430 Ry
     estimated scf accuracy    <       0.11914670 Ry

     total magnetization       =    61.18 Bohr mag/cell
     absolute magnetization    =    68.98 Bohr mag/cell

     iteration # 12     ecut=    50.00 Ry     beta= 0.70
     Davidson diagonalization with overlap
     ethr =  3.56E-05,  avg # of iterations =  1.9

     total cpu time spent up to now is      210.3 secs

     total energy              =   -6056.53672755 Ry
     estimated scf accuracy    <       0.08506809 Ry

     total magnetization       =    61.05 Bohr mag/cell
     absolute magnetization    =    68.66 Bohr mag/cell

     iteration # 13     ecut=    50.00 Ry     beta= 0.70
     Davidson diagonalization with overlap
     c_bands:  3 eigenvalues not converged
     ethr =  2.54E-05,  avg # of iterations =  2.0

     total cpu time spent up to now is      224.4 secs

     total energy              =   -6056.53564231 Ry
     estimated scf accuracy    <       0.08173298 Ry

     total magnetization       =    61.07 Bohr mag/cell
     absolute magnetization    =    68.60 Bohr mag/cell

     iteration # 14     ecut=    50.00 Ry     beta= 0.70
     Davidson diagonalization with overlap
     ethr =  2.44E-05,  avg # of iterations =  2.1

     total cpu time spent up to now is      240.6 secs

     total energy              =   -6056.53230617 Ry
     estimated scf accuracy    <       0.08408034 Ry

     total magnetization       =    61.17 Bohr mag/cell
     absolute magnetization    =    68.69 Bohr mag/cell

     iteration # 15     ecut=    50.00 Ry     beta= 0.70
     Davidson diagonalization with overlap
     ethr =  2.44E-05,  avg # of iterations =  1.2

     negative rho (up, down):  9.785E-04 5.555E-04

     total cpu time spent up to now is      254.1 secs

     total energy              =   -6056.52892749 Ry
     estimated scf accuracy    <       0.13329067 Ry

     total magnetization       =    61.12 Bohr mag/cell
     absolute magnetization    =    68.63 Bohr mag/cell

     iteration # 16     ecut=    50.00 Ry     beta= 0.70
     Davidson diagonalization with overlap
     ethr =  2.44E-05,  avg # of iterations =  1.6

     negative rho (up, down):  1.335E-02 1.211E-02

     total cpu time spent up to now is      268.9 secs

     total energy              =   -6056.52563681 Ry
     estimated scf accuracy    <       0.08590771 Ry

     total magnetization       =    61.15 Bohr mag/cell
     absolute magnetization    =    68.60 Bohr mag/cell

     iteration # 17     ecut=    50.00 Ry     beta= 0.70
     Davidson diagonalization with overlap
     ethr =  2.44E-05,  avg # of iterations =  1.5

     negative rho (up, down):  2.685E-02 2.515E-02

     total cpu time spent up to now is      282.6 secs

     total energy              =   -6056.52557547 Ry
     estimated scf accuracy    <       0.02940224 Ry

     total magnetization       =    61.20 Bohr mag/cell
     absolute magnetization    =    68.60 Bohr mag/cell

     iteration # 18     ecut=    50.00 Ry     beta= 0.70
     Davidson diagonalization with overlap
     c_bands:  1 eigenvalues not converged
     c_bands:  2 eigenvalues not converged
     c_bands:  3 eigenvalues not converged
     c_bands:  4 eigenvalues not converged
     ethr =  8.78E-06,  avg # of iterations =  7.3

     negative rho (up, down):  1.414E-02 1.285E-02

     total cpu time spent up to now is      304.8 secs

     total energy              =   -6056.52478069 Ry
     estimated scf accuracy    <       0.05420705 Ry

     total magnetization       =    61.23 Bohr mag/cell
     absolute magnetization    =    68.57 Bohr mag/cell

     iteration # 19     ecut=    50.00 Ry     beta= 0.70
     Davidson diagonalization with overlap
     ethr =  8.78E-06,  avg # of iterations =  1.3

     negative rho (up, down):  1.903E-02 1.766E-02

     total cpu time spent up to now is      318.3 secs

     total energy              =   -6056.52512762 Ry
     estimated scf accuracy    <       0.01889495 Ry

     total magnetization       =    61.23 Bohr mag/cell
     absolute magnetization    =    68.61 Bohr mag/cell

     iteration # 20     ecut=    50.00 Ry     beta= 0.70
     Davidson diagonalization with overlap
     ethr =  5.64E-06,  avg # of iterations =  1.8

     negative rho (up, down):  1.414E-02 1.300E-02

     total cpu time spent up to now is      333.1 secs

     total energy              =   -6056.52417017 Ry
     estimated scf accuracy    <       0.01429465 Ry

     total magnetization       =    61.22 Bohr mag/cell
     absolute magnetization    =    68.60 Bohr mag/cell

     iteration # 21     ecut=    50.00 Ry     beta= 0.70
     Davidson diagonalization with overlap
     ethr =  4.27E-06,  avg # of iterations =  1.7

     negative rho (up, down):  1.005E-02 9.066E-03

     total cpu time spent up to now is      347.1 secs

     total energy              =   -6056.52369393 Ry
     estimated scf accuracy    <       0.01400336 Ry

     total magnetization       =    61.22 Bohr mag/cell
     absolute magnetization    =    68.61 Bohr mag/cell

     iteration # 22     ecut=    50.00 Ry     beta= 0.70
     Davidson diagonalization with overlap
     ethr =  4.18E-06,  avg # of iterations =  1.1

     negative rho (up, down):  7.486E-03 6.946E-03

     total cpu time spent up to now is      362.8 secs

     total energy              =   -6056.52274126 Ry
     estimated scf accuracy    <       0.01009232 Ry

     total magnetization       =    61.24 Bohr mag/cell
     absolute magnetization    =    68.63 Bohr mag/cell

     iteration # 23     ecut=    50.00 Ry     beta= 0.70
     Davidson diagonalization with overlap
     ethr =  3.01E-06,  avg # of iterations =  1.7

     negative rho (up, down):  1.385E-02 1.329E-02

     total cpu time spent up to now is      377.0 secs

     total energy              =   -6056.52304572 Ry
     estimated scf accuracy    <       0.00883159 Ry

     total magnetization       =    61.24 Bohr mag/cell
     absolute magnetization    =    68.65 Bohr mag/cell

     iteration # 24     ecut=    50.00 Ry     beta= 0.70
     Davidson diagonalization with overlap
     ethr =  2.64E-06,  avg # of iterations =  1.3

     negative rho (up, down):  7.865E-03 7.255E-03

     total cpu time spent up to now is      391.6 secs

     total energy              =   -6056.52305156 Ry
     estimated scf accuracy    <       0.00169521 Ry

     total magnetization       =    61.24 Bohr mag/cell
     absolute magnetization    =    68.65 Bohr mag/cell

     iteration # 25     ecut=    50.00 Ry     beta= 0.70
     Davidson diagonalization with overlap
     c_bands:  1 eigenvalues not converged
     ethr =  5.06E-07,  avg # of iterations =  5.2

     negative rho (up, down):  5.410E-03 4.792E-03

     total cpu time spent up to now is      409.2 secs

     total energy              =   -6056.52285154 Ry
     estimated scf accuracy    <       0.00309466 Ry

     total magnetization       =    61.24 Bohr mag/cell
     absolute magnetization    =    68.65 Bohr mag/cell

     iteration # 26     ecut=    50.00 Ry     beta= 0.70
     Davidson diagonalization with overlap
     ethr =  5.06E-07,  avg # of iterations =  1.3

     negative rho (up, down):  5.566E-03 4.929E-03

     total cpu time spent up to now is      425.1 secs

     total energy              =   -6056.52333262 Ry
     estimated scf accuracy    <       0.00215125 Ry

     total magnetization       =    61.24 Bohr mag/cell
     absolute magnetization    =    68.65 Bohr mag/cell

     iteration # 27     ecut=    50.00 Ry     beta= 0.70
     Davidson diagonalization with overlap
     ethr =  5.06E-07,  avg # of iterations =  1.5

     negative rho (up, down):  4.684E-03 3.951E-03

     total cpu time spent up to now is      439.3 secs

     total energy              =   -6056.52338672 Ry
     estimated scf accuracy    <       0.00057736 Ry

     total magnetization       =    61.25 Bohr mag/cell
     absolute magnetization    =    68.66 Bohr mag/cell

     iteration # 28     ecut=    50.00 Ry     beta= 0.70
     Davidson diagonalization with overlap
     ethr =  1.72E-07,  avg # of iterations =  1.9

     negative rho (up, down):  2.872E-03 1.927E-03

     total cpu time spent up to now is      454.7 secs

     total energy              =   -6056.52336274 Ry
     estimated scf accuracy    <       0.00018524 Ry

     total magnetization       =    61.24 Bohr mag/cell
     absolute magnetization    =    68.66 Bohr mag/cell

     iteration # 29     ecut=    50.00 Ry     beta= 0.70
     Davidson diagonalization with overlap
     ethr =  5.53E-08,  avg # of iterations =  4.9

     negative rho (up, down):  3.561E-03 2.543E-03

     total cpu time spent up to now is      473.3 secs

     total energy              =   -6056.52339916 Ry
     estimated scf accuracy    <       0.00121862 Ry

     total magnetization       =    61.25 Bohr mag/cell
     absolute magnetization    =    68.66 Bohr mag/cell

     iteration # 30     ecut=    50.00 Ry     beta= 0.70
     Davidson diagonalization with overlap
     ethr =  5.53E-08,  avg # of iterations =  1.9

     negative rho (up, down):  3.302E-03 2.285E-03

     total cpu time spent up to now is      490.2 secs

     total energy              =   -6056.52342459 Ry
     estimated scf accuracy    <       0.00024009 Ry

     total magnetization       =    61.24 Bohr mag/cell
     absolute magnetization    =    68.66 Bohr mag/cell

     iteration # 31     ecut=    50.00 Ry     beta= 0.70
     Davidson diagonalization with overlap
     ethr =  5.53E-08,  avg # of iterations =  1.1

     negative rho (up, down):  2.923E-03 1.875E-03

     total cpu time spent up to now is      503.5 secs

     total energy              =   -6056.52342739 Ry
     estimated scf accuracy    <       0.00002426 Ry

     total magnetization       =    61.24 Bohr mag/cell
     absolute magnetization    =    68.66 Bohr mag/cell

     iteration # 32     ecut=    50.00 Ry     beta= 0.70
     Davidson diagonalization with overlap
     c_bands:  2 eigenvalues not converged
     ethr =  7.24E-09,  avg # of iterations =  6.6

     negative rho (up, down):  2.728E-03 1.647E-03

     total cpu time spent up to now is      523.1 secs

     total energy              =   -6056.52343174 Ry
     estimated scf accuracy    <       0.00001407 Ry

     total magnetization       =    61.24 Bohr mag/cell
     absolute magnetization    =    68.66 Bohr mag/cell

     iteration # 33     ecut=    50.00 Ry     beta= 0.70
     Davidson diagonalization with overlap
     ethr =  4.20E-09,  avg # of iterations =  2.8

     negative rho (up, down):  2.485E-03 1.362E-03

     total cpu time spent up to now is      539.5 secs

     total energy              =   -6056.52344210 Ry
     estimated scf accuracy    <       0.00001371 Ry

     total magnetization       =    61.24 Bohr mag/cell
     absolute magnetization    =    68.66 Bohr mag/cell

     iteration # 34     ecut=    50.00 Ry     beta= 0.70
     Davidson diagonalization with overlap
     ethr =  4.09E-09,  avg # of iterations =  2.5

     negative rho (up, down):  2.258E-03 1.164E-03

     total cpu time spent up to now is      555.8 secs

     total energy              =   -6056.52344390 Ry
     estimated scf accuracy    <       0.00001220 Ry

     total magnetization       =    61.24 Bohr mag/cell
     absolute magnetization    =    68.66 Bohr mag/cell

     iteration # 35     ecut=    50.00 Ry     beta= 0.70
     Davidson diagonalization with overlap
     ethr =  3.64E-09,  avg # of iterations =  2.2

     negative rho (up, down):  2.258E-03 1.165E-03

     total cpu time spent up to now is      571.4 secs

     total energy              =   -6056.52344439 Ry
     estimated scf accuracy    <       0.00001164 Ry

     total magnetization       =    61.24 Bohr mag/cell
     absolute magnetization    =    68.66 Bohr mag/cell

     iteration # 36     ecut=    50.00 Ry     beta= 0.70
     Davidson diagonalization with overlap
     ethr =  3.47E-09,  avg # of iterations =  1.0

     negative rho (up, down):  2.257E-03 1.172E-03

     total cpu time spent up to now is      584.7 secs

     total energy              =   -6056.52344458 Ry
     estimated scf accuracy    <       0.00000305 Ry

     total magnetization       =    61.24 Bohr mag/cell
     absolute magnetization    =    68.66 Bohr mag/cell

     iteration # 37     ecut=    50.00 Ry     beta= 0.70
     Davidson diagonalization with overlap
     ethr =  9.11E-10,  avg # of iterations =  6.2

     negative rho (up, down):  2.287E-03 1.195E-03

     total cpu time spent up to now is      605.0 secs

     total energy              =   -6056.52344477 Ry
     estimated scf accuracy    <       0.00000487 Ry

     total magnetization       =    61.24 Bohr mag/cell
     absolute magnetization    =    68.66 Bohr mag/cell

     iteration # 38     ecut=    50.00 Ry     beta= 0.70
     Davidson diagonalization with overlap
     ethr =  9.11E-10,  avg # of iterations =  1.5

     negative rho (up, down):  2.313E-03 1.220E-03

     total cpu time spent up to now is      619.7 secs

     total energy              =   -6056.52344509 Ry
     estimated scf accuracy    <       0.00000124 Ry

     total magnetization       =    61.24 Bohr mag/cell
     absolute magnetization    =    68.66 Bohr mag/cell

     iteration # 39     ecut=    50.00 Ry     beta= 0.70
     Davidson diagonalization with overlap
     ethr =  3.69E-10,  avg # of iterations =  3.8

     negative rho (up, down):  2.300E-03 1.209E-03

     total cpu time spent up to now is      636.9 secs

     total energy              =   -6056.52344508 Ry
     estimated scf accuracy    <       0.00000138 Ry

     total magnetization       =    61.24 Bohr mag/cell
     absolute magnetization    =    68.66 Bohr mag/cell

     iteration # 40     ecut=    50.00 Ry     beta= 0.70
     Davidson diagonalization with overlap
     ethr =  3.69E-10,  avg # of iterations =  1.4

     negative rho (up, down):  2.298E-03 1.207E-03

     total cpu time spent up to now is      650.7 secs

     total energy              =   -6056.52344513 Ry
     estimated scf accuracy    <       0.00000064 Ry

     total magnetization       =    61.24 Bohr mag/cell
     absolute magnetization    =    68.66 Bohr mag/cell

     iteration # 41     ecut=    50.00 Ry     beta= 0.70
     Davidson diagonalization with overlap
     ethr =  1.92E-10,  avg # of iterations =  2.1

     negative rho (up, down):  2.292E-03 1.202E-03

     total cpu time spent up to now is      666.9 secs

     total energy              =   -6056.52344515 Ry
     estimated scf accuracy    <       0.00000056 Ry

     total magnetization       =    61.24 Bohr mag/cell
     absolute magnetization    =    68.66 Bohr mag/cell

     iteration # 42     ecut=    50.00 Ry     beta= 0.70
     Davidson diagonalization with overlap
     ethr =  1.67E-10,  avg # of iterations =  1.7

     negative rho (up, down):  2.285E-03 1.194E-03

     total cpu time spent up to now is      681.8 secs

     total energy              =   -6056.52344515 Ry
     estimated scf accuracy    <       0.00000032 Ry

     total magnetization       =    61.24 Bohr mag/cell
     absolute magnetization    =    68.66 Bohr mag/cell

     iteration # 43     ecut=    50.00 Ry     beta= 0.70
     Davidson diagonalization with overlap
     ethr =  9.43E-11,  avg # of iterations =  3.8

     negative rho (up, down):  2.287E-03 1.194E-03

     total cpu time spent up to now is      699.1 secs

     total energy              =   -6056.52344516 Ry
     estimated scf accuracy    <       0.00000040 Ry

     total magnetization       =    61.24 Bohr mag/cell
     absolute magnetization    =    68.66 Bohr mag/cell

     iteration # 44     ecut=    50.00 Ry     beta= 0.70
     Davidson diagonalization with overlap
     ethr =  9.43E-11,  avg # of iterations =  1.5

     negative rho (up, down):  2.270E-03 1.176E-03

     total cpu time spent up to now is      713.2 secs

     total energy              =   -6056.52344515 Ry
     estimated scf accuracy    <       0.00000015 Ry

     total magnetization       =    61.24 Bohr mag/cell
     absolute magnetization    =    68.66 Bohr mag/cell

     iteration # 45     ecut=    50.00 Ry     beta= 0.70
     Davidson diagonalization with overlap
     ethr =  4.43E-11,  avg # of iterations =  2.5

     negative rho (up, down):  2.265E-03 1.171E-03

     total cpu time spent up to now is      731.3 secs

     total energy              =   -6056.52344513 Ry
     estimated scf accuracy    <       0.00000059 Ry

     total magnetization       =    61.24 Bohr mag/cell
     absolute magnetization    =    68.66 Bohr mag/cell

     iteration # 46     ecut=    50.00 Ry     beta= 0.70
     Davidson diagonalization with overlap
     ethr =  4.43E-11,  avg # of iterations =  1.5

     negative rho (up, down):  2.252E-03 1.157E-03

     total cpu time spent up to now is      745.8 secs

     total energy              =   -6056.52344513 Ry
     estimated scf accuracy    <       0.00000007 Ry

     total magnetization       =    61.24 Bohr mag/cell
     absolute magnetization    =    68.66 Bohr mag/cell

     iteration # 47     ecut=    50.00 Ry     beta= 0.70
     Davidson diagonalization with overlap
     ethr =  2.09E-11,  avg # of iterations =  4.5

     negative rho (up, down):  2.244E-03 1.150E-03

     total cpu time spent up to now is      763.4 secs

     total energy              =   -6056.52344512 Ry
     estimated scf accuracy    <       0.00000004 Ry

     total magnetization       =    61.24 Bohr mag/cell
     absolute magnetization    =    68.66 Bohr mag/cell

     iteration # 48     ecut=    50.00 Ry     beta= 0.70
     Davidson diagonalization with overlap
     ethr =  1.05E-11,  avg # of iterations =  4.4

     negative rho (up, down):  2.234E-03 1.140E-03

     Magnetic moment per site  (integrated on atomic sphere of radius R)
     atom   1 (R=0.097)  charge=  5.9709  magn=  1.7203
     atom   2 (R=0.097)  charge=  5.9705  magn=  1.7173
     atom   3 (R=0.097)  charge=  5.9702  magn=  1.7243
     atom   4 (R=0.097)  charge=  5.9705  magn=  1.7252
     atom   5 (R=0.097)  charge=  5.9704  magn=  1.7244
     atom   6 (R=0.097)  charge=  5.9703  magn=  1.7225
     atom   7 (R=0.097)  charge=  5.9713  magn=  1.7211
     atom   8 (R=0.097)  charge=  5.9717  magn=  1.7141
     atom   9 (R=0.097)  charge=  5.9706  magn=  1.7170
     atom  10 (R=0.097)  charge=  5.9713  magn=  1.6482
     atom  11 (R=0.097)  charge=  5.9718  magn=  1.6529
     atom  12 (R=0.097)  charge=  5.9715  magn=  1.6554
     atom  13 (R=0.097)  charge=  5.9711  magn=  1.6540
     atom  14 (R=0.097)  charge=  5.9711  magn=  1.6527
     atom  15 (R=0.097)  charge=  5.9711  magn=  1.6551
     atom  16 (R=0.097)  charge=  5.9716  magn=  1.6467
     atom  17 (R=0.097)  charge=  5.9711  magn=  1.6528
     atom  18 (R=0.097)  charge=  5.9714  magn=  1.6492
     atom  19 (R=0.097)  charge=  5.9700  magn=  1.6691
     atom  20 (R=0.097)  charge=  5.9696  magn=  1.6497
     atom  21 (R=0.097)  charge=  5.9699  magn=  1.6603
     atom  22 (R=0.097)  charge=  5.9703  magn=  1.6633
     atom  23 (R=0.097)  charge=  5.9705  magn=  1.6646
     atom  24 (R=0.097)  charge=  5.9702  magn=  1.6627
     atom  25 (R=0.097)  charge=  5.9691  magn=  1.6583
     atom  26 (R=0.097)  charge=  5.9678  magn=  1.6704
     atom  27 (R=0.097)  charge=  5.9690  magn=  1.6457
     atom  28 (R=0.097)  charge=  5.9857  magn=  1.4854
     atom  29 (R=0.097)  charge=  5.9968  magn=  1.0904
     atom  30 (R=0.097)  charge=  5.9722  magn=  1.7078
     atom  31 (R=0.097)  charge=  5.9757  magn=  1.7020
     atom  32 (R=0.097)  charge=  5.9711  magn=  1.7334
     atom  33 (R=0.097)  charge=  5.9700  magn=  1.7332
     atom  34 (R=0.097)  charge=  5.9709  magn=  1.7245
     atom  35 (R=0.097)  charge=  5.9764  magn=  1.7081
     atom  36 (R=0.097)  charge=  5.9721  magn=  1.7268
     atom  37 (R=0.067)  charge=  1.0991  magn= -0.0148
     atom  38 (R=0.067)  charge=  3.0497  magn= -0.0069
     atom  39 (R=0.067)  charge=  0.5353  magn=  0.0061

     total cpu time spent up to now is      780.8 secs

     End of self-consistent calculation

 ------ SPIN UP ------------


          k = 0.0000 0.0000 0.0000 ( 51087 PWs)   bands (ev):

   -21.7614 -10.7473  -7.5762  -6.8980  -6.3177  -5.7727  -5.3142  -4.7372
    -4.7013  -4.6991  -4.6983  -4.6861  -4.6843  -4.6443  -4.3446  -4.1706
    -4.1670  -4.1647  -4.1456  -4.1423  -4.1040  -3.6524  -3.6504  -3.6474
    -3.6400  -3.6311  -3.6024  -3.5290  -3.5199  -3.5162  -3.5143  -3.5101
    -3.4871  -3.4480  -3.4467  -3.1343  -3.1324  -3.1304  -3.1283  -3.1052
    -3.0700  -3.0658  -3.0614  -3.0604  -3.0551  -3.0535  -3.0485  -2.9013
    -2.8991  -2.8709  -2.8404  -2.8290  -2.8229  -2.8221  -2.8190  -2.8016
    -2.7908  -2.7888  -2.7870  -2.7020  -2.6931  -2.6901  -2.6827  -2.6735
    -2.6468  -2.4373  -2.1612  -2.1572  -2.1506  -2.1484  -2.1375  -2.0465
    -2.0394  -2.0200  -2.0097  -1.9965  -1.9844  -1.9758  -1.9751  -1.9709
    -1.9480  -1.9184  -1.9154  -1.8704  -1.8631  -1.8581  -1.8438  -1.8372
    -1.8359  -1.8287  -1.8262  -1.8223  -1.8190  -1.7939  -1.7908  -1.7893
    -1.7842  -1.7823  -1.7808  -1.7804  -1.7764  -1.7716  -1.7709  -1.7697
    -1.7652  -1.7479  -1.7287  -1.6955  -1.6887  -1.6181  -1.6142  -1.5461
    -1.4107  -1.3224  -1.3214  -1.3207  -1.3185  -1.3178  -1.3169  -1.2936
    -1.2870  -1.2842  -1.2624  -1.2424  -1.2306  -1.2217  -1.1136  -1.1116
    -1.0799  -1.0757  -0.9722  -0.9265  -0.9135  -0.9022  -0.9010  -0.8879
    -0.8431  -0.8323  -0.8274  -0.8220  -0.8192  -0.8076  -0.7159  -0.7105
    -0.6130  -0.5839  -0.5819  -0.5813  -0.5686  -0.5450  -0.5240  -0.5197
    -0.5153  -0.5142  -0.5100  -0.5052  -0.5005  -0.4970  -0.4966  -0.4929
    -0.4881  -0.4840  -0.4722  -0.4565  -0.4484  -0.4389  -0.4338  -0.4291
    -0.4182  -0.4096  -0.3948  -0.3923  -0.3866  -0.3811  -0.3625  -0.3601
    -0.3565  -0.3531  -0.3439  -0.3264  -0.3079  -0.2937  -0.2861  -0.2816
    -0.2764  -0.2728  -0.2682  -0.2657  -0.2499  -0.2475  -0.2043  -0.1995
    -0.1882  -0.1863  -0.1262  -0.1243  -0.1200  -0.1100  -0.1087  -0.0873
     0.3366   1.0617

          k = 0.0000 0.2309 0.0000 ( 51134 PWs)   bands (ev):

   -21.7614 -10.7458  -7.4307  -6.8888  -6.2297  -5.7640  -5.4313  -5.2938
    -4.9446  -4.9420  -4.5877  -4.4358  -4.3591  -4.3582  -4.2917  -4.2415
    -4.1977  -4.1873  -4.0866  -4.0398  -4.0350  -3.7717  -3.6607  -3.6544
    -3.5800  -3.5511  -3.5345  -3.5302  -3.5274  -3.5064  -3.5008  -3.4910
    -3.4543  -3.4105  -3.4075  -3.3753  -3.3730  -3.1907  -3.1493  -3.1453
    -3.0939  -3.0899  -3.0872  -3.0842  -3.0187  -2.9733  -2.9628  -2.9392
    -2.9225  -2.9202  -2.8933  -2.8808  -2.7925  -2.7846  -2.7601  -2.7277
    -2.7187  -2.6952  -2.6871  -2.6712  -2.6632  -2.6396  -2.6137  -2.6100
    -2.5522  -2.4450  -2.2719  -2.2593  -2.2478  -2.2344  -2.1905  -2.1267
    -2.1170  -2.1133  -2.1003  -2.0924  -2.0837  -2.0692  -2.0518  -2.0000
    -1.9771  -1.9703  -1.9554  -1.9282  -1.9130  -1.9113  -1.9044  -1.8850
    -1.8734  -1.8693  -1.8658  -1.8637  -1.8574  -1.8328  -1.8006  -1.7791
    -1.7623  -1.7434  -1.6920  -1.6897  -1.6780  -1.6674  -1.6642  -1.6560
    -1.6470  -1.6316  -1.6260  -1.6231  -1.6155  -1.6014  -1.5808  -1.5779
    -1.5581  -1.5531  -1.5387  -1.4701  -1.4501  -1.4217  -1.3518  -1.3478
    -1.3412  -1.3331  -1.3234  -1.3156  -1.3129  -1.3060  -1.2372  -1.1727
    -1.1591  -1.1357  -1.0623  -1.0575  -1.0356  -0.9901  -0.9696  -0.9592
    -0.9269  -0.8704  -0.8545  -0.8370  -0.8299  -0.8123  -0.7810  -0.7736
    -0.7572  -0.7490  -0.7309  -0.6906  -0.6861  -0.6762  -0.6660  -0.6535
    -0.6312  -0.5946  -0.5863  -0.5785  -0.5730  -0.5503  -0.5226  -0.5197
    -0.5107  -0.5040  -0.4970  -0.4874  -0.4716  -0.4625  -0.4458  -0.4346
    -0.3980  -0.3872  -0.3723  -0.3468  -0.3273  -0.3199  -0.2900  -0.2665
    -0.2633  -0.2600  -0.2482  -0.2405  -0.2242  -0.2166  -0.2061  -0.1760
    -0.1631  -0.1253  -0.1148  -0.1113  -0.0893  -0.0888  -0.0540  -0.0396
    -0.0096   0.0143   0.2490   0.2581   0.3565   0.4557   0.5052   0.5347
     0.5608   0.8011

          k = 0.0000 0.4619 0.0000 ( 51204 PWs)   bands (ev):

   -21.7614 -10.7435  -7.0369  -6.8470  -6.3132  -6.0274  -5.5875  -5.2726
    -5.0889  -5.0772  -4.9457  -4.2461  -4.1950  -4.1862  -4.1815  -4.1142
    -4.0021  -4.0010  -3.9602  -3.8739  -3.8673  -3.8609  -3.7655  -3.6919
    -3.6889  -3.6727  -3.6716  -3.6247  -3.5657  -3.5622  -3.5489  -3.4030
    -3.3961  -3.3905  -3.3848  -3.3531  -3.3504  -3.2534  -3.2398  -3.2366
    -3.2285  -3.2242  -3.1161  -3.0228  -3.0150  -2.9288  -2.9176  -2.8943
    -2.8815  -2.8552  -2.8388  -2.8354  -2.8238  -2.8062  -2.7547  -2.7435
    -2.7187  -2.6770  -2.6711  -2.5881  -2.5312  -2.5162  -2.5111  -2.4849
    -2.4445  -2.4120  -2.3865  -2.3792  -2.3559  -2.2910  -2.2527  -2.2432
    -2.2374  -2.2326  -2.2256  -2.2035  -2.1954  -2.1916  -2.1522  -2.1431
    -2.1086  -2.0870  -2.0717  -2.0447  -2.0198  -2.0076  -1.9463  -1.9281
    -1.9149  -1.9073  -1.8811  -1.8696  -1.8375  -1.8117  -1.8027  -1.7957
    -1.7870  -1.7730  -1.7616  -1.7365  -1.7242  -1.7145  -1.7071  -1.6948
    -1.6768  -1.6561  -1.6141  -1.6052  -1.5521  -1.5341  -1.5189  -1.5067
    -1.4779  -1.4559  -1.4401  -1.3974  -1.3914  -1.3708  -1.3646  -1.3621
    -1.3574  -1.3516  -1.3407  -1.3335  -1.3283  -1.3188  -1.3101  -1.2961
    -1.2897  -1.2598  -1.1942  -1.1626  -1.1341  -1.1267  -1.1060  -1.0962
    -1.0599  -1.0318  -1.0025  -0.9862  -0.9774  -0.9332  -0.9093  -0.8623
    -0.8550  -0.8252  -0.8142  -0.7850  -0.7710  -0.7555  -0.7263  -0.6908
    -0.6385  -0.6065  -0.6022  -0.5961  -0.5833  -0.5785  -0.5687  -0.5619
    -0.5528  -0.5395  -0.4618  -0.4368  -0.4208  -0.4141  -0.4088  -0.4043
    -0.3974  -0.3819  -0.3583  -0.3543  -0.3423  -0.3296  -0.2541  -0.2377
    -0.2327  -0.2219  -0.2011  -0.1617  -0.1350  -0.1169  -0.0972  -0.0635
    -0.0613  -0.0189  -0.0148   0.0017   0.0068   0.0140   0.0216   0.0610
     0.1223   0.1380   0.2983   0.8410   1.0775   1.2083   1.2459   1.3239
     1.4979   1.5844

          k = 0.2000-0.1155 0.0000 ( 51134 PWs)   bands (ev):

   -21.7614 -10.7458  -7.4320  -6.8913  -6.2233  -5.7459  -5.4418  -5.3080
    -4.9407  -4.9352  -4.5890  -4.4567  -4.3596  -4.3559  -4.2932  -4.2501
    -4.1973  -4.1639  -4.0981  -4.0392  -4.0249  -3.7758  -3.6618  -3.6519
    -3.5754  -3.5562  -3.5325  -3.5298  -3.5272  -3.5219  -3.5005  -3.4807
    -3.4575  -3.4126  -3.4051  -3.3761  -3.3721  -3.1863  -3.1494  -3.1462
    -3.1111  -3.0905  -3.0870  -3.0806  -3.0118  -2.9887  -2.9607  -2.9338
    -2.9213  -2.9161  -2.8954  -2.8839  -2.8006  -2.7855  -2.7671  -2.7279
    -2.7192  -2.6946  -2.6814  -2.6615  -2.6524  -2.6354  -2.6127  -2.6114
    -2.5577  -2.4461  -2.2756  -2.2660  -2.2364  -2.2225  -2.1880  -2.1267
    -2.1185  -2.1135  -2.1036  -2.0934  -2.0852  -2.0628  -2.0268  -2.0012
    -1.9795  -1.9727  -1.9565  -1.9286  -1.9124  -1.9095  -1.9073  -1.8807
    -1.8778  -1.8714  -1.8683  -1.8661  -1.8599  -1.8341  -1.7865  -1.7798
    -1.7638  -1.7315  -1.7006  -1.6875  -1.6782  -1.6739  -1.6614  -1.6564
    -1.6499  -1.6335  -1.6261  -1.6205  -1.6137  -1.6041  -1.5755  -1.5699
    -1.5630  -1.5481  -1.5359  -1.4883  -1.4569  -1.4276  -1.3500  -1.3464
    -1.3404  -1.3348  -1.3204  -1.3173  -1.3168  -1.3090  -1.1991  -1.1791
    -1.1572  -1.1352  -1.0641  -1.0584  -1.0353  -0.9982  -0.9704  -0.9625
    -0.8975  -0.8878  -0.8662  -0.8465  -0.8293  -0.8166  -0.7807  -0.7758
    -0.7630  -0.7411  -0.7272  -0.6905  -0.6875  -0.6762  -0.6686  -0.6579
    -0.6363  -0.5929  -0.5833  -0.5809  -0.5588  -0.5333  -0.5211  -0.5171
    -0.5104  -0.5040  -0.4984  -0.4879  -0.4716  -0.4575  -0.4539  -0.4423
    -0.3891  -0.3806  -0.3590  -0.3499  -0.3263  -0.3236  -0.2911  -0.2683
    -0.2641  -0.2570  -0.2511  -0.2383  -0.2211  -0.2169  -0.2053  -0.1684
    -0.1622  -0.1234  -0.1178  -0.1131  -0.0901  -0.0877  -0.0440  -0.0401
    -0.0255   0.0145   0.2250   0.2573   0.3251   0.4225   0.5046   0.5455
     0.5848   0.7592

          k = 0.2000 0.1155 0.0000 ( 51134 PWs)   bands (ev):

   -21.7614 -10.7458  -7.4317  -6.8908  -6.2239  -5.7479  -5.4480  -5.2970
    -4.9414  -4.9383  -4.5877  -4.4559  -4.3601  -4.3560  -4.2931  -4.2501
    -4.1990  -4.1630  -4.0978  -4.0401  -4.0247  -3.7758  -3.6602  -3.6536
    -3.5750  -3.5584  -3.5323  -3.5301  -3.5262  -3.5178  -3.5015  -3.4821
    -3.4563  -3.4108  -3.4066  -3.3750  -3.3725  -3.1819  -3.1488  -3.1468
    -3.1104  -3.0907  -3.0876  -3.0842  -3.0097  -2.9854  -2.9624  -2.9358
    -2.9208  -2.9158  -2.8963  -2.8843  -2.8007  -2.7868  -2.7691  -2.7319
    -2.7166  -2.6953  -2.6837  -2.6625  -2.6519  -2.6342  -2.6160  -2.6076
    -2.5593  -2.4439  -2.2761  -2.2674  -2.2425  -2.2198  -2.1882  -2.1245
    -2.1176  -2.1138  -2.1047  -2.0975  -2.0826  -2.0555  -2.0382  -1.9935
    -1.9894  -1.9727  -1.9538  -1.9286  -1.9118  -1.9094  -1.9048  -1.8829
    -1.8792  -1.8713  -1.8669  -1.8640  -1.8579  -1.8316  -1.7943  -1.7802
    -1.7614  -1.7388  -1.6932  -1.6872  -1.6775  -1.6742  -1.6589  -1.6536
    -1.6505  -1.6365  -1.6284  -1.6205  -1.6113  -1.5989  -1.5769  -1.5694
    -1.5599  -1.5535  -1.5305  -1.4887  -1.4525  -1.4338  -1.3520  -1.3449
    -1.3397  -1.3354  -1.3200  -1.3184  -1.3152  -1.3062  -1.2065  -1.1667
    -1.1618  -1.1339  -1.0644  -1.0583  -1.0337  -0.9957  -0.9695  -0.9616
    -0.9038  -0.8800  -0.8656  -0.8435  -0.8309  -0.8169  -0.7811  -0.7785
    -0.7557  -0.7451  -0.7287  -0.6875  -0.6842  -0.6813  -0.6709  -0.6572
    -0.6365  -0.5963  -0.5821  -0.5786  -0.5562  -0.5390  -0.5227  -0.5174
    -0.5090  -0.5048  -0.4932  -0.4878  -0.4727  -0.4588  -0.4536  -0.4446
    -0.3941  -0.3803  -0.3622  -0.3494  -0.3297  -0.3247  -0.2879  -0.2666
    -0.2616  -0.2587  -0.2523  -0.2408  -0.2211  -0.2176  -0.2063  -0.1736
    -0.1630  -0.1273  -0.1182  -0.1141  -0.0894  -0.0880  -0.0458  -0.0422
    -0.0089   0.0107   0.2291   0.2594   0.3203   0.4292   0.5040   0.5462
     0.5844   0.7568

          k = 0.2000 0.3464 0.0000 ( 51202 PWs)   bands (ev):

   -21.7614 -10.7440  -7.1562  -6.8709  -6.1117  -5.8155  -5.7700  -5.5584
    -5.2856  -4.6797  -4.5947  -4.3653  -4.3589  -4.3237  -4.1468  -4.1434
    -4.0598  -4.0484  -4.0293  -3.9125  -3.9024  -3.7743  -3.7660  -3.7075
    -3.6573  -3.5720  -3.5689  -3.5394  -3.5157  -3.5076  -3.5039  -3.4712
    -3.4626  -3.4471  -3.4293  -3.3931  -3.3510  -3.3127  -3.3075  -3.1872
    -3.1776  -3.0916  -3.0782  -3.0578  -3.0413  -3.0269  -2.9359  -2.8938
    -2.8842  -2.8696  -2.8515  -2.8475  -2.8016  -2.7896  -2.7742  -2.7633
    -2.7451  -2.6438  -2.6283  -2.5836  -2.5719  -2.5500  -2.5291  -2.5093
    -2.5026  -2.4274  -2.3828  -2.3073  -2.2977  -2.2581  -2.2430  -2.2199
    -2.2128  -2.2007  -2.1913  -2.1691  -2.1609  -2.1406  -2.1387  -2.1252
    -2.1153  -2.0954  -2.0305  -1.9968  -1.9513  -1.9444  -1.9197  -1.9116
    -1.9030  -1.8782  -1.8579  -1.8330  -1.8196  -1.7975  -1.7876  -1.7831
    -1.7761  -1.7621  -1.7511  -1.7398  -1.7316  -1.7267  -1.7071  -1.6874
    -1.6775  -1.6654  -1.6410  -1.6178  -1.5951  -1.5845  -1.5510  -1.5438
    -1.5332  -1.5193  -1.5140  -1.4708  -1.4500  -1.4407  -1.4180  -1.3843
    -1.3726  -1.3691  -1.3623  -1.3492  -1.3289  -1.3219  -1.3039  -1.2669
    -1.2244  -1.1984  -1.1909  -1.1537  -1.0826  -1.0682  -1.0558  -0.9684
    -0.9414  -0.9323  -0.9295  -0.9201  -0.9059  -0.8951  -0.8769  -0.8707
    -0.8472  -0.8385  -0.8148  -0.7795  -0.7675  -0.7610  -0.7382  -0.7244
    -0.7084  -0.6884  -0.6597  -0.6521  -0.6419  -0.6334  -0.5513  -0.4924
    -0.4835  -0.4552  -0.4474  -0.4406  -0.4320  -0.4127  -0.3984  -0.3951
    -0.3908  -0.3603  -0.3073  -0.3027  -0.2891  -0.2814  -0.2441  -0.2304
    -0.2140  -0.2089  -0.2063  -0.1833  -0.1776  -0.1688  -0.1646  -0.1405
    -0.1384  -0.0665  -0.0491  -0.0382  -0.0281   0.0112   0.0153   0.0355
     0.3220   0.3519   0.4268   0.5279   0.6090   0.7111   1.0884   1.1985
     1.2592   1.4356

          k = 0.2000-0.5774 0.0000 ( 51262 PWs)   bands (ev):

   -21.7614 -10.7428  -6.9363  -6.5610  -6.5395  -6.0163  -5.8390  -5.4793
    -5.1242  -5.1132  -4.7022  -4.3505  -4.1087  -4.0702  -3.9553  -3.9378
    -3.9295  -3.9096  -3.9013  -3.8799  -3.8302  -3.8187  -3.8161  -3.8107
    -3.7307  -3.7173  -3.6694  -3.6661  -3.6393  -3.6340  -3.5387  -3.4889
    -3.4810  -3.4656  -3.4569  -3.4192  -3.3277  -3.3163  -3.2097  -3.1898
    -3.1840  -3.1148  -3.1044  -3.0868  -3.0578  -2.9780  -2.9725  -2.9690
    -2.9031  -2.8987  -2.8288  -2.7910  -2.7549  -2.7471  -2.7080  -2.6920
    -2.6537  -2.6107  -2.6009  -2.5867  -2.5810  -2.5542  -2.5442  -2.4796
    -2.4427  -2.3976  -2.3785  -2.3747  -2.3576  -2.3151  -2.3033  -2.2506
    -2.2350  -2.2100  -2.2014  -2.1941  -2.1905  -2.1542  -2.1351  -2.1261
    -2.1126  -2.1042  -2.0814  -2.0662  -2.0576  -2.0491  -1.9864  -1.9688
    -1.9561  -1.9189  -1.9017  -1.8828  -1.8395  -1.8336  -1.8203  -1.7986
    -1.7747  -1.7686  -1.7653  -1.7580  -1.7488  -1.7335  -1.7082  -1.7057
    -1.6431  -1.6201  -1.6129  -1.6093  -1.5956  -1.5893  -1.5826  -1.5736
    -1.5661  -1.5599  -1.5418  -1.5091  -1.5012  -1.4607  -1.4549  -1.4246
    -1.3721  -1.3638  -1.3321  -1.3143  -1.3029  -1.2978  -1.2782  -1.2265
    -1.2120  -1.2037  -1.1946  -1.1311  -1.1178  -1.0694  -1.0534  -1.0424
    -1.0188  -1.0056  -1.0011  -0.9861  -0.9528  -0.9449  -0.9148  -0.9046
    -0.8688  -0.8514  -0.8421  -0.8267  -0.8110  -0.7772  -0.7484  -0.7290
    -0.7250  -0.7157  -0.7064  -0.6809  -0.6663  -0.6511  -0.6193  -0.5309
    -0.4553  -0.4442  -0.4366  -0.4278  -0.4223  -0.4137  -0.4031  -0.3882
    -0.3550  -0.3511  -0.3364  -0.3338  -0.2854  -0.2747  -0.2168  -0.2095
    -0.1951  -0.1849  -0.1647  -0.1571  -0.1199  -0.1060  -0.1016  -0.0902
    -0.0785  -0.0225  -0.0119  -0.0075   0.0109   0.0175   0.0422   0.0725
     0.2242   0.3658   0.4956   0.7109   1.2429   1.2880   1.4798   1.5728
     1.7669   1.8477

          k = 0.2000-0.3464 0.0000 ( 51202 PWs)   bands (ev):

   -21.7614 -10.7440  -7.1578  -6.8700  -6.1115  -5.8129  -5.7691  -5.5574
    -5.2902  -4.6783  -4.5973  -4.3661  -4.3588  -4.3208  -4.1462  -4.1443
    -4.0594  -4.0493  -4.0282  -3.9134  -3.9015  -3.7735  -3.7667  -3.7084
    -3.6573  -3.5707  -3.5674  -3.5398  -3.5140  -3.5085  -3.5071  -3.4729
    -3.4625  -3.4447  -3.4352  -3.3921  -3.3521  -3.3127  -3.3055  -3.1910
    -3.1809  -3.0899  -3.0799  -3.0535  -3.0443  -3.0268  -2.9371  -2.8926
    -2.8826  -2.8693  -2.8514  -2.8455  -2.8014  -2.7875  -2.7724  -2.7629
    -2.7439  -2.6444  -2.6257  -2.5868  -2.5680  -2.5506  -2.5254  -2.5112
    -2.4995  -2.4326  -2.3787  -2.3098  -2.2955  -2.2538  -2.2401  -2.2193
    -2.2092  -2.2046  -2.1931  -2.1670  -2.1533  -2.1464  -2.1401  -2.1248
    -2.1089  -2.1022  -2.0242  -2.0081  -1.9483  -1.9434  -1.9220  -1.9159
    -1.8971  -1.8815  -1.8596  -1.8315  -1.8256  -1.7949  -1.7884  -1.7845
    -1.7750  -1.7625  -1.7505  -1.7399  -1.7306  -1.7240  -1.7026  -1.6874
    -1.6801  -1.6627  -1.6385  -1.6191  -1.5977  -1.5879  -1.5531  -1.5470
    -1.5356  -1.5173  -1.5119  -1.4725  -1.4471  -1.4367  -1.4187  -1.3935
    -1.3726  -1.3685  -1.3629  -1.3440  -1.3327  -1.3236  -1.3042  -1.2649
    -1.2276  -1.2024  -1.1956  -1.1564  -1.0833  -1.0662  -1.0620  -0.9681
    -0.9455  -0.9327  -0.9275  -0.9129  -0.9063  -0.9003  -0.8773  -0.8627
    -0.8501  -0.8370  -0.8122  -0.7810  -0.7672  -0.7601  -0.7402  -0.7211
    -0.7067  -0.6847  -0.6651  -0.6500  -0.6421  -0.6327  -0.5469  -0.4931
    -0.4825  -0.4592  -0.4489  -0.4405  -0.4274  -0.4120  -0.4047  -0.3965
    -0.3853  -0.3607  -0.3080  -0.3008  -0.2883  -0.2819  -0.2429  -0.2314
    -0.2134  -0.2108  -0.2071  -0.1827  -0.1735  -0.1700  -0.1630  -0.1458
    -0.1361  -0.0637  -0.0453  -0.0367  -0.0296   0.0108   0.0148   0.0365
     0.3193   0.3537   0.4261   0.5268   0.6192   0.7089   1.0902   1.2136
     1.2382   1.4248

          k = 0.4000-0.2309 0.0000 ( 51204 PWs)   bands (ev):

   -21.7614 -10.7435  -7.0553  -6.8384  -6.2921  -6.0233  -5.5484  -5.3281
    -5.0863  -5.0565  -4.9769  -4.2635  -4.1966  -4.1890  -4.1494  -4.1227
    -4.0020  -3.9993  -3.9640  -3.8724  -3.8663  -3.8626  -3.7743  -3.6919
    -3.6853  -3.6731  -3.6696  -3.6264  -3.5732  -3.5646  -3.5566  -3.4050
    -3.4004  -3.3878  -3.3731  -3.3552  -3.3488  -3.2510  -3.2395  -3.2352
    -3.2322  -3.2251  -3.1141  -3.0454  -3.0134  -2.9460  -2.9186  -2.8985
    -2.8828  -2.8616  -2.8377  -2.8357  -2.8293  -2.8066  -2.7440  -2.7410
    -2.7171  -2.6803  -2.6727  -2.5634  -2.5287  -2.5220  -2.5141  -2.4692
    -2.4219  -2.4054  -2.3934  -2.3800  -2.3408  -2.2879  -2.2496  -2.2454
    -2.2373  -2.2345  -2.2102  -2.2001  -2.1946  -2.1847  -2.1701  -2.1188
    -2.1000  -2.0848  -2.0737  -2.0403  -2.0268  -2.0052  -1.9669  -1.9255
    -1.9127  -1.9063  -1.8849  -1.8765  -1.8327  -1.8112  -1.8027  -1.7993
    -1.7811  -1.7721  -1.7579  -1.7377  -1.7335  -1.7155  -1.6965  -1.6874
    -1.6759  -1.6562  -1.6133  -1.5821  -1.5482  -1.5373  -1.5067  -1.4994
    -1.4800  -1.4594  -1.4465  -1.3965  -1.3840  -1.3781  -1.3677  -1.3611
    -1.3566  -1.3516  -1.3443  -1.3375  -1.3276  -1.3235  -1.3120  -1.2932
    -1.2715  -1.2608  -1.2145  -1.1616  -1.1379  -1.1271  -1.1139  -1.0802
    -1.0709  -1.0335  -1.0093  -0.9866  -0.9787  -0.9315  -0.9158  -0.8728
    -0.8543  -0.8257  -0.8051  -0.7977  -0.7711  -0.7565  -0.7232  -0.6960
    -0.6639  -0.6089  -0.5998  -0.5820  -0.5777  -0.5716  -0.5665  -0.5620
    -0.5467  -0.5374  -0.4625  -0.4327  -0.4272  -0.4192  -0.4046  -0.4002
    -0.3915  -0.3674  -0.3648  -0.3557  -0.3374  -0.3205  -0.2549  -0.2362
    -0.2293  -0.2243  -0.1984  -0.1635  -0.1331  -0.1195  -0.0955  -0.0636
    -0.0527  -0.0173  -0.0128   0.0073   0.0103   0.0138   0.0306   0.0489
     0.1212   0.1377   0.2608   0.8759   0.9991   1.1191   1.2435   1.3001
     1.4409   1.6121

          k = 0.4000 0.0000 0.0000 ( 51202 PWs)   bands (ev):

   -21.7614 -10.7440  -7.1640  -6.8662  -6.1038  -5.7942  -5.7699  -5.5632
    -5.3079  -4.6546  -4.6183  -4.3766  -4.3633  -4.3169  -4.1479  -4.1430
    -4.0528  -4.0490  -4.0467  -3.9141  -3.8884  -3.7750  -3.7682  -3.7048
    -3.6563  -3.5694  -3.5596  -3.5384  -3.5155  -3.5115  -3.5028  -3.4841
    -3.4609  -3.4440  -3.4365  -3.3970  -3.3495  -3.3209  -3.3086  -3.1870
    -3.1759  -3.0904  -3.0755  -3.0515  -3.0400  -3.0319  -2.9452  -2.9298
    -2.8867  -2.8578  -2.8526  -2.8473  -2.7975  -2.7875  -2.7707  -2.7634
    -2.7456  -2.6519  -2.6319  -2.5713  -2.5652  -2.5479  -2.5358  -2.5060
    -2.5042  -2.3935  -2.3795  -2.3030  -2.2904  -2.2614  -2.2478  -2.2243
    -2.2103  -2.1952  -2.1910  -2.1709  -2.1588  -2.1493  -2.1386  -2.1205
    -2.1062  -2.0899  -2.0290  -1.9974  -1.9498  -1.9467  -1.9255  -1.9120
    -1.8930  -1.8782  -1.8583  -1.8346  -1.8265  -1.7948  -1.7854  -1.7788
    -1.7745  -1.7663  -1.7533  -1.7375  -1.7306  -1.7172  -1.7053  -1.6882
    -1.6735  -1.6425  -1.6357  -1.6091  -1.5970  -1.5898  -1.5561  -1.5477
    -1.5269  -1.5183  -1.5089  -1.4794  -1.4486  -1.4390  -1.4155  -1.3826
    -1.3760  -1.3708  -1.3627  -1.3454  -1.3297  -1.3248  -1.3052  -1.2747
    -1.2198  -1.2082  -1.2024  -1.1564  -1.0783  -1.0713  -1.0602  -0.9823
    -0.9447  -0.9333  -0.9263  -0.9124  -0.9070  -0.9000  -0.8826  -0.8713
    -0.8498  -0.8372  -0.8132  -0.7752  -0.7633  -0.7594  -0.7342  -0.7234
    -0.7066  -0.6921  -0.6615  -0.6542  -0.6453  -0.6347  -0.5549  -0.4867
    -0.4819  -0.4583  -0.4433  -0.4405  -0.4251  -0.4115  -0.4010  -0.3967
    -0.3882  -0.3539  -0.3185  -0.3008  -0.2900  -0.2795  -0.2400  -0.2348
    -0.2145  -0.2111  -0.2045  -0.1842  -0.1738  -0.1691  -0.1658  -0.1404
    -0.1368  -0.0577  -0.0444  -0.0386  -0.0323   0.0080   0.0118   0.0318
     0.3453   0.3532   0.4149   0.5216   0.6601   0.6909   0.9820   1.1837
     1.2516   1.3865

          k = 0.4000 0.2309 0.0000 ( 51204 PWs)   bands (ev):

   -21.7614 -10.7436  -7.0522  -6.8395  -6.2944  -6.0241  -5.5573  -5.3164
    -5.0858  -5.0623  -4.9728  -4.2636  -4.1952  -4.1935  -4.1467  -4.1231
    -4.0022  -3.9991  -3.9635  -3.8709  -3.8674  -3.8628  -3.7755  -3.6907
    -3.6854  -3.6731  -3.6703  -3.6262  -3.5723  -3.5648  -3.5565  -3.4030
    -3.3999  -3.3880  -3.3707  -3.3549  -3.3499  -3.2458  -3.2411  -3.2354
    -3.2298  -3.2262  -3.1111  -3.0401  -3.0179  -2.9437  -2.9213  -2.9014
    -2.8825  -2.8608  -2.8391  -2.8340  -2.8303  -2.8113  -2.7443  -2.7387
    -2.7201  -2.6812  -2.6707  -2.5656  -2.5257  -2.5215  -2.5153  -2.4725
    -2.4382  -2.4045  -2.3936  -2.3794  -2.3479  -2.2934  -2.2486  -2.2441
    -2.2373  -2.2335  -2.2131  -2.2007  -2.1930  -2.1897  -2.1663  -2.1257
    -2.1023  -2.0878  -2.0702  -2.0325  -2.0269  -2.0114  -1.9565  -1.9232
    -1.9130  -1.9109  -1.8837  -1.8699  -1.8267  -1.8075  -1.8027  -1.7998
    -1.7825  -1.7733  -1.7572  -1.7353  -1.7272  -1.7154  -1.6985  -1.6895
    -1.6805  -1.6563  -1.6133  -1.5791  -1.5504  -1.5345  -1.5172  -1.5027
    -1.4760  -1.4619  -1.4387  -1.3987  -1.3832  -1.3778  -1.3651  -1.3595
    -1.3565  -1.3494  -1.3412  -1.3335  -1.3330  -1.3215  -1.3092  -1.2922
    -1.2771  -1.2514  -1.2086  -1.1616  -1.1358  -1.1258  -1.1160  -1.0811
    -1.0574  -1.0344  -1.0087  -0.9877  -0.9800  -0.9311  -0.9185  -0.8727
    -0.8568  -0.8243  -0.8098  -0.7979  -0.7705  -0.7546  -0.7256  -0.7006
    -0.6608  -0.6117  -0.6027  -0.5828  -0.5778  -0.5708  -0.5641  -0.5615
    -0.5507  -0.5399  -0.4554  -0.4341  -0.4257  -0.4171  -0.4071  -0.3999
    -0.3924  -0.3696  -0.3602  -0.3553  -0.3414  -0.3257  -0.2531  -0.2359
    -0.2296  -0.2267  -0.1990  -0.1663  -0.1354  -0.1179  -0.0980  -0.0640
    -0.0573  -0.0169  -0.0149   0.0071   0.0076   0.0135   0.0280   0.0620
     0.1205   0.1346   0.2617   0.8598   1.0028   1.1325   1.2429   1.2842
     1.4666   1.6115

          k = 0.4000-0.6928 0.0000 ( 51262 PWs)   bands (ev):

   -21.7614 -10.7428  -6.9504  -6.5587  -6.5159  -6.0336  -5.8347  -5.4117
    -5.2159  -5.1112  -4.6767  -4.3489  -4.1116  -4.0711  -3.9705  -3.9352
    -3.9260  -3.9162  -3.9050  -3.8805  -3.8259  -3.8192  -3.8170  -3.8101
    -3.7350  -3.7171  -3.6688  -3.6633  -3.6385  -3.6357  -3.5184  -3.4981
    -3.4823  -3.4772  -3.4529  -3.4183  -3.3227  -3.3112  -3.2099  -3.1906
    -3.1876  -3.1181  -3.1027  -3.0876  -3.0588  -2.9905  -2.9754  -2.9667
    -2.9042  -2.8927  -2.8408  -2.7942  -2.7679  -2.7519  -2.7110  -2.6911
    -2.6358  -2.6117  -2.5979  -2.5895  -2.5843  -2.5465  -2.5338  -2.4744
    -2.4380  -2.3961  -2.3890  -2.3743  -2.3567  -2.3110  -2.2907  -2.2541
    -2.2334  -2.2073  -2.2005  -2.1929  -2.1819  -2.1687  -2.1287  -2.1225
    -2.1104  -2.1044  -2.0893  -2.0644  -2.0573  -2.0352  -1.9856  -1.9698
    -1.9575  -1.9435  -1.8891  -1.8838  -1.8421  -1.8214  -1.8067  -1.7965
    -1.7789  -1.7698  -1.7569  -1.7528  -1.7464  -1.7264  -1.7079  -1.6984
    -1.6335  -1.6227  -1.6159  -1.6106  -1.5944  -1.5871  -1.5845  -1.5751
    -1.5687  -1.5602  -1.5393  -1.5209  -1.4960  -1.4614  -1.4529  -1.4317
    -1.3733  -1.3637  -1.3341  -1.3139  -1.3010  -1.2961  -1.2791  -1.2407
    -1.2132  -1.2035  -1.1909  -1.1377  -1.0983  -1.0706  -1.0547  -1.0423
    -1.0240  -1.0056  -1.0009  -0.9868  -0.9555  -0.9431  -0.9105  -0.8999
    -0.8633  -0.8522  -0.8410  -0.8242  -0.8093  -0.7871  -0.7457  -0.7417
    -0.7292  -0.7179  -0.7032  -0.6843  -0.6733  -0.6450  -0.6192  -0.5355
    -0.4540  -0.4417  -0.4360  -0.4255  -0.4208  -0.4134  -0.4017  -0.3857
    -0.3585  -0.3490  -0.3418  -0.3319  -0.2807  -0.2730  -0.2146  -0.2102
    -0.2029  -0.1819  -0.1628  -0.1555  -0.1201  -0.1050  -0.1019  -0.0905
    -0.0872  -0.0138  -0.0113  -0.0034   0.0110   0.0184   0.0413   0.0705
     0.1837   0.3863   0.5187   0.7241   1.1326   1.2942   1.4101   1.6530
     1.7613   1.8114

          k = 0.4000-0.4619 0.0000 ( 51262 PWs)   bands (ev):

   -21.7614 -10.7428  -6.9533  -6.5590  -6.5114  -6.0350  -5.8366  -5.3924
    -5.2355  -5.1115  -4.6744  -4.3482  -4.1116  -4.0706  -3.9714  -3.9353
    -3.9264  -3.9150  -3.9059  -3.8792  -3.8270  -3.8202  -3.8164  -3.8091
    -3.7368  -3.7164  -3.6686  -3.6629  -3.6396  -3.6348  -3.5180  -3.4992
    -3.4823  -3.4759  -3.4565  -3.4184  -3.3210  -3.3117  -3.2161  -3.1925
    -3.1875  -3.1165  -3.1000  -3.0893  -3.0576  -2.9897  -2.9733  -2.9680
    -2.9026  -2.8973  -2.8407  -2.7940  -2.7642  -2.7504  -2.7101  -2.6949
    -2.6360  -2.6105  -2.6011  -2.5884  -2.5834  -2.5485  -2.5368  -2.4735
    -2.4228  -2.3976  -2.3840  -2.3738  -2.3512  -2.3128  -2.2883  -2.2533
    -2.2293  -2.2053  -2.1998  -2.1984  -2.1822  -2.1659  -2.1313  -2.1210
    -2.1129  -2.0979  -2.0863  -2.0643  -2.0577  -2.0287  -1.9900  -1.9818
    -1.9594  -1.9497  -1.8981  -1.8777  -1.8425  -1.8253  -1.8065  -1.7901
    -1.7819  -1.7666  -1.7636  -1.7563  -1.7509  -1.7234  -1.7023  -1.6969
    -1.6329  -1.6215  -1.6139  -1.6113  -1.5981  -1.5892  -1.5841  -1.5730
    -1.5624  -1.5604  -1.5408  -1.5146  -1.4979  -1.4667  -1.4539  -1.4341
    -1.3790  -1.3635  -1.3332  -1.3089  -1.3056  -1.2975  -1.2826  -1.2399
    -1.2134  -1.2051  -1.1921  -1.1355  -1.0959  -1.0727  -1.0580  -1.0393
    -1.0297  -1.0126  -0.9966  -0.9866  -0.9565  -0.9435  -0.9107  -0.8997
    -0.8597  -0.8507  -0.8401  -0.8269  -0.8082  -0.7875  -0.7486  -0.7425
    -0.7253  -0.7197  -0.6975  -0.6822  -0.6745  -0.6453  -0.6140  -0.5363
    -0.4514  -0.4391  -0.4342  -0.4289  -0.4191  -0.4153  -0.4068  -0.3836
    -0.3589  -0.3504  -0.3410  -0.3313  -0.2832  -0.2716  -0.2127  -0.2102
    -0.1975  -0.1847  -0.1667  -0.1533  -0.1216  -0.1070  -0.1011  -0.0925
    -0.0882  -0.0122  -0.0100  -0.0033   0.0119   0.0165   0.0441   0.0728
     0.1859   0.3890   0.5199   0.7258   1.1229   1.2927   1.4120   1.6662
     1.7528   1.8130

 ------ SPIN DOWN ----------


          k = 0.0000 0.0000 0.0000 ( 51087 PWs)   bands (ev):

   -21.7746 -10.7660  -7.7058  -6.8433  -6.3833  -5.7531  -5.3485  -4.5337
    -4.5053  -4.5007  -4.4998  -4.4848  -4.4819  -4.3828  -3.6338  -3.6274
    -3.6256  -3.6071  -3.5954  -3.5858  -3.4672  -2.6883  -2.6874  -2.6764
    -2.6660  -2.6585  -2.6014  -2.3039  -2.2278  -2.2201  -2.2147  -2.2079
    -2.1998  -2.0700  -2.0142  -1.9986  -1.9394  -1.9309  -1.9169  -1.9151
    -1.8347  -1.8287  -1.7797  -1.7743  -1.7287  -1.6888  -1.6859  -1.6667
    -1.6523  -1.5746  -1.4652  -1.4228  -1.4112  -1.3989  -1.3851  -1.3784
    -1.3757  -1.3735  -1.3535  -1.3328  -1.3191  -1.2991  -1.2958  -1.2933
    -1.2637  -1.1712  -0.8541  -0.7436  -0.7266  -0.7190  -0.7173  -0.5595
    -0.5342  -0.4581  -0.4182  -0.4077  -0.3961  -0.3934  -0.3858  -0.3747
    -0.3538  -0.3220  -0.3038  -0.2985  -0.2963  -0.2936  -0.2723  -0.2425
    -0.2175  -0.2055  -0.1954  -0.1937  -0.1648  -0.1482  -0.1408  -0.1390
    -0.1338  -0.1275  -0.1094  -0.1073  -0.1064  -0.1060  -0.0393  -0.0016
     0.0228   0.0363   0.0401   0.0633   0.1029   0.1115   0.1204   0.1205
     0.1220   0.1255   0.1271   0.1305   0.1996   0.2010   0.2575   0.2810
     0.2893   0.3019   0.3073   0.3205   0.4731   0.5087   0.5236   0.5580
     0.5883   0.5983   0.6080   0.6101   0.6611   0.8759   0.8998   0.9437
     0.9491   1.0441   1.0974   1.1218   1.1467   1.1652   1.1736   1.1772
     1.3109   1.3299   1.3344   1.3390   1.3403   1.3480   1.3567   1.3752
     1.3979   1.4177   1.4306   1.4414   1.4494   1.4569   1.4706   1.4878
     1.4965   1.4986   1.5012   1.5293   1.5503   1.5657   1.5743   1.5890
     1.5976   1.6095   1.6165   1.6232   1.6264   1.6288   1.6357   1.6689
     1.6735   1.6938   1.6969   1.7081   1.7137   1.7236   1.7240   1.7531
     1.7597   1.7610   1.7676   1.7740   1.7755   1.7769   1.7838   1.7877
     1.8024   1.8245   1.8485   1.8504   1.9954   2.0016   2.0034   2.0043
     2.0078   2.0090

          k = 0.0000 0.2309 0.0000 ( 51134 PWs)   bands (ev):

   -21.7746 -10.7645  -7.5579  -6.8334  -6.2862  -5.7709  -5.4542  -5.3166
    -4.8817  -4.8785  -4.3704  -4.2251  -3.9545  -3.9514  -3.8508  -3.8367
    -3.6586  -3.4117  -3.2794  -3.2699  -3.1659  -2.8946  -2.6910  -2.6850
    -2.6190  -2.5782  -2.5634  -2.3694  -2.2715  -2.2570  -2.2438  -2.2183
    -2.2050  -2.1736  -2.1554  -2.1460  -2.1213  -2.0530  -1.9780  -1.9557
    -1.8904  -1.8868  -1.8159  -1.7522  -1.7154  -1.6912  -1.6838  -1.5804
    -1.5535  -1.5216  -1.4878  -1.4616  -1.4302  -1.4144  -1.3955  -1.3860
    -1.3819  -1.3711  -1.2984  -1.2643  -1.2461  -1.2407  -1.2067  -1.1941
    -1.1314  -1.0590  -0.8838  -0.7924  -0.7761  -0.7657  -0.7270  -0.6579
    -0.6430  -0.6101  -0.5671  -0.5363  -0.4520  -0.4315  -0.4262  -0.4098
    -0.3678  -0.3622  -0.3534  -0.3432  -0.3369  -0.3267  -0.2833  -0.2641
    -0.2280  -0.2006  -0.1859  -0.1843  -0.1652  -0.1382  -0.1266  -0.1084
    -0.1056  -0.0997  -0.0890  -0.0845  -0.0809  -0.0772  -0.0607  -0.0375
    -0.0016   0.0068   0.0132   0.0170   0.0485   0.0646   0.0804   0.0852
     0.1208   0.1423   0.1554   0.1786   0.2210   0.2272   0.2350   0.2663
     0.3886   0.4169   0.4517   0.4726   0.4942   0.5046   0.5395   0.5487
     0.5651   0.5720   0.5827   0.5907   0.7434   0.8516   0.9050   0.9141
     0.9233   0.9357   0.9541   0.9617   1.0045   1.0291   1.0927   1.1001
     1.1182   1.1660   1.1904   1.2249   1.2314   1.2579   1.2794   1.3006
     1.3382   1.3739   1.3873   1.4071   1.4110   1.4294   1.4539   1.4644
     1.4955   1.5196   1.5447   1.5568   1.5671   1.5833   1.5966   1.6195
     1.6494   1.6556   1.6631   1.6708   1.6903   1.6931   1.7429   1.7482
     1.7555   1.7595   1.8013   1.8068   1.8152   1.8338   1.8420   1.8507
     1.8674   1.9003   1.9071   1.9144   1.9355   1.9396   1.9470   1.9688
     1.9725   1.9931   1.9964   2.0112   2.0915   2.1014   2.1104   2.1447
     2.1731   2.1970

          k = 0.0000 0.4619 0.0000 ( 51204 PWs)   bands (ev):

   -21.7746 -10.7621  -7.1311  -6.8200  -6.4104  -6.0509  -5.6290  -5.3022
    -5.0980  -5.0844  -4.9393  -4.0161  -3.9769  -3.9009  -3.3987  -3.3361
    -3.3301  -3.2170  -3.0755  -3.0058  -2.8912  -2.8802  -2.7385  -2.7330
    -2.6760  -2.6659  -2.6146  -2.5966  -2.4970  -2.4848  -2.4428  -2.4228
    -2.4044  -2.2298  -2.1984  -2.1296  -2.1182  -2.1011  -2.0038  -1.9973
    -1.9827  -1.9758  -1.8729  -1.7292  -1.6886  -1.6722  -1.6473  -1.6305
    -1.4829  -1.4636  -1.4529  -1.4458  -1.4351  -1.4050  -1.3991  -1.3881
    -1.3569  -1.2922  -1.2783  -1.2698  -1.2552  -1.2204  -1.1078  -1.0517
    -0.9771  -0.9172  -0.8493  -0.8350  -0.7953  -0.7659  -0.7400  -0.7220
    -0.7078  -0.6970  -0.6697  -0.6356  -0.6126  -0.5657  -0.5604  -0.5214
    -0.4914  -0.4624  -0.4434  -0.4337  -0.4214  -0.3891  -0.3296  -0.2947
    -0.2606  -0.2394  -0.2225  -0.1907  -0.1630  -0.1468  -0.1264  -0.0983
    -0.0775  -0.0655  -0.0518  -0.0330  -0.0295  -0.0238  -0.0173   0.0181
     0.0294   0.0599   0.0656   0.0719   0.0818   0.0856   0.1105   0.1168
     0.1321   0.1550   0.1858   0.2714   0.2800   0.2909   0.3178   0.3304
     0.3378   0.3592   0.3637   0.4222   0.4409   0.4548   0.4755   0.4884
     0.5107   0.5287   0.5479   0.5568   0.5930   0.6735   0.7348   0.7555
     0.7801   0.8332   0.8519   0.9577   0.9787   0.9876   1.0100   1.0225
     1.0318   1.0819   1.0976   1.1117   1.1232   1.1837   1.2275   1.3071
     1.3204   1.3592   1.3718   1.4032   1.4217   1.4390   1.4526   1.4825
     1.5050   1.5251   1.5376   1.5939   1.6104   1.6280   1.6366   1.6660
     1.6780   1.6848   1.7206   1.7357   1.7438   1.7550   1.7621   1.7942
     1.8068   1.8473   1.8699   1.9006   1.9150   1.9381   1.9430   1.9526
     1.9620   1.9731   1.9920   2.0045   2.0052   2.0300   2.0337   2.0390
     2.0433   2.0856   2.1755   2.2511   2.2611   2.3695   2.5191   2.7025
     2.7599   2.8157

          k = 0.2000-0.1155 0.0000 ( 51134 PWs)   bands (ev):

   -21.7746 -10.7645  -7.5588  -6.8379  -6.2788  -5.7478  -5.4628  -5.3426
    -4.8750  -4.8693  -4.3664  -4.2602  -3.9558  -3.9491  -3.8538  -3.8041
    -3.6638  -3.4138  -3.2797  -3.2554  -3.1767  -2.9115  -2.6950  -2.6627
    -2.6251  -2.5836  -2.5534  -2.3523  -2.2971  -2.2494  -2.2469  -2.2351
    -2.2102  -2.1613  -2.1568  -2.1426  -2.1207  -2.0554  -1.9787  -1.9640
    -1.8910  -1.8851  -1.8340  -1.7353  -1.7030  -1.6900  -1.6561  -1.5930
    -1.5545  -1.5170  -1.4798  -1.4646  -1.4305  -1.4086  -1.3909  -1.3856
    -1.3819  -1.3454  -1.3165  -1.2679  -1.2472  -1.2453  -1.2146  -1.1937
    -1.1257  -1.0532  -0.8910  -0.7878  -0.7795  -0.7663  -0.7376  -0.6619
    -0.6439  -0.6156  -0.5685  -0.5363  -0.4613  -0.4262  -0.4151  -0.4067
    -0.3664  -0.3650  -0.3556  -0.3424  -0.3285  -0.3107  -0.2906  -0.2693
    -0.2308  -0.1959  -0.1862  -0.1817  -0.1677  -0.1429  -0.1243  -0.1105
    -0.1049  -0.0959  -0.0896  -0.0849  -0.0822  -0.0773  -0.0649  -0.0366
    -0.0031   0.0039   0.0203   0.0222   0.0424   0.0559   0.0694   0.0885
     0.1270   0.1408   0.1571   0.1856   0.2132   0.2319   0.2366   0.2676
     0.3851   0.4086   0.4535   0.4666   0.4976   0.5165   0.5345   0.5386
     0.5570   0.5759   0.5869   0.5899   0.7294   0.8678   0.8923   0.9110
     0.9180   0.9338   0.9503   0.9580   1.0001   1.0121   1.0946   1.1078
     1.1212   1.1815   1.1905   1.2277   1.2414   1.2588   1.2818   1.3088
     1.3372   1.3751   1.3956   1.4040   1.4055   1.4262   1.4540   1.4705
     1.4840   1.5189   1.5379   1.5544   1.5733   1.5899   1.5969   1.6400
     1.6492   1.6615   1.6639   1.6703   1.6799   1.6891   1.7372   1.7473
     1.7527   1.7603   1.7997   1.8112   1.8152   1.8292   1.8422   1.8547
     1.8635   1.9024   1.9054   1.9191   1.9354   1.9397   1.9464   1.9660
     1.9697   1.9926   1.9964   2.0093   2.0893   2.1000   2.1090   2.1348
     2.1778   2.2033

          k = 0.2000 0.1155 0.0000 ( 51134 PWs)   bands (ev):

   -21.7746 -10.7645  -7.5586  -6.8371  -6.2797  -5.7504  -5.4693  -5.3311
    -4.8781  -4.8698  -4.3638  -4.2611  -3.9559  -3.9494  -3.8551  -3.8041
    -3.6626  -3.4134  -3.2802  -3.2550  -3.1766  -2.9118  -2.6952  -2.6585
    -2.6323  -2.5811  -2.5532  -2.3451  -2.3017  -2.2559  -2.2460  -2.2348
    -2.2095  -2.1606  -2.1550  -2.1450  -2.1211  -2.0462  -1.9769  -1.9641
    -1.8898  -1.8842  -1.8339  -1.7479  -1.6961  -1.6926  -1.6635  -1.5782
    -1.5635  -1.5233  -1.4886  -1.4597  -1.4337  -1.4033  -1.3975  -1.3850
    -1.3809  -1.3488  -1.3053  -1.2705  -1.2498  -1.2435  -1.2146  -1.1898
    -1.1373  -1.0454  -0.8959  -0.7864  -0.7741  -0.7537  -0.7376  -0.6673
    -0.6502  -0.6199  -0.5536  -0.5358  -0.4569  -0.4249  -0.4218  -0.4024
    -0.3691  -0.3608  -0.3550  -0.3489  -0.3269  -0.3160  -0.2947  -0.2735
    -0.2243  -0.1993  -0.1865  -0.1846  -0.1663  -0.1408  -0.1239  -0.1100
    -0.1049  -0.0965  -0.0921  -0.0850  -0.0825  -0.0757  -0.0608  -0.0368
    -0.0013   0.0072   0.0171   0.0198   0.0433   0.0629   0.0733   0.0828
     0.1261   0.1349   0.1676   0.1830   0.2136   0.2278   0.2374   0.2675
     0.3937   0.4038   0.4459   0.4708   0.4896   0.5177   0.5313   0.5454
     0.5594   0.5729   0.5869   0.5904   0.7412   0.8782   0.8932   0.9089
     0.9148   0.9293   0.9521   0.9608   1.0007   1.0202   1.0772   1.0998
     1.1095   1.1845   1.1920   1.2278   1.2390   1.2591   1.2801   1.3015
     1.3395   1.3745   1.3949   1.4030   1.4082   1.4293   1.4567   1.4655
     1.4964   1.5157   1.5413   1.5620   1.5708   1.5913   1.5998   1.6342
     1.6478   1.6529   1.6622   1.6709   1.6779   1.6892   1.7400   1.7449
     1.7539   1.7591   1.8005   1.8105   1.8163   1.8331   1.8394   1.8544
     1.8647   1.9038   1.9062   1.9155   1.9347   1.9400   1.9478   1.9648
     1.9693   1.9956   1.9994   2.0084   2.0911   2.1003   2.1072   2.1348
     2.1745   2.2028

          k = 0.2000 0.3464 0.0000 ( 51202 PWs)   bands (ev):

   -21.7746 -10.7626  -7.2702  -6.8263  -6.1380  -5.8971  -5.8473  -5.5727
    -5.3178  -4.6300  -4.5148  -4.1474  -4.1352  -4.0443  -3.3150  -3.3061
    -3.3010  -3.2973  -3.1891  -3.1082  -3.0275  -2.9938  -2.9525  -2.6326
    -2.5708  -2.5580  -2.5450  -2.4682  -2.4552  -2.4323  -2.3713  -2.3460
    -2.3372  -2.3321  -2.3201  -2.1888  -2.1517  -2.0846  -1.9767  -1.9551
    -1.9239  -1.8854  -1.8379  -1.8227  -1.7649  -1.6628  -1.6142  -1.5895
    -1.5554  -1.4736  -1.4455  -1.4374  -1.4222  -1.4100  -1.3996  -1.3715
    -1.3582  -1.3369  -1.2870  -1.2625  -1.2131  -1.1627  -1.1069  -1.0624
    -0.9846  -0.9649  -0.8724  -0.8386  -0.7631  -0.7418  -0.7193  -0.6949
    -0.6756  -0.6634  -0.6450  -0.6106  -0.5690  -0.5473  -0.5328  -0.5151
    -0.5024  -0.4736  -0.4651  -0.4605  -0.4143  -0.3326  -0.2947  -0.2832
    -0.2652  -0.2616  -0.2208  -0.1980  -0.1855  -0.1726  -0.1485  -0.1373
    -0.1167  -0.1092  -0.0923  -0.0706  -0.0615  -0.0547  -0.0187  -0.0046
     0.0040   0.0160   0.0255   0.0547   0.0631   0.0687   0.0858   0.0921
     0.1096   0.1818   0.1887   0.1962   0.3032   0.3213   0.3380   0.3637
     0.3810   0.4188   0.4309   0.4647   0.4944   0.5043   0.5105   0.5208
     0.5300   0.5403   0.5840   0.5974   0.6635   0.7315   0.8028   0.8189
     0.8875   0.9230   0.9508   0.9716   0.9789   0.9945   1.0093   1.0132
     1.0252   1.0495   1.0668   1.0879   1.1136   1.1392   1.2191   1.2390
     1.2475   1.2773   1.3032   1.3249   1.3330   1.3488   1.4023   1.4269
     1.4787   1.5294   1.6036   1.6200   1.6391   1.6627   1.6721   1.6780
     1.6864   1.7085   1.7151   1.7308   1.7369   1.8012   1.8078   1.8128
     1.8160   1.8526   1.8656   1.8669   1.8875   1.9111   1.9178   1.9406
     1.9485   1.9546   1.9595   1.9808   1.9869   2.0143   2.0345   2.0581
     2.0840   2.0882   2.1702   2.2116   2.2835   2.3361   2.3773   2.4957
     2.6076   2.6787

          k = 0.2000-0.5774 0.0000 ( 51262 PWs)   bands (ev):

   -21.7746 -10.7614  -6.8963  -6.6826  -6.6303  -6.0484  -5.8944  -5.5331
    -5.1597  -5.1302  -4.6671  -4.2024  -3.6655  -3.5496  -3.3381  -3.3334
    -3.3077  -3.1215  -3.0857  -2.9280  -2.9203  -2.9156  -2.7813  -2.7760
    -2.7718  -2.7472  -2.7384  -2.7244  -2.5449  -2.4059  -2.3989  -2.3801
    -2.3609  -2.3559  -2.3082  -2.2885  -2.2039  -2.1804  -2.0787  -1.9172
    -1.8565  -1.8375  -1.8315  -1.7793  -1.7474  -1.6495  -1.6069  -1.5934
    -1.5561  -1.5420  -1.5270  -1.4331  -1.4248  -1.3762  -1.3625  -1.3546
    -1.3028  -1.2571  -1.2155  -1.2014  -1.1519  -1.1149  -1.1112  -1.0181
    -0.9954  -0.9466  -0.8509  -0.8132  -0.8057  -0.7907  -0.7454  -0.7340
    -0.6859  -0.6731  -0.6494  -0.6162  -0.5875  -0.5709  -0.5344  -0.5237
    -0.5126  -0.4745  -0.4686  -0.4555  -0.4508  -0.4397  -0.4068  -0.3793
    -0.3774  -0.3516  -0.3320  -0.2921  -0.2511  -0.2263  -0.1987  -0.1769
    -0.1335  -0.1172  -0.0834  -0.0656  -0.0462  -0.0302  -0.0158   0.0022
     0.0294   0.0500   0.0791   0.0937   0.1060   0.1205   0.1880   0.2049
     0.2371   0.2514   0.2592   0.2769   0.2822   0.3230   0.3561   0.3628
     0.3693   0.3986   0.4374   0.4619   0.4755   0.4857   0.5217   0.5358
     0.5547   0.5657   0.5908   0.6093   0.6217   0.6387   0.6511   0.6796
     0.7434   0.8018   0.8802   0.9113   0.9249   0.9393   0.9636   0.9860
     0.9888   1.0109   1.0271   1.0646   1.1465   1.1662   1.1724   1.1942
     1.2302   1.2415   1.2679   1.3002   1.3259   1.3495   1.3966   1.4255
     1.4499   1.5561   1.5860   1.6097   1.6696   1.6759   1.7078   1.7232
     1.7305   1.7381   1.7494   1.7586   1.7978   1.8119   1.8240   1.8307
     1.8561   1.8828   1.9069   1.9121   1.9183   1.9228   1.9293   1.9329
     1.9449   1.9815   1.9939   2.0173   2.0271   2.0402   2.0512   2.0725
     2.0777   2.1364   2.2295   2.3875   2.6299   2.6723   2.8002   2.9228
     2.9279   2.9710

          k = 0.2000-0.3464 0.0000 ( 51202 PWs)   bands (ev):

   -21.7746 -10.7625  -7.2712  -6.8263  -6.1376  -5.8941  -5.8467  -5.5715
    -5.3226  -4.6284  -4.5174  -4.1477  -4.1343  -4.0428  -3.3157  -3.3070
    -3.3003  -3.2970  -3.1901  -3.1073  -3.0287  -2.9944  -2.9544  -2.6338
    -2.5626  -2.5546  -2.5454  -2.4678  -2.4594  -2.4334  -2.3687  -2.3469
    -2.3391  -2.3331  -2.3224  -2.1844  -2.1582  -2.0895  -1.9767  -1.9562
    -1.9278  -1.8794  -1.8365  -1.8230  -1.7625  -1.6635  -1.6118  -1.5975
    -1.5326  -1.4628  -1.4421  -1.4362  -1.4280  -1.4122  -1.3942  -1.3767
    -1.3586  -1.3367  -1.2883  -1.2666  -1.2140  -1.1637  -1.1001  -1.0550
    -0.9902  -0.9681  -0.8816  -0.8387  -0.7651  -0.7320  -0.7249  -0.7101
    -0.6789  -0.6594  -0.6412  -0.5969  -0.5782  -0.5473  -0.5347  -0.5127
    -0.5051  -0.4807  -0.4667  -0.4532  -0.4195  -0.3435  -0.2911  -0.2825
    -0.2692  -0.2656  -0.2173  -0.1977  -0.1851  -0.1715  -0.1495  -0.1288
    -0.1178  -0.1089  -0.0917  -0.0748  -0.0576  -0.0415  -0.0136  -0.0080
     0.0059   0.0153   0.0213   0.0500   0.0641   0.0752   0.0824   0.0908
[...]
     atom    8 type  1   force =    -0.00144919   -0.00005688   -0.10018070
     atom    9 type  1   force =     0.00342279    0.00003865   -0.10144538
     atom   10 type  1   force =    -0.00158975    0.00097215   -0.01060295
     atom   11 type  1   force =     0.00049258    0.00003073   -0.00793694
     atom   12 type  1   force =     0.00107421    0.00080783   -0.00975962
     atom   13 type  1   force =    -0.00096404   -0.00091473   -0.01044257
     atom   14 type  1   force =     0.00040409    0.00000491   -0.01230126
     atom   15 type  1   force =     0.00054644   -0.00020683   -0.01132512
     atom   16 type  1   force =     0.00146646    0.00115807   -0.01120523
     atom   17 type  1   force =     0.00036271   -0.00137182   -0.01085356
     atom   18 type  1   force =    -0.00147978   -0.00044815   -0.01138375
     atom   19 type  1   force =     0.00329104    0.00389838    0.01090320
     atom   20 type  1   force =    -0.00227981    0.01344530   -0.00032680
     atom   21 type  1   force =    -0.00131819   -0.00191538    0.01841421
     atom   22 type  1   force =     0.00015578    0.00007635    0.01883837
     atom   23 type  1   force =    -0.00065295    0.00095637    0.01693951
     atom   24 type  1   force =     0.00002080    0.00123554    0.01624690
     atom   25 type  1   force =    -0.00459768   -0.00249959    0.00935044
     atom   26 type  1   force =    -0.00786459   -0.00924514   -0.00399959
     atom   27 type  1   force =     0.01162656   -0.00551699   -0.00071273
     atom   28 type  1   force =     0.02411113    0.00045565    0.15742405
     atom   29 type  1   force =    -0.03615271   -0.01141550    0.20759492
     atom   30 type  1   force =    -0.00171061   -0.00085871    0.12737015
     atom   31 type  1   force =    -0.00244096   -0.03180561    0.13708109
     atom   32 type  1   force =    -0.00284080   -0.00302949    0.11894649
     atom   33 type  1   force =     0.00221490   -0.00332735    0.10834867
     atom   34 type  1   force =     0.00244196    0.00344510    0.10966743
     atom   35 type  1   force =     0.00061670    0.03359912    0.14009765
     atom   36 type  1   force =    -0.00548864    0.00745369    0.12213445
     atom   37 type  2   force =    -0.05282272   -0.01809505    0.29882027
     atom   38 type  3   force =     1.59038260   -0.03325452   -2.18080641
     atom   39 type  4   force =    -0.04694013    0.00486992   -0.02164131
     The ionic contribution  to forces
     atom    1 type  1   force =    -0.00626308    0.00749293 -111.12240612
     atom    2 type  1   force =     0.00602068    0.00779144 -111.12290022
     atom    3 type  1   force =     0.00024243    0.00243321 -111.11043782
     atom    4 type  1   force =     0.00012522    0.00313607 -111.11015511
     atom    5 type  1   force =    -0.00147016   -0.00453772 -111.11278977
     atom    6 type  1   force =     0.00134494   -0.00489165 -111.11304549
     atom    7 type  1   force =    -0.00734471   -0.00284476 -111.11679771
     atom    8 type  1   force =    -0.00038123   -0.00566101 -111.13231611
     atom    9 type  1   force =     0.00772591   -0.00291854 -111.11754979
     atom   10 type  1   force =    -0.05943782    0.00018585  -40.16355823
     atom   11 type  1   force =     0.05681614    0.00068495  -40.16942611
     atom   12 type  1   force =     0.00262803    0.00032828  -40.05164805
     atom   13 type  1   force =    -0.00092662    0.06954727  -40.10087515
     atom   14 type  1   force =     0.02803588    0.02124465  -40.04606049
     atom   15 type  1   force =    -0.02711122    0.01876809  -40.04454151
     atom   16 type  1   force =    -0.02687534   -0.01938538  -40.04432639
     atom   17 type  1   force =    -0.00172579   -0.06989989  -40.10176602
     atom   18 type  1   force =     0.02859920   -0.02147357  -40.04742426
     atom   19 type  1   force =    -0.31876091    0.38685405   31.16142727
     atom   20 type  1   force =     0.31078886    0.40910460   31.13766678
     atom   21 type  1   force =     0.00855085    0.10522775   31.71742907
     atom   22 type  1   force =     0.00442335    0.13709133   31.73093882
     atom   23 type  1   force =    -0.07047927   -0.21352181   31.62662027
     atom   24 type  1   force =     0.06610359   -0.22705237   31.61750024
     atom   25 type  1   force =    -0.35847734   -0.13385251   31.43675057
     atom   26 type  1   force =    -0.02526876   -0.32530332   30.59568787
     atom   27 type  1   force =     0.38268324   -0.14141782   31.40173715
     atom   28 type  1   force =    -4.13156811    0.00021679   98.64281468
     atom   29 type  1   force =     4.38574661    0.09286943   97.64545839
     atom   30 type  1   force =     0.05726949    0.01307917  104.03163136
     atom   31 type  1   force =     0.00226910    3.15747489  102.54809424
     atom   32 type  1   force =     0.87599401    0.74417358  104.18764029
     atom   33 type  1   force =    -0.88518849    0.71440228  104.10625577
     atom   34 type  1   force =    -0.87405323   -0.72680156  104.11476228
     atom   35 type  1   force =    -0.04107658   -3.18455659  102.52697259
     atom   36 type  1   force =     0.90852650   -0.77536279  104.14314062
     atom   37 type  2   force =     3.44692636    0.02626577   52.80262877
     atom   38 type  3   force =    -5.87611821    0.14493246   88.65222378
     atom   39 type  4   force =     2.13170647   -0.20382357   15.00064356
     The local contribution  to forces
     atom    1 type  1   force =     0.00473197   -0.00829089  111.22873842
     atom    2 type  1   force =    -0.00402300   -0.01011138  111.22671044
     atom    3 type  1   force =    -0.00061800   -0.00016803  111.21490049
     atom    4 type  1   force =    -0.00189233   -0.00367994  111.21768226
     atom    5 type  1   force =     0.00340016    0.00316670  111.22134577
     atom    6 type  1   force =    -0.00177439    0.00472974  111.21980850
     atom    7 type  1   force =     0.00961276    0.00469081  111.22536410
     atom    8 type  1   force =     0.00207429    0.00638718  111.23538296
     atom    9 type  1   force =    -0.01164535    0.00372212  111.22169263
     atom   10 type  1   force =     0.06106065   -0.00167848   40.15339285
     atom   11 type  1   force =    -0.05741358   -0.00109533   40.15425930
     atom   12 type  1   force =    -0.00394822   -0.00175638   40.04319985
     atom   13 type  1   force =     0.00251233   -0.06881104   40.09407117
     atom   14 type  1   force =    -0.02882968   -0.02149122   40.03867563
     atom   15 type  1   force =     0.02637844   -0.01882284   40.03507016
     atom   16 type  1   force =     0.02528163    0.01899596   40.03358760
     atom   17 type  1   force =     0.00070942    0.07213288   40.09519440
     atom   18 type  1   force =    -0.02596646    0.02293153   40.03943271
     atom   19 type  1   force =     0.31476903   -0.38917006  -31.15208408
     atom   20 type  1   force =    -0.30786628   -0.42081043  -31.11833441
     atom   21 type  1   force =    -0.00686722   -0.10229009  -31.71319485
     atom   22 type  1   force =    -0.00524463   -0.13807863  -31.72409539
     atom   23 type  1   force =     0.07226237    0.21136188  -31.62018693
     atom   24 type  1   force =    -0.06634893    0.22446059  -31.61190735
     atom   25 type  1   force =     0.36211877    0.13692153  -31.42317304
     atom   26 type  1   force =     0.03294649    0.33319478  -30.57541420
     atom   27 type  1   force =    -0.39268845    0.14697113  -31.38218592
     atom   28 type  1   force =     4.08946633   -0.00103876  -98.80864866
     atom   29 type  1   force =    -4.32360910   -0.08149798  -97.84644516
     atom   30 type  1   force =    -0.05038449   -0.01154914 -104.17201752
     atom   31 type  1   force =    -0.00362570   -3.10940745 -102.69493633
     atom   32 type  1   force =    -0.86585206   -0.73176381 -104.31837206
     atom   33 type  1   force =     0.87930152   -0.70764713 -104.22513622
     atom   34 type  1   force =     0.86916776    0.72014004 -104.23195925
     atom   35 type  1   force =     0.03487394    3.13185896 -102.67810607
     atom   36 type  1   force =    -0.89623459    0.75778893 -104.27552854
     atom   37 type  2   force =    -3.41585508   -0.00768242  -53.08494418
     atom   38 type  3   force =     4.30985930   -0.11178229  -86.49584533
     atom   39 type  4   force =    -2.07699582    0.20124943  -14.99762573
     The core correction contribution to forces
     atom    1 type  1   force =    -0.00012712   -0.00010593    0.00983122
     atom    2 type  1   force =     0.00011684   -0.00016004    0.01012281
     atom    3 type  1   force =    -0.00001715    0.00008896    0.00960024
     atom    4 type  1   force =    -0.00010219   -0.00007622    0.01032400
     atom    5 type  1   force =     0.00022788   -0.00007680    0.00995864
     atom    6 type  1   force =    -0.00011731   -0.00003393    0.00986124
     atom    7 type  1   force =     0.00015969    0.00013335    0.01019107
     atom    8 type  1   force =     0.00028463    0.00022869    0.01009019
     atom    9 type  1   force =    -0.00039205    0.00012108    0.01015067
     atom   10 type  1   force =    -0.00023817    0.00013641   -0.00186333
     atom   11 type  1   force =    -0.00006897    0.00003725   -0.00171039
     atom   12 type  1   force =     0.00018582   -0.00002715   -0.00170123
     atom   13 type  1   force =    -0.00013663    0.00027153   -0.00192638
     atom   14 type  1   force =     0.00017790    0.00015788   -0.00183160
     atom   15 type  1   force =    -0.00006899   -0.00009892   -0.00159672
     atom   16 type  1   force =    -0.00019350   -0.00001005   -0.00194107
     atom   17 type  1   force =    -0.00014206   -0.00004121   -0.00166851
     atom   18 type  1   force =     0.00033373   -0.00020255   -0.00194349
     atom   19 type  1   force =    -0.00018969   -0.00024325    0.00122501
     atom   20 type  1   force =     0.00011132   -0.00048885    0.00050788
     atom   21 type  1   force =     0.00022885    0.00006231    0.00171984
     atom   22 type  1   force =     0.00021374    0.00026440    0.00226425
     atom   23 type  1   force =    -0.00006775   -0.00006648    0.00166744
     atom   24 type  1   force =     0.00014799   -0.00032833    0.00152554
     atom   25 type  1   force =     0.00026052    0.00002778    0.00164332
     atom   26 type  1   force =     0.00029137    0.00070409    0.00175939
     atom   27 type  1   force =     0.00016742    0.00004340    0.00081440
     atom   28 type  1   force =     0.01198807    0.00021543    0.00090165
     atom   29 type  1   force =    -0.01971219   -0.00133415    0.02370821
     atom   30 type  1   force =    -0.00261783   -0.00051211   -0.00798325
     atom   31 type  1   force =     0.00156676   -0.00666287   -0.00750934
     atom   32 type  1   force =    -0.00151931   -0.00264743   -0.00855221
     atom   33 type  1   force =     0.00009862   -0.00046135   -0.01019543
     atom   34 type  1   force =     0.00001200    0.00055499   -0.00958731
     atom   35 type  1   force =     0.00133514    0.00647879   -0.00704279
     atom   36 type  1   force =    -0.00121507    0.00335685   -0.00849815
     atom   37 type  2   force =    -0.00073441    0.00031059   -0.00199374
     atom   38 type  3   force =    -0.01253305    0.00026327    0.01744651
     atom   39 type  4   force =     0.00000000    0.00000000    0.00000000
     The Hubbard contrib.    to forces
     atom    1 type  1   force =     0.00000000    0.00000000    0.00000000
     atom    2 type  1   force =     0.00000000    0.00000000    0.00000000
     atom    3 type  1   force =     0.00000000    0.00000000    0.00000000
     atom    4 type  1   force =     0.00000000    0.00000000    0.00000000
     atom    5 type  1   force =     0.00000000    0.00000000    0.00000000
     atom    6 type  1   force =     0.00000000    0.00000000    0.00000000
     atom    7 type  1   force =     0.00000000    0.00000000    0.00000000
     atom    8 type  1   force =     0.00000000    0.00000000    0.00000000
     atom    9 type  1   force =     0.00000000    0.00000000    0.00000000
     atom   10 type  1   force =     0.00000000    0.00000000    0.00000000
     atom   11 type  1   force =     0.00000000    0.00000000    0.00000000
     atom   12 type  1   force =     0.00000000    0.00000000    0.00000000
     atom   13 type  1   force =     0.00000000    0.00000000    0.00000000
     atom   14 type  1   force =     0.00000000    0.00000000    0.00000000
     atom   15 type  1   force =     0.00000000    0.00000000    0.00000000
     atom   16 type  1   force =     0.00000000    0.00000000    0.00000000
     atom   17 type  1   force =     0.00000000    0.00000000    0.00000000
     atom   18 type  1   force =     0.00000000    0.00000000    0.00000000
     atom   19 type  1   force =     0.00000000    0.00000000    0.00000000
     atom   20 type  1   force =     0.00000000    0.00000000    0.00000000
     atom   21 type  1   force =     0.00000000    0.00000000    0.00000000
     atom   22 type  1   force =     0.00000000    0.00000000    0.00000000
     atom   23 type  1   force =     0.00000000    0.00000000    0.00000000
     atom   24 type  1   force =     0.00000000    0.00000000    0.00000000
     atom   25 type  1   force =     0.00000000    0.00000000    0.00000000
     atom   26 type  1   force =     0.00000000    0.00000000    0.00000000
     atom   27 type  1   force =     0.00000000    0.00000000    0.00000000
     atom   28 type  1   force =     0.00000000    0.00000000    0.00000000
     atom   29 type  1   force =     0.00000000    0.00000000    0.00000000
     atom   30 type  1   force =     0.00000000    0.00000000    0.00000000
     atom   31 type  1   force =     0.00000000    0.00000000    0.00000000
     atom   32 type  1   force =     0.00000000    0.00000000    0.00000000
     atom   33 type  1   force =     0.00000000    0.00000000    0.00000000
     atom   34 type  1   force =     0.00000000    0.00000000    0.00000000
     atom   35 type  1   force =     0.00000000    0.00000000    0.00000000
     atom   36 type  1   force =     0.00000000    0.00000000    0.00000000
     atom   37 type  2   force =     0.00000000    0.00000000    0.00000000
     atom   38 type  3   force =     0.00000000    0.00000000    0.00000000
     atom   39 type  4   force =     0.00000000    0.00000000    0.00000000
     The SCF correction term to forces
     atom    1 type  1   force =    -0.00000000   -0.00000000    0.00000000
     atom    2 type  1   force =     0.00000000   -0.00000000    0.00000000
     atom    3 type  1   force =     0.00000000   -0.00000000    0.00000000
     atom    4 type  1   force =     0.00000000    0.00000000    0.00000000
     atom    5 type  1   force =    -0.00000000    0.00000000    0.00000000
     atom    6 type  1   force =     0.00000000   -0.00000000    0.00000000
     atom    7 type  1   force =    -0.00000000    0.00000000    0.00000000
     atom    8 type  1   force =    -0.00000000    0.00000000    0.00000000
     atom    9 type  1   force =     0.00000000    0.00000000    0.00000000
     atom   10 type  1   force =    -0.00000000    0.00000000    0.00000000
     atom   11 type  1   force =    -0.00000000   -0.00000000    0.00000000
     atom   12 type  1   force =     0.00000000    0.00000000    0.00000000
     atom   13 type  1   force =    -0.00000000    0.00000000    0.00000000
     atom   14 type  1   force =     0.00000000    0.00000000    0.00000000
     atom   15 type  1   force =    -0.00000000    0.00000000    0.00000000
     atom   16 type  1   force =     0.00000000    0.00000000    0.00000000
     atom   17 type  1   force =    -0.00000000   -0.00000000    0.00000000
     atom   18 type  1   force =    -0.00000000   -0.00000000    0.00000000
     atom   19 type  1   force =     0.00000000    0.00000000   -0.00000000
     atom   20 type  1   force =    -0.00000000    0.00000000   -0.00000000
     atom   21 type  1   force =     0.00000000    0.00000000   -0.00000000
     atom   22 type  1   force =    -0.00000000   -0.00000000   -0.00000000
     atom   23 type  1   force =     0.00000000   -0.00000000   -0.00000000
     atom   24 type  1   force =    -0.00000000   -0.00000000   -0.00000000
     atom   25 type  1   force =     0.00000000   -0.00000000   -0.00000000
     atom   26 type  1   force =    -0.00000000   -0.00000000   -0.00000000
     atom   27 type  1   force =    -0.00000000   -0.00000000   -0.00000000
     atom   28 type  1   force =     0.00000000    0.00000000    0.00000000
     atom   29 type  1   force =    -0.00000000   -0.00000000    0.00000000
     atom   30 type  1   force =    -0.00000000    0.00000000   -0.00000000
     atom   31 type  1   force =    -0.00000000   -0.00000000   -0.00000000
     atom   32 type  1   force =    -0.00000000    0.00000000   -0.00000000
     atom   33 type  1   force =     0.00000000    0.00000000   -0.00000000
     atom   34 type  1   force =     0.00000000   -0.00000000   -0.00000000
     atom   35 type  1   force =     0.00000000   -0.00000000   -0.00000000
     atom   36 type  1   force =    -0.00000000   -0.00000000   -0.00000000
     atom   37 type  2   force =    -0.00000667   -0.00000268    0.00000086
     atom   38 type  3   force =     0.00000867   -0.00000123   -0.00002474
     atom   39 type  4   force =    -0.00000452   -0.00000026   -0.00000047

     Total force =     0.036238     Total SCF correction =     0.000028

     Writing all to output data dir ./pwscf.save/

     init_run     :     11.38s CPU     11.83s WALL (       1 calls)
     electrons    :    757.99s CPU    768.81s WALL (       1 calls)
     forces       :      3.60s CPU      3.70s WALL (       1 calls)

     Called by init_run:
     wfcinit      :      8.29s CPU      8.63s WALL (       1 calls)
     potinit      :      1.99s CPU      2.08s WALL (       1 calls)
     hinit0       :      0.84s CPU      0.86s WALL (       1 calls)

     Called by electrons:
     c_bands      :    641.54s CPU    650.00s WALL (      48 calls)
     sum_band     :     77.75s CPU     78.96s WALL (      48 calls)
     v_of_rho     :      8.69s CPU      9.15s WALL (      49 calls)
     newd         :      2.77s CPU      2.82s WALL (      49 calls)
     PAW_pot      :     12.62s CPU     12.77s WALL (      49 calls)
     mix_rho      :     15.94s CPU     16.22s WALL (      48 calls)
     vdW_kernel   :      1.08s CPU      1.09s WALL (       1 calls)

     Called by c_bands:
     init_us_2    :      8.54s CPU      8.69s WALL (    2548 calls)
     init_us_2:cp :      8.52s CPU      8.68s WALL (    2548 calls)
     cegterg      :    619.29s CPU    627.19s WALL (    1248 calls)

     Called by *egterg:
     cdiaghg      :    194.30s CPU    195.74s WALL (    4480 calls)
     h_psi        :    276.29s CPU    280.94s WALL (    4506 calls)
     s_psi        :     35.57s CPU     36.10s WALL (    4506 calls)
     g_psi        :      0.87s CPU      0.90s WALL (    3232 calls)

     Called by h_psi:
     h_psi:calbec :     48.45s CPU     49.30s WALL (    4506 calls)
     vloc_psi     :    189.88s CPU    193.17s WALL (    4506 calls)
     add_vuspsi   :     35.76s CPU     36.25s WALL (    4506 calls)

     General routines
     calbec       :     70.86s CPU     72.03s WALL (    5858 calls)
     fft          :      5.71s CPU      6.20s WALL (    4438 calls)
     ffts         :      9.65s CPU      9.83s WALL (   19091 calls)
     fftw         :    216.47s CPU    220.19s WALL ( 1298450 calls)
     interpolate  :      0.40s CPU      0.40s WALL (      98 calls)

     Parallel routines

     PWSCF        :  12m59.92s CPU  13m16.20s WALL


   This run was terminated on:   5:20:21  11Dec2025            

=------------------------------------------------------------------------------=
   JOB DONE.
=------------------------------------------------------------------------------=
