
     Program PWSCF v.7.1 starts on  9Dec2025 at 14: 5:22 
        Git branch: heads/qe-7.1
        Last git commit: 48ba0178f8fede6d020eb786884699a9f063f55d-dirty
        Last git commit date: Fri Jan 27 14:22:33 2023 +0000
        Last git commit subject: Merge branch 'fix_hubbard' into 'develop'

     This program is part of the open-source Quantum ESPRESSO suite
     for quantum simulation of materials; please cite
         "P. Giannozzi et al., J. Phys.:Condens. Matter 21 395502 (2009);
         "P. Giannozzi et al., J. Phys.:Condens. Matter 29 465901 (2017);
         "P. Giannozzi et al., J. Chem. Phys. 152 154105 (2020);
          URL http://www.quantum-espresso.org", 
     in publications or presentations arising from this work. More details at
     http://www.quantum-espresso.org/quote

     Parallel version (MPI), running on    96 processors

     MPI processes distributed on     2 nodes
     71382 MiB available memory on the printing compute node when the environment starts

     Reading input from espresso.pwi
Warning: card &CELL ignored
Warning: card / ignored
Warning: card &FCP ignored
Warning: card / ignored
Warning: card &RISM ignored
Warning: card / ignored

     Current dimensions of program PWSCF are:
     Max number of different atomic species (ntypx) = 10
     Max number of k-points (npk) =  40000
     Max angular momentum in pseudopotentials (lmaxx) =  4
     file Co.pbe-n-kjpaw_psl.1.0.0.UPF: wavefunction(s)  4S 3D renormalized
     file C.pbe-n-kjpaw_psl.1.0.0.UPF: wavefunction(s)  2S 2P renormalized
     file O.pbe-nl-kjpaw_psl.1.0.0.UPF: wavefunction(s)  2S 2P renormalized
     file H.pbe-kjpaw_psl.1.0.0.UPF: wavefunction(s)  1S renormalized

     **************************************************************************
     Initializing libbeef V0.1.2 with the BEEF-vdW functional.
     Citation: Wellendorff et al., PRB 85, 235149 (2012).
     **************************************************************************


     IMPORTANT: XC functional enforced from input :
     Exchange-correlation= BEEF-VDW
                           (   1   4  43  14   2   0   0)
     Any further DFT definition will be discarded
     Please, verify this is what you really want


     R & G space division:  proc/nbgrp/npool/nimage =      96
     Subspace diagonalization in iterative solution of the eigenvalue problem:
     one sub-group per band group will be used
     custom distributed-memory algorithm (size of sub-group:  2*  2 procs)


     Parallelization info
     --------------------
     sticks:   dense  smooth     PW     G-vecs:    dense   smooth      PW
     Min          43      28      7                 7829     4248     595
     Max          44      29      8                 7845     4281     630
     Sum        4153    2773    757               752179   409445   59217

     Using Slab Decomposition



     bravais-lattice index     =            0
     lattice parameter (alat)  =      14.1729  a.u.
     unit-cell volume          =    8574.3059 (a.u.)^3
     number of atoms/cell      =           39
     number of atomic types    =            4
     number of electrons       =       335.00
     number of Kohn-Sham states=          202
     kinetic-energy cutoff     =      50.0000  Ry
     charge density cutoff     =     300.0000  Ry
     scf convergence threshold =      1.0E-08
     mixing beta               =       0.7000
     number of iterations used =            8  local-TF  mixing
     Exchange-correlation= BEEF-VDW
                           (   1   4  43  14   2   0   0)

     celldm(1)=  14.172946  celldm(2)=   0.000000  celldm(3)=   0.000000
     celldm(4)=   0.000000  celldm(5)=   0.000000  celldm(6)=   0.000000

     crystal axes: (cart. coord. in units of alat)
               a(1) = (   1.000000   0.000000   0.000000 )  
               a(2) = (   0.500000   0.866025   0.000000 )  
               a(3) = (   0.000000   0.000000   3.477667 )  

     reciprocal axes: (cart. coord. in units 2 pi/alat)
               b(1) = (  1.000000 -0.577350  0.000000 )  
               b(2) = (  0.000000  1.154701  0.000000 )  
               b(3) = (  0.000000  0.000000  0.287549 )  


     PseudoPot. # 1 for Co read from file:
     /users/kbadger1/espresso/pseudo/pslibrary.1.0.0/pbe/PSEUDOPOTENTIALS/Co.pbe-n-kjpaw_psl.1.0.0.UPF
     MD5 check sum: 88af6ec42553d4236c267fdfcb472151
     Pseudo is Projector augmented-wave + core cor, Zval =  9.0
     Generated using 'atomic' code by A. Dal Corso  v.7.0
     Shape of augmentation charge: PSQ
     Using radial grid of 1193 points,  6 beta functions with: 
                l(1) =   0
                l(2) =   0
                l(3) =   1
                l(4) =   1
                l(5) =   2
                l(6) =   2
     Q(r) pseudized with 0 coefficients 


     PseudoPot. # 2 for C  read from file:
     /users/kbadger1/espresso/pseudo/pslibrary.1.0.0/pbe/PSEUDOPOTENTIALS/C.pbe-n-kjpaw_psl.1.0.0.UPF
     MD5 check sum: 6408e75cdba28732cea38a4db8498ce4
     Pseudo is Projector augmented-wave + core cor, Zval =  4.0
     Generated using 'atomic' code by A. Dal Corso  v.7.0
     Shape of augmentation charge: PSQ
     Using radial grid of 1073 points,  4 beta functions with: 
                l(1) =   0
                l(2) =   0
                l(3) =   1
                l(4) =   1
     Q(r) pseudized with 0 coefficients 


     PseudoPot. # 3 for O  read from file:
     /users/kbadger1/espresso/pseudo/pslibrary.1.0.0/pbe/PSEUDOPOTENTIALS/O.pbe-nl-kjpaw_psl.1.0.0.UPF
     MD5 check sum: f0439fab3598ca4e468f064226030408
     Pseudo is Projector augmented-wave + core cor, Zval =  6.0
     Generated using 'atomic' code by A. Dal Corso  v.7.0
     Shape of augmentation charge: PSQ
     Using radial grid of 1095 points,  4 beta functions with: 
                l(1) =   0
                l(2) =   0
                l(3) =   1
                l(4) =   1
     Q(r) pseudized with 0 coefficients 


     PseudoPot. # 4 for H  read from file:
     /users/kbadger1/espresso/pseudo/pslibrary.1.0.0/pbe/PSEUDOPOTENTIALS/H.pbe-kjpaw_psl.1.0.0.UPF
     MD5 check sum: fe4c6fa958fa6d3815bf5d2419cbf1df
     Pseudo is Projector augmented-wave, Zval =  1.0
     Generated using 'atomic' code by A. Dal Corso  v.7.0
     Shape of augmentation charge: PSQ
     Using radial grid of  929 points,  2 beta functions with: 
                l(1) =   0
                l(2) =   0
     Q(r) pseudized with 0 coefficients 


     atomic species   valence    mass     pseudopotential
        Co             9.00    58.93319     Co( 1.00)
        C              4.00    12.01100     C ( 1.00)
        O              6.00    15.99900     O ( 1.00)
        H              1.00     1.00800     H ( 1.00)

     Starting magnetic structure 
     atomic species   magnetization
        Co           1.000
        C            1.000
        O            0.000
        H            0.000

     No symmetry found



   Cartesian axes

     site n.     atom                  positions (alat units)
         1           Co  tau(   1) = (   0.0000000   0.1924501   1.3333333  )
         2           Co  tau(   2) = (   0.3333333   0.1924501   1.3333333  )
         3           Co  tau(   3) = (   0.6666667   0.1924501   1.3333333  )
         4           Co  tau(   4) = (   0.1666667   0.4811252   1.3333333  )
         5           Co  tau(   5) = (   0.5000000   0.4811252   1.3333333  )
         6           Co  tau(   6) = (   0.8333333   0.4811252   1.3333333  )
         7           Co  tau(   7) = (   0.3333333   0.7698004   1.3333333  )
         8           Co  tau(   8) = (   0.6666667   0.7698004   1.3333333  )
         9           Co  tau(   9) = (   1.0000000   0.7698004   1.3333333  )
        10           Co  tau(  10) = (   0.0000000   0.0000000   1.6036667  )
        11           Co  tau(  11) = (   0.3333333   0.0000000   1.6036667  )
        12           Co  tau(  12) = (   0.6666667   0.0000000   1.6036667  )
        13           Co  tau(  13) = (   0.1666667   0.2886751   1.6036667  )
        14           Co  tau(  14) = (   0.5000000   0.2886751   1.6036667  )
        15           Co  tau(  15) = (   0.8333333   0.2886751   1.6036667  )
        16           Co  tau(  16) = (   0.3333333   0.5773503   1.6036667  )
        17           Co  tau(  17) = (   0.6666667   0.5773503   1.6036667  )
        18           Co  tau(  18) = (   1.0000000   0.5773503   1.6036667  )
        19           Co  tau(  19) = (   0.0000000   0.1924501   1.8740000  )
        20           Co  tau(  20) = (   0.3333333   0.1924501   1.8740000  )
        21           Co  tau(  21) = (   0.6666667   0.1924501   1.8740000  )
        22           Co  tau(  22) = (   0.1666667   0.4811252   1.8740000  )
        23           Co  tau(  23) = (   0.5000000   0.4811252   1.8740000  )
        24           Co  tau(  24) = (   0.8333333   0.4811252   1.8740000  )
        25           Co  tau(  25) = (   0.3333333   0.7698004   1.8740000  )
        26           Co  tau(  26) = (   0.6666667   0.7698004   1.8740000  )
        27           Co  tau(  27) = (   1.0000000   0.7698004   1.8740000  )
        28           Co  tau(  28) = (   0.0000000   0.0000000   2.1443333  )
        29           Co  tau(  29) = (   0.3333333   0.0000000   2.1443333  )
        30           Co  tau(  30) = (   0.6666667   0.0000000   2.1443333  )
        31           Co  tau(  31) = (   0.1666667   0.2886751   2.1443333  )
        32           Co  tau(  32) = (   0.5000000   0.2886751   2.1443333  )
        33           Co  tau(  33) = (   0.8333333   0.2886751   2.1443333  )
        34           Co  tau(  34) = (   0.3333333   0.5773503   2.1443333  )
        35           Co  tau(  35) = (   0.6666667   0.5773503   2.1443333  )
        36           Co  tau(  36) = (   1.0000000   0.5773503   2.1443333  )
        37           C   tau(  37) = (   0.1636275  -0.0092837   2.3380699  )
        38           O   tau(  38) = (   0.1635762  -0.0097628   2.4962449  )
        39           H   tau(  39) = (   0.4976168   0.0913341   2.2745532  )

     number of k points=    13  Marzari-Vanderbilt smearing, width (Ry)=  0.0010
                       cart. coord. in units 2pi/alat
        k(    1) = (   0.0000000   0.0000000   0.0000000), wk =   0.0400000
        k(    2) = (   0.0000000   0.2309401   0.0000000), wk =   0.0800000
        k(    3) = (   0.0000000   0.4618802   0.0000000), wk =   0.0800000
        k(    4) = (   0.2000000  -0.1154701   0.0000000), wk =   0.0800000
        k(    5) = (   0.2000000   0.1154701   0.0000000), wk =   0.0800000
        k(    6) = (   0.2000000   0.3464102   0.0000000), wk =   0.0800000
        k(    7) = (   0.2000000  -0.5773503   0.0000000), wk =   0.0800000
        k(    8) = (   0.2000000  -0.3464102   0.0000000), wk =   0.0800000
        k(    9) = (   0.4000000  -0.2309401   0.0000000), wk =   0.0800000
        k(   10) = (   0.4000000   0.0000000   0.0000000), wk =   0.0800000
        k(   11) = (   0.4000000   0.2309401   0.0000000), wk =   0.0800000
        k(   12) = (   0.4000000  -0.6928203   0.0000000), wk =   0.0800000
        k(   13) = (   0.4000000  -0.4618802   0.0000000), wk =   0.0800000

     Dense  grid:   752179 G-vectors     FFT dimensions: (  80,  80, 288)

     Smooth grid:   409445 G-vectors     FFT dimensions: (  64,  64, 225)

     Estimated max dynamical RAM per process >      99.02 MB

     Estimated total dynamical RAM >       9.28 GB
     Generating pointlists ...
     new r_m :   0.0943 (alat units)  1.3369 (a.u.) for type    1
     new r_m :   0.0652 (alat units)  0.9247 (a.u.) for type    2
     new r_m :   0.0652 (alat units)  0.9247 (a.u.) for type    3
     new r_m :   0.0943 (alat units)  1.3369 (a.u.) for type    4

     Initial potential from superposition of free atoms

     starting charge     334.9897, renormalised to     335.0000

     negative rho (up, down):  3.047E-03 4.492E-04


     %%%%%%%%%%%%%%%%%%%%%%%%%%%%%%%%%%%%%%%%%%%%%%%%%%%%%%%%%%%%%%%%%%%%%%%%
     %                                                                      %
     % You are using vdW-DF, which was implemented by the Thonhauser group. %
     % Please cite the following two papers that made this development      %
     % possible and the two reviews that describe the various versions:     %
     %                                                                      %
     %   T. Thonhauser et al., PRL 115, 136402 (2015).                      %
     %   T. Thonhauser et al., PRB 76, 125112 (2007).                       %
     %   K. Berland et al., Rep. Prog. Phys. 78, 066501 (2015).             %
     %   D.C. Langreth et al., J. Phys.: Condens. Matter 21, 084203 (2009). %
     %                                                                      %
     % If you are calculating stress with vdW-DF, please also cite:         %
     %                                                                      %
     %   R. Sabatini et al., J. Phys.: Condens. Matter 24, 424209 (2012).   %
     %   C.M. Frostenson et al., Electr. Struct. 4, 014001 (2022).          %
     %                                                                      %
     %%%%%%%%%%%%%%%%%%%%%%%%%%%%%%%%%%%%%%%%%%%%%%%%%%%%%%%%%%%%%%%%%%%%%%%%

     %%%%%%%%%%%%%%%%%%%%%%%%%%%%%%%%%%%%%%%%%%%%%%%%%%%%%%%%%%%%%%%%%%%%%%%%
     %                                                                      %
     %  vdW-DF NEWS:                                                        %
     %                                                                      %
     %  * vdW-DF3 is now available. DOI: 10.1021/acs.jctc.0c00471           %
     %    use with input_dft = 'vdW-DF3-opt1' or 'vdW-DF3-opt2'             %
     %                                                                      %
     %  * Unscreened and range-separated hybrid vdW-DF-cx functionals       %
     %    DOI: 10.1063/1.4986522 and 10.1088/1361-648X/ac2ad2               %
     %    use with input_dft = 'vdW-DF-cx0'    and 'vdW-DF-ahcx'            %
     %  * Unscreened and range-separated hybrid vdW-DF2-b86r functionals    %
     %    DOI: 10.1063/1.4986522 and DOI: 10.1103/PhysRevX.12.041003        %
     %    use with input_dft = 'vdW-DF2-br0' and 'vdW-DF2-ahbr'             %
     %                                                                      %
     %%%%%%%%%%%%%%%%%%%%%%%%%%%%%%%%%%%%%%%%%%%%%%%%%%%%%%%%%%%%%%%%%%%%%%%%


     Starting wfcs are  333 randomized atomic wfcs
     Checking if some PAW data can be deallocated... 

     total cpu time spent up to now is       16.8 secs

     per-process dynamical memory:   230.2 Mb

     Self-consistent Calculation

     iteration #  1     ecut=    50.00 Ry     beta= 0.70
     Davidson diagonalization with overlap
     ethr =  1.00E-02,  avg # of iterations =  2.0

     negative rho (up, down):  3.505E-05 1.061E-07

     total cpu time spent up to now is       38.8 secs

     total energy              =   -6053.13247463 Ry
     estimated scf accuracy    <      39.05792007 Ry

     total magnetization       =    69.00 Bohr mag/cell
     absolute magnetization    =    81.19 Bohr mag/cell

     iteration #  2     ecut=    50.00 Ry     beta= 0.70
     Davidson diagonalization with overlap
     ethr =  1.00E-02,  avg # of iterations =  1.0

     negative rho (up, down):  5.155E-06 4.339E-08

     total cpu time spent up to now is       52.7 secs

     total energy              =   -6052.70196071 Ry
     estimated scf accuracy    <      24.16396610 Ry

     total magnetization       =    69.00 Bohr mag/cell
     absolute magnetization    =    76.76 Bohr mag/cell

     iteration #  3     ecut=    50.00 Ry     beta= 0.70
     Davidson diagonalization with overlap
     ethr =  7.21E-03,  avg # of iterations =  1.4

     negative rho (up, down):  2.580E-08 0.000E+00

     total cpu time spent up to now is       71.5 secs

     total energy              =   -6055.17563010 Ry
     estimated scf accuracy    <      86.07736273 Ry

     total magnetization       =    66.12 Bohr mag/cell
     absolute magnetization    =    73.61 Bohr mag/cell

     iteration #  4     ecut=    50.00 Ry     beta= 0.70
     Davidson diagonalization with overlap
     ethr =  7.21E-03,  avg # of iterations =  1.0

     total cpu time spent up to now is       85.3 secs

     total energy              =   -6056.45811918 Ry
     estimated scf accuracy    <       5.12868121 Ry

     total magnetization       =    60.45 Bohr mag/cell
     absolute magnetization    =    70.27 Bohr mag/cell

     iteration #  5     ecut=    50.00 Ry     beta= 0.70
     Davidson diagonalization with overlap
     ethr =  1.53E-03,  avg # of iterations =  1.2

     total cpu time spent up to now is      103.7 secs

     total energy              =   -6056.45832691 Ry
     estimated scf accuracy    <       1.81017442 Ry

     total magnetization       =    60.44 Bohr mag/cell
     absolute magnetization    =    69.77 Bohr mag/cell

     iteration #  6     ecut=    50.00 Ry     beta= 0.70
     Davidson diagonalization with overlap
     ethr =  5.40E-04,  avg # of iterations =  2.5

     total cpu time spent up to now is      118.8 secs

     total energy              =   -6056.55506565 Ry
     estimated scf accuracy    <       0.87708458 Ry

     total magnetization       =    60.13 Bohr mag/cell
     absolute magnetization    =    69.15 Bohr mag/cell

     iteration #  7     ecut=    50.00 Ry     beta= 0.70
     Davidson diagonalization with overlap
     ethr =  2.62E-04,  avg # of iterations =  3.8

     total cpu time spent up to now is      140.6 secs

     total energy              =   -6056.58179277 Ry
     estimated scf accuracy    <       0.57794014 Ry

     total magnetization       =    60.10 Bohr mag/cell
     absolute magnetization    =    68.85 Bohr mag/cell

     iteration #  8     ecut=    50.00 Ry     beta= 0.70
     Davidson diagonalization with overlap
     ethr =  1.73E-04,  avg # of iterations =  1.7

     total cpu time spent up to now is      158.8 secs

     total energy              =   -6056.60704637 Ry
     estimated scf accuracy    <       0.14788043 Ry

     total magnetization       =    60.20 Bohr mag/cell
     absolute magnetization    =    68.78 Bohr mag/cell

     iteration #  9     ecut=    50.00 Ry     beta= 0.70
     Davidson diagonalization with overlap
     c_bands:  1 eigenvalues not converged
     c_bands:  1 eigenvalues not converged
     ethr =  4.41E-05,  avg # of iterations =  9.2

     total cpu time spent up to now is      187.3 secs

     total energy              =   -6056.61645418 Ry
     estimated scf accuracy    <       0.12224943 Ry

     total magnetization       =    60.51 Bohr mag/cell
     absolute magnetization    =    68.70 Bohr mag/cell

     iteration # 10     ecut=    50.00 Ry     beta= 0.70
     Davidson diagonalization with overlap
     ethr =  3.65E-05,  avg # of iterations =  3.1

     total cpu time spent up to now is      202.8 secs

     total energy              =   -6056.61956090 Ry
     estimated scf accuracy    <       0.13095626 Ry

     total magnetization       =    60.85 Bohr mag/cell
     absolute magnetization    =    68.77 Bohr mag/cell

     iteration # 11     ecut=    50.00 Ry     beta= 0.70
     Davidson diagonalization with overlap
     ethr =  3.65E-05,  avg # of iterations =  1.3

     total cpu time spent up to now is      220.3 secs

     total energy              =   -6056.61475020 Ry
     estimated scf accuracy    <       0.11698108 Ry

     total magnetization       =    60.86 Bohr mag/cell
     absolute magnetization    =    68.70 Bohr mag/cell

     iteration # 12     ecut=    50.00 Ry     beta= 0.70
     Davidson diagonalization with overlap
     ethr =  3.49E-05,  avg # of iterations =  1.9

     negative rho (up, down):  2.584E-07 0.000E+00

     total cpu time spent up to now is      235.9 secs

     total energy              =   -6056.61565047 Ry
     estimated scf accuracy    <       0.07802086 Ry

     total magnetization       =    60.77 Bohr mag/cell
     absolute magnetization    =    68.53 Bohr mag/cell

     iteration # 13     ecut=    50.00 Ry     beta= 0.70
     Davidson diagonalization with overlap
     ethr =  2.33E-05,  avg # of iterations =  1.4

     total cpu time spent up to now is      253.9 secs

     total energy              =   -6056.61661271 Ry
     estimated scf accuracy    <       0.10257390 Ry

     total magnetization       =    60.86 Bohr mag/cell
     absolute magnetization    =    68.55 Bohr mag/cell

     iteration # 14     ecut=    50.00 Ry     beta= 0.70
     Davidson diagonalization with overlap
     ethr =  2.33E-05,  avg # of iterations =  1.2

     negative rho (up, down):  4.280E-03 3.220E-03

     total cpu time spent up to now is      267.2 secs

     total energy              =   -6056.61070645 Ry
     estimated scf accuracy    <       0.07508282 Ry

     total magnetization       =    60.87 Bohr mag/cell
     absolute magnetization    =    68.52 Bohr mag/cell

     iteration # 15     ecut=    50.00 Ry     beta= 0.70
     Davidson diagonalization with overlap
     ethr =  2.24E-05,  avg # of iterations =  1.3

     negative rho (up, down):  1.848E-02 1.694E-02

     total cpu time spent up to now is      285.2 secs

     total energy              =   -6056.60658977 Ry
     estimated scf accuracy    <       0.05058761 Ry

     total magnetization       =    60.80 Bohr mag/cell
     absolute magnetization    =    68.45 Bohr mag/cell

     iteration # 16     ecut=    50.00 Ry     beta= 0.70
     Davidson diagonalization with overlap
     c_bands:  1 eigenvalues not converged
     ethr =  1.51E-05,  avg # of iterations =  2.9

     negative rho (up, down):  2.377E-02 2.219E-02

     total cpu time spent up to now is      306.1 secs

     total energy              =   -6056.60591232 Ry
     estimated scf accuracy    <       0.04667048 Ry

     total magnetization       =    60.83 Bohr mag/cell
     absolute magnetization    =    68.44 Bohr mag/cell

     iteration # 17     ecut=    50.00 Ry     beta= 0.70
     Davidson diagonalization with overlap
     ethr =  1.39E-05,  avg # of iterations =  1.3

     negative rho (up, down):  2.533E-02 2.359E-02

     total cpu time spent up to now is      319.6 secs

     total energy              =   -6056.60675076 Ry
     estimated scf accuracy    <       0.01793833 Ry

     total magnetization       =    60.81 Bohr mag/cell
     absolute magnetization    =    68.42 Bohr mag/cell

     iteration # 18     ecut=    50.00 Ry     beta= 0.70
     Davidson diagonalization with overlap
     c_bands:  4 eigenvalues not converged
     c_bands:  2 eigenvalues not converged
     c_bands:  1 eigenvalues not converged
     ethr =  5.35E-06,  avg # of iterations =  5.9

     negative rho (up, down):  1.225E-02 1.096E-02

     total cpu time spent up to now is      342.8 secs

     total energy              =   -6056.60683690 Ry
     estimated scf accuracy    <       0.01866235 Ry

     total magnetization       =    60.83 Bohr mag/cell
     absolute magnetization    =    68.40 Bohr mag/cell

     iteration # 19     ecut=    50.00 Ry     beta= 0.70
     Davidson diagonalization with overlap
     ethr =  5.35E-06,  avg # of iterations =  1.3

     negative rho (up, down):  1.776E-02 1.635E-02

     total cpu time spent up to now is      357.1 secs

     total energy              =   -6056.60611881 Ry
     estimated scf accuracy    <       0.00888657 Ry

     total magnetization       =    60.85 Bohr mag/cell
     absolute magnetization    =    68.43 Bohr mag/cell

     iteration # 20     ecut=    50.00 Ry     beta= 0.70
     Davidson diagonalization with overlap
     c_bands:  2 eigenvalues not converged
     ethr =  2.65E-06,  avg # of iterations =  3.4

     negative rho (up, down):  1.725E-02 1.601E-02

     total cpu time spent up to now is      377.9 secs

     total energy              =   -6056.60446271 Ry
     estimated scf accuracy    <       0.00990993 Ry

     total magnetization       =    60.85 Bohr mag/cell
     absolute magnetization    =    68.42 Bohr mag/cell

     iteration # 21     ecut=    50.00 Ry     beta= 0.70
     Davidson diagonalization with overlap
     ethr =  2.65E-06,  avg # of iterations =  2.0

     negative rho (up, down):  1.382E-02 1.291E-02

     total cpu time spent up to now is      397.1 secs

     total energy              =   -6056.60403197 Ry
     estimated scf accuracy    <       0.01158108 Ry

     total magnetization       =    60.87 Bohr mag/cell
     absolute magnetization    =    68.42 Bohr mag/cell

     iteration # 22     ecut=    50.00 Ry     beta= 0.70
     Davidson diagonalization with overlap
     ethr =  2.65E-06,  avg # of iterations =  1.6

     negative rho (up, down):  1.440E-02 1.355E-02

     total cpu time spent up to now is      411.1 secs

     total energy              =   -6056.60447472 Ry
     estimated scf accuracy    <       0.00369622 Ry

     total magnetization       =    60.87 Bohr mag/cell
     absolute magnetization    =    68.42 Bohr mag/cell

     iteration # 23     ecut=    50.00 Ry     beta= 0.70
     Davidson diagonalization with overlap
     c_bands:  2 eigenvalues not converged
     ethr =  1.10E-06,  avg # of iterations =  2.8

     negative rho (up, down):  1.268E-02 1.190E-02

     total cpu time spent up to now is      432.0 secs

     total energy              =   -6056.60446727 Ry
     estimated scf accuracy    <       0.00221937 Ry

     total magnetization       =    60.87 Bohr mag/cell
     absolute magnetization    =    68.43 Bohr mag/cell

     iteration # 24     ecut=    50.00 Ry     beta= 0.70
     Davidson diagonalization with overlap
     c_bands:  1 eigenvalues not converged
     ethr =  6.62E-07,  avg # of iterations =  2.7

     negative rho (up, down):  8.537E-03 7.776E-03

     total cpu time spent up to now is      447.4 secs

     total energy              =   -6056.60433712 Ry
     estimated scf accuracy    <       0.00159022 Ry

     total magnetization       =    60.87 Bohr mag/cell
     absolute magnetization    =    68.43 Bohr mag/cell

     iteration # 25     ecut=    50.00 Ry     beta= 0.70
     Davidson diagonalization with overlap
     ethr =  4.75E-07,  avg # of iterations =  4.5

     negative rho (up, down):  7.704E-03 7.048E-03

     total cpu time spent up to now is      468.3 secs

     total energy              =   -6056.60458956 Ry
     estimated scf accuracy    <       0.00381362 Ry

     total magnetization       =    60.87 Bohr mag/cell
     absolute magnetization    =    68.43 Bohr mag/cell

     iteration # 26     ecut=    50.00 Ry     beta= 0.70
     Davidson diagonalization with overlap
     ethr =  4.75E-07,  avg # of iterations =  1.5

     negative rho (up, down):  6.426E-03 5.732E-03

     total cpu time spent up to now is      487.6 secs

     total energy              =   -6056.60468220 Ry
     estimated scf accuracy    <       0.00043590 Ry

     total magnetization       =    60.87 Bohr mag/cell
     absolute magnetization    =    68.43 Bohr mag/cell

     iteration # 27     ecut=    50.00 Ry     beta= 0.70
     Davidson diagonalization with overlap
     c_bands:  1 eigenvalues not converged
     ethr =  1.30E-07,  avg # of iterations =  3.8

     negative rho (up, down):  3.720E-03 2.805E-03

     total cpu time spent up to now is      503.3 secs

     total energy              =   -6056.60472601 Ry
     estimated scf accuracy    <       0.00015244 Ry

     total magnetization       =    60.87 Bohr mag/cell
     absolute magnetization    =    68.43 Bohr mag/cell

     iteration # 28     ecut=    50.00 Ry     beta= 0.70
     Davidson diagonalization with overlap
     ethr =  4.55E-08,  avg # of iterations =  6.3

     negative rho (up, down):  4.226E-03 3.335E-03

     total cpu time spent up to now is      526.9 secs

     total energy              =   -6056.60474179 Ry
     estimated scf accuracy    <       0.00032723 Ry

     total magnetization       =    60.87 Bohr mag/cell
     absolute magnetization    =    68.42 Bohr mag/cell

     iteration # 29     ecut=    50.00 Ry     beta= 0.70
     Davidson diagonalization with overlap
     ethr =  4.55E-08,  avg # of iterations =  1.4

     negative rho (up, down):  3.357E-03 2.346E-03

     total cpu time spent up to now is      543.7 secs

     total energy              =   -6056.60474449 Ry
     estimated scf accuracy    <       0.00011687 Ry

     total magnetization       =    60.87 Bohr mag/cell
     absolute magnetization    =    68.42 Bohr mag/cell

     iteration # 30     ecut=    50.00 Ry     beta= 0.70
     Davidson diagonalization with overlap
     ethr =  3.49E-08,  avg # of iterations =  1.5

     negative rho (up, down):  2.975E-03 1.875E-03

     total cpu time spent up to now is      559.9 secs

     total energy              =   -6056.60476056 Ry
     estimated scf accuracy    <       0.00010664 Ry

     total magnetization       =    60.87 Bohr mag/cell
     absolute magnetization    =    68.42 Bohr mag/cell

     iteration # 31     ecut=    50.00 Ry     beta= 0.70
     Davidson diagonalization with overlap
     ethr =  3.18E-08,  avg # of iterations =  1.8

     negative rho (up, down):  2.960E-03 1.848E-03

     total cpu time spent up to now is      578.7 secs

     total energy              =   -6056.60476093 Ry
     estimated scf accuracy    <       0.00005886 Ry

     total magnetization       =    60.87 Bohr mag/cell
     absolute magnetization    =    68.42 Bohr mag/cell

     iteration # 32     ecut=    50.00 Ry     beta= 0.70
     Davidson diagonalization with overlap
     ethr =  1.76E-08,  avg # of iterations =  1.6

     negative rho (up, down):  2.877E-03 1.787E-03

     total cpu time spent up to now is      593.0 secs

     total energy              =   -6056.60476501 Ry
     estimated scf accuracy    <       0.00008537 Ry

     total magnetization       =    60.87 Bohr mag/cell
     absolute magnetization    =    68.42 Bohr mag/cell

     iteration # 33     ecut=    50.00 Ry     beta= 0.70
     Davidson diagonalization with overlap
     ethr =  1.76E-08,  avg # of iterations =  1.2

     negative rho (up, down):  2.795E-03 1.764E-03

     total cpu time spent up to now is      611.2 secs

     total energy              =   -6056.60476798 Ry
     estimated scf accuracy    <       0.00001941 Ry

     total magnetization       =    60.87 Bohr mag/cell
     absolute magnetization    =    68.42 Bohr mag/cell

     iteration # 34     ecut=    50.00 Ry     beta= 0.70
     Davidson diagonalization with overlap
     c_bands:  1 eigenvalues not converged
     ethr =  5.79E-09,  avg # of iterations =  4.5

     negative rho (up, down):  2.773E-03 1.712E-03

     total cpu time spent up to now is      627.8 secs

     total energy              =   -6056.60476794 Ry
     estimated scf accuracy    <       0.00001184 Ry

     total magnetization       =    60.87 Bohr mag/cell
     absolute magnetization    =    68.42 Bohr mag/cell

     iteration # 35     ecut=    50.00 Ry     beta= 0.70
     Davidson diagonalization with overlap
     ethr =  3.54E-09,  avg # of iterations =  3.3

     negative rho (up, down):  2.664E-03 1.626E-03

     total cpu time spent up to now is      648.0 secs

     total energy              =   -6056.60476772 Ry
     estimated scf accuracy    <       0.00001864 Ry

     total magnetization       =    60.87 Bohr mag/cell
     absolute magnetization    =    68.42 Bohr mag/cell

     iteration # 36     ecut=    50.00 Ry     beta= 0.70
     Davidson diagonalization with overlap
     ethr =  3.54E-09,  avg # of iterations =  1.9

     negative rho (up, down):  2.615E-03 1.548E-03

     total cpu time spent up to now is      667.4 secs

     total energy              =   -6056.60476826 Ry
     estimated scf accuracy    <       0.00000326 Ry

     total magnetization       =    60.87 Bohr mag/cell
     absolute magnetization    =    68.42 Bohr mag/cell

     iteration # 37     ecut=    50.00 Ry     beta= 0.70
     Davidson diagonalization with overlap
     ethr =  9.74E-10,  avg # of iterations =  6.2

     negative rho (up, down):  2.605E-03 1.528E-03

     total cpu time spent up to now is      686.8 secs

     total energy              =   -6056.60476847 Ry
     estimated scf accuracy    <       0.00000876 Ry

     total magnetization       =    60.87 Bohr mag/cell
     absolute magnetization    =    68.42 Bohr mag/cell

     iteration # 38     ecut=    50.00 Ry     beta= 0.70
     Davidson diagonalization with overlap
     ethr =  9.74E-10,  avg # of iterations =  1.4

     negative rho (up, down):  2.415E-03 1.325E-03

     total cpu time spent up to now is      705.2 secs

     total energy              =   -6056.60476837 Ry
     estimated scf accuracy    <       0.00000289 Ry

     total magnetization       =    60.87 Bohr mag/cell
     absolute magnetization    =    68.42 Bohr mag/cell

     iteration # 39     ecut=    50.00 Ry     beta= 0.70
     Davidson diagonalization with overlap
     ethr =  8.61E-10,  avg # of iterations =  2.0

     negative rho (up, down):  2.446E-03 1.363E-03

     total cpu time spent up to now is      719.8 secs

     total energy              =   -6056.60476841 Ry
     estimated scf accuracy    <       0.00000286 Ry

     total magnetization       =    60.87 Bohr mag/cell
     absolute magnetization    =    68.41 Bohr mag/cell

     iteration # 40     ecut=    50.00 Ry     beta= 0.70
     Davidson diagonalization with overlap
     ethr =  8.54E-10,  avg # of iterations =  1.3

     negative rho (up, down):  2.333E-03 1.244E-03

     total cpu time spent up to now is      738.6 secs

     total energy              =   -6056.60476827 Ry
     estimated scf accuracy    <       0.00000472 Ry

     total magnetization       =    60.87 Bohr mag/cell
     absolute magnetization    =    68.41 Bohr mag/cell

     iteration # 41     ecut=    50.00 Ry     beta= 0.70
     Davidson diagonalization with overlap
     ethr =  8.54E-10,  avg # of iterations =  1.3

     negative rho (up, down):  2.318E-03 1.227E-03

     total cpu time spent up to now is      756.4 secs

     total energy              =   -6056.60476846 Ry
     estimated scf accuracy    <       0.00000157 Ry

     total magnetization       =    60.87 Bohr mag/cell
     absolute magnetization    =    68.41 Bohr mag/cell

     iteration # 42     ecut=    50.00 Ry     beta= 0.70
     Davidson diagonalization with overlap
     ethr =  4.69E-10,  avg # of iterations =  1.6

     negative rho (up, down):  2.282E-03 1.189E-03

     total cpu time spent up to now is      770.5 secs

     total energy              =   -6056.60476843 Ry
     estimated scf accuracy    <       0.00000125 Ry

     total magnetization       =    60.87 Bohr mag/cell
     absolute magnetization    =    68.41 Bohr mag/cell

     iteration # 43     ecut=    50.00 Ry     beta= 0.70
     Davidson diagonalization with overlap
     ethr =  3.74E-10,  avg # of iterations =  1.3

     negative rho (up, down):  2.250E-03 1.159E-03

     total cpu time spent up to now is      789.0 secs

     total energy              =   -6056.60476843 Ry
     estimated scf accuracy    <       0.00000014 Ry

     total magnetization       =    60.87 Bohr mag/cell
     absolute magnetization    =    68.41 Bohr mag/cell

     iteration # 44     ecut=    50.00 Ry     beta= 0.70
     Davidson diagonalization with overlap
     ethr =  4.22E-11,  avg # of iterations =  7.8

     negative rho (up, down):  2.271E-03 1.181E-03

     total cpu time spent up to now is      817.4 secs

     total energy              =   -6056.60476849 Ry
     estimated scf accuracy    <       0.00000044 Ry

     total magnetization       =    60.87 Bohr mag/cell
     absolute magnetization    =    68.41 Bohr mag/cell

     iteration # 45     ecut=    50.00 Ry     beta= 0.70
     Davidson diagonalization with overlap
     ethr =  4.22E-11,  avg # of iterations =  1.6

     negative rho (up, down):  2.254E-03 1.163E-03

     total cpu time spent up to now is      831.7 secs

     total energy              =   -6056.60476848 Ry
     estimated scf accuracy    <       0.00000011 Ry

     total magnetization       =    60.87 Bohr mag/cell
     absolute magnetization    =    68.41 Bohr mag/cell

     iteration # 46     ecut=    50.00 Ry     beta= 0.70
     Davidson diagonalization with overlap
     ethr =  3.19E-11,  avg # of iterations =  1.2

     negative rho (up, down):  2.259E-03 1.169E-03

     total cpu time spent up to now is      850.5 secs

     total energy              =   -6056.60476849 Ry
     estimated scf accuracy    <       0.00000003 Ry

     total magnetization       =    60.87 Bohr mag/cell
     absolute magnetization    =    68.41 Bohr mag/cell

     iteration # 47     ecut=    50.00 Ry     beta= 0.70
     Davidson diagonalization with overlap
     ethr =  7.92E-12,  avg # of iterations =  2.6

     negative rho (up, down):  2.259E-03 1.169E-03

     total cpu time spent up to now is      866.2 secs

     total energy              =   -6056.60476850 Ry
     estimated scf accuracy    <       0.00000001 Ry

     total magnetization       =    60.87 Bohr mag/cell
     absolute magnetization    =    68.41 Bohr mag/cell

     iteration # 48     ecut=    50.00 Ry     beta= 0.70
     Davidson diagonalization with overlap
     ethr =  3.72E-12,  avg # of iterations =  3.3

     negative rho (up, down):  2.248E-03 1.159E-03

     Magnetic moment per site  (integrated on atomic sphere of radius R)
     atom   1 (R=0.094)  charge=  5.8603  magn=  1.6961
     atom   2 (R=0.094)  charge=  5.8611  magn=  1.6909
     atom   3 (R=0.094)  charge=  5.8604  magn=  1.7005
     atom   4 (R=0.094)  charge=  5.8608  magn=  1.7052
     atom   5 (R=0.094)  charge=  5.8608  magn=  1.6999
     atom   6 (R=0.094)  charge=  5.8610  magn=  1.6988
     atom   7 (R=0.094)  charge=  5.8602  magn=  1.6971
     atom   8 (R=0.094)  charge=  5.8609  magn=  1.6938
     atom   9 (R=0.094)  charge=  5.8610  magn=  1.6960
     atom  10 (R=0.094)  charge=  5.8578  magn=  1.6307
     atom  11 (R=0.094)  charge=  5.8590  magn=  1.6332
     atom  12 (R=0.094)  charge=  5.8588  magn=  1.6375
     atom  13 (R=0.094)  charge=  5.8583  magn=  1.6398
     atom  14 (R=0.094)  charge=  5.8592  magn=  1.6327
     atom  15 (R=0.094)  charge=  5.8589  magn=  1.6372
     atom  16 (R=0.094)  charge=  5.8584  magn=  1.6303
     atom  17 (R=0.094)  charge=  5.8587  magn=  1.6379
     atom  18 (R=0.094)  charge=  5.8590  magn=  1.6300
     atom  19 (R=0.094)  charge=  5.8573  magn=  1.6235
     atom  20 (R=0.094)  charge=  5.8587  magn=  1.6395
     atom  21 (R=0.094)  charge=  5.8575  magn=  1.6556
     atom  22 (R=0.094)  charge=  5.8584  magn=  1.6282
     atom  23 (R=0.094)  charge=  5.8584  magn=  1.6080
     atom  24 (R=0.094)  charge=  5.8590  magn=  1.6224
     atom  25 (R=0.094)  charge=  5.8568  magn=  1.5903
     atom  26 (R=0.094)  charge=  5.8555  magn=  1.6564
     atom  27 (R=0.094)  charge=  5.8587  magn=  1.6310
     atom  28 (R=0.094)  charge=  5.8735  magn=  1.2986
     atom  29 (R=0.094)  charge=  5.8789  magn=  1.1593
     atom  30 (R=0.094)  charge=  5.8600  magn=  1.5986
     atom  31 (R=0.094)  charge=  5.8633  magn=  1.7222
     atom  32 (R=0.094)  charge=  5.8616  magn=  1.6287
     atom  33 (R=0.094)  charge=  5.8586  magn=  1.7338
     atom  34 (R=0.094)  charge=  5.8573  magn=  1.7320
     atom  35 (R=0.094)  charge=  5.8633  magn=  1.6843
     atom  36 (R=0.094)  charge=  5.8587  magn=  1.7429
     atom  37 (R=0.065)  charge=  1.0366  magn= -0.0192
     atom  38 (R=0.065)  charge=  2.9064  magn= -0.0433
     atom  39 (R=0.094)  charge=  0.9324  magn= -0.0150

     total cpu time spent up to now is      886.4 secs

     End of self-consistent calculation

 ------ SPIN UP ------------


          k = 0.0000 0.0000 0.0000 ( 51087 PWs)   bands (ev):

   -22.0295  -9.0948  -7.6736  -6.5794  -5.8239  -5.6996  -5.3504  -5.2189
    -4.8404  -4.8306  -4.8277  -4.8145  -4.8017  -4.7882  -4.6488  -4.3962
    -4.3004  -4.2974  -4.2763  -4.2649  -4.2405  -4.1053  -3.7851  -3.7816
    -3.7731  -3.7583  -3.7354  -3.7005  -3.6496  -3.6476  -3.6437  -3.6344
    -3.6196  -3.5720  -3.5698  -3.4911  -3.2670  -3.2595  -3.2579  -3.2547
    -3.1999  -3.1960  -3.1928  -3.1890  -3.1851  -3.1787  -3.1630  -3.1099
    -3.0292  -3.0267  -2.9631  -2.9573  -2.9533  -2.9490  -2.9293  -2.9219
    -2.9205  -2.9197  -2.8908  -2.8715  -2.8218  -2.8172  -2.8132  -2.8060
    -2.7514  -2.6196  -2.3233  -2.2872  -2.2844  -2.2823  -2.2767  -2.1737
    -2.1583  -2.1413  -2.1375  -2.1287  -2.1178  -2.1146  -2.0973  -2.0936
    -2.0630  -2.0504  -2.0486  -2.0194  -2.0002  -1.9935  -1.9800  -1.9707
    -1.9666  -1.9621  -1.9553  -1.9469  -1.9367  -1.9274  -1.9218  -1.9120
    -1.9103  -1.9083  -1.9056  -1.9036  -1.9016  -1.9012  -1.8959  -1.8863
    -1.8787  -1.8638  -1.8459  -1.8370  -1.8329  -1.7532  -1.7501  -1.6508
    -1.5646  -1.4634  -1.4594  -1.4582  -1.4555  -1.4464  -1.4283  -1.4150
    -1.4116  -1.4097  -1.3946  -1.3688  -1.3663  -1.2398  -1.2370  -1.2166
    -1.2125  -1.1457  -1.0896  -1.0651  -1.0472  -1.0343  -1.0068  -0.9874
    -0.9785  -0.9702  -0.9631  -0.9513  -0.9181  -0.8962  -0.8590  -0.8377
    -0.7750  -0.7192  -0.7157  -0.7148  -0.6986  -0.6702  -0.6586  -0.6513
    -0.6504  -0.6445  -0.6427  -0.6361  -0.6349  -0.6300  -0.6268  -0.6159
    -0.6134  -0.6038  -0.5914  -0.5844  -0.5767  -0.5717  -0.5604  -0.5562
    -0.5457  -0.5398  -0.5307  -0.5203  -0.5156  -0.5126  -0.5030  -0.4977
    -0.4959  -0.4909  -0.4774  -0.4599  -0.4419  -0.4203  -0.4161  -0.4095
    -0.4049  -0.3997  -0.3955  -0.3867  -0.3852  -0.3398  -0.3265  -0.3197
    -0.3161  -0.3144  -0.2582  -0.2542  -0.2495  -0.2421  -0.2300  -0.2117
     0.5036   0.6922

          k = 0.0000 0.2309 0.0000 ( 51134 PWs)   bands (ev):

   -22.0295  -9.0845  -7.5330  -6.4878  -5.8485  -5.7116  -5.5260  -5.3409
    -5.2065  -5.0491  -5.0249  -4.6568  -4.5049  -4.4859  -4.4734  -4.4196
    -4.3295  -4.3056  -4.2436  -4.1765  -4.1606  -4.0962  -3.8894  -3.7872
    -3.7801  -3.7095  -3.6671  -3.6539  -3.6513  -3.6373  -3.6327  -3.6173
    -3.5966  -3.5412  -3.5264  -3.5079  -3.5015  -3.4504  -3.2804  -3.2761
    -3.2626  -3.2209  -3.2184  -3.2098  -3.1784  -3.1120  -3.0886  -3.0686
    -3.0537  -3.0502  -3.0315  -3.0072  -2.9668  -2.9143  -2.9052  -2.8797
    -2.8485  -2.8398  -2.8092  -2.8041  -2.7836  -2.7489  -2.7371  -2.7258
    -2.7040  -2.6162  -2.4042  -2.3940  -2.3747  -2.3510  -2.3414  -2.2530
    -2.2461  -2.2306  -2.2281  -2.2162  -2.2110  -2.1986  -2.1725  -2.1198
    -2.1101  -2.0984  -2.0799  -2.0505  -2.0394  -2.0333  -2.0269  -2.0160
    -2.0019  -1.9976  -1.9937  -1.9886  -1.9835  -1.9770  -1.9644  -1.9020
    -1.8874  -1.8745  -1.8201  -1.8147  -1.8054  -1.8001  -1.7908  -1.7888
    -1.7777  -1.7650  -1.7621  -1.7544  -1.7501  -1.7275  -1.7176  -1.6959
    -1.6913  -1.6852  -1.6367  -1.5916  -1.5821  -1.4970  -1.4838  -1.4819
    -1.4752  -1.4541  -1.4473  -1.4389  -1.4178  -1.4148  -1.3724  -1.2885
    -1.2650  -1.2115  -1.1989  -1.1743  -1.1680  -1.1109  -1.0969  -1.0907
    -1.0652  -0.9950  -0.9847  -0.9655  -0.9563  -0.9418  -0.9140  -0.9033
    -0.8891  -0.8712  -0.8684  -0.8449  -0.8243  -0.8040  -0.7993  -0.7951
    -0.7428  -0.7205  -0.7143  -0.7106  -0.6989  -0.6673  -0.6537  -0.6405
    -0.6376  -0.6312  -0.6279  -0.6140  -0.6055  -0.5919  -0.5806  -0.5652
    -0.5294  -0.5161  -0.5056  -0.4800  -0.4554  -0.4448  -0.4213  -0.3939
    -0.3905  -0.3754  -0.3720  -0.3596  -0.3411  -0.3343  -0.3283  -0.2974
    -0.2645  -0.2564  -0.2396  -0.2219  -0.2139  -0.2025  -0.1910  -0.1771
    -0.1232  -0.0504   0.1066   0.1353   0.1944   0.2693   0.3868   0.4080
     0.4495   0.7317

          k = 0.0000 0.4619 0.0000 ( 51204 PWs)   bands (ev):

   -22.0295  -9.0683  -7.1189  -6.4957  -6.2053  -5.8222  -5.6075  -5.3561
    -5.2561  -5.1461  -5.1307  -4.9285  -4.3326  -4.3152  -4.3049  -4.2488
    -4.2157  -4.1284  -4.1254  -4.0549  -3.9950  -3.9880  -3.9822  -3.8296
    -3.8124  -3.8100  -3.8001  -3.7981  -3.7373  -3.6954  -3.6932  -3.5667
    -3.5252  -3.5179  -3.4971  -3.4846  -3.4770  -3.4558  -3.3714  -3.3650
    -3.3524  -3.3462  -3.2763  -3.2093  -3.1489  -3.1035  -3.0569  -3.0376
    -3.0109  -2.9853  -2.9685  -2.9518  -2.9440  -2.9305  -2.9217  -2.8657
    -2.8559  -2.8327  -2.8062  -2.7800  -2.6627  -2.6523  -2.6382  -2.6197
    -2.5654  -2.5399  -2.5151  -2.5036  -2.4928  -2.4234  -2.3721  -2.3695
    -2.3654  -2.3569  -2.3488  -2.3270  -2.3195  -2.2950  -2.2870  -2.2649
    -2.2413  -2.2092  -2.1904  -2.1618  -2.1460  -2.1091  -2.0743  -2.0541
    -2.0376  -2.0221  -2.0076  -1.9929  -1.9744  -1.9417  -1.9318  -1.9230
    -1.9117  -1.8994  -1.8830  -1.8602  -1.8562  -1.8459  -1.8438  -1.8236
    -1.8015  -1.7685  -1.7614  -1.7386  -1.6733  -1.6549  -1.6402  -1.6310
    -1.6157  -1.5812  -1.5512  -1.5291  -1.5259  -1.5041  -1.4998  -1.4931
    -1.4881  -1.4805  -1.4713  -1.4610  -1.4532  -1.4429  -1.4342  -1.4256
    -1.4222  -1.3623  -1.3048  -1.2992  -1.2752  -1.2636  -1.2370  -1.2295
    -1.1971  -1.1412  -1.1302  -1.1225  -1.0793  -1.0577  -1.0271  -0.9929
    -0.9761  -0.9694  -0.9387  -0.9246  -0.9101  -0.8997  -0.8747  -0.7891
    -0.7662  -0.7514  -0.7318  -0.7161  -0.7110  -0.7033  -0.6985  -0.6861
    -0.6817  -0.6523  -0.5772  -0.5660  -0.5544  -0.5431  -0.5328  -0.5305
    -0.5212  -0.5023  -0.4817  -0.4730  -0.4680  -0.4396  -0.3866  -0.3676
    -0.3622  -0.3411  -0.3290  -0.2683  -0.2617  -0.2370  -0.2285  -0.1853
    -0.1640  -0.1479  -0.1435  -0.1305  -0.1180  -0.1114  -0.1098  -0.0699
    -0.0154  -0.0015   0.4680   0.5699   0.8754   1.0971   1.1239   1.3114
     1.4410   1.4861

          k = 0.2000-0.1155 0.0000 ( 51134 PWs)   bands (ev):

   -22.0295  -9.0824  -7.5347  -6.4898  -5.8844  -5.7026  -5.5138  -5.3270
    -5.1871  -5.0646  -5.0287  -4.6217  -4.5266  -4.4857  -4.4770  -4.4184
    -4.3525  -4.2963  -4.2297  -4.2004  -4.1549  -4.0743  -3.8985  -3.7861
    -3.7762  -3.7052  -3.6711  -3.6556  -3.6512  -3.6449  -3.6312  -3.6130
    -3.5929  -3.5497  -3.5267  -3.5082  -3.5010  -3.4509  -3.2889  -3.2779
    -3.2686  -3.2234  -3.2179  -3.2013  -3.1796  -3.1192  -3.0857  -3.0691
    -3.0531  -3.0472  -3.0385  -3.0013  -2.9616  -2.9157  -2.9046  -2.8838
    -2.8435  -2.8374  -2.8075  -2.8040  -2.7803  -2.7454  -2.7386  -2.7322
    -2.6926  -2.6191  -2.4066  -2.3921  -2.3672  -2.3513  -2.3422  -2.2530
    -2.2491  -2.2347  -2.2305  -2.2158  -2.2076  -2.1924  -2.1690  -2.1180
    -2.1143  -2.0961  -2.0812  -2.0523  -2.0448  -2.0335  -2.0215  -2.0158
    -2.0041  -2.0005  -1.9977  -1.9943  -1.9822  -1.9775  -1.9441  -1.9010
    -1.8844  -1.8699  -1.8228  -1.8186  -1.8079  -1.7988  -1.7922  -1.7867
    -1.7821  -1.7748  -1.7692  -1.7530  -1.7523  -1.7310  -1.7159  -1.6991
    -1.6895  -1.6752  -1.6462  -1.6028  -1.5803  -1.5112  -1.4809  -1.4796
    -1.4648  -1.4604  -1.4479  -1.4420  -1.4308  -1.4005  -1.3285  -1.2948
    -1.2591  -1.2157  -1.2012  -1.1754  -1.1571  -1.1302  -1.1041  -1.0906
    -1.0419  -1.0109  -1.0002  -0.9751  -0.9568  -0.9472  -0.9185  -0.9072
    -0.8884  -0.8697  -0.8543  -0.8333  -0.8244  -0.8096  -0.8011  -0.7899
    -0.7302  -0.7223  -0.7122  -0.7101  -0.6926  -0.6600  -0.6498  -0.6468
    -0.6405  -0.6326  -0.6276  -0.6171  -0.6084  -0.5889  -0.5804  -0.5588
    -0.5216  -0.5082  -0.5002  -0.4785  -0.4594  -0.4518  -0.4146  -0.3943
    -0.3885  -0.3808  -0.3667  -0.3642  -0.3427  -0.3339  -0.3278  -0.2922
    -0.2675  -0.2526  -0.2411  -0.2205  -0.2134  -0.2015  -0.1888  -0.1720
    -0.1241  -0.0578   0.0893   0.1339   0.1702   0.2571   0.3721   0.4080
     0.4437   0.7992

          k = 0.2000 0.1155 0.0000 ( 51134 PWs)   bands (ev):

   -22.0295  -9.0817  -7.5357  -6.4920  -5.9100  -5.6831  -5.4831  -5.3551
    -5.1759  -5.0573  -5.0463  -4.6015  -4.5220  -4.4843  -4.4794  -4.4168
    -4.3506  -4.3173  -4.2322  -4.1969  -4.1609  -4.0632  -3.8991  -3.7920
    -3.7684  -3.6971  -3.6668  -3.6557  -3.6511  -3.6487  -3.6403  -3.6199
    -3.5718  -3.5581  -3.5333  -3.5067  -3.5026  -3.4530  -3.2934  -3.2752
    -3.2718  -3.2217  -3.2203  -3.2054  -3.1726  -3.1183  -3.0899  -3.0652
    -3.0516  -3.0485  -3.0412  -3.0089  -2.9570  -2.9140  -2.9036  -2.8851
    -2.8492  -2.8273  -2.8089  -2.8034  -2.7896  -2.7422  -2.7396  -2.7282
    -2.6819  -2.6247  -2.4035  -2.3914  -2.3655  -2.3526  -2.3422  -2.2533
    -2.2467  -2.2406  -2.2292  -2.2212  -2.2057  -2.1942  -2.1540  -2.1174
    -2.1128  -2.0977  -2.0793  -2.0471  -2.0453  -2.0376  -2.0319  -2.0128
    -2.0056  -2.0003  -1.9970  -1.9948  -1.9867  -1.9734  -1.9473  -1.9083
    -1.8790  -1.8701  -1.8242  -1.8175  -1.8107  -1.8014  -1.7925  -1.7853
    -1.7830  -1.7739  -1.7693  -1.7528  -1.7522  -1.7445  -1.7086  -1.7018
    -1.6876  -1.6801  -1.6464  -1.6041  -1.5879  -1.5156  -1.4860  -1.4797
    -1.4660  -1.4551  -1.4497  -1.4421  -1.4312  -1.3898  -1.3146  -1.2922
    -1.2594  -1.2155  -1.1992  -1.1782  -1.1519  -1.1400  -1.1009  -1.0914
    -1.0436  -1.0068  -0.9962  -0.9752  -0.9566  -0.9486  -0.9203  -0.9094
    -0.8857  -0.8695  -0.8571  -0.8355  -0.8265  -0.8096  -0.8029  -0.7896
    -0.7302  -0.7189  -0.7129  -0.7105  -0.6989  -0.6628  -0.6532  -0.6442
    -0.6402  -0.6323  -0.6262  -0.6083  -0.6049  -0.5895  -0.5821  -0.5670
    -0.5223  -0.5016  -0.4955  -0.4806  -0.4641  -0.4510  -0.4144  -0.3948
    -0.3885  -0.3819  -0.3675  -0.3628  -0.3424  -0.3326  -0.3289  -0.2933
    -0.2624  -0.2536  -0.2402  -0.2200  -0.2145  -0.1981  -0.1747  -0.1690
    -0.1216  -0.0807   0.1025   0.1334   0.1677   0.2517   0.3782   0.4029
     0.4460   0.7390

          k = 0.2000 0.3464 0.0000 ( 51202 PWs)   bands (ev):

   -22.0295  -9.0684  -7.2589  -6.3619  -6.0468  -5.9264  -5.6959  -5.5067
    -5.3332  -5.1603  -4.7498  -4.6544  -4.4944  -4.4778  -4.3390  -4.2733
    -4.2694  -4.1743  -4.1645  -4.0797  -4.0392  -4.0036  -3.9004  -3.8837
    -3.8280  -3.7833  -3.6901  -3.6752  -3.6478  -3.6439  -3.6353  -3.6188
    -3.5941  -3.5828  -3.5469  -3.5218  -3.4823  -3.4492  -3.4369  -3.4061
    -3.2972  -3.2451  -3.2170  -3.1976  -3.1726  -3.1540  -3.1015  -3.0568
    -3.0165  -2.9910  -2.9806  -2.9633  -2.9494  -2.9201  -2.9072  -2.8925
    -2.8784  -2.8587  -2.7581  -2.7277  -2.6932  -2.6746  -2.6610  -2.6386
    -2.6148  -2.5807  -2.5052  -2.4379  -2.4249  -2.3948  -2.3833  -2.3495
    -2.3377  -2.3279  -2.3191  -2.2957  -2.2866  -2.2689  -2.2610  -2.2553
    -2.2408  -2.1888  -2.1634  -2.1310  -2.0734  -2.0705  -2.0460  -2.0378
    -2.0279  -2.0020  -1.9721  -1.9673  -1.9536  -1.9338  -1.9137  -1.9102
    -1.9042  -1.8945  -1.8898  -1.8740  -1.8597  -1.8491  -1.8411  -1.8248
    -1.8091  -1.8014  -1.7715  -1.7297  -1.7212  -1.6859  -1.6795  -1.6739
    -1.6612  -1.6537  -1.6201  -1.5862  -1.5719  -1.5610  -1.5437  -1.5106
    -1.5083  -1.4986  -1.4852  -1.4695  -1.4540  -1.4334  -1.4288  -1.3780
    -1.3661  -1.3353  -1.3202  -1.2582  -1.2249  -1.1988  -1.1768  -1.1066
    -1.0881  -1.0672  -1.0574  -1.0489  -1.0412  -1.0357  -1.0076  -0.9952
    -0.9810  -0.9644  -0.9463  -0.9101  -0.9014  -0.8763  -0.8676  -0.8522
    -0.8282  -0.8105  -0.7987  -0.7834  -0.7768  -0.7549  -0.6421  -0.6179
    -0.6088  -0.5956  -0.5751  -0.5670  -0.5511  -0.5437  -0.5251  -0.5188
    -0.5032  -0.4764  -0.4505  -0.4376  -0.4149  -0.4071  -0.3695  -0.3481
    -0.3376  -0.3359  -0.3302  -0.3072  -0.3015  -0.2951  -0.2839  -0.2726
    -0.2572  -0.1824  -0.1710  -0.1654  -0.1253  -0.1158  -0.1063   0.0295
     0.1311   0.2296   0.2448   0.4142   0.5106   0.6309   1.0021   1.1166
     1.2219   1.4022

          k = 0.2000-0.5774 0.0000 ( 51262 PWs)   bands (ev):

   -22.0295  -9.0611  -6.7673  -6.6852  -6.2019  -6.0412  -5.7413  -5.5247
    -5.2633  -5.2048  -4.9692  -4.7067  -4.4732  -4.2386  -4.1893  -4.0823
    -4.0600  -4.0490  -4.0258  -4.0232  -3.9717  -3.9546  -3.9443  -3.9431
    -3.9211  -3.8581  -3.7978  -3.7910  -3.7704  -3.7659  -3.7245  -3.6245
    -3.6130  -3.6072  -3.5797  -3.5406  -3.4779  -3.4544  -3.3931  -3.3188
    -3.3120  -3.2600  -3.2322  -3.2102  -3.1855  -3.1275  -3.1005  -3.0883
    -3.0558  -3.0303  -2.9986  -2.9390  -2.9113  -2.8786  -2.8650  -2.8293
    -2.8155  -2.7404  -2.7367  -2.7210  -2.7130  -2.7017  -2.6759  -2.6424
    -2.5782  -2.5258  -2.5117  -2.5016  -2.4734  -2.4422  -2.4186  -2.3760
    -2.3703  -2.3340  -2.3222  -2.3188  -2.3102  -2.2917  -2.2660  -2.2624
    -2.2444  -2.2338  -2.2184  -2.1900  -2.1856  -2.1554  -2.1105  -2.0924
    -2.0741  -2.0418  -2.0249  -1.9985  -1.9759  -1.9483  -1.9357  -1.9254
    -1.9058  -1.9041  -1.8978  -1.8839  -1.8750  -1.8480  -1.8440  -1.7974
    -1.7731  -1.7542  -1.7462  -1.7362  -1.7181  -1.7141  -1.7078  -1.6970
    -1.6875  -1.6772  -1.6642  -1.6356  -1.6043  -1.5875  -1.5650  -1.5523
    -1.4960  -1.4877  -1.4705  -1.4461  -1.4365  -1.4193  -1.4057  -1.3932
    -1.3502  -1.3367  -1.3242  -1.2775  -1.2230  -1.1946  -1.1882  -1.1757
    -1.1548  -1.1419  -1.1337  -1.1003  -1.0868  -1.0720  -1.0525  -1.0408
    -0.9925  -0.9799  -0.9634  -0.9567  -0.9392  -0.8918  -0.8827  -0.8675
    -0.8589  -0.8480  -0.8357  -0.8167  -0.7958  -0.7682  -0.7487  -0.6070
    -0.5888  -0.5782  -0.5651  -0.5537  -0.5433  -0.5363  -0.5263  -0.4964
    -0.4823  -0.4683  -0.4633  -0.4537  -0.4088  -0.3521  -0.3422  -0.3339
    -0.3262  -0.3068  -0.2946  -0.2827  -0.2425  -0.2386  -0.2296  -0.2208
    -0.2188  -0.1514  -0.1387  -0.1330  -0.1202  -0.1111  -0.0894  -0.0639
     0.1048   0.2453   0.4743   0.8632   1.0639   1.1717   1.2734   1.5121
     1.6688   1.7054

          k = 0.2000-0.3464 0.0000 ( 51202 PWs)   bands (ev):

   -22.0295  -9.0695  -7.2560  -6.3614  -6.0176  -5.9358  -5.6972  -5.5479
    -5.3210  -5.1473  -4.7244  -4.7033  -4.4874  -4.4795  -4.3350  -4.2747
    -4.2688  -4.1737  -4.1680  -4.0737  -4.0294  -4.0187  -3.9053  -3.8821
    -3.8282  -3.7848  -3.6894  -3.6731  -3.6635  -3.6444  -3.6317  -3.6049
    -3.5946  -3.5862  -3.5459  -3.5232  -3.4852  -3.4418  -3.4313  -3.4115
    -3.2983  -3.2428  -3.2174  -3.1950  -3.1758  -3.1485  -3.0852  -3.0564
    -3.0136  -2.9931  -2.9735  -2.9679  -2.9565  -2.9245  -2.8999  -2.8935
    -2.8733  -2.8647  -2.7618  -2.7317  -2.6971  -2.6798  -2.6554  -2.6344
    -2.6210  -2.5803  -2.5045  -2.4395  -2.4137  -2.3955  -2.3834  -2.3505
    -2.3436  -2.3268  -2.3198  -2.2936  -2.2866  -2.2679  -2.2578  -2.2534
    -2.2396  -2.1979  -2.1624  -2.1407  -2.0757  -2.0707  -2.0438  -2.0351
    -2.0256  -2.0004  -1.9774  -1.9656  -1.9496  -1.9306  -1.9174  -1.9086
    -1.9027  -1.8969  -1.8870  -1.8716  -1.8590  -1.8526  -1.8336  -1.8172
    -1.8137  -1.8054  -1.7800  -1.7273  -1.7233  -1.6881  -1.6782  -1.6708
    -1.6662  -1.6529  -1.6103  -1.5916  -1.5734  -1.5468  -1.5347  -1.5141
    -1.5077  -1.4985  -1.4940  -1.4671  -1.4512  -1.4376  -1.4303  -1.3769
    -1.3676  -1.3320  -1.3169  -1.2663  -1.2228  -1.1932  -1.1674  -1.1133
    -1.0896  -1.0643  -1.0563  -1.0528  -1.0470  -1.0367  -1.0068  -0.9938
    -0.9779  -0.9676  -0.9514  -0.9135  -0.8992  -0.8807  -0.8664  -0.8489
    -0.8276  -0.8185  -0.7931  -0.7804  -0.7738  -0.7549  -0.6397  -0.6253
    -0.6055  -0.5908  -0.5733  -0.5646  -0.5595  -0.5380  -0.5329  -0.5136
    -0.5061  -0.4817  -0.4456  -0.4356  -0.4154  -0.4091  -0.3703  -0.3478
    -0.3388  -0.3333  -0.3309  -0.3075  -0.3025  -0.2934  -0.2832  -0.2712
    -0.2587  -0.1821  -0.1722  -0.1675  -0.1215  -0.1172  -0.1157   0.0394
     0.1112   0.2301   0.2401   0.4423   0.5100   0.6203   1.0128   1.1133
     1.2260   1.3560

          k = 0.4000-0.2309 0.0000 ( 51204 PWs)   bands (ev):

   -22.0295  -9.0626  -7.1267  -6.5034  -6.2135  -5.8866  -5.5384  -5.3606
    -5.2086  -5.1624  -5.1248  -4.9391  -4.3557  -4.3215  -4.2851  -4.2487
    -4.2083  -4.1302  -4.1265  -4.0336  -4.0005  -3.9876  -3.9641  -3.8338
    -3.8123  -3.8046  -3.8013  -3.7989  -3.7263  -3.6999  -3.6904  -3.6208
    -3.5280  -3.5182  -3.5019  -3.4843  -3.4790  -3.4369  -3.3723  -3.3659
    -3.3545  -3.3447  -3.3086  -3.2204  -3.1374  -3.1102  -3.0457  -3.0328
    -3.0068  -2.9897  -2.9684  -2.9535  -2.9427  -2.9339  -2.9191  -2.8709
    -2.8544  -2.8340  -2.7936  -2.7721  -2.6622  -2.6492  -2.6251  -2.6090
    -2.5750  -2.5379  -2.5218  -2.5026  -2.4940  -2.4275  -2.3723  -2.3684
    -2.3658  -2.3551  -2.3467  -2.3266  -2.3145  -2.3048  -2.2770  -2.2545
    -2.2419  -2.2103  -2.1916  -2.1650  -2.1406  -2.1254  -2.0679  -2.0571
    -2.0371  -2.0236  -2.0092  -1.9854  -1.9793  -1.9364  -1.9304  -1.9184
    -1.9112  -1.8977  -1.8848  -1.8685  -1.8566  -1.8502  -1.8441  -1.8169
    -1.8039  -1.7704  -1.7589  -1.7381  -1.6705  -1.6607  -1.6306  -1.6261
    -1.6100  -1.5839  -1.5643  -1.5266  -1.5190  -1.5077  -1.5033  -1.4942
    -1.4877  -1.4781  -1.4726  -1.4669  -1.4589  -1.4437  -1.4297  -1.4187
    -1.3900  -1.3785  -1.3196  -1.2917  -1.2739  -1.2643  -1.2441  -1.2184
    -1.1987  -1.1534  -1.1267  -1.1183  -1.0957  -1.0734  -1.0371  -1.0132
    -0.9936  -0.9646  -0.9406  -0.9328  -0.9056  -0.8838  -0.8529  -0.8024
    -0.7575  -0.7365  -0.7271  -0.7133  -0.7093  -0.7031  -0.6955  -0.6858
    -0.6704  -0.6525  -0.5705  -0.5640  -0.5534  -0.5442  -0.5334  -0.5189
    -0.5118  -0.4944  -0.4841  -0.4783  -0.4667  -0.4440  -0.3771  -0.3622
    -0.3553  -0.3486  -0.3217  -0.2696  -0.2631  -0.2329  -0.2266  -0.1870
    -0.1632  -0.1471  -0.1411  -0.1208  -0.1171  -0.1145  -0.1072  -0.0729
    -0.0162  -0.0025   0.3775   0.6014   0.9122   1.0771   1.1161   1.2530
     1.4442   1.4945

          k = 0.4000 0.0000 0.0000 ( 51202 PWs)   bands (ev):

   -22.0295  -9.0649  -7.2634  -6.3618  -6.0829  -5.9215  -5.6951  -5.4783
    -5.3436  -5.1373  -4.7741  -4.6185  -4.4948  -4.4905  -4.3402  -4.2759
    -4.2651  -4.1722  -4.1654  -4.0994  -4.0432  -3.9642  -3.9034  -3.8834
    -3.8250  -3.7863  -3.6913  -3.6822  -3.6553  -3.6441  -3.6365  -3.6134
    -3.5930  -3.5819  -3.5593  -3.5258  -3.4817  -3.4552  -3.4425  -3.4015
    -3.3116  -3.2495  -3.2177  -3.1934  -3.1671  -3.1579  -3.0875  -3.0515
    -3.0253  -2.9866  -2.9781  -2.9696  -2.9485  -2.9176  -2.9068  -2.8923
    -2.8808  -2.8638  -2.7707  -2.7060  -2.6958  -2.6756  -2.6475  -2.6317
    -2.6187  -2.5768  -2.5081  -2.4365  -2.4178  -2.3940  -2.3855  -2.3496
    -2.3441  -2.3297  -2.3213  -2.3025  -2.2825  -2.2723  -2.2639  -2.2538
    -2.2231  -2.1957  -2.1704  -2.1199  -2.0743  -2.0689  -2.0524  -2.0365
    -2.0192  -2.0051  -1.9822  -1.9619  -1.9536  -1.9336  -1.9090  -1.9053
    -1.9014  -1.8996  -1.8931  -1.8748  -1.8651  -1.8490  -1.8319  -1.8228
    -1.8101  -1.7842  -1.7514  -1.7292  -1.7227  -1.6980  -1.6778  -1.6710
    -1.6608  -1.6506  -1.6300  -1.5926  -1.5730  -1.5610  -1.5403  -1.5289
    -1.5111  -1.5004  -1.4917  -1.4813  -1.4597  -1.4415  -1.4256  -1.3733
    -1.3633  -1.3387  -1.3265  -1.2414  -1.2214  -1.2046  -1.1837  -1.1042
    -1.0830  -1.0678  -1.0655  -1.0488  -1.0434  -1.0324  -1.0082  -1.0035
    -0.9870  -0.9601  -0.9445  -0.9029  -0.8881  -0.8742  -0.8714  -0.8544
    -0.8225  -0.8136  -0.8018  -0.7817  -0.7763  -0.7550  -0.6350  -0.6175
    -0.5990  -0.5862  -0.5772  -0.5653  -0.5594  -0.5362  -0.5302  -0.5222
    -0.5023  -0.4835  -0.4524  -0.4382  -0.4178  -0.4013  -0.3624  -0.3453
    -0.3391  -0.3357  -0.3284  -0.3076  -0.3013  -0.2907  -0.2874  -0.2697
    -0.2581  -0.1806  -0.1731  -0.1667  -0.1278  -0.1222  -0.0951   0.0298
     0.1934   0.2248   0.2601   0.3471   0.5234   0.6086   0.9285   1.1191
     1.2076   1.4621

          k = 0.4000 0.2309 0.0000 ( 51204 PWs)   bands (ev):

   -22.0295  -9.0609  -7.1316  -6.5095  -6.2211  -5.9064  -5.4634  -5.3811
    -5.2295  -5.1559  -5.1237  -4.9343  -4.3544  -4.3184  -4.3067  -4.2435
    -4.2033  -4.1301  -4.1278  -4.0177  -3.9977  -3.9900  -3.9404  -3.8410
    -3.8121  -3.8055  -3.7997  -3.7978  -3.7150  -3.6980  -3.6826  -3.6559
    -3.5302  -3.5266  -3.5104  -3.4849  -3.4825  -3.4320  -3.3718  -3.3646
    -3.3508  -3.3419  -3.3128  -3.2229  -3.1418  -3.1018  -3.0491  -3.0304
    -3.0137  -2.9816  -2.9683  -2.9620  -2.9486  -2.9294  -2.9072  -2.8715
    -2.8585  -2.8346  -2.8024  -2.7591  -2.6570  -2.6504  -2.6323  -2.6103
    -2.5759  -2.5366  -2.5148  -2.5100  -2.4963  -2.4264  -2.3723  -2.3694
    -2.3624  -2.3585  -2.3452  -2.3267  -2.3146  -2.3059  -2.2790  -2.2453
    -2.2370  -2.2103  -2.1940  -2.1730  -2.1417  -2.1170  -2.0664  -2.0552
    -2.0371  -2.0278  -2.0083  -2.0009  -1.9738  -1.9376  -1.9306  -1.9212
    -1.9118  -1.9005  -1.8826  -1.8741  -1.8574  -1.8498  -1.8452  -1.8160
    -1.8018  -1.7888  -1.7522  -1.7383  -1.6736  -1.6620  -1.6336  -1.6235
    -1.6092  -1.5839  -1.5594  -1.5256  -1.5198  -1.5099  -1.5050  -1.4968
    -1.4914  -1.4787  -1.4716  -1.4649  -1.4602  -1.4413  -1.4220  -1.4086
    -1.3941  -1.3787  -1.3297  -1.2917  -1.2722  -1.2565  -1.2386  -1.2200
    -1.2011  -1.1524  -1.1274  -1.1166  -1.0891  -1.0750  -1.0439  -1.0070
    -0.9935  -0.9685  -0.9387  -0.9318  -0.9033  -0.8838  -0.8557  -0.8217
    -0.7472  -0.7320  -0.7208  -0.7138  -0.7095  -0.6998  -0.6936  -0.6828
    -0.6758  -0.6690  -0.5714  -0.5624  -0.5560  -0.5429  -0.5341  -0.5178
    -0.5053  -0.4999  -0.4875  -0.4735  -0.4570  -0.4472  -0.3772  -0.3621
    -0.3554  -0.3494  -0.3207  -0.2682  -0.2633  -0.2299  -0.2276  -0.1866
    -0.1703  -0.1445  -0.1412  -0.1215  -0.1188  -0.1100  -0.0942  -0.0789
    -0.0152  -0.0006   0.3848   0.6424   0.8656   1.0324   1.1214   1.1990
     1.4618   1.5375

          k = 0.4000-0.6928 0.0000 ( 51262 PWs)   bands (ev):

   -22.0295  -9.0565  -6.7999  -6.6740  -6.2092  -5.9582  -5.9106  -5.3922
    -5.2158  -5.2074  -5.0410  -4.7046  -4.4743  -4.2380  -4.1857  -4.0628
    -4.0582  -4.0343  -4.0257  -4.0011  -3.9710  -3.9534  -3.9467  -3.9427
    -3.9280  -3.8238  -3.8034  -3.7943  -3.7777  -3.7621  -3.7508  -3.6338
    -3.6127  -3.6083  -3.5901  -3.5666  -3.5081  -3.4483  -3.3570  -3.3169
    -3.3146  -3.2984  -3.2200  -3.2071  -3.1821  -3.1364  -3.0994  -3.0972
    -3.0603  -3.0180  -2.9975  -2.9365  -2.9133  -2.8816  -2.8679  -2.8207
    -2.8054  -2.7424  -2.7332  -2.7286  -2.7152  -2.7060  -2.6553  -2.6446
    -2.5744  -2.5197  -2.5131  -2.4982  -2.4884  -2.4480  -2.4259  -2.3736
    -2.3618  -2.3336  -2.3287  -2.3162  -2.3049  -2.2802  -2.2662  -2.2589
    -2.2391  -2.2266  -2.2057  -2.1937  -2.1847  -2.1548  -2.1228  -2.1052
    -2.0891  -2.0549  -2.0246  -1.9874  -1.9698  -1.9486  -1.9348  -1.9254
    -1.9123  -1.9035  -1.8969  -1.8789  -1.8643  -1.8540  -1.8460  -1.7812
    -1.7673  -1.7534  -1.7469  -1.7348  -1.7188  -1.7121  -1.7056  -1.6985
    -1.6933  -1.6762  -1.6635  -1.6532  -1.6068  -1.5833  -1.5759  -1.5438
    -1.5218  -1.4989  -1.4690  -1.4427  -1.4284  -1.4197  -1.4063  -1.3904
    -1.3434  -1.3384  -1.3117  -1.2664  -1.2258  -1.2063  -1.1873  -1.1761
    -1.1522  -1.1335  -1.1320  -1.1098  -1.0970  -1.0779  -1.0598  -1.0323
    -0.9929  -0.9882  -0.9683  -0.9458  -0.9358  -0.8949  -0.8862  -0.8763
    -0.8572  -0.8477  -0.8293  -0.8144  -0.7841  -0.7758  -0.7493  -0.5930
    -0.5858  -0.5716  -0.5665  -0.5563  -0.5502  -0.5340  -0.5292  -0.4906
    -0.4843  -0.4724  -0.4665  -0.4453  -0.4039  -0.3497  -0.3392  -0.3341
    -0.3168  -0.3074  -0.2908  -0.2553  -0.2489  -0.2392  -0.2308  -0.2240
    -0.2136  -0.2041  -0.1388  -0.1339  -0.1196  -0.1128  -0.0871  -0.0610
     0.1377   0.2604   0.5467   0.7384   1.0291   1.1777   1.2153   1.5706
     1.6766   1.7105

          k = 0.4000-0.4619 0.0000 ( 51262 PWs)   bands (ev):

   -22.0295  -9.0576  -6.7882  -6.6765  -6.2092  -6.0107  -5.8295  -5.4451
    -5.2469  -5.1965  -5.0046  -4.7027  -4.4733  -4.2361  -4.1894  -4.0651
    -4.0581  -4.0455  -4.0255  -4.0199  -3.9738  -3.9514  -3.9458  -3.9423
    -3.9251  -3.8457  -3.7976  -3.7955  -3.7743  -3.7670  -3.7255  -3.6305
    -3.6117  -3.6058  -3.5839  -3.5567  -3.5072  -3.4521  -3.3663  -3.3172
    -3.3121  -3.2973  -3.2240  -3.2071  -3.1835  -3.1308  -3.1005  -3.0932
    -3.0489  -3.0246  -2.9990  -2.9354  -2.9138  -2.8842  -2.8659  -2.8256
    -2.8040  -2.7416  -2.7357  -2.7252  -2.7147  -2.7038  -2.6683  -2.6311
    -2.5754  -2.5199  -2.5115  -2.5021  -2.4832  -2.4385  -2.4333  -2.3764
    -2.3641  -2.3345  -2.3255  -2.3124  -2.3088  -2.2859  -2.2647  -2.2603
    -2.2414  -2.2324  -2.2126  -2.1909  -2.1836  -2.1441  -2.1096  -2.1067
    -2.0889  -2.0636  -2.0205  -1.9891  -1.9710  -1.9451  -1.9340  -1.9289
    -1.9089  -1.9030  -1.8952  -1.8847  -1.8678  -1.8475  -1.8430  -1.7831
    -1.7722  -1.7487  -1.7446  -1.7404  -1.7214  -1.7148  -1.7089  -1.6965
    -1.6912  -1.6833  -1.6612  -1.6456  -1.6054  -1.5842  -1.5756  -1.5396
    -1.5047  -1.4992  -1.4799  -1.4424  -1.4272  -1.4167  -1.4081  -1.3901
    -1.3437  -1.3414  -1.3178  -1.2655  -1.2248  -1.2076  -1.1822  -1.1753
    -1.1523  -1.1372  -1.1264  -1.1232  -1.0896  -1.0745  -1.0614  -1.0356
    -0.9952  -0.9894  -0.9676  -0.9490  -0.9324  -0.8970  -0.8835  -0.8686
    -0.8568  -0.8476  -0.8390  -0.8104  -0.7850  -0.7704  -0.7532  -0.6009
    -0.5828  -0.5691  -0.5631  -0.5556  -0.5428  -0.5381  -0.5266  -0.4899
    -0.4854  -0.4774  -0.4626  -0.4489  -0.4039  -0.3497  -0.3408  -0.3350
    -0.3102  -0.3063  -0.2989  -0.2782  -0.2511  -0.2376  -0.2300  -0.2163
    -0.2111  -0.1858  -0.1370  -0.1352  -0.1203  -0.1116  -0.0877  -0.0631
     0.1224   0.2550   0.5013   0.8468   0.9974   1.1770   1.2273   1.5308
     1.6510   1.7213

 ------ SPIN DOWN ----------


          k = 0.0000 0.0000 0.0000 ( 51087 PWs)   bands (ev):

   -22.1228  -9.1775  -7.8040  -6.6389  -5.8121  -5.6817  -5.3991  -5.1468
    -4.6439  -4.6310  -4.6284  -4.6128  -4.5999  -4.5684  -4.2501  -3.7625
    -3.7577  -3.7421  -3.7367  -3.7214  -3.6479  -3.3443  -2.8222  -2.8144
    -2.8023  -2.8003  -2.7175  -2.6034  -2.3596  -2.3498  -2.3415  -2.3380
    -2.3157  -2.2342  -2.1447  -2.1407  -2.0713  -2.0622  -2.0461  -2.0446
    -1.9611  -1.9575  -1.9108  -1.9070  -1.8490  -1.8250  -1.8071  -1.7971
    -1.7633  -1.7213  -1.5630  -1.5562  -1.5378  -1.5297  -1.5265  -1.5238
    -1.5089  -1.5079  -1.4779  -1.4624  -1.4377  -1.4355  -1.4310  -1.4301
    -1.3530  -1.2643  -0.9141  -0.8838  -0.8489  -0.8470  -0.7826  -0.7267
    -0.6541  -0.6143  -0.5478  -0.5425  -0.5301  -0.5231  -0.5117  -0.4934
    -0.4780  -0.4643  -0.4508  -0.4363  -0.4330  -0.4315  -0.4088  -0.3949
    -0.3736  -0.3297  -0.3221  -0.3046  -0.2973  -0.2878  -0.2743  -0.2724
    -0.2657  -0.2480  -0.2439  -0.2417  -0.2407  -0.2391  -0.2166  -0.1495
    -0.1328  -0.1229  -0.1126  -0.0664  -0.0384  -0.0285  -0.0157  -0.0120
    -0.0097  -0.0058  -0.0017   0.0643   0.0647   0.0699   0.1168   0.1371
     0.1463   0.1600   0.1658   0.2064   0.2557   0.3787   0.3844   0.4418
     0.4534   0.4560   0.4661   0.4724   0.6239   0.6733   0.7697   0.7873
     0.8154   0.8394   0.9988   1.0090   1.0190   1.0344   1.0373   1.0427
     1.0655   1.1661   1.1827   1.1969   1.2117   1.2145   1.2267   1.2495
     1.2524   1.2672   1.2787   1.2913   1.3088   1.3162   1.3236   1.3492
     1.3581   1.3631   1.3686   1.3870   1.4121   1.4206   1.4294   1.4406
     1.4471   1.4560   1.4707   1.4802   1.4829   1.4959   1.4984   1.5323
     1.5423   1.5594   1.5598   1.5686   1.5731   1.5790   1.5851   1.6231
     1.6297   1.6305   1.6330   1.6386   1.6396   1.6533   1.6564   1.6667
     1.6702   1.7163   1.7172   1.8563   1.8652   1.8686   1.8714   1.8740
     1.8752   2.0541

          k = 0.0000 0.2309 0.0000 ( 51134 PWs)   bands (ev):

   -22.1228  -9.1670  -7.6626  -6.5392  -5.8614  -5.7080  -5.5463  -5.3785
    -5.1484  -4.9895  -4.9172  -4.4690  -4.1335  -4.0818  -4.0597  -3.9629
    -3.8503  -3.7778  -3.4622  -3.4099  -3.3657  -3.2653  -2.9381  -2.8152
    -2.7713  -2.7257  -2.6840  -2.6196  -2.4464  -2.3780  -2.3736  -2.3586
    -2.3394  -2.2919  -2.2875  -2.2847  -2.2440  -2.2064  -2.1091  -2.1030
    -2.0211  -2.0168  -1.9487  -1.8780  -1.8362  -1.8251  -1.8097  -1.7063
    -1.6845  -1.6547  -1.6122  -1.5811  -1.5580  -1.5408  -1.5322  -1.5247
    -1.5157  -1.5039  -1.4163  -1.4050  -1.3896  -1.3707  -1.3344  -1.2888
    -1.2500  -1.1615  -0.9661  -0.9219  -0.8989  -0.8949  -0.8333  -0.7959
    -0.7370  -0.7110  -0.6867  -0.6502  -0.6062  -0.5803  -0.5651  -0.5525
    -0.5117  -0.5011  -0.4920  -0.4837  -0.4753  -0.4502  -0.4128  -0.3963
    -0.3775  -0.3220  -0.3204  -0.3087  -0.2897  -0.2748  -0.2564  -0.2499
    -0.2446  -0.2375  -0.2311  -0.2224  -0.2195  -0.2176  -0.1792  -0.1663
    -0.1531  -0.1380  -0.1228  -0.1130  -0.0872  -0.0778  -0.0606  -0.0362
    -0.0318  -0.0031   0.0172   0.0578   0.0917   0.0990   0.1278   0.1316
     0.2130   0.2548   0.2892   0.3430   0.3492   0.3563   0.4165   0.4247
     0.4314   0.4382   0.4451   0.4516   0.5820   0.7004   0.7679   0.7767
     0.7876   0.7955   0.8069   0.8192   0.8663   0.8821   0.9384   0.9567
     0.9951   1.0280   1.0564   1.0653   1.0902   1.1121   1.1344   1.1846
     1.2133   1.2313   1.2436   1.2461   1.2722   1.2794   1.3203   1.3286
     1.3465   1.3671   1.4133   1.4196   1.4351   1.4391   1.4642   1.4746
     1.5128   1.5197   1.5245   1.5288   1.5547   1.6087   1.6130   1.6230
     1.6262   1.6537   1.6559   1.6816   1.6909   1.6963   1.7050   1.7115
     1.7330   1.7716   1.7788   1.7912   1.7945   1.8043   1.8175   1.8341
     1.8572   1.8596   1.8630   1.9003   1.9555   1.9654   1.9678   2.0204
     2.0475   2.1073

          k = 0.0000 0.4619 0.0000 ( 51204 PWs)   bands (ev):

   -22.1228  -9.1507  -7.2421  -6.5843  -6.2494  -5.8184  -5.6533  -5.3976
    -5.2718  -5.1614  -5.1043  -4.8006  -4.1152  -4.0292  -3.8609  -3.4645
    -3.4624  -3.4022  -3.3374  -3.1685  -3.0630  -3.0210  -2.9932  -2.8633
    -2.8596  -2.8008  -2.7507  -2.6993  -2.6455  -2.6226  -2.6084  -2.5604
    -2.5437  -2.4082  -2.3363  -2.3236  -2.2565  -2.2306  -2.1370  -2.1236
    -2.1091  -2.0992  -2.0304  -1.8528  -1.8265  -1.8001  -1.7810  -1.7299
    -1.6084  -1.6026  -1.5895  -1.5794  -1.5625  -1.5420  -1.5337  -1.5126
    -1.4851  -1.4245  -1.4117  -1.3975  -1.3733  -1.3600  -1.2179  -1.1833
    -1.0795  -1.0500  -0.9501  -0.9268  -0.9073  -0.8753  -0.8659  -0.8538
    -0.8374  -0.8171  -0.7906  -0.7804  -0.7142  -0.6964  -0.6722  -0.6463
    -0.6243  -0.6035  -0.5839  -0.5764  -0.5430  -0.5068  -0.4644  -0.4244
    -0.4024  -0.3727  -0.3544  -0.3477  -0.3035  -0.2829  -0.2647  -0.2326
    -0.2167  -0.2035  -0.1907  -0.1828  -0.1727  -0.1681  -0.1209  -0.1097
    -0.1079  -0.0813  -0.0724  -0.0656  -0.0565  -0.0406  -0.0294  -0.0045
     0.0038   0.0155   0.0521   0.0927   0.1435   0.1467   0.1660   0.1987
     0.2069   0.2156   0.2437   0.2622   0.3096   0.3166   0.3290   0.3517
     0.3808   0.3997   0.4103   0.4207   0.4570   0.5157   0.5802   0.5899
     0.6624   0.6779   0.7569   0.7753   0.8287   0.8470   0.8700   0.8812
     0.9038   0.9136   0.9377   0.9849   0.9866   1.0438   1.1658   1.1779
     1.1838   1.2191   1.2311   1.2365   1.2812   1.2995   1.3368   1.3385
     1.3682   1.3829   1.3964   1.4633   1.4744   1.4818   1.5356   1.5398
     1.5458   1.5494   1.5740   1.5862   1.6099   1.6242   1.6360   1.6583
     1.6658   1.7058   1.7295   1.7720   1.7830   1.7968   1.8071   1.8182
     1.8257   1.8588   1.8613   1.8753   1.8869   1.8968   1.9062   1.9080
     1.9538   2.0126   2.0444   2.1080   2.1170   2.1941   2.5455   2.6246
     2.6514   2.7049

          k = 0.2000-0.1155 0.0000 ( 51134 PWs)   bands (ev):

   -22.1228  -9.1652  -7.6641  -6.5414  -5.8992  -5.6945  -5.5267  -5.3752
    -5.1317  -4.9950  -4.9318  -4.4172  -4.2083  -4.0769  -4.0647  -3.9295
    -3.8498  -3.7806  -3.4770  -3.3972  -3.3357  -3.2679  -2.9774  -2.7895
    -2.7835  -2.7401  -2.6822  -2.5997  -2.4596  -2.3752  -2.3737  -2.3633
    -2.3308  -2.3040  -2.2889  -2.2861  -2.2409  -2.1980  -2.1070  -2.1025
    -2.0223  -2.0165  -1.9663  -1.8526  -1.8346  -1.8253  -1.8071  -1.7117
    -1.6793  -1.6532  -1.6163  -1.5746  -1.5619  -1.5390  -1.5310  -1.5292
    -1.5098  -1.5000  -1.4208  -1.4041  -1.3865  -1.3680  -1.3381  -1.2986
    -1.2405  -1.1701  -0.9622  -0.9156  -0.9047  -0.8928  -0.8344  -0.7878
    -0.7626  -0.7220  -0.6850  -0.6510  -0.6088  -0.5821  -0.5591  -0.5480
    -0.5149  -0.5055  -0.4883  -0.4771  -0.4659  -0.4605  -0.4224  -0.4040
    -0.3627  -0.3278  -0.3212  -0.3177  -0.3012  -0.2683  -0.2617  -0.2512
    -0.2432  -0.2355  -0.2289  -0.2231  -0.2181  -0.2147  -0.1819  -0.1669
    -0.1431  -0.1391  -0.1187  -0.1108  -0.1037  -0.0843  -0.0656  -0.0375
    -0.0242  -0.0124   0.0275   0.0663   0.0890   0.1044   0.1143   0.1327
     0.2319   0.2587   0.2963   0.3411   0.3495   0.3679   0.4046   0.4269
     0.4322   0.4409   0.4474   0.4518   0.5882   0.7016   0.7679   0.7777
     0.7873   0.7981   0.8097   0.8259   0.8643   0.8708   0.9417   0.9660
     0.9946   1.0387   1.0645   1.0765   1.0991   1.1136   1.1313   1.1419
     1.2096   1.2341   1.2475   1.2536   1.2706   1.2825   1.3184   1.3278
     1.3415   1.3586   1.4072   1.4206   1.4321   1.4417   1.4605   1.4984
     1.5150   1.5198   1.5258   1.5301   1.5494   1.5999   1.6106   1.6175
     1.6229   1.6483   1.6577   1.6845   1.6940   1.6973   1.7053   1.7169
     1.7318   1.7748   1.7785   1.7940   1.7963   1.8054   1.8137   1.8354
     1.8490   1.8589   1.8627   1.8839   1.9572   1.9636   1.9704   2.0268
     2.0436   2.1029

          k = 0.2000 0.1155 0.0000 ( 51134 PWs)   bands (ev):

   -22.1228  -9.1645  -7.6649  -6.5434  -5.9239  -5.6761  -5.4966  -5.3986
    -5.1174  -4.9931  -4.9532  -4.3707  -4.2236  -4.0827  -4.0639  -3.9700
    -3.8330  -3.7791  -3.4779  -3.4099  -3.3167  -3.2521  -2.9843  -2.8226
    -2.7727  -2.7277  -2.6982  -2.5785  -2.4656  -2.3788  -2.3720  -2.3582
    -2.3367  -2.3057  -2.2897  -2.2866  -2.2499  -2.1833  -2.1051  -2.1027
    -2.0203  -2.0173  -1.9692  -1.8663  -1.8287  -1.8221  -1.7966  -1.7050
    -1.6883  -1.6625  -1.6031  -1.5909  -1.5543  -1.5431  -1.5298  -1.5216
    -1.5208  -1.4769  -1.4397  -1.4004  -1.3872  -1.3677  -1.3389  -1.2980
    -1.2416  -1.1708  -0.9609  -0.9181  -0.9037  -0.8909  -0.8314  -0.8198
    -0.7785  -0.6990  -0.6702  -0.6456  -0.6192  -0.5786  -0.5679  -0.5375
    -0.5199  -0.5099  -0.4865  -0.4743  -0.4709  -0.4513  -0.4428  -0.3833
    -0.3562  -0.3240  -0.3195  -0.3148  -0.3038  -0.2692  -0.2573  -0.2516
    -0.2453  -0.2361  -0.2275  -0.2216  -0.2191  -0.2155  -0.1838  -0.1670
    -0.1512  -0.1374  -0.1206  -0.1111  -0.1083  -0.0883  -0.0579  -0.0441
    -0.0231   0.0008   0.0336   0.0620   0.0875   0.1041   0.1201   0.1324
     0.1996   0.2680   0.2945   0.3364   0.3475   0.3782   0.4063   0.4229
     0.4340   0.4424   0.4467   0.4525   0.6059   0.6900   0.7660   0.7808
     0.7902   0.8024   0.8084   0.8222   0.8527   0.8813   0.9460   0.9611
     0.9886   1.0460   1.0640   1.0776   1.0989   1.1216   1.1312   1.1451
     1.2036   1.2300   1.2468   1.2575   1.2738   1.2831   1.3134   1.3265
     1.3389   1.3629   1.4112   1.4179   1.4333   1.4406   1.4584   1.4982
     1.5143   1.5211   1.5267   1.5375   1.5429   1.5932   1.6090   1.6168
     1.6256   1.6507   1.6552   1.6838   1.6920   1.7008   1.7037   1.7170
     1.7336   1.7760   1.7786   1.7926   1.7972   1.8052   1.8186   1.8345
     1.8479   1.8573   1.8632   1.8763   1.9563   1.9636   1.9736   2.0235
     2.0479   2.0986

          k = 0.2000 0.3464 0.0000 ( 51202 PWs)   bands (ev):

   -22.1228  -9.1512  -7.3844  -6.3956  -6.1068  -6.0059  -5.7002  -5.5329
    -5.3775  -5.1046  -4.6721  -4.5136  -4.2707  -4.2487  -3.9231  -3.4441
    -3.4308  -3.4262  -3.4161  -3.2906  -3.1644  -3.1316  -3.1072  -2.9125
    -2.7619  -2.6890  -2.6771  -2.6539  -2.5863  -2.5705  -2.5625  -2.4792
    -2.4719  -2.4646  -2.4299  -2.3186  -2.3045  -2.2515  -2.0969  -2.0887
    -2.0662  -2.0020  -1.9642  -1.9502  -1.9142  -1.7985  -1.7421  -1.7383
    -1.6390  -1.6099  -1.5705  -1.5681  -1.5567  -1.5466  -1.5242  -1.5085
    -1.4984  -1.4820  -1.4266  -1.3798  -1.3509  -1.3023  -1.1978  -1.1690
    -1.1079  -1.0813  -0.9928  -0.9351  -0.8978  -0.8700  -0.8409  -0.8253
    -0.8101  -0.7788  -0.7477  -0.7254  -0.7087  -0.6828  -0.6599  -0.6495
    -0.6391  -0.6222  -0.6021  -0.5716  -0.5412  -0.4524  -0.4375  -0.4228
    -0.4117  -0.3825  -0.3525  -0.3340  -0.3189  -0.3020  -0.2896  -0.2819
    -0.2660  -0.2449  -0.2310  -0.2167  -0.1989  -0.1842  -0.1688  -0.1348
    -0.1187  -0.1142  -0.1063  -0.0904  -0.0729  -0.0675  -0.0537  -0.0447
     0.0408   0.0456   0.0511   0.0714   0.1296   0.1676   0.2029   0.2224
     0.2460   0.2615   0.2979   0.3200   0.3477   0.3568   0.3715   0.3799
     0.3854   0.4143   0.4293   0.4741   0.5181   0.6001   0.6730   0.6953
     0.7420   0.7709   0.7972   0.8253   0.8416   0.8470   0.8615   0.8819
     0.8945   0.9023   0.9255   0.9389   0.9785   1.0263   1.0822   1.0904
     1.1152   1.1453   1.1483   1.1773   1.1997   1.2482   1.2647   1.3120
     1.3304   1.3739   1.4609   1.4870   1.5024   1.5140   1.5308   1.5406
     1.5651   1.5738   1.5898   1.5958   1.6560   1.6638   1.6757   1.6810
     1.6938   1.7188   1.7335   1.7440   1.7558   1.7707   1.7751   1.7982
     1.8157   1.8170   1.8279   1.8428   1.8511   1.8630   1.9057   1.9341
     1.9435   1.9894   2.0470   2.0741   2.1781   2.2106   2.3474   2.4642
     2.5278   2.5459

          k = 0.2000-0.5774 0.0000 ( 51262 PWs)   bands (ev):

   -22.1228  -9.1438  -6.8681  -6.8048  -6.2538  -6.0863  -5.7476  -5.5789
    -5.3020  -5.2468  -4.8915  -4.5720  -4.3108  -3.7862  -3.4853  -3.4622
    -3.4580  -3.3831  -3.2124  -3.1384  -3.0522  -3.0423  -3.0368  -2.9086
    -2.9061  -2.8914  -2.8685  -2.8669  -2.7463  -2.6257  -2.5246  -2.5150
    -2.4941  -2.4644  -2.4405  -2.4243  -2.3684  -2.3148  -2.2446  -2.0423
    -1.9800  -1.9698  -1.9627  -1.9174  -1.8814  -1.7986  -1.7359  -1.7242
    -1.6867  -1.6744  -1.6650  -1.5632  -1.5462  -1.5087  -1.4997  -1.4794
    -1.4450  -1.3912  -1.3420  -1.3328  -1.2900  -1.2698  -1.2456  -1.1453
    -1.0977  -0.9944  -0.9577  -0.9481  -0.9329  -0.8762  -0.8719  -0.8261
    -0.8150  -0.8002  -0.7717  -0.7494  -0.7307  -0.6913  -0.6747  -0.6718
    -0.6423  -0.6307  -0.6099  -0.5942  -0.5913  -0.5764  -0.5410  -0.5220
    -0.5113  -0.4738  -0.4470  -0.4298  -0.3736  -0.3570  -0.3341  -0.2866
    -0.2533  -0.2320  -0.2179  -0.2006  -0.1856  -0.1714  -0.1637  -0.1367
    -0.1022  -0.0838  -0.0617  -0.0452  -0.0162  -0.0127   0.0338   0.0732
     0.0957   0.1123   0.1267   0.1297   0.1498   0.1719   0.2268   0.2367
     0.2482   0.2634   0.2962   0.3084   0.3184   0.3417   0.3764   0.4014
     0.4102   0.4286   0.4416   0.4690   0.4774   0.4974   0.5185   0.5540
     0.5992   0.6633   0.7094   0.7636   0.7876   0.8117   0.8147   0.8291
     0.8559   0.8729   0.8861   0.9278   1.0078   1.0192   1.0340   1.0720
     1.0906   1.0986   1.1495   1.1775   1.1925   1.2066   1.2544   1.3093
     1.3563   1.3955   1.4470   1.4557   1.5265   1.5442   1.5784   1.5857
     1.5920   1.6046   1.6140   1.6326   1.6610   1.6755   1.6839   1.6956
     1.7227   1.7581   1.7635   1.7763   1.7855   1.7894   1.7927   1.7990
     1.8156   1.8446   1.8584   1.8882   1.8945   1.9089   1.9168   1.9358
     1.9984   2.0728   2.2068   2.3314   2.5135   2.6431   2.7116   2.7774
     2.7945   2.8486

          k = 0.2000-0.3464 0.0000 ( 51202 PWs)   bands (ev):

   -22.1228  -9.1522  -7.3819  -6.3953  -6.0783  -6.0182  -5.6906  -5.5755
    -5.3710  -5.0972  -4.6351  -4.5769  -4.2597  -4.2444  -3.9193  -3.4379
    -3.4343  -3.4273  -3.4103  -3.3025  -3.1582  -3.1392  -3.1035  -2.9043
    -2.7615  -2.6948  -2.6790  -2.6328  -2.5996  -2.5696  -2.5586  -2.4802
    -2.4746  -2.4655  -2.4275  -2.3230  -2.2979  -2.2531  -2.1035  -2.0889
    -2.0620  -2.0049  -1.9559  -1.9467  -1.9149  -1.7973  -1.7424  -1.7267
    -1.6758  -1.5971  -1.5733  -1.5674  -1.5510  -1.5478  -1.5324  -1.5114
    -1.4954  -1.4810  -1.4284  -1.3881  -1.3456  -1.2920  -1.2005  -1.1606
    -1.0993  -1.0865  -0.9911  -0.9203  -0.8982  -0.8694  -0.8392  -0.8245
    -0.8021  -0.7833  -0.7424  -0.7166  -0.7091  -0.6961  -0.6661  -0.6479
    -0.6404  -0.6319  -0.6087  -0.5890  -0.5088  -0.4660  -0.4339  -0.4226
[...]
     atom    8 type  1   force =     0.00459635   -0.00176582   -0.10073222
     atom    9 type  1   force =    -0.00057475   -0.00214107   -0.10475427
     atom   10 type  1   force =    -0.00059065    0.00147832   -0.01215535
     atom   11 type  1   force =     0.00056721    0.00070918   -0.00742894
     atom   12 type  1   force =     0.00035542    0.00054914   -0.00999616
     atom   13 type  1   force =     0.00202674   -0.00153604   -0.01202168
     atom   14 type  1   force =    -0.00177148   -0.00066538   -0.01044840
     atom   15 type  1   force =    -0.00058816   -0.00068094   -0.01383782
     atom   16 type  1   force =    -0.00106946   -0.00034875   -0.01737129
     atom   17 type  1   force =     0.00234757   -0.00076930   -0.01112717
     atom   18 type  1   force =    -0.00168471    0.00202587   -0.01546579
     atom   19 type  1   force =     0.00143369    0.00715009    0.00847136
     atom   20 type  1   force =    -0.00379673    0.00913441    0.00033752
     atom   21 type  1   force =     0.00222332    0.00157287    0.01443396
     atom   22 type  1   force =     0.00117342   -0.00016737    0.02052360
     atom   23 type  1   force =    -0.00010351    0.00115135    0.00860830
     atom   24 type  1   force =    -0.00120725    0.00116086    0.01582090
     atom   25 type  1   force =    -0.00311967   -0.00497268   -0.00284846
     atom   26 type  1   force =     0.00090411   -0.00661900    0.00053631
     atom   27 type  1   force =     0.00282373   -0.00608798    0.00249538
     atom   28 type  1   force =     0.05750215   -0.00203613    0.07556445
     atom   29 type  1   force =    -0.05320869   -0.00047999    0.06672490
     atom   30 type  1   force =    -0.00069511    0.00503552    0.08252261
     atom   31 type  1   force =     0.00679166   -0.03730846    0.14401685
     atom   32 type  1   force =    -0.00139664   -0.00494645    0.08938588
     atom   33 type  1   force =    -0.00478047   -0.00099473    0.11362949
     atom   34 type  1   force =    -0.00117528   -0.00467768    0.11360919
     atom   35 type  1   force =     0.00388941    0.04533964    0.14241488
     atom   36 type  1   force =    -0.00189733    0.00395866    0.11460764
     atom   37 type  2   force =     0.01942400   -0.01212130    0.44681739
     atom   38 type  3   force =     0.00428836    0.00781561   -2.72190566
     atom   39 type  4   force =    -0.00003701   -0.00069694   -0.02165601
     The ionic contribution  to forces
     atom    1 type  1   force =    -0.00582220    0.00746158 -111.12398438
     atom    2 type  1   force =     0.00395006    0.00812804 -111.12769461
     atom    3 type  1   force =     0.00187212    0.00287848 -111.11613582
     atom    4 type  1   force =    -0.00035798    0.00273634 -111.11253673
     atom    5 type  1   force =    -0.00160923   -0.00294755 -111.11642196
     atom    6 type  1   force =     0.00196720   -0.00485916 -111.11568790
     atom    7 type  1   force =    -0.00593280   -0.00320440 -111.11957233
     atom    8 type  1   force =    -0.00147559   -0.00568019 -111.13448218
     atom    9 type  1   force =     0.00740840   -0.00451317 -111.12255311
     atom   10 type  1   force =    -0.05674838    0.00066971  -40.15397790
     atom   11 type  1   force =     0.04318731   -0.00485492  -40.17988842
     atom   12 type  1   force =     0.01355855   -0.00679525  -40.06848714
     atom   13 type  1   force =    -0.01043870    0.07014896  -40.09629639
     atom   14 type  1   force =     0.02522972    0.03078595  -40.06680043
     atom   15 type  1   force =    -0.01478995    0.02120394  -40.04509541
     atom   16 type  1   force =    -0.02637394   -0.01682506  -40.04264238
     atom   17 type  1   force =    -0.00195588   -0.06428027  -40.10015519
     atom   18 type  1   force =     0.02833049   -0.03005291  -40.04694199
     atom   19 type  1   force =    -0.30048218    0.38054319   31.24787549
     atom   20 type  1   force =     0.19081991    0.42810480   31.07076726
     atom   21 type  1   force =     0.10935076    0.13822031   31.59715269
     atom   22 type  1   force =    -0.01274057    0.12089343   31.77092496
     atom   23 type  1   force =    -0.07908674   -0.14353830   31.61875973
     atom   24 type  1   force =     0.09181452   -0.22433583   31.64822949
     atom   25 type  1   force =    -0.29641073   -0.14742018   31.47404738
     atom   26 type  1   force =    -0.06240265   -0.31904730   30.64644516
     atom   27 type  1   force =     0.35918758   -0.23711900   31.32235132
     atom   28 type  1   force =    -4.44786084    0.21183315   99.10394341
     atom   29 type  1   force =     3.25507063   -0.39589024   98.52339725
     atom   30 type  1   force =     1.08996787   -0.58015279  103.61691781
     atom   31 type  1   force =    -0.25186625    2.99574827  102.87387934
     atom   32 type  1   force =     0.76319286    1.71458455  103.64737548
     atom   33 type  1   force =    -0.50181158    0.66914373  104.31712309
     atom   34 type  1   force =    -0.85174956   -0.59439885  104.31498036
     atom   35 type  1   force =    -0.01263734   -3.08376604  102.57862594
     atom   36 type  1   force =     0.86891823   -0.91246354  104.28024287
     atom   37 type  2   force =    -0.15155684   -0.09630739   50.94041609
     atom   38 type  3   force =    -0.18017220   -0.08996605   89.32284213
     atom   39 type  4   force =     0.42045588    0.16533395   14.97305701
     The local contribution  to forces
     atom    1 type  1   force =     0.00530040   -0.00821630  111.22901975
     atom    2 type  1   force =    -0.00091750   -0.01056637  111.23617944
     atom    3 type  1   force =    -0.00420086   -0.00353058  111.21833152
     atom    4 type  1   force =    -0.00182108   -0.00229313  111.21749620
     atom    5 type  1   force =     0.00060731    0.00366061  111.22160480
     atom    6 type  1   force =     0.00073094    0.00216938  111.22277458
     atom    7 type  1   force =     0.00968533    0.00314944  111.22548570
     atom    8 type  1   force =    -0.00336750    0.00823820  111.23939126
     atom    9 type  1   force =    -0.00656804    0.00767141  111.23046020
     atom   10 type  1   force =     0.05611155   -0.00380865   40.14519431
     atom   11 type  1   force =    -0.04224936    0.00400143   40.16575581
     atom   12 type  1   force =    -0.01375794    0.00610623   40.05837966
     atom   13 type  1   force =     0.00767130   -0.06734388   40.09064699
     atom   14 type  1   force =    -0.02387490   -0.02918405   40.05671629
     atom   15 type  1   force =     0.01633900   -0.01924624   40.03704524
     atom   16 type  1   force =     0.02724066    0.01834799   40.03952366
     atom   17 type  1   force =    -0.00115189    0.06394067   40.09351080
     atom   18 type  1   force =    -0.02603940    0.02794461   40.04182382
     atom   19 type  1   force =     0.29988912   -0.38500480  -31.23931126
     atom   20 type  1   force =    -0.18914385   -0.43471934  -31.05665894
     atom   21 type  1   force =    -0.11044634   -0.14002654  -31.59065199
     atom   22 type  1   force =     0.01032136   -0.12237664  -31.76618450
     atom   23 type  1   force =     0.07831394    0.14134183  -31.60525248
     atom   24 type  1   force =    -0.08880026    0.22264745  -31.64307162
     atom   25 type  1   force =     0.29911801    0.15206894  -31.45655811
     atom   26 type  1   force =     0.06197157    0.32612026  -30.63001566
     atom   27 type  1   force =    -0.36270265    0.24088546  -31.31163954
     atom   28 type  1   force =     4.37215772   -0.21023162  -99.17743581
     atom   29 type  1   force =    -3.19881124    0.39194355  -98.57561300
     atom   30 type  1   force =    -1.07580299    0.56957943 -103.70611485
     atom   31 type  1   force =     0.24031247   -2.94649792 -103.02641142
     atom   32 type  1   force =    -0.75861730   -1.69509719 -103.74445921
     atom   33 type  1   force =     0.50824152   -0.66550811 -104.44046819
     atom   34 type  1   force =     0.85166356    0.59845504 -104.43590602
     atom   35 type  1   force =     0.00824829    3.02932180 -102.72620015
     atom   36 type  1   force =    -0.86449610    0.90221961 -104.40351524
     atom   37 type  2   force =     0.13241854    0.10542366  -51.38343302
     atom   38 type  3   force =     0.17657775    0.08142252  -86.62178226
     atom   39 type  4   force =    -0.41897893   -0.16502616  -14.95290518
     The core correction contribution to forces
     atom    1 type  1   force =    -0.00014900   -0.00019054    0.00972472
     atom    2 type  1   force =     0.00005672   -0.00038544    0.00990582
     atom    3 type  1   force =     0.00011523    0.00001093    0.00985589
     atom    4 type  1   force =     0.00005636   -0.00002584    0.00997953
     atom    5 type  1   force =     0.00012729    0.00010391    0.01000499
     atom    6 type  1   force =    -0.00009020   -0.00007665    0.00980852
     atom    7 type  1   force =     0.00012445    0.00011163    0.01005988
     atom    8 type  1   force =    -0.00015636    0.00043289    0.00978135
     atom    9 type  1   force =    -0.00010851    0.00010616    0.01011727
     atom   10 type  1   force =     0.00012262    0.00000815   -0.00191846
     atom   11 type  1   force =     0.00004180    0.00018198   -0.00163966
     atom   12 type  1   force =    -0.00015198    0.00019293   -0.00175910
     atom   13 type  1   force =    -0.00040725    0.00015957   -0.00167919
     atom   14 type  1   force =     0.00018068   -0.00010575   -0.00199649
     atom   15 type  1   force =     0.00025895    0.00007262   -0.00166653
     atom   16 type  1   force =     0.00003010   -0.00001308   -0.00178821
     atom   17 type  1   force =    -0.00019223    0.00008784   -0.00200766
     atom   18 type  1   force =     0.00007059   -0.00037430   -0.00168442
     atom   19 type  1   force =    -0.00014902    0.00064422    0.00073342
     atom   20 type  1   force =    -0.00010216    0.00069155    0.00033832
     atom   21 type  1   force =     0.00041994    0.00009746    0.00191040
     atom   22 type  1   force =    -0.00015882    0.00014373    0.00210750
     atom   23 type  1   force =    -0.00029596    0.00062261    0.00138009
     atom   24 type  1   force =     0.00040768   -0.00044014    0.00138442
     atom   25 type  1   force =     0.00025545   -0.00042155    0.00139676
     atom   26 type  1   force =    -0.00105644   -0.00123888    0.00091670
     atom   27 type  1   force =     0.00058630   -0.00037631    0.00131670
     atom   28 type  1   force =     0.01146042   -0.00096262   -0.00505226
     atom   29 type  1   force =    -0.00208574    0.00564444   -0.00002574
     atom   30 type  1   force =    -0.00928793    0.00492958   -0.00593263
     atom   31 type  1   force =     0.00072159   -0.00639308   -0.00666987
     atom   32 type  1   force =    -0.00015191   -0.01088454   -0.00531696
     atom   33 type  1   force =    -0.00040379   -0.00182753   -0.00959125
     atom   34 type  1   force =     0.00087019    0.00118960   -0.00947820
     atom   35 type  1   force =    -0.00046129    0.00650166   -0.00679988
     atom   36 type  1   force =    -0.00063392    0.00261300   -0.00861900
     atom   37 type  2   force =    -0.00065822    0.00029152   -0.00165024
     atom   38 type  3   force =    -0.00004661   -0.00005832    0.01964862
     atom   39 type  4   force =     0.00000000    0.00000000    0.00000000
     The Hubbard contrib.    to forces
     atom    1 type  1   force =     0.00000000    0.00000000    0.00000000
     atom    2 type  1   force =     0.00000000    0.00000000    0.00000000
     atom    3 type  1   force =     0.00000000    0.00000000    0.00000000
     atom    4 type  1   force =     0.00000000    0.00000000    0.00000000
     atom    5 type  1   force =     0.00000000    0.00000000    0.00000000
     atom    6 type  1   force =     0.00000000    0.00000000    0.00000000
     atom    7 type  1   force =     0.00000000    0.00000000    0.00000000
     atom    8 type  1   force =     0.00000000    0.00000000    0.00000000
     atom    9 type  1   force =     0.00000000    0.00000000    0.00000000
     atom   10 type  1   force =     0.00000000    0.00000000    0.00000000
     atom   11 type  1   force =     0.00000000    0.00000000    0.00000000
     atom   12 type  1   force =     0.00000000    0.00000000    0.00000000
     atom   13 type  1   force =     0.00000000    0.00000000    0.00000000
     atom   14 type  1   force =     0.00000000    0.00000000    0.00000000
     atom   15 type  1   force =     0.00000000    0.00000000    0.00000000
     atom   16 type  1   force =     0.00000000    0.00000000    0.00000000
     atom   17 type  1   force =     0.00000000    0.00000000    0.00000000
     atom   18 type  1   force =     0.00000000    0.00000000    0.00000000
     atom   19 type  1   force =     0.00000000    0.00000000    0.00000000
     atom   20 type  1   force =     0.00000000    0.00000000    0.00000000
     atom   21 type  1   force =     0.00000000    0.00000000    0.00000000
     atom   22 type  1   force =     0.00000000    0.00000000    0.00000000
     atom   23 type  1   force =     0.00000000    0.00000000    0.00000000
     atom   24 type  1   force =     0.00000000    0.00000000    0.00000000
     atom   25 type  1   force =     0.00000000    0.00000000    0.00000000
     atom   26 type  1   force =     0.00000000    0.00000000    0.00000000
     atom   27 type  1   force =     0.00000000    0.00000000    0.00000000
     atom   28 type  1   force =     0.00000000    0.00000000    0.00000000
     atom   29 type  1   force =     0.00000000    0.00000000    0.00000000
     atom   30 type  1   force =     0.00000000    0.00000000    0.00000000
     atom   31 type  1   force =     0.00000000    0.00000000    0.00000000
     atom   32 type  1   force =     0.00000000    0.00000000    0.00000000
     atom   33 type  1   force =     0.00000000    0.00000000    0.00000000
     atom   34 type  1   force =     0.00000000    0.00000000    0.00000000
     atom   35 type  1   force =     0.00000000    0.00000000    0.00000000
     atom   36 type  1   force =     0.00000000    0.00000000    0.00000000
     atom   37 type  2   force =     0.00000000    0.00000000    0.00000000
     atom   38 type  3   force =     0.00000000    0.00000000    0.00000000
     atom   39 type  4   force =     0.00000000    0.00000000    0.00000000
     The SCF correction term to forces
     atom    1 type  1   force =    -0.00000000   -0.00000000    0.00000000
     atom    2 type  1   force =     0.00000000    0.00000000    0.00000000
     atom    3 type  1   force =    -0.00000000   -0.00000000    0.00000000
     atom    4 type  1   force =     0.00000000    0.00000000    0.00000000
     atom    5 type  1   force =    -0.00000000    0.00000000    0.00000000
     atom    6 type  1   force =     0.00000000    0.00000000    0.00000000
     atom    7 type  1   force =    -0.00000000    0.00000000    0.00000000
     atom    8 type  1   force =    -0.00000000    0.00000000    0.00000000
     atom    9 type  1   force =     0.00000000    0.00000000    0.00000000
     atom   10 type  1   force =     0.00000000   -0.00000000    0.00000000
     atom   11 type  1   force =    -0.00000000   -0.00000000    0.00000000
     atom   12 type  1   force =     0.00000000    0.00000000    0.00000000
     atom   13 type  1   force =     0.00000000   -0.00000000    0.00000000
     atom   14 type  1   force =     0.00000000    0.00000000    0.00000000
     atom   15 type  1   force =    -0.00000000   -0.00000000    0.00000000
     atom   16 type  1   force =     0.00000000    0.00000000    0.00000000
     atom   17 type  1   force =    -0.00000000    0.00000000    0.00000000
     atom   18 type  1   force =    -0.00000000   -0.00000000    0.00000000
     atom   19 type  1   force =     0.00000000   -0.00000000    0.00000000
     atom   20 type  1   force =    -0.00000000   -0.00000000    0.00000000
     atom   21 type  1   force =    -0.00000000    0.00000000    0.00000000
     atom   22 type  1   force =     0.00000000   -0.00000000    0.00000000
     atom   23 type  1   force =     0.00000000    0.00000000    0.00000000
     atom   24 type  1   force =    -0.00000000    0.00000000    0.00000000
     atom   25 type  1   force =     0.00000000    0.00000000    0.00000000
     atom   26 type  1   force =    -0.00000000    0.00000000    0.00000000
     atom   27 type  1   force =    -0.00000000    0.00000000    0.00000000
     atom   28 type  1   force =     0.00000000    0.00000000    0.00000000
     atom   29 type  1   force =     0.00000000    0.00000000    0.00000000
     atom   30 type  1   force =    -0.00000000    0.00000000    0.00000000
     atom   31 type  1   force =     0.00000000    0.00000000    0.00000000
     atom   32 type  1   force =    -0.00000000   -0.00000000    0.00000000
     atom   33 type  1   force =     0.00000000   -0.00000000    0.00000000
     atom   34 type  1   force =    -0.00000000   -0.00000000    0.00000000
     atom   35 type  1   force =     0.00000000    0.00000000    0.00000000
     atom   36 type  1   force =     0.00000000   -0.00000000    0.00000000
     atom   37 type  2   force =     0.00000917    0.00000687    0.00000473
     atom   38 type  3   force =     0.00000440    0.00000419    0.00001564
     atom   39 type  4   force =     0.00000009   -0.00000053    0.00000309

     Total force =     0.004368     Total SCF correction =     0.000021

     Writing all to output data dir ./pwscf.save/

     init_run     :     15.73s CPU     16.33s WALL (       1 calls)
     electrons    :    849.23s CPU    869.71s WALL (       1 calls)
     forces       :      3.37s CPU      3.47s WALL (       1 calls)

     Called by init_run:
     wfcinit      :      8.41s CPU      8.78s WALL (       1 calls)
     potinit      :      3.85s CPU      3.98s WALL (       1 calls)
     hinit0       :      3.21s CPU      3.29s WALL (       1 calls)

     Called by electrons:
     c_bands      :    698.85s CPU    713.72s WALL (      48 calls)
     sum_band     :    102.15s CPU    105.72s WALL (      48 calls)
     v_of_rho     :     11.26s CPU     11.87s WALL (      49 calls)
     newd         :      4.54s CPU      4.66s WALL (      49 calls)
     PAW_pot      :     13.58s CPU     14.12s WALL (      49 calls)
     mix_rho      :     19.68s CPU     20.34s WALL (      48 calls)
     vdW_kernel   :      1.09s CPU      1.10s WALL (       1 calls)

     Called by c_bands:
     init_us_2    :      8.24s CPU      8.62s WALL (    2548 calls)
     init_us_2:cp :      8.23s CPU      8.61s WALL (    2548 calls)
     cegterg      :    674.26s CPU    688.33s WALL (    1248 calls)

     Called by *egterg:
     cdiaghg      :    192.61s CPU    195.41s WALL (    4434 calls)
     h_psi        :    322.15s CPU    329.85s WALL (    4460 calls)
     s_psi        :     34.47s CPU     35.34s WALL (    4460 calls)
     g_psi        :      0.85s CPU      0.89s WALL (    3186 calls)

     Called by h_psi:
     h_psi:calbec :     49.54s CPU     51.00s WALL (    4460 calls)
     vloc_psi     :    235.11s CPU    240.21s WALL (    4460 calls)
     add_vuspsi   :     35.41s CPU     36.47s WALL (    4460 calls)

     General routines
     calbec       :     76.44s CPU     78.95s WALL (    5812 calls)
     fft          :     11.16s CPU     11.82s WALL (    4438 calls)
     ffts         :     10.81s CPU     11.22s WALL (   20067 calls)
     fftw         :    282.30s CPU    288.78s WALL ( 1299330 calls)
     interpolate  :      0.63s CPU      0.66s WALL (      98 calls)

     Parallel routines

     PWSCF        :  14m33.91s CPU  15m 0.32s WALL


   This run was terminated on:  14:20:23   9Dec2025            

=------------------------------------------------------------------------------=
   JOB DONE.
=------------------------------------------------------------------------------=
