
     Program PWSCF v.7.1 starts on 27Jan2025 at 22:15: 4 
        Git branch: heads/qe-7.1
        Last git commit: 48ba0178f8fede6d020eb786884699a9f063f55d-dirty
        Last git commit date: Fri Jan 27 14:22:33 2023 +0000
        Last git commit subject: Merge branch 'fix_hubbard' into 'develop'

     This program is part of the open-source Quantum ESPRESSO suite
     for quantum simulation of materials; please cite
         "P. Giannozzi et al., J. Phys.:Condens. Matter 21 395502 (2009);
         "P. Giannozzi et al., J. Phys.:Condens. Matter 29 465901 (2017);
         "P. Giannozzi et al., J. Chem. Phys. 152 154105 (2020);
          URL http://www.quantum-espresso.org", 
     in publications or presentations arising from this work. More details at
     http://www.quantum-espresso.org/quote

     Parallel version (MPI), running on    48 processors

     MPI processes distributed on     1 nodes
     337813 MiB available memory on the printing compute node when the environment starts

     Reading input from espresso.pwi
Warning: card &CELL ignored
Warning: card / ignored
Warning: card &FCP ignored
Warning: card / ignored
Warning: card &RISM ignored
Warning: card / ignored

     Current dimensions of program PWSCF are:
     Max number of different atomic species (ntypx) = 10
     Max number of k-points (npk) =  40000
     Max angular momentum in pseudopotentials (lmaxx) =  4
     file Pt.pbe-n-kjpaw_psl.1.0.0.UPF: wavefunction(s)  6S 5D renormalized
     file H.pbe-kjpaw_psl.1.0.0.UPF: wavefunction(s)  1S renormalized

     **************************************************************************
     Initializing libbeef V0.1.2 with the BEEF-vdW functional.
     Citation: Wellendorff et al., PRB 85, 235149 (2012).
     **************************************************************************


     IMPORTANT: XC functional enforced from input :
     Exchange-correlation= BEEF-VDW
                           (   1   4  43  14   2   0   0)
     Any further DFT definition will be discarded
     Please, verify this is what you really want


     R & G space division:  proc/nbgrp/npool/nimage =      48
     Subspace diagonalization in iterative solution of the eigenvalue problem:
     one sub-group per band group will be used
     custom distributed-memory algorithm (size of sub-group:  2*  2 procs)


     Parallelization info
     --------------------
     sticks:   dense  smooth     PW     G-vecs:    dense   smooth      PW
     Min         150      59     16                30552     7447    1068
     Max         151      60     17                30571     7456    1081
     Sum        7243    2839    769              1467143   357639   51591

     Using Slab Decomposition



     bravais-lattice index     =            0
     lattice parameter (alat)  =      16.0028  a.u.
     unit-cell volume          =   10463.1828 (a.u.)^3
     number of atoms/cell      =           37
     number of atomic types    =            2
     number of electrons       =       361.00
     number of Kohn-Sham states=          217
     kinetic-energy cutoff     =      40.0000  Ry
     charge density cutoff     =     410.0000  Ry
     scf convergence threshold =      1.0E-06
     mixing beta               =       0.7000
     number of iterations used =            8  local-TF  mixing
     Exchange-correlation= BEEF-VDW
                           (   1   4  43  14   2   0   0)

     celldm(1)=  16.002787  celldm(2)=   0.000000  celldm(3)=   0.000000
     celldm(4)=   0.000000  celldm(5)=   0.000000  celldm(6)=   0.000000

     crystal axes: (cart. coord. in units of alat)
               a(1) = (   1.000000   0.000000   0.000000 )  
               a(2) = (   0.500000   0.866025   0.000000 )  
               a(3) = (   0.000000   0.000000   2.948128 )  

     reciprocal axes: (cart. coord. in units 2 pi/alat)
               b(1) = (  1.000000 -0.577350  0.000000 )  
               b(2) = (  0.000000  1.154701  0.000000 )  
               b(3) = (  0.000000  0.000000  0.339198 )  


     PseudoPot. # 1 for Pt read from file:
     /users/kbadger1/espresso/pseudo/pslibrary.1.0.0/pbe/PSEUDOPOTENTIALS/Pt.pbe-n-kjpaw_psl.1.0.0.UPF
     MD5 check sum: 2e24a0b5bf98a4ed1a57fa81bca8c143
     Pseudo is Projector augmented-wave + core cor, Zval = 10.0
     Generated using 'atomic' code by A. Dal Corso  v.7.0
     Shape of augmentation charge: PSQ
     Using radial grid of 1277 points,  6 beta functions with: 
                l(1) =   0
                l(2) =   0
                l(3) =   1
                l(4) =   1
                l(5) =   2
                l(6) =   2
     Q(r) pseudized with 0 coefficients 


     PseudoPot. # 2 for H  read from file:
     /users/kbadger1/espresso/pseudo/pslibrary.1.0.0/pbe/PSEUDOPOTENTIALS/H.pbe-kjpaw_psl.1.0.0.UPF
     MD5 check sum: fe4c6fa958fa6d3815bf5d2419cbf1df
     Pseudo is Projector augmented-wave, Zval =  1.0
     Generated using 'atomic' code by A. Dal Corso  v.7.0
     Shape of augmentation charge: PSQ
     Using radial grid of  929 points,  2 beta functions with: 
                l(1) =   0
                l(2) =   0
     Q(r) pseudized with 0 coefficients 


     atomic species   valence    mass     pseudopotential
        Pt            10.00   195.08400     Pt( 1.00)
        H              1.00     1.00800     H ( 1.00)

     No symmetry found



   Cartesian axes

     site n.     atom                  positions (alat units)
         1           Pt  tau(   1) = (   0.0000000   0.0000000   1.0037422  )
         2           Pt  tau(   2) = (   0.3340014   0.0000000   1.0037422  )
         3           Pt  tau(   3) = (   0.6680027   0.0000000   1.0037422  )
         4           Pt  tau(   4) = (   0.1670007   0.2892537   1.0037422  )
         5           Pt  tau(   5) = (   0.5010021   0.2892537   1.0037422  )
         6           Pt  tau(   6) = (   0.8350034   0.2892537   1.0037422  )
         7           Pt  tau(   7) = (   0.3340014   0.5785073   1.0037422  )
         8           Pt  tau(   8) = (   0.6680027   0.5785073   1.0037422  )
         9           Pt  tau(   9) = (   1.0020041   0.5785073   1.0037422  )
        10           Pt  tau(  10) = (   0.1670007   0.0964179   1.2764532  )
        11           Pt  tau(  11) = (   0.5010021   0.0964179   1.2764532  )
        12           Pt  tau(  12) = (   0.8350034   0.0964179   1.2764532  )
        13           Pt  tau(  13) = (   0.3340014   0.3856716   1.2764532  )
        14           Pt  tau(  14) = (   0.6680027   0.3856716   1.2764532  )
        15           Pt  tau(  15) = (   1.0020041   0.3856716   1.2764532  )
        16           Pt  tau(  16) = (   0.5010021   0.6749252   1.2764532  )
        17           Pt  tau(  17) = (   0.8350034   0.6749252   1.2764532  )
        18           Pt  tau(  18) = (   1.1690048   0.6749252   1.2764532  )
        19           Pt  tau(  19) = (   0.0021724   0.1935703   1.5479269  )
        20           Pt  tau(  20) = (   0.3342621   0.1930343   1.5490292  )
        21           Pt  tau(  21) = (   0.6683379   0.1932048   1.5458311  )
        22           Pt  tau(  22) = (   0.1679773   0.4807310   1.5484137  )
        23           Pt  tau(  23) = (   0.5014508   0.4822594   1.5458245  )
        24           Pt  tau(  24) = (   0.8350043   0.4821311   1.5460253  )
        25           Pt  tau(  25) = (   0.3344984   0.7705128   1.5462817  )
        26           Pt  tau(  26) = (   0.6686797   0.7711798   1.5479297  )
        27           Pt  tau(  27) = (   1.0002748   0.7711887   1.5484164  )
        28           Pt  tau(  28) = (  -0.0018136  -0.0009579   1.8215833  )
        29           Pt  tau(  29) = (   0.3377476  -0.0002341   1.8309031  )
        30           Pt  tau(  30) = (   0.6688017   0.0013552   1.8221224  )
        31           Pt  tau(  31) = (   0.1685944   0.2927415   1.8309044  )
        32           Pt  tau(  32) = (   0.5052693   0.2918132   1.8209637  )
        33           Pt  tau(  33) = (   0.8350701   0.2901752   1.8216608  )
        34           Pt  tau(  34) = (   0.3355030   0.5786560   1.8221118  )
        35           Pt  tau(  35) = (   0.6687546   0.5782269   1.8216522  )
        36           Pt  tau(  36) = (   1.0019518   0.5785543   1.8221604  )
        37           H   tau(  37) = (   0.2305394   0.1331791   1.9495791  )

     number of k points=    13  Marzari-Vanderbilt smearing, width (Ry)=  0.0200
                       cart. coord. in units 2pi/alat
        k(    1) = (   0.0000000   0.0000000   0.0000000), wk =   0.0800000
        k(    2) = (   0.0000000   0.2309401   0.0000000), wk =   0.1600000
        k(    3) = (   0.0000000   0.4618802   0.0000000), wk =   0.1600000
        k(    4) = (   0.2000000  -0.1154701   0.0000000), wk =   0.1600000
        k(    5) = (   0.2000000   0.1154701   0.0000000), wk =   0.1600000
        k(    6) = (   0.2000000   0.3464102   0.0000000), wk =   0.1600000
        k(    7) = (   0.2000000  -0.5773503   0.0000000), wk =   0.1600000
        k(    8) = (   0.2000000  -0.3464102   0.0000000), wk =   0.1600000
        k(    9) = (   0.4000000  -0.2309401   0.0000000), wk =   0.1600000
        k(   10) = (   0.4000000   0.0000000   0.0000000), wk =   0.1600000
        k(   11) = (   0.4000000   0.2309401   0.0000000), wk =   0.1600000
        k(   12) = (   0.4000000  -0.6928203   0.0000000), wk =   0.1600000
        k(   13) = (   0.4000000  -0.4618802   0.0000000), wk =   0.1600000

     Dense  grid:  1467143 G-vectors     FFT dimensions: ( 108, 108, 320)

     Smooth grid:   357639 G-vectors     FFT dimensions: (  72,  72, 192)

     Estimated max dynamical RAM per process >     211.30 MB

     Estimated total dynamical RAM >       9.90 GB

     Initial potential from superposition of free atoms

     starting charge     360.9939, renormalised to     361.0000

     negative rho (up, down):  3.561E-03 0.000E+00


     %%%%%%%%%%%%%%%%%%%%%%%%%%%%%%%%%%%%%%%%%%%%%%%%%%%%%%%%%%%%%%%%%%%%%%%%
     %                                                                      %
     % You are using vdW-DF, which was implemented by the Thonhauser group. %
     % Please cite the following two papers that made this development      %
     % possible and the two reviews that describe the various versions:     %
     %                                                                      %
     %   T. Thonhauser et al., PRL 115, 136402 (2015).                      %
     %   T. Thonhauser et al., PRB 76, 125112 (2007).                       %
     %   K. Berland et al., Rep. Prog. Phys. 78, 066501 (2015).             %
     %   D.C. Langreth et al., J. Phys.: Condens. Matter 21, 084203 (2009). %
     %                                                                      %
     % If you are calculating stress with vdW-DF, please also cite:         %
     %                                                                      %
     %   R. Sabatini et al., J. Phys.: Condens. Matter 24, 424209 (2012).   %
     %                                                                      %
     %%%%%%%%%%%%%%%%%%%%%%%%%%%%%%%%%%%%%%%%%%%%%%%%%%%%%%%%%%%%%%%%%%%%%%%%

     %%%%%%%%%%%%%%%%%%%%%%%%%%%%%%%%%%%%%%%%%%%%%%%%%%%%%%%%%%%%%%%%%%%%%%%%
     %                                                                      %
     %  vdW-DF NEWS:                                                        %
     %                                                                      %
     %  * vdW-DF3 is now available. DOI: 10.1021/acs.jctc.0c00471           %
     %    use with input_dft = 'vdW-DF3-opt1' or 'vdW-DF3-opt2'             %
     %                                                                      %
     %  * Unscreened and range-separated hybrid vdW-DF-cx functionals       %
     %    DOI: 10.1063/1.4986522 and 10.1088/1361-648X/ac2ad2               %
     %    use with input_dft = 'vdW-DF-cx0'    and 'vdW-DF-ahcx'            %
     %  * Unscreened and range-separated hybrid vdW-DF2-b86r functionals    %
     %    DOI: 10.1063/1.4986522 and DOI: 10.1103/PhysRevX.12.041003        %
     %    use with input_dft = 'vdW-DF2-br0' and 'vdW-DF2-ahbr'             %
     %                                                                      %
     %%%%%%%%%%%%%%%%%%%%%%%%%%%%%%%%%%%%%%%%%%%%%%%%%%%%%%%%%%%%%%%%%%%%%%%%


     Starting wfcs are  325 randomized atomic wfcs
     Checking if some PAW data can be deallocated... 

     total cpu time spent up to now is       10.7 secs

     per-process dynamical memory:   208.7 Mb

     Self-consistent Calculation

     iteration #  1     ecut=    40.00 Ry     beta= 0.70
     Davidson diagonalization with overlap
     ethr =  1.00E-02,  avg # of iterations =  2.0

     Threshold (ethr) on eigenvalues was too large:
     Diagonalizing with lowered threshold

     Davidson diagonalization with overlap
     ethr =  3.74E-04,  avg # of iterations =  3.8

     negative rho (up, down):  1.798E-02 0.000E+00

     total cpu time spent up to now is       41.4 secs

     total energy              =  -27755.29364839 Ry
     estimated scf accuracy    <       1.55417466 Ry

     iteration #  2     ecut=    40.00 Ry     beta= 0.70
     Davidson diagonalization with overlap
     ethr =  4.31E-04,  avg # of iterations =  2.0

     negative rho (up, down):  1.625E-02 0.000E+00

     total cpu time spent up to now is       53.6 secs

     total energy              =  -27755.39184475 Ry
     estimated scf accuracy    <       0.77375475 Ry

     iteration #  3     ecut=    40.00 Ry     beta= 0.70
     Davidson diagonalization with overlap
     ethr =  2.14E-04,  avg # of iterations =  2.0

     negative rho (up, down):  1.100E-02 0.000E+00

     total cpu time spent up to now is       66.3 secs

     total energy              =  -27755.44430473 Ry
     estimated scf accuracy    <       0.09147983 Ry

     iteration #  4     ecut=    40.00 Ry     beta= 0.70
     Davidson diagonalization with overlap
     c_bands:  2 eigenvalues not converged
     c_bands:  1 eigenvalues not converged
     c_bands:  1 eigenvalues not converged
     ethr =  2.53E-05,  avg # of iterations = 15.2

     negative rho (up, down):  8.132E-03 0.000E+00

     total cpu time spent up to now is       98.3 secs

     total energy              =  -27755.49228351 Ry
     estimated scf accuracy    <       0.07343630 Ry

     iteration #  5     ecut=    40.00 Ry     beta= 0.70
     Davidson diagonalization with overlap
     c_bands:  1 eigenvalues not converged
     ethr =  2.03E-05,  avg # of iterations =  4.9

     negative rho (up, down):  4.032E-03 0.000E+00

     total cpu time spent up to now is      112.9 secs

     total energy              =  -27755.49238845 Ry
     estimated scf accuracy    <       0.02764803 Ry

     iteration #  6     ecut=    40.00 Ry     beta= 0.70
     Davidson diagonalization with overlap
     c_bands:  2 eigenvalues not converged
     c_bands:  2 eigenvalues not converged
     ethr =  7.66E-06,  avg # of iterations =  7.1

     negative rho (up, down):  2.177E-03 0.000E+00

     total cpu time spent up to now is      128.3 secs

     total energy              =  -27755.49439086 Ry
     estimated scf accuracy    <       0.00250459 Ry

     iteration #  7     ecut=    40.00 Ry     beta= 0.70
     Davidson diagonalization with overlap
     c_bands:  1 eigenvalues not converged
     c_bands:  1 eigenvalues not converged
     ethr =  6.94E-07,  avg # of iterations = 14.8

     negative rho (up, down):  1.708E-03 0.000E+00

     total cpu time spent up to now is      157.5 secs

     total energy              =  -27755.49488387 Ry
     estimated scf accuracy    <       0.00189152 Ry

     iteration #  8     ecut=    40.00 Ry     beta= 0.70
     Davidson diagonalization with overlap
     ethr =  5.24E-07,  avg # of iterations =  1.6

     negative rho (up, down):  1.464E-03 0.000E+00

     total cpu time spent up to now is      169.5 secs

     total energy              =  -27755.49502176 Ry
     estimated scf accuracy    <       0.00020379 Ry

     iteration #  9     ecut=    40.00 Ry     beta= 0.70
     Davidson diagonalization with overlap
     ethr =  5.65E-08,  avg # of iterations =  5.2

     negative rho (up, down):  1.112E-03 0.000E+00

     total cpu time spent up to now is      192.9 secs

     total energy              =  -27755.49512028 Ry
     estimated scf accuracy    <       0.00008162 Ry

     iteration # 10     ecut=    40.00 Ry     beta= 0.70
     Davidson diagonalization with overlap
     ethr =  2.26E-08,  avg # of iterations =  4.4

     negative rho (up, down):  1.046E-03 0.000E+00

     total cpu time spent up to now is      213.9 secs

     total energy              =  -27755.49514162 Ry
     estimated scf accuracy    <       0.00007690 Ry

     iteration # 11     ecut=    40.00 Ry     beta= 0.70
     Davidson diagonalization with overlap
     ethr =  2.13E-08,  avg # of iterations =  1.3

     negative rho (up, down):  1.106E-03 0.000E+00

     total cpu time spent up to now is      225.7 secs

     total energy              =  -27755.49514495 Ry
     estimated scf accuracy    <       0.00005194 Ry

     iteration # 12     ecut=    40.00 Ry     beta= 0.70
     Davidson diagonalization with overlap
     ethr =  1.44E-08,  avg # of iterations =  1.5

     negative rho (up, down):  1.286E-03 0.000E+00

     total cpu time spent up to now is      237.9 secs

     total energy              =  -27755.49514864 Ry
     estimated scf accuracy    <       0.00001996 Ry

     iteration # 13     ecut=    40.00 Ry     beta= 0.70
     Davidson diagonalization with overlap
     ethr =  5.53E-09,  avg # of iterations =  2.1

     negative rho (up, down):  1.705E-03 0.000E+00

     total cpu time spent up to now is      251.5 secs

     total energy              =  -27755.49515082 Ry
     estimated scf accuracy    <       0.00001236 Ry

     iteration # 14     ecut=    40.00 Ry     beta= 0.70
     Davidson diagonalization with overlap
     ethr =  3.42E-09,  avg # of iterations =  2.0

     negative rho (up, down):  1.993E-03 0.000E+00

     total cpu time spent up to now is      265.6 secs

     total energy              =  -27755.49515416 Ry
     estimated scf accuracy    <       0.00000749 Ry

     iteration # 15     ecut=    40.00 Ry     beta= 0.70
     Davidson diagonalization with overlap
     ethr =  2.07E-09,  avg # of iterations =  1.6

     negative rho (up, down):  2.931E-03 0.000E+00

     total cpu time spent up to now is      277.7 secs

     total energy              =  -27755.49515073 Ry
     estimated scf accuracy    <       0.00000688 Ry

     iteration # 16     ecut=    40.00 Ry     beta= 0.70
     Davidson diagonalization with overlap
     ethr =  1.91E-09,  avg # of iterations =  1.7

     negative rho (up, down):  3.353E-03 0.000E+00

     total cpu time spent up to now is      289.8 secs

     End of self-consistent calculation

          k = 0.0000 0.0000 0.0000 ( 44645 PWs)   bands (ev):

    -6.6501  -5.4985  -4.7505  -4.2457  -4.2225  -4.2067  -4.2040  -4.1931
    -4.1888  -4.1793  -3.8694  -3.6621  -3.6605  -3.6549  -3.6496  -3.6440
    -3.5672  -3.2018  -3.1943  -3.1909  -3.1826  -3.1788  -3.0845  -2.9801
    -2.9703  -2.9694  -2.9628  -2.9628  -2.8589  -2.7603  -2.7547  -2.7528
    -2.7471  -2.7394  -2.7163  -2.7037  -2.6961  -2.6909  -2.6696  -2.6615
    -2.3287  -2.1254  -2.1253  -2.0882  -2.0742  -2.0647  -2.0513  -2.0331
    -2.0269  -2.0242  -1.8845  -1.8809  -1.8427  -1.7777  -1.7692  -1.3291
    -1.3201  -1.3161  -1.3058  -1.2960  -1.2494  -1.2306  -1.1200  -1.1151
    -1.1146  -1.1074  -1.1000  -1.0967  -1.0922  -1.0616  -1.0472  -1.0446
    -1.0426  -1.0372  -1.0059  -1.0014  -0.9940  -0.8979  -0.8919  -0.8901
    -0.8786  -0.8765  -0.8742  -0.6867  -0.6726  -0.6704  -0.6541  -0.6539
    -0.6478  -0.6273  -0.6254  -0.5618  -0.5458  -0.5139  -0.5040  -0.4655
    -0.4623  -0.4256  -0.4252  -0.4112  -0.3475  -0.2618  -0.2608  -0.2560
    -0.2455  -0.2345  -0.2328   0.0158   0.2343   0.2590   0.2594   0.2703
     0.2717   0.2849   0.2927   0.3017   0.3155   0.3186   0.3340   0.3775
     0.3897   0.4568   0.5355   0.5409   0.5537   0.5547   0.5708   0.6535
     0.6708   0.7210   0.7244   0.7346   0.7431   0.9667   0.9832   0.9900
     1.0098   1.0160   1.0171   1.0669   1.0841   1.2015   1.2134   1.2343
     1.2392   1.2393   1.2447   1.3457   1.3922   1.4097   1.4267   1.4309
     1.4404   1.4426   1.4500   1.4533   1.4547   1.4592   1.4619   1.5337
     1.5646   1.5782   1.5816   1.5982   1.6060   1.6268   1.6269   1.6748
     1.6874   1.7022   1.7132   1.7158   1.7361   1.7404   1.7437   1.8119
     1.8187   1.8243   1.8320   1.8392   1.8417   1.8759   1.9123   1.9239
     1.9332   1.9337   1.9473   1.9520   2.1377   2.1418   2.2325   2.2369
     2.2456   2.2598   2.2622   2.2650   2.7780   3.0851   3.0892   3.1351
     3.1428   3.1535   3.1551   5.0684   5.3835   5.4316   5.4553   5.4808
     5.4818   6.8480   7.0317   7.0982   7.1110   7.1163   7.1188   7.2111
     7.3295

          k = 0.0000 0.2309 0.0000 ( 44694 PWs)   bands (ev):

    -6.5022  -5.3660  -4.7441  -4.6424  -4.3143  -4.2975  -4.1030  -4.0126
    -3.9732  -3.9631  -3.8392  -3.7469  -3.7297  -3.5924  -3.5831  -3.5747
    -3.4763  -3.2818  -3.1611  -3.1528  -3.1468  -3.1285  -3.0699  -3.0409
    -3.0144  -2.9689  -2.9629  -2.9502  -2.9051  -2.8628  -2.8536  -2.7789
    -2.7637  -2.7470  -2.7371  -2.6031  -2.5401  -2.5238  -2.5135  -2.4843
    -2.3331  -2.2418  -2.2371  -2.1867  -2.1564  -2.1376  -2.1264  -2.0343
    -1.9455  -1.8867  -1.8663  -1.8485  -1.8106  -1.7899  -1.7581  -1.5702
    -1.4756  -1.4708  -1.4243  -1.4033  -1.3725  -1.3269  -1.3038  -1.2952
    -1.2737  -1.2582  -1.1956  -1.1888  -1.1529  -1.1111  -1.0987  -1.0708
    -1.0131  -1.0082  -0.9973  -0.9219  -0.9160  -0.8968  -0.8726  -0.8352
    -0.8236  -0.8117  -0.7792  -0.7227  -0.7041  -0.6927  -0.6846  -0.6772
    -0.6469  -0.6284  -0.5969  -0.5441  -0.5373  -0.5262  -0.5097  -0.4985
    -0.4792  -0.4432  -0.4312  -0.4227  -0.3479  -0.2879  -0.2672  -0.2533
    -0.2395  -0.2371  -0.2347  -0.2085  -0.1742  -0.1657  -0.1514  -0.1343
     0.0645   0.1863   0.2253   0.2496   0.2594   0.2705   0.2741   0.3126
     0.3206   0.4095   0.4703   0.4883   0.5503   0.6066   0.6126   0.6497
     0.6667   0.6830   0.7149   0.7366   0.7492   0.8301   0.8519   0.8655
     0.8773   0.8819   0.9730   1.0761   1.0931   1.0980   1.1130   1.1279
     1.1395   1.1906   1.2257   1.2601   1.2751   1.2841   1.3300   1.3489
     1.3651   1.3773   1.4395   1.4686   1.4866   1.5051   1.5331   1.6081
     1.6410   1.6476   1.6625   1.6726   1.6903   1.7177   1.7824   1.7929
     1.8363   1.8512   1.8627   1.8764   1.8998   1.9073   1.9218   1.9271
     1.9332   1.9851   1.9883   2.1178   2.1335   2.1503   2.1726   2.1857
     2.1881   2.2168   2.2425   2.2567   2.2739   2.3473   2.3826   2.4019
     2.4496   2.5616   2.5726   2.5840   2.6054   2.9441   3.0023   3.5037
     3.7269   3.7484   3.8621   4.6519   5.0448   5.1643   5.8117   5.9236
     5.9366   6.0097   6.2587   6.6917   6.8830   7.0251   7.2348   7.2964
     7.3075

          k = 0.0000 0.4619 0.0000 ( 44748 PWs)   bands (ev):

    -6.0767  -5.4397  -5.0216  -4.5407  -4.3461  -4.3253  -4.1307  -3.9792
    -3.8363  -3.7166  -3.6294  -3.6204  -3.5735  -3.4640  -3.4145  -3.4030
    -3.3978  -3.3805  -3.2529  -3.2307  -3.2182  -3.1894  -3.1779  -3.1671
    -3.0854  -3.0564  -3.0506  -3.0123  -2.7975  -2.7891  -2.7850  -2.7731
    -2.7638  -2.6845  -2.5417  -2.5318  -2.5193  -2.4938  -2.4785  -2.3971
    -2.2816  -2.2137  -2.1999  -2.1825  -2.1572  -2.1310  -2.0798  -2.0597
    -2.0461  -2.0166  -1.9852  -1.9034  -1.8306  -1.8253  -1.8012  -1.7357
    -1.6813  -1.6492  -1.6150  -1.6013  -1.5688  -1.4591  -1.4042  -1.3920
    -1.3842  -1.3647  -1.2898  -1.2872  -1.2381  -1.1529  -1.1441  -1.1356
    -1.0808  -1.0270  -1.0201  -0.9946  -0.9873  -0.9537  -0.9255  -0.9133
    -0.8934  -0.8811  -0.8766  -0.8613  -0.8476  -0.8381  -0.7650  -0.7327
    -0.7207  -0.7070  -0.6980  -0.6905  -0.6689  -0.5703  -0.5254  -0.5159
    -0.4883  -0.4781  -0.4546  -0.4307  -0.3906  -0.3841  -0.3083  -0.2593
    -0.2341  -0.2134  -0.1891  -0.1617  -0.1249  -0.0118   0.0100   0.0825
     0.1044   0.1421   0.1619   0.1983   0.2058   0.2106   0.2149   0.2606
     0.2945   0.3161   0.3243   0.3359   0.3584   0.3755   0.3870   0.4085
     0.4249   0.5331   0.5607   0.5716   0.6342   0.6563   0.7552   0.7611
     0.8387   0.8636   0.9041   0.9589   1.0277   1.0431   1.0886   1.0946
     1.1225   1.1366   1.1655   1.1947   1.2348   1.2423   1.2947   1.3342
     1.3517   1.3908   1.4107   1.4206   1.4336   1.4714   1.5579   1.6029
     1.6728   1.6919   1.7060   1.7149   1.7476   1.8091   1.8214   1.8692
     1.8857   1.9054   1.9159   1.9654   1.9925   2.0108   2.0212   2.1300
     2.1412   2.1544   2.1700   2.1731   2.1802   2.1962   2.2179   2.3918
     2.4064   2.4142   2.4275   2.4320   2.6005   2.6474   2.8613   3.0098
     3.0631   3.2500   3.4747   3.4879   3.7610   3.8676   3.9622   4.1674
     4.4437   4.7058   4.7130   4.7745   4.8964   4.9458   5.0242   5.0632
     5.3063   5.3589   5.8688   5.9759   6.3921   6.5209   6.8341   6.9817
     7.3909

          k = 0.2000-0.1155 0.0000 ( 44694 PWs)   bands (ev):

    -6.5022  -5.3660  -4.7442  -4.6425  -4.3142  -4.2975  -4.1030  -4.0128
    -3.9732  -3.9629  -3.8391  -3.7468  -3.7297  -3.5925  -3.5832  -3.5748
    -3.4763  -3.2817  -3.1611  -3.1528  -3.1468  -3.1286  -3.0698  -3.0409
    -3.0143  -2.9690  -2.9629  -2.9502  -2.9051  -2.8627  -2.8535  -2.7791
    -2.7636  -2.7470  -2.7371  -2.6032  -2.5401  -2.5238  -2.5135  -2.4842
    -2.3331  -2.2417  -2.2371  -2.1867  -2.1564  -2.1376  -2.1265  -2.0343
    -1.9454  -1.8867  -1.8664  -1.8485  -1.8106  -1.7899  -1.7582  -1.5700
    -1.4756  -1.4708  -1.4241  -1.4031  -1.3723  -1.3266  -1.3041  -1.2954
    -1.2739  -1.2582  -1.1956  -1.1888  -1.1528  -1.1110  -1.0987  -1.0708
    -1.0137  -1.0083  -0.9977  -0.9219  -0.9159  -0.8967  -0.8726  -0.8350
    -0.8234  -0.8111  -0.7795  -0.7228  -0.7043  -0.6927  -0.6846  -0.6772
    -0.6468  -0.6285  -0.5969  -0.5442  -0.5371  -0.5263  -0.5097  -0.4985
    -0.4792  -0.4433  -0.4312  -0.4228  -0.3479  -0.2879  -0.2671  -0.2533
    -0.2398  -0.2372  -0.2348  -0.2085  -0.1742  -0.1657  -0.1514  -0.1343
     0.0648   0.1865   0.2253   0.2496   0.2593   0.2704   0.2741   0.3125
     0.3205   0.4095   0.4703   0.4882   0.5502   0.6065   0.6126   0.6502
     0.6663   0.6829   0.7149   0.7365   0.7492   0.8300   0.8518   0.8655
     0.8772   0.8820   0.9730   1.0760   1.0932   1.0978   1.1130   1.1280
     1.1395   1.1906   1.2257   1.2601   1.2751   1.2841   1.3301   1.3489
     1.3651   1.3774   1.4395   1.4686   1.4867   1.5052   1.5330   1.6081
     1.6410   1.6475   1.6625   1.6725   1.6901   1.7177   1.7824   1.7929
     1.8362   1.8512   1.8626   1.8764   1.8998   1.9074   1.9218   1.9271
     1.9332   1.9849   1.9881   2.1177   2.1335   2.1504   2.1727   2.1858
     2.1882   2.2170   2.2427   2.2569   2.2740   2.3473   2.3826   2.4019
     2.4496   2.5617   2.5727   2.5840   2.6052   2.9443   3.0026   3.5036
     3.7269   3.7483   3.8620   4.6517   5.0449   5.1646   5.8117   5.9236
     5.9366   6.0098   6.2586   6.6916   6.8830   7.0248   7.2348   7.2965
     7.3075

          k = 0.2000 0.1155 0.0000 ( 44694 PWs)   bands (ev):

    -6.5032  -5.3766  -4.7938  -4.5906  -4.3157  -4.3073  -4.1036  -4.0171
    -3.9639  -3.9635  -3.8866  -3.7476  -3.6279  -3.5944  -3.5835  -3.5768
    -3.5387  -3.2787  -3.1551  -3.1544  -3.1439  -3.0781  -3.0687  -3.0406
    -3.0124  -3.0002  -2.9710  -2.9617  -2.8593  -2.8573  -2.8433  -2.7704
    -2.7622  -2.7409  -2.7329  -2.5738  -2.5393  -2.5242  -2.5178  -2.5015
    -2.3183  -2.2391  -2.2375  -2.1885  -2.1548  -2.1519  -2.1284  -2.0515
    -1.9494  -1.8940  -1.8656  -1.8589  -1.8059  -1.7830  -1.7370  -1.5678
    -1.4736  -1.4689  -1.4179  -1.4096  -1.3776  -1.3234  -1.3133  -1.2922
    -1.2743  -1.2538  -1.2232  -1.1839  -1.1315  -1.1258  -1.1000  -1.0840
    -1.0200  -1.0079  -1.0034  -0.9218  -0.9091  -0.9003  -0.8723  -0.8242
    -0.8178  -0.8114  -0.7849  -0.7152  -0.7082  -0.6929  -0.6813  -0.6741
    -0.6360  -0.6359  -0.5925  -0.5503  -0.5328  -0.5314  -0.5227  -0.4953
    -0.4935  -0.4476  -0.4336  -0.4199  -0.3505  -0.2818  -0.2728  -0.2691
    -0.2501  -0.2375  -0.2267  -0.2255  -0.1814  -0.1630  -0.1585  -0.1451
     0.0865   0.1822   0.2195   0.2412   0.2545   0.2712   0.2823   0.3142
     0.3313   0.3569   0.4535   0.4851   0.5539   0.6013   0.6126   0.6537
     0.6615   0.6706   0.7134   0.7338   0.7385   0.8363   0.8653   0.8659
     0.8827   0.8852   1.0607   1.0662   1.0902   1.0954   1.1069   1.1248
     1.1416   1.2052   1.2157   1.2408   1.2762   1.2784   1.3319   1.3453
     1.3613   1.3645   1.4406   1.4596   1.4933   1.5061   1.5568   1.6023
     1.6050   1.6435   1.6552   1.6624   1.6959   1.7213   1.7795   1.7923
     1.8457   1.8501   1.8671   1.8915   1.8963   1.9170   1.9181   1.9288
     1.9333   1.9822   1.9885   2.1231   2.1334   2.1453   2.1845   2.1903
     2.1923   2.2163   2.2525   2.2586   2.2800   2.3689   2.3788   2.3994
     2.4515   2.5639   2.5700   2.5819   2.6104   2.9574   2.9892   3.5183
     3.7116   3.7474   3.8704   4.6151   5.1185   5.1604   5.7756   5.9279
     5.9608   5.9987   6.2074   6.6737   6.8868   7.0129   7.2722   7.3012
     7.3081

          k = 0.2000 0.3464 0.0000 ( 44714 PWs)   bands (ev):

    -6.2169  -5.1797  -4.9686  -4.9552  -4.5113  -3.8927  -3.8883  -3.8816
    -3.8653  -3.8336  -3.8147  -3.7956  -3.7096  -3.6999  -3.5115  -3.3220
    -3.3107  -3.3018  -3.2951  -3.2283  -3.2041  -3.0771  -3.0670  -3.0619
    -3.0501  -2.9815  -2.9498  -2.9090  -2.9049  -2.9000  -2.8348  -2.8168
    -2.8010  -2.7429  -2.7387  -2.6455  -2.4668  -2.4034  -2.3177  -2.3101
    -2.2730  -2.2564  -2.2462  -2.2395  -2.1804  -2.1578  -2.1156  -2.0177
    -2.0087  -1.9425  -1.9046  -1.8757  -1.8323  -1.8232  -1.7762  -1.7288
    -1.7069  -1.5751  -1.5456  -1.5268  -1.4680  -1.4484  -1.4226  -1.4124
    -1.4035  -1.3486  -1.3194  -1.2082  -1.1968  -1.1786  -1.1665  -1.1233
    -1.1124  -1.0675  -1.0428  -1.0111  -0.9740  -0.8987  -0.8879  -0.8676
    -0.8514  -0.8353  -0.8239  -0.8070  -0.7836  -0.7642  -0.7447  -0.7306
    -0.6964  -0.6864  -0.5913  -0.5857  -0.5675  -0.5449  -0.5121  -0.5091
    -0.4807  -0.4587  -0.4408  -0.4308  -0.4267  -0.4143  -0.4065  -0.3890
    -0.3491  -0.3302  -0.2470  -0.2256  -0.1814  -0.1194  -0.0992  -0.0913
    -0.0730   0.0934   0.1241   0.1316   0.2260   0.2363   0.2815   0.2860
     0.3155   0.3260   0.3628   0.3731   0.3997   0.4152   0.4301   0.5058
     0.6032   0.6297   0.6689   0.6831   0.7202   0.7308   0.7543   0.8035
     0.8684   0.9118   0.9260   0.9710   0.9992   1.0351   1.0691   1.1161
     1.1297   1.1459   1.2027   1.2074   1.2237   1.2390   1.2474   1.2584
     1.2747   1.2768   1.2887   1.3815   1.4476   1.4847   1.6024   1.6235
     1.6446   1.7711   1.7783   1.8033   1.8095   1.8738   1.9087   1.9293
     1.9398   1.9623   1.9816   1.9935   2.0081   2.0117   2.0243   2.0590
     2.0751   2.0919   2.1669   2.1925   2.2002   2.2322   2.2414   2.2808
     2.3966   2.4313   2.4705   2.4862   2.5385   2.5507   2.5665   2.6584
     2.7113   3.0281   3.2313   3.2423   3.6302   3.7691   3.7813   3.7886
     4.2506   4.4637   4.4870   4.6724   4.7242   4.7455   5.3667   5.7739
     5.8911   5.9157   6.1038   6.3347   6.6208   6.6673   6.6911   6.7187
     6.7335

          k = 0.2000-0.5774 0.0000 ( 44692 PWs)   bands (ev):

    -5.6936  -5.6616  -5.0954  -4.8279  -4.4343  -4.1928  -3.8852  -3.8244
    -3.7522  -3.7038  -3.5996  -3.5902  -3.4974  -3.4925  -3.4023  -3.3824
    -3.3680  -3.3379  -3.3264  -3.3073  -3.2015  -3.1670  -3.1613  -3.1310
    -3.1097  -3.1045  -3.0614  -2.9686  -2.9082  -2.8102  -2.7757  -2.7636
    -2.7430  -2.7292  -2.6983  -2.6420  -2.5251  -2.5109  -2.4441  -2.3332
    -2.3190  -2.2540  -2.1866  -2.1624  -2.1316  -2.0766  -2.0050  -1.9573
    -1.9225  -1.9055  -1.8898  -1.8445  -1.8419  -1.8055  -1.7214  -1.7067
    -1.6862  -1.6772  -1.6695  -1.6653  -1.6103  -1.5995  -1.5760  -1.4752
    -1.4465  -1.3980  -1.3730  -1.2945  -1.2724  -1.2388  -1.2129  -1.1774
    -1.1684  -1.1510  -1.0852  -1.0750  -1.0546  -1.0352  -1.0027  -0.9517
    -0.9392  -0.8773  -0.8350  -0.8252  -0.8173  -0.8095  -0.7354  -0.6740
    -0.6379  -0.6230  -0.6139  -0.5851  -0.5610  -0.5475  -0.5411  -0.5091
    -0.5010  -0.4855  -0.4757  -0.4354  -0.4116  -0.4033  -0.3931  -0.3850
    -0.3734  -0.3708  -0.3235  -0.3042  -0.2763  -0.1100  -0.0624   0.0089
     0.0233   0.0531   0.1274   0.1459   0.1600   0.1799   0.2145   0.2319
     0.2391   0.2515   0.3123   0.3578   0.3806   0.3947   0.4411   0.4590
     0.5115   0.5325   0.5732   0.6997   0.7191   0.7739   0.7911   0.8080
     0.8527   0.8845   0.9084   0.9283   0.9399   0.9497   0.9673   0.9788
     1.0722   1.1012   1.1090   1.1428   1.1698   1.1899   1.2100   1.2258
     1.2308   1.3654   1.4001   1.4508   1.5225   1.5441   1.6233   1.6357
     1.6765   1.7390   1.7579   1.7694   1.8463   1.8512   1.9332   1.9506
     1.9773   1.9854   1.9956   2.0192   2.0340   2.0831   2.1470   2.1519
     2.1708   2.1862   2.2000   2.2064   2.2139   2.2843   2.3838   2.4149
     2.4207   2.4307   2.4340   2.4975   2.5250   2.6251   2.7426   3.4354
     3.5996   3.6124   3.7623   3.8331   3.9164   3.9756   3.9896   4.3066
     4.5753   4.6086   4.7886   5.0454   5.0681   5.1644   5.1984   5.3447
     5.4604   5.5293   5.5655   5.8374   5.9903   6.0286   6.4508   6.6733
     6.6968

          k = 0.2000-0.3464 0.0000 ( 44714 PWs)   bands (ev):

    -6.2138  -5.1453  -4.9734  -4.9532  -4.5061  -3.8886  -3.8851  -3.8834
    -3.8731  -3.8346  -3.8226  -3.7899  -3.7074  -3.7000  -3.5456  -3.3099
    -3.3055  -3.3008  -3.2815  -3.2295  -3.1998  -3.0748  -3.0715  -3.0594
    -3.0534  -3.0242  -2.9460  -2.9161  -2.9082  -2.8983  -2.8657  -2.8185
    -2.8009  -2.7612  -2.7418  -2.6453  -2.5959  -2.4046  -2.3157  -2.3026
    -2.2669  -2.2548  -2.2426  -2.2366  -2.1802  -2.1492  -2.1171  -2.0160
    -2.0020  -1.9253  -1.8891  -1.8481  -1.8339  -1.8276  -1.7627  -1.7332
    -1.7272  -1.5586  -1.5438  -1.5329  -1.4655  -1.4475  -1.4257  -1.4081
    -1.3948  -1.3438  -1.3294  -1.2036  -1.1870  -1.1712  -1.1600  -1.1306
    -1.1127  -1.0653  -1.0299  -1.0140  -0.9693  -0.9015  -0.8807  -0.8610
    -0.8558  -0.8463  -0.8184  -0.8008  -0.7723  -0.7638  -0.7311  -0.7186
    -0.6973  -0.6497  -0.5855  -0.5753  -0.5683  -0.5440  -0.5196  -0.5051
    -0.4913  -0.4479  -0.4331  -0.4228  -0.4185  -0.4154  -0.4026  -0.3958
    -0.3681  -0.3212  -0.2396  -0.1955  -0.1828  -0.1402  -0.0999  -0.0873
    -0.0725   0.1000   0.1166   0.1758   0.2296   0.2363   0.2783   0.2801
     0.2969   0.3260   0.3477   0.3820   0.4006   0.4128   0.4348   0.5082
     0.5562   0.6345   0.6728   0.6754   0.7117   0.7416   0.7721   0.8024
     0.8657   0.9001   0.9168   0.9387   1.0044   1.0187   1.0694   1.1273
     1.1450   1.1539   1.1924   1.2008   1.2276   1.2359   1.2473   1.2637
     1.2741   1.2807   1.2970   1.4017   1.4566   1.4903   1.6093   1.6171
     1.6427   1.7454   1.7998   1.8035   1.8085   1.8851   1.8990   1.9273
     1.9479   1.9671   1.9793   1.9898   2.0108   2.0141   2.0231   2.0591
     2.0810   2.0891   2.1659   2.1920   2.1979   2.2323   2.2437   2.2804
     2.4090   2.4470   2.4719   2.4764   2.5411   2.5533   2.5689   2.6833
     2.7111   2.9836   3.1977   3.2517   3.5798   3.7723   3.7850   3.7920
     4.2610   4.4706   4.4794   4.6378   4.7171   4.7514   5.3386   5.7331
     5.9136   5.9207   6.1546   6.3933   6.6300   6.6604   6.6946   6.7256
     6.7333

          k = 0.4000-0.2309 0.0000 ( 44748 PWs)   bands (ev):

    -6.0767  -5.4398  -5.0216  -4.5407  -4.3461  -4.3253  -4.1307  -3.9793
    -3.8363  -3.7166  -3.6294  -3.6203  -3.5735  -3.4640  -3.4145  -3.4031
    -3.3979  -3.3805  -3.2529  -3.2306  -3.2182  -3.1895  -3.1779  -3.1671
    -3.0855  -3.0564  -3.0505  -3.0124  -2.7974  -2.7890  -2.7849  -2.7730
    -2.7637  -2.6845  -2.5416  -2.5318  -2.5193  -2.4938  -2.4784  -2.3970
    -2.2816  -2.2137  -2.1999  -2.1825  -2.1572  -2.1310  -2.0798  -2.0595
    -2.0461  -2.0167  -1.9852  -1.9033  -1.8305  -1.8252  -1.8011  -1.7357
    -1.6812  -1.6488  -1.6148  -1.6012  -1.5687  -1.4591  -1.4041  -1.3921
    -1.3843  -1.3648  -1.2896  -1.2872  -1.2383  -1.1531  -1.1447  -1.1359
    -1.0809  -1.0269  -1.0200  -0.9945  -0.9873  -0.9536  -0.9254  -0.9132
    -0.8932  -0.8810  -0.8766  -0.8613  -0.8478  -0.8381  -0.7651  -0.7325
    -0.7206  -0.7069  -0.6978  -0.6905  -0.6691  -0.5703  -0.5256  -0.5160
    -0.4886  -0.4783  -0.4543  -0.4308  -0.3910  -0.3844  -0.3084  -0.2593
    -0.2340  -0.2134  -0.1892  -0.1618  -0.1250  -0.0118   0.0101   0.0826
     0.1044   0.1421   0.1619   0.1984   0.2059   0.2108   0.2149   0.2607
     0.2945   0.3161   0.3241   0.3359   0.3584   0.3753   0.3867   0.4084
     0.4253   0.5329   0.5605   0.5715   0.6341   0.6562   0.7551   0.7610
     0.8388   0.8636   0.9043   0.9591   1.0277   1.0432   1.0883   1.0944
     1.1225   1.1367   1.1655   1.1948   1.2350   1.2424   1.2948   1.3342
     1.3518   1.3909   1.4108   1.4205   1.4337   1.4712   1.5578   1.6029
     1.6727   1.6918   1.7060   1.7149   1.7475   1.8091   1.8214   1.8691
     1.8857   1.9054   1.9158   1.9655   1.9923   2.0106   2.0212   2.1300
     2.1413   2.1544   2.1701   2.1730   2.1803   2.1965   2.2181   2.3918
     2.4065   2.4145   2.4278   2.4322   2.6005   2.6474   2.8613   3.0101
     3.0630   3.2498   3.4747   3.4879   3.7609   3.8677   3.9621   4.1676
     4.4439   4.7058   4.7130   4.7745   4.8963   4.9458   5.0243   5.0634
     5.3063   5.3590   5.8686   5.9760   6.3919   6.5209   6.8340   6.9817
     7.3910

          k = 0.4000 0.0000 0.0000 ( 44714 PWs)   bands (ev):

    -6.2169  -5.1797  -4.9686  -4.9552  -4.5113  -3.8928  -3.8884  -3.8817
    -3.8653  -3.8336  -3.8145  -3.7954  -3.7096  -3.6999  -3.5115  -3.3222
    -3.3108  -3.3018  -3.2951  -3.2285  -3.2040  -3.0771  -3.0670  -3.0619
    -3.0500  -2.9815  -2.9496  -2.9090  -2.9049  -2.9000  -2.8348  -2.8168
    -2.8012  -2.7429  -2.7386  -2.6458  -2.4667  -2.4033  -2.3176  -2.3101
    -2.2730  -2.2563  -2.2461  -2.2395  -2.1804  -2.1578  -2.1156  -2.0177
    -2.0086  -1.9424  -1.9046  -1.8757  -1.8323  -1.8233  -1.7763  -1.7288
    -1.7069  -1.5750  -1.5455  -1.5267  -1.4677  -1.4482  -1.4227  -1.4124
    -1.4034  -1.3486  -1.3194  -1.2081  -1.1970  -1.1788  -1.1667  -1.1232
    -1.1126  -1.0674  -1.0429  -1.0111  -0.9741  -0.8986  -0.8878  -0.8675
    -0.8514  -0.8353  -0.8239  -0.8071  -0.7838  -0.7641  -0.7449  -0.7309
    -0.6966  -0.6865  -0.5914  -0.5857  -0.5676  -0.5449  -0.5121  -0.5092
    -0.4808  -0.4586  -0.4405  -0.4307  -0.4267  -0.4143  -0.4065  -0.3891
    -0.3491  -0.3303  -0.2470  -0.2255  -0.1814  -0.1194  -0.0994  -0.0913
    -0.0730   0.0934   0.1241   0.1317   0.2259   0.2361   0.2814   0.2858
     0.3156   0.3261   0.3629   0.3731   0.3997   0.4152   0.4300   0.5062
     0.6030   0.6296   0.6688   0.6831   0.7202   0.7308   0.7542   0.8035
     0.8684   0.9118   0.9259   0.9710   0.9991   1.0350   1.0691   1.1162
     1.1297   1.1459   1.2028   1.2075   1.2237   1.2390   1.2475   1.2584
     1.2747   1.2768   1.2889   1.3814   1.4475   1.4847   1.6023   1.6234
     1.6446   1.7712   1.7783   1.8033   1.8095   1.8737   1.9087   1.9295
     1.9399   1.9623   1.9815   1.9934   2.0080   2.0116   2.0242   2.0589
     2.0751   2.0921   2.1668   2.1925   2.2000   2.2322   2.2414   2.2807
     2.3968   2.4315   2.4708   2.4864   2.5386   2.5507   2.5665   2.6584
     2.7112   3.0279   3.2312   3.2423   3.6303   3.7692   3.7815   3.7887
     4.2507   4.4636   4.4870   4.6723   4.7242   4.7455   5.3667   5.7741
     5.8913   5.9158   6.1037   6.3347   6.6208   6.6672   6.6912   6.7188
     6.7339

          k = 0.4000 0.2309 0.0000 ( 44748 PWs)   bands (ev):

    -6.0818  -5.4602  -5.0514  -4.5423  -4.3485  -4.3399  -4.1195  -3.9610
    -3.8355  -3.7155  -3.6220  -3.6193  -3.5529  -3.4586  -3.4431  -3.4061
    -3.4055  -3.3914  -3.2613  -3.2320  -3.2278  -3.1869  -3.1794  -3.1524
    -3.0890  -3.0511  -3.0508  -2.8076  -2.7974  -2.7953  -2.7814  -2.7677
    -2.7609  -2.6076  -2.5398  -2.5282  -2.5208  -2.4816  -2.4774  -2.3965
    -2.2858  -2.2070  -2.2049  -2.1868  -2.1757  -2.1265  -2.1022  -2.0508
    -2.0492  -2.0164  -1.9826  -1.9350  -1.8331  -1.8210  -1.8021  -1.7698
    -1.6750  -1.6446  -1.6059  -1.6028  -1.5664  -1.4594  -1.4128  -1.3906
    -1.3851  -1.3675  -1.2858  -1.2755  -1.2717  -1.1672  -1.1446  -1.1406
    -1.1083  -1.0298  -1.0243  -0.9916  -0.9877  -0.9695  -0.9413  -0.9000
    -0.8980  -0.8804  -0.8677  -0.8658  -0.8548  -0.8337  -0.7536  -0.7228
    -0.7182  -0.7153  -0.6955  -0.6870  -0.6700  -0.6298  -0.5299  -0.5249
    -0.4968  -0.4699  -0.4453  -0.4307  -0.4204  -0.3995  -0.3111  -0.2709
    -0.2349  -0.2347  -0.1804  -0.1776  -0.1492  -0.0150   0.0205   0.0477
     0.0955   0.1363   0.1858   0.1908   0.2113   0.2134   0.2233   0.2372
     0.2896   0.3193   0.3226   0.3449   0.3454   0.3765   0.3925   0.4120
     0.4438   0.5265   0.5494   0.5628   0.6399   0.6772   0.7634   0.7668
     0.8528   0.8708   0.9112   0.9679   1.0203   1.0487   1.0590   1.0973
     1.1277   1.1306   1.1761   1.1948   1.2299   1.2410   1.2849   1.3389
     1.3412   1.3845   1.4042   1.4206   1.4295   1.4815   1.5519   1.5850
     1.6350   1.6848   1.6904   1.7197   1.7647   1.8048   1.8161   1.8839
     1.8924   1.9075   1.9103   1.9812   1.9919   2.0064   2.0203   2.1286
     2.1431   2.1592   2.1615   2.1771   2.1821   2.2028   2.2194   2.3933
     2.4121   2.4198   2.4285   2.4297   2.6066   2.6478   2.9199   2.9994
     3.0823   3.2221   3.4835   3.4852   3.7810   3.8710   3.9569   4.2046
     4.5024   4.7020   4.7121   4.7556   4.8961   4.9268   5.0596   5.0672
     5.3012   5.3624   5.8353   5.9898   6.3592   6.5090   6.8911   6.9618
     7.4430

          k = 0.4000-0.6928 0.0000 ( 44692 PWs)   bands (ev):

    -5.7047  -5.6668  -5.0728  -4.8887  -4.4310  -4.1539  -3.8969  -3.8300
    -3.7493  -3.7051  -3.6042  -3.5952  -3.5002  -3.4916  -3.4040  -3.3795
    -3.3632  -3.3393  -3.3286  -3.3064  -3.1863  -3.1691  -3.1557  -3.1461
    -3.1169  -3.1127  -3.0248  -2.9193  -2.8961  -2.7805  -2.7714  -2.7549
    -2.7452  -2.7165  -2.6735  -2.6301  -2.5256  -2.5206  -2.4247  -2.3315
    -2.3200  -2.2747  -2.1859  -2.1412  -2.1226  -2.1033  -2.0026  -1.9572
    -1.9382  -1.9054  -1.8929  -1.8452  -1.8283  -1.7841  -1.7223  -1.7205
    -1.7042  -1.6743  -1.6648  -1.6612  -1.6361  -1.5939  -1.5596  -1.4808
    -1.4623  -1.4046  -1.3648  -1.3104  -1.2620  -1.2411  -1.2339  -1.1787
    -1.1749  -1.1607  -1.1019  -1.0728  -1.0572  -1.0391  -1.0029  -0.9656
    -0.9232  -0.8945  -0.8456  -0.8201  -0.8154  -0.8052  -0.7516  -0.6829
    -0.6387  -0.6351  -0.6120  -0.6047  -0.5618  -0.5461  -0.5364  -0.5223
    -0.5081  -0.4977  -0.4713  -0.4321  -0.4135  -0.4073  -0.3996  -0.3845
    -0.3736  -0.3703  -0.3508  -0.2962  -0.2772  -0.0993  -0.0696   0.0132
     0.0317   0.0790   0.1300   0.1440   0.1664   0.1793   0.2179   0.2358
     0.2470   0.2579   0.3143   0.3670   0.3804   0.4155   0.4391   0.4513
     0.5105   0.5260   0.5487   0.6311   0.7290   0.7791   0.7867   0.8146
     0.8577   0.8897   0.9052   0.9225   0.9413   0.9467   0.9687   0.9797
     1.0711   1.1123   1.1155   1.1525   1.1641   1.1785   1.2048   1.2132
     1.2279   1.3835   1.4135   1.4496   1.4920   1.5583   1.6247   1.6383
     1.7106   1.7328   1.7527   1.7726   1.8316   1.8662   1.9318   1.9587
     1.9624   1.9823   1.9902   2.0095   2.0389   2.0810   2.1473   2.1530
     2.1721   2.1853   2.1986   2.2090   2.2140   2.2838   2.3967   2.4140
     2.4257   2.4287   2.4313   2.4959   2.5241   2.6130   2.7040   3.4722
     3.5978   3.6117   3.7782   3.8259   3.9625   3.9780   3.9878   4.3246
     4.5536   4.6151   4.8460   5.0439   5.0751   5.1317   5.2106   5.3858
     5.4335   5.5124   5.5809   5.8321   5.9388   6.0464   6.4714   6.6419
     6.6981

          k = 0.4000-0.4619 0.0000 ( 44692 PWs)   bands (ev):

    -5.6937  -5.6616  -5.0954  -4.8279  -4.4342  -4.1929  -3.8854  -3.8244
    -3.7522  -3.7038  -3.5995  -3.5902  -3.4975  -3.4925  -3.4023  -3.3825
    -3.3680  -3.3380  -3.3263  -3.3072  -3.2017  -3.1670  -3.1613  -3.1311
    -3.1097  -3.1046  -3.0614  -2.9686  -2.9082  -2.8101  -2.7757  -2.7637
    -2.7430  -2.7291  -2.6982  -2.6420  -2.5250  -2.5108  -2.4441  -2.3334
    -2.3189  -2.2540  -2.1866  -2.1624  -2.1316  -2.0766  -2.0052  -1.9574
    -1.9226  -1.9054  -1.8898  -1.8443  -1.8416  -1.8054  -1.7213  -1.7067
    -1.6861  -1.6771  -1.6694  -1.6653  -1.6102  -1.5996  -1.5760  -1.4752
    -1.4466  -1.3979  -1.3730  -1.2946  -1.2720  -1.2390  -1.2131  -1.1774
    -1.1687  -1.1512  -1.0852  -1.0749  -1.0546  -1.0351  -1.0027  -0.9516
    -0.9391  -0.8772  -0.8351  -0.8252  -0.8172  -0.8094  -0.7354  -0.6744
    -0.6380  -0.6228  -0.6137  -0.5850  -0.5610  -0.5476  -0.5412  -0.5095
    -0.5012  -0.4857  -0.4759  -0.4349  -0.4116  -0.4034  -0.3933  -0.3851
    -0.3734  -0.3707  -0.3235  -0.3044  -0.2763  -0.1101  -0.0626   0.0089
     0.0233   0.0531   0.1274   0.1459   0.1601   0.1800   0.2144   0.2318
     0.2391   0.2517   0.3123   0.3578   0.3806   0.3945   0.4410   0.4592
     0.5115   0.5324   0.5729   0.6996   0.7191   0.7740   0.7912   0.8081
     0.8527   0.8845   0.9085   0.9283   0.9399   0.9498   0.9673   0.9789
     1.0723   1.1013   1.1090   1.1428   1.1698   1.1899   1.2101   1.2257
     1.2307   1.3654   1.4000   1.4507   1.5225   1.5441   1.6234   1.6358
     1.6765   1.7390   1.7579   1.7695   1.8462   1.8512   1.9331   1.9505
     1.9772   1.9853   1.9956   2.0192   2.0341   2.0832   2.1470   2.1520
     2.1707   2.1861   2.1999   2.2064   2.2139   2.2843   2.3838   2.4151
     2.4208   2.4309   2.4342   2.4976   2.5252   2.6251   2.7425   3.4353
     3.5996   3.6123   3.7622   3.8333   3.9163   3.9755   3.9895   4.3068
     4.5755   4.6085   4.7887   5.0453   5.0681   5.1644   5.1984   5.3453
     5.4605   5.5292   5.5654   5.8376   5.9901   6.0286   6.4510   6.6731
     6.6966

     the Fermi energy is     2.1930 ev

!    total energy              =  -27755.49514923 Ry
     total all-electron energy =  -1326642.260566 Ry
     estimated scf accuracy    <       0.00000075 Ry
     smearing contrib. (-TS)   =       0.00445300 Ry
     internal energy E=F+TS    =  -27755.49960223 Ry

     The total energy is F=E-TS. E is the sum of the following terms:
     one-electron contribution =  -22795.19848181 Ry
     hartree contribution      =   11700.42798142 Ry
     xc contribution           =    -890.79818919 Ry
     ewald contribution        =    9704.06851194 Ry
     one-center paw contrib.   =  -25473.99942459 Ry

     convergence has been achieved in  16 iterations

     negative rho (up, down):  3.353E-03 0.000E+00

     Forces acting on atoms (cartesian axes, Ry/au):

     atom    1 type  1   force =     0.00241093    0.00138041   -0.00583402
     atom    2 type  1   force =     0.00059808    0.00219538   -0.00430683
     atom    3 type  1   force =    -0.00169445    0.00388907   -0.00565948
     atom    4 type  1   force =     0.00220573   -0.00055927   -0.00429801
     atom    5 type  1   force =    -0.00015033   -0.00006469   -0.00334487
     atom    6 type  1   force =    -0.00210045    0.00052569   -0.00392902
     atom    7 type  1   force =     0.00252660   -0.00344776   -0.00565759
     atom    8 type  1   force =    -0.00060693   -0.00211154   -0.00394046
     atom    9 type  1   force =    -0.00224433   -0.00133169   -0.00389863
     atom   10 type  1   force =     0.00324690    0.00190988    0.00727946
     atom   11 type  1   force =     0.00004869    0.00141153    0.00465801
     atom   12 type  1   force =    -0.00198113    0.00349409    0.00347596
     atom   13 type  1   force =     0.00120950   -0.00061448    0.00464980
     atom   14 type  1   force =    -0.00003362    0.00001190    0.00194554
     atom   15 type  1   force =    -0.00162953    0.00117433    0.00623556
     atom   16 type  1   force =     0.00198865   -0.00346706    0.00346047
     atom   17 type  1   force =     0.00018189   -0.00200442    0.00624478
     atom   18 type  1   force =    -0.00334119   -0.00194853    0.00293254
     atom   19 type  1   force =    -0.00002848    0.00000081   -0.00007776
     atom   20 type  1   force =    -0.00003524   -0.00001921   -0.00014417
     atom   21 type  1   force =    -0.00001924    0.00002218    0.00002687
     atom   22 type  1   force =     0.00000038   -0.00005573    0.00008984
     atom   23 type  1   force =     0.00001498   -0.00003127    0.00002051
     atom   24 type  1   force =    -0.00004747   -0.00003848    0.00009215
     atom   25 type  1   force =     0.00008365    0.00004018    0.00010455
     atom   26 type  1   force =    -0.00001158   -0.00001913   -0.00007882
     atom   27 type  1   force =    -0.00004244    0.00002203    0.00009997
     atom   28 type  1   force =    -0.00007754   -0.00004681    0.00001763
     atom   29 type  1   force =     0.00012115   -0.00018415   -0.00012430
     atom   30 type  1   force =    -0.00005699    0.00000713   -0.00001742
     atom   31 type  1   force =    -0.00009124    0.00019609   -0.00013408
     atom   32 type  1   force =    -0.00007464   -0.00005810    0.00000985
     atom   33 type  1   force =     0.00005865   -0.00002380    0.00001922
     atom   34 type  1   force =    -0.00002432   -0.00006698   -0.00002413
     atom   35 type  1   force =     0.00001855    0.00005463    0.00002154
     atom   36 type  1   force =    -0.00004587   -0.00002337    0.00002307
     atom   37 type  2   force =    -0.00037731   -0.00021884    0.00006226
     The non-local contrib.  to forces
     atom    1 type  1   force =     0.00235431    0.00135559   -0.01635116
     atom    2 type  1   force =    -0.00017484    0.00246609   -0.01761278
     atom    3 type  1   force =    -0.00000452    0.00124408   -0.01690571
     atom    4 type  1   force =     0.00204681   -0.00135726   -0.01761091
     atom    5 type  1   force =    -0.00017491   -0.00007391   -0.01759065
     atom    6 type  1   force =    -0.00155630    0.00047343   -0.01711286
     atom    7 type  1   force =     0.00107630   -0.00064349   -0.01691115
     atom    8 type  1   force =    -0.00038621   -0.00160131   -0.01712162
     atom    9 type  1   force =    -0.00206128   -0.00121281   -0.01675787
     atom   10 type  1   force =     0.00153646    0.00092586    0.00064858
     atom   11 type  1   force =    -0.00013851    0.00180230    0.00127744
     atom   12 type  1   force =     0.00023663    0.00265109    0.00062445
     atom   13 type  1   force =     0.00145375   -0.00096637    0.00128265
     atom   14 type  1   force =     0.00049036    0.00032068   -0.00047649
     atom   15 type  1   force =    -0.00222570    0.00023005    0.00115201
     atom   16 type  1   force =     0.00236631   -0.00112422    0.00062120
     atom   17 type  1   force =    -0.00093819   -0.00204675    0.00115876
     atom   18 type  1   force =    -0.00360607   -0.00210254    0.00155983
     atom   19 type  1   force =    -0.00273064   -0.00093300    0.00068542
     atom   20 type  1   force =     0.00099617    0.00058632    0.00497829
     atom   21 type  1   force =     0.00120413    0.00075046    0.00238024
     atom   22 type  1   force =     0.00097914    0.00365055   -0.00183056
     atom   23 type  1   force =     0.00124721    0.00067639    0.00237542
     atom   24 type  1   force =    -0.00136242   -0.00079005    0.00335740
     atom   25 type  1   force =     0.00059394    0.00032475    0.00274554
     atom   26 type  1   force =    -0.00218380   -0.00189837    0.00068223
     atom   27 type  1   force =     0.00366004   -0.00099707   -0.00182716
     atom   28 type  1   force =     0.03411229    0.01966821    0.02954328
     atom   29 type  1   force =    -0.01762692    0.01927438   -0.00757797
     atom   30 type  1   force =     0.00097025   -0.00047850    0.01417212
     atom   31 type  1   force =     0.00791214   -0.02491509   -0.00758770
     atom   32 type  1   force =    -0.01588982   -0.00920246    0.02235671
     atom   33 type  1   force =     0.00020161   -0.00028325    0.01497870
     atom   34 type  1   force =     0.00008531    0.00103780    0.01414034
     atom   35 type  1   force =    -0.00012638    0.00028927    0.01497515
     atom   36 type  1   force =    -0.00067836   -0.00040040    0.01543810
     atom   37 type  2   force =     0.00336835    0.00194004   -0.02288761
     The ionic contribution  to forces
     atom    1 type  1   force =     0.14427733    0.08332283  -96.26142534
     atom    2 type  1   force =     0.01795905    0.14713599  -96.18539036
     atom    3 type  1   force =    -0.14188706    0.21584130  -96.21157435
     atom    4 type  1   force =     0.13638131   -0.05806991  -96.18547345
     atom    5 type  1   force =     0.00045709    0.00019176  -96.13810621
     atom    6 type  1   force =    -0.12981877    0.08473299  -96.15828469
     atom    7 type  1   force =     0.11595564   -0.23073847  -96.21169595
     atom    8 type  1   force =     0.00853339   -0.15477952  -96.15832942
     atom    9 type  1   force =    -0.13986976   -0.08070952  -96.15382312
     atom   10 type  1   force =     0.18938604    0.10924296  -32.38017126
     atom   11 type  1   force =    -0.09470625    0.13495140  -32.41762513
     atom   12 type  1   force =    -0.06728970    0.22378043  -32.42816643
     atom   13 type  1   force =     0.06948836   -0.14961009  -32.41850654
     atom   14 type  1   force =    -0.02227415   -0.01303100  -32.57159190
     atom   15 type  1   force =    -0.05277946    0.04809081  -32.41072087
     atom   16 type  1   force =     0.16013231   -0.16941177  -32.42876708
     atom   17 type  1   force =     0.01527133   -0.06909273  -32.41051836
     atom   18 type  1   force =    -0.20623696   -0.11844291  -32.27232112
     atom   19 type  1   force =     0.13289653    0.03198913   32.17041435
     atom   20 type  1   force =    -0.06466420   -0.03893393   32.40253917
     atom   21 type  1   force =    -0.05918140   -0.01820422   31.53673015
     atom   22 type  1   force =     0.00388569   -0.01355345   32.12808821
     atom   23 type  1   force =    -0.04429379   -0.04288398   31.53488899
     atom   24 type  1   force =     0.03157913    0.01805882   31.60249040
     atom   25 type  1   force =    -0.06140287   -0.03406086   31.68904736
     atom   26 type  1   force =     0.09545463    0.10009900   32.17097903
     atom   27 type  1   force =    -0.00966111    0.01160888   32.12876315
     atom   28 type  1   force =    -0.01087775   -0.00667014   94.98343381
     atom   29 type  1   force =     0.41625041   -0.69735285   95.62889898
     atom   30 type  1   force =     0.03309272    0.01344313   95.35995023
     atom   31 type  1   force =    -0.39504013    0.70834041   95.62963629
     atom   32 type  1   force =     0.03574287    0.01921789   94.96996283
     atom   33 type  1   force =     0.02335240   -0.00234070   95.28547116
     atom   34 type  1   force =     0.02781868    0.02224561   95.35898341
     atom   35 type  1   force =     0.01117156    0.02220890   95.28464840
     atom   36 type  1   force =    -0.03400735   -0.01869883   95.28964311
     atom   37 type  2   force =    -0.13509578   -0.07791738   12.24792253
     The local contribution  to forces
     atom    1 type  1   force =    -0.14393722   -0.08313537   96.25447182
     atom    2 type  1   force =    -0.01704793   -0.14702218   96.18136278
     atom    3 type  1   force =     0.13989288   -0.21268418   96.20546605
     atom    4 type  1   force =    -0.13581842    0.05869429   96.18141303
     atom    5 type  1   force =    -0.00037607   -0.00024962   96.13517687
     atom    6 type  1   force =     0.12888049   -0.08457549   96.15424923
     atom    7 type  1   force =    -0.11421373    0.22751609   96.20555630
     atom    8 type  1   force =    -0.00877196    0.15393005   96.15429644
     atom    9 type  1   force =     0.13943145    0.08054543   96.14950287
     atom   10 type  1   force =    -0.18711604   -0.10801498   32.38645635
     atom   11 type  1   force =     0.09495750   -0.13509426   32.42060146
     atom   12 type  1   force =     0.06457099   -0.22255588   32.43039930
     atom   13 type  1   force =    -0.06943387    0.14978696   32.42146964
     atom   14 type  1   force =     0.02159077    0.01255819   32.57308864
     atom   15 type  1   force =     0.05317387   -0.04696247   32.41526211
     atom   16 type  1   force =    -0.16035611    0.16656103   32.43096003
     atom   17 type  1   force =    -0.01405388    0.06897498   32.41503225
     atom   18 type  1   force =     0.20603681    0.11846482   32.27373625
     atom   19 type  1   force =    -0.13005911   -0.03112731  -32.16839173
     atom   20 type  1   force =     0.06380150    0.03831984  -32.40483068
     atom   21 type  1   force =     0.05777800    0.01726396  -31.53677608
     atom   22 type  1   force =    -0.00461436    0.01007008  -32.12375427
     atom   23 type  1   force =     0.04286704    0.04207258  -31.53491323
     atom   24 type  1   force =    -0.03034790   -0.01736827  -31.60338708
     atom   25 type  1   force =     0.06050184    0.03365127  -31.68951178
     atom   26 type  1   force =    -0.09319035   -0.09800430  -32.16897357
     atom   27 type  1   force =     0.00627956   -0.01037710  -32.12446737
     atom   28 type  1   force =    -0.02287864   -0.01276539  -94.99721075
     atom   29 type  1   force =    -0.39380193    0.67141975  -95.61143877
     atom   30 type  1   force =    -0.03441252   -0.01276724  -95.35757531
     atom   31 type  1   force =     0.38375888   -0.67596376  -95.61214465
     atom   32 type  1   force =    -0.02065617   -0.01057325  -94.97617004
     atom   33 type  1   force =    -0.02307843    0.00244834  -95.28380707
     atom   34 type  1   force =    -0.02795504   -0.02365299  -95.35653127
     atom   35 type  1   force =    -0.01088408   -0.02199407  -95.28295897
     atom   36 type  1   force =     0.03458049    0.01906694  -95.28829504
     atom   37 type  2   force =     0.13135907    0.07575868  -12.22506070
     The core correction contribution to forces
     atom    1 type  1   force =    -0.00043091   -0.00024840    0.01759501
     atom    2 type  1   force =    -0.00000009   -0.00044356    0.01742710
     atom    3 type  1   force =     0.00031626   -0.00058728    0.01757285
     atom    4 type  1   force =    -0.00038408    0.00022216    0.01742773
     atom    5 type  1   force =    -0.00001132   -0.00000618    0.01734128
     atom    6 type  1   force =     0.00032895   -0.00019517    0.01730514
     atom    7 type  1   force =    -0.00035081    0.00056753    0.01757326
     atom    8 type  1   force =    -0.00000448    0.00038284    0.01730540
     atom    9 type  1   force =     0.00034054    0.00019667    0.01725113
     atom   10 type  1   force =    -0.00050918   -0.00029393    0.00081130
     atom   11 type  1   force =     0.00011567   -0.00029086    0.00094024
     atom   12 type  1   force =     0.00026552   -0.00058198    0.00108665
     atom   13 type  1   force =    -0.00019320    0.00024480    0.00094188
     atom   14 type  1   force =     0.00002169    0.00001237    0.00141602
     atom   15 type  1   force =     0.00024017   -0.00012406    0.00093643
     atom   16 type  1   force =    -0.00037068    0.00051901    0.00108810
     atom   17 type  1   force =     0.00001331    0.00026835    0.00093638
     atom   18 type  1   force =     0.00057781    0.00033186    0.00037141
     atom   19 type  1   force =    -0.00023042   -0.00001951   -0.00234572
     atom   20 type  1   force =     0.00010245    0.00006318   -0.00239463
     atom   21 type  1   force =     0.00001053    0.00008139   -0.00188492
     atom   22 type  1   force =    -0.00005763   -0.00012720   -0.00196600
     atom   23 type  1   force =     0.00007345   -0.00003029   -0.00188382
     atom   24 type  1   force =     0.00001340    0.00000832   -0.00187281
     atom   25 type  1   force =     0.00025264    0.00014219   -0.00183852
     atom   26 type  1   force =    -0.00013491   -0.00019349   -0.00234502
     atom   27 type  1   force =    -0.00014000    0.00000949   -0.00196548
     atom   28 type  1   force =    -0.00061624   -0.00035471   -0.01561508
     atom   29 type  1   force =    -0.00449468    0.00645464   -0.01003347
     atom   30 type  1   force =     0.00027809   -0.00012419   -0.01652965
     atom   31 type  1   force =     0.00333953   -0.00711654   -0.01003596
     atom   32 type  1   force =     0.00082817    0.00048292   -0.01609367
     atom   33 type  1   force =    -0.00059172    0.00010976   -0.01643882
     atom   34 type  1   force =     0.00003361    0.00030308   -0.01653094
     atom   35 type  1   force =    -0.00020593   -0.00056980   -0.01644037
     atom   36 type  1   force =     0.00011274    0.00006244   -0.01658574
     atom   37 type  2   force =     0.00000000    0.00000000    0.00000000
     The Hubbard contrib.    to forces
     atom    1 type  1   force =     0.00000000    0.00000000    0.00000000
     atom    2 type  1   force =     0.00000000    0.00000000    0.00000000
     atom    3 type  1   force =     0.00000000    0.00000000    0.00000000
     atom    4 type  1   force =     0.00000000    0.00000000    0.00000000
     atom    5 type  1   force =     0.00000000    0.00000000    0.00000000
     atom    6 type  1   force =     0.00000000    0.00000000    0.00000000
     atom    7 type  1   force =     0.00000000    0.00000000    0.00000000
     atom    8 type  1   force =     0.00000000    0.00000000    0.00000000
     atom    9 type  1   force =     0.00000000    0.00000000    0.00000000
     atom   10 type  1   force =     0.00000000    0.00000000    0.00000000
     atom   11 type  1   force =     0.00000000    0.00000000    0.00000000
     atom   12 type  1   force =     0.00000000    0.00000000    0.00000000
     atom   13 type  1   force =     0.00000000    0.00000000    0.00000000
     atom   14 type  1   force =     0.00000000    0.00000000    0.00000000
     atom   15 type  1   force =     0.00000000    0.00000000    0.00000000
     atom   16 type  1   force =     0.00000000    0.00000000    0.00000000
     atom   17 type  1   force =     0.00000000    0.00000000    0.00000000
     atom   18 type  1   force =     0.00000000    0.00000000    0.00000000
     atom   19 type  1   force =     0.00000000    0.00000000    0.00000000
     atom   20 type  1   force =     0.00000000    0.00000000    0.00000000
     atom   21 type  1   force =     0.00000000    0.00000000    0.00000000
     atom   22 type  1   force =     0.00000000    0.00000000    0.00000000
     atom   23 type  1   force =     0.00000000    0.00000000    0.00000000
     atom   24 type  1   force =     0.00000000    0.00000000    0.00000000
     atom   25 type  1   force =     0.00000000    0.00000000    0.00000000
     atom   26 type  1   force =     0.00000000    0.00000000    0.00000000
     atom   27 type  1   force =     0.00000000    0.00000000    0.00000000
     atom   28 type  1   force =     0.00000000    0.00000000    0.00000000
     atom   29 type  1   force =     0.00000000    0.00000000    0.00000000
     atom   30 type  1   force =     0.00000000    0.00000000    0.00000000
     atom   31 type  1   force =     0.00000000    0.00000000    0.00000000
     atom   32 type  1   force =     0.00000000    0.00000000    0.00000000
     atom   33 type  1   force =     0.00000000    0.00000000    0.00000000
     atom   34 type  1   force =     0.00000000    0.00000000    0.00000000
     atom   35 type  1   force =     0.00000000    0.00000000    0.00000000
     atom   36 type  1   force =     0.00000000    0.00000000    0.00000000
     atom   37 type  2   force =     0.00000000    0.00000000    0.00000000
     The SCF correction term to forces
     atom    1 type  1   force =     0.00000000    0.00000000   -0.00000000
     atom    2 type  1   force =    -0.00000000    0.00000000   -0.00000000
     atom    3 type  1   force =    -0.00000000    0.00000000   -0.00000000
     atom    4 type  1   force =    -0.00000000   -0.00000000   -0.00000000
     atom    5 type  1   force =    -0.00000000    0.00000000   -0.00000000
     atom    6 type  1   force =     0.00000000    0.00000000   -0.00000000
     atom    7 type  1   force =     0.00000000   -0.00000000   -0.00000000
     atom    8 type  1   force =     0.00000000   -0.00000000   -0.00000000
     atom    9 type  1   force =    -0.00000000   -0.00000000   -0.00000000
     atom   10 type  1   force =    -0.00000000    0.00000000   -0.00000000
     atom   11 type  1   force =    -0.00000000    0.00000000   -0.00000000
     atom   12 type  1   force =     0.00000000    0.00000000   -0.00000000
     atom   13 type  1   force =    -0.00000000   -0.00000000   -0.00000000
     atom   14 type  1   force =     0.00000000    0.00000000   -0.00000000
     atom   15 type  1   force =    -0.00000000   -0.00000000   -0.00000000
     atom   16 type  1   force =     0.00000000   -0.00000000   -0.00000000
     atom   17 type  1   force =    -0.00000000   -0.00000000   -0.00000000
     atom   18 type  1   force =    -0.00000000   -0.00000000   -0.00000000
     atom   19 type  1   force =     0.00009601    0.00009189   -0.00052545
     atom   20 type  1   force =    -0.00027031   -0.00005425   -0.00052167
     atom   21 type  1   force =     0.00017037    0.00013097   -0.00050788
     atom   22 type  1   force =    -0.00019161   -0.00009532   -0.00053290
     atom   23 type  1   force =     0.00012193    0.00013442   -0.00053219
     atom   24 type  1   force =     0.00007118    0.00005308   -0.00058111
     atom   25 type  1   force =     0.00013894   -0.00001678   -0.00042340
     atom   26 type  1   force =     0.00004370   -0.00002158   -0.00050684
     atom   27 type  1   force =    -0.00018008   -0.00022178   -0.00048852
     atom   28 type  1   force =     0.00018366    0.00007561   -0.00021898
     atom   29 type  1   force =    -0.00020487    0.00002032   -0.00005842
     atom   30 type  1   force =     0.00001531   -0.00006568   -0.00012017
     atom   31 type  1   force =    -0.00006080   -0.00014854   -0.00008742
     atom   32 type  1   force =    -0.00009883    0.00001719   -0.00013134
     atom   33 type  1   force =     0.00017564    0.00004243   -0.00027010
     atom   34 type  1   force =    -0.00000603   -0.00000010   -0.00017104
     atom   35 type  1   force =     0.00006423    0.00012072   -0.00028803
     atom   36 type  1   force =    -0.00005254   -0.00005313   -0.00026271
     atom   37 type  2   force =    -0.00000810    0.00000021    0.00000269

     Total force =     0.000675     Total SCF correction =     0.001800
     SCF correction compared to forces is large: reduce conv_thr to get better values

     Writing all to output data dir ./pwscf.save/

     init_run     :     10.17s CPU     10.50s WALL (       1 calls)
     electrons    :    270.49s CPU    279.31s WALL (       1 calls)
     forces       :      3.69s CPU      4.43s WALL (       1 calls)

     Called by init_run:
     wfcinit      :      5.66s CPU      5.83s WALL (       1 calls)
     potinit      :      3.08s CPU      3.16s WALL (       1 calls)
     hinit0       :      0.84s CPU      0.85s WALL (       1 calls)

     Called by electrons:
     c_bands      :    230.40s CPU    235.54s WALL (      17 calls)
     sum_band     :     25.11s CPU     26.21s WALL (      17 calls)
     v_of_rho     :      7.74s CPU      9.34s WALL (      17 calls)
     newd         :      2.34s CPU      2.89s WALL (      17 calls)
     PAW_pot      :      3.49s CPU      3.68s WALL (      17 calls)
     mix_rho      :      3.56s CPU      3.65s WALL (      17 calls)
     vdW_kernel   :      1.71s CPU      1.72s WALL (       1 calls)

     Called by c_bands:
     init_us_2    :      2.50s CPU      2.53s WALL (     468 calls)
     init_us_2:cp :      2.49s CPU      2.53s WALL (     468 calls)
     cegterg      :    224.04s CPU    228.82s WALL (     221 calls)

     Called by *egterg:
     cdiaghg      :     60.41s CPU     61.17s WALL (    1158 calls)
     h_psi        :    101.84s CPU    103.94s WALL (    1184 calls)
     s_psi        :     13.94s CPU     14.17s WALL (    1184 calls)
     g_psi        :      0.43s CPU      0.44s WALL (     950 calls)

     Called by h_psi:
     h_psi:calbec :     17.14s CPU     17.61s WALL (    1184 calls)
     vloc_psi     :     69.46s CPU     70.87s WALL (    1184 calls)
     add_vuspsi   :     14.16s CPU     14.37s WALL (    1184 calls)

     General routines
     calbec       :     24.45s CPU     25.08s WALL (    1457 calls)
     fft          :      4.43s CPU      6.15s WALL (    1131 calls)
     ffts         :      2.01s CPU      2.04s WALL (    4295 calls)
     fftw         :     65.50s CPU     66.73s WALL (  290065 calls)
     interpolate  :      0.58s CPU      0.62s WALL (      17 calls)

     Parallel routines

     PWSCF        :   4m46.64s CPU   4m59.54s WALL


   This run was terminated on:  22:20: 4  27Jan2025            

=------------------------------------------------------------------------------=
   JOB DONE.
=------------------------------------------------------------------------------=
