
     Program PWSCF v.7.1 starts on 17Dec2025 at 10:27: 1 
        Git branch: heads/qe-7.1
        Last git commit: 48ba0178f8fede6d020eb786884699a9f063f55d-dirty
        Last git commit date: Fri Jan 27 14:22:33 2023 +0000
        Last git commit subject: Merge branch 'fix_hubbard' into 'develop'

     This program is part of the open-source Quantum ESPRESSO suite
     for quantum simulation of materials; please cite
         "P. Giannozzi et al., J. Phys.:Condens. Matter 21 395502 (2009);
         "P. Giannozzi et al., J. Phys.:Condens. Matter 29 465901 (2017);
         "P. Giannozzi et al., J. Chem. Phys. 152 154105 (2020);
          URL http://www.quantum-espresso.org", 
     in publications or presentations arising from this work. More details at
     http://www.quantum-espresso.org/quote

     Parallel version (MPI), running on    96 processors

     MPI processes distributed on     2 nodes
     30870 MiB available memory on the printing compute node when the environment starts

     Reading input from espresso.pwi
Warning: card &CELL ignored
Warning: card / ignored
Warning: card &FCP ignored
Warning: card / ignored
Warning: card &RISM ignored
Warning: card / ignored

     Current dimensions of program PWSCF are:
     Max number of different atomic species (ntypx) = 10
     Max number of k-points (npk) =  40000
     Max angular momentum in pseudopotentials (lmaxx) =  4
     file Co.pbe-n-kjpaw_psl.1.0.0.UPF: wavefunction(s)  4S 3D renormalized
     file C.pbe-n-kjpaw_psl.1.0.0.UPF: wavefunction(s)  2S 2P renormalized
     file O.pbe-nl-kjpaw_psl.1.0.0.UPF: wavefunction(s)  2S 2P renormalized
     file H.pbe-kjpaw_psl.1.0.0.UPF: wavefunction(s)  1S renormalized

     **************************************************************************
     Initializing libbeef V0.1.2 with the BEEF-vdW functional.
     Citation: Wellendorff et al., PRB 85, 235149 (2012).
     **************************************************************************


     IMPORTANT: XC functional enforced from input :
     Exchange-correlation= BEEF-VDW
                           (   1   4  43  14   2   0   0)
     Any further DFT definition will be discarded
     Please, verify this is what you really want


     R & G space division:  proc/nbgrp/npool/nimage =      96
     Subspace diagonalization in iterative solution of the eigenvalue problem:
     one sub-group per band group will be used
     custom distributed-memory algorithm (size of sub-group:  2*  2 procs)


     Parallelization info
     --------------------
     sticks:   dense  smooth     PW     G-vecs:    dense   smooth      PW
     Min          43      28      7                 7829     4248     595
     Max          44      29      8                 7845     4281     630
     Sum        4153    2773    757               752179   409445   59217

     Using Slab Decomposition



     bravais-lattice index     =            0
     lattice parameter (alat)  =      14.1729  a.u.
     unit-cell volume          =    8574.3059 (a.u.)^3
     number of atoms/cell      =           39
     number of atomic types    =            4
     number of electrons       =       335.00
     number of Kohn-Sham states=          202
     kinetic-energy cutoff     =      50.0000  Ry
     charge density cutoff     =     300.0000  Ry
     scf convergence threshold =      1.0E-08
     mixing beta               =       0.7000
     number of iterations used =            8  local-TF  mixing
     Exchange-correlation= BEEF-VDW
                           (   1   4  43  14   2   0   0)

     celldm(1)=  14.172946  celldm(2)=   0.000000  celldm(3)=   0.000000
     celldm(4)=   0.000000  celldm(5)=   0.000000  celldm(6)=   0.000000

     crystal axes: (cart. coord. in units of alat)
               a(1) = (   1.000000   0.000000   0.000000 )  
               a(2) = (   0.500000   0.866025   0.000000 )  
               a(3) = (   0.000000   0.000000   3.477667 )  

     reciprocal axes: (cart. coord. in units 2 pi/alat)
               b(1) = (  1.000000 -0.577350  0.000000 )  
               b(2) = (  0.000000  1.154701  0.000000 )  
               b(3) = (  0.000000  0.000000  0.287549 )  


     PseudoPot. # 1 for Co read from file:
     /users/kbadger1/espresso/pseudo/pslibrary.1.0.0/pbe/PSEUDOPOTENTIALS/Co.pbe-n-kjpaw_psl.1.0.0.UPF
     MD5 check sum: 88af6ec42553d4236c267fdfcb472151
     Pseudo is Projector augmented-wave + core cor, Zval =  9.0
     Generated using 'atomic' code by A. Dal Corso  v.7.0
     Shape of augmentation charge: PSQ
     Using radial grid of 1193 points,  6 beta functions with: 
                l(1) =   0
                l(2) =   0
                l(3) =   1
                l(4) =   1
                l(5) =   2
                l(6) =   2
     Q(r) pseudized with 0 coefficients 


     PseudoPot. # 2 for C  read from file:
     /users/kbadger1/espresso/pseudo/pslibrary.1.0.0/pbe/PSEUDOPOTENTIALS/C.pbe-n-kjpaw_psl.1.0.0.UPF
     MD5 check sum: 6408e75cdba28732cea38a4db8498ce4
     Pseudo is Projector augmented-wave + core cor, Zval =  4.0
     Generated using 'atomic' code by A. Dal Corso  v.7.0
     Shape of augmentation charge: PSQ
     Using radial grid of 1073 points,  4 beta functions with: 
                l(1) =   0
                l(2) =   0
                l(3) =   1
                l(4) =   1
     Q(r) pseudized with 0 coefficients 


     PseudoPot. # 3 for O  read from file:
     /users/kbadger1/espresso/pseudo/pslibrary.1.0.0/pbe/PSEUDOPOTENTIALS/O.pbe-nl-kjpaw_psl.1.0.0.UPF
     MD5 check sum: f0439fab3598ca4e468f064226030408
     Pseudo is Projector augmented-wave + core cor, Zval =  6.0
     Generated using 'atomic' code by A. Dal Corso  v.7.0
     Shape of augmentation charge: PSQ
     Using radial grid of 1095 points,  4 beta functions with: 
                l(1) =   0
                l(2) =   0
                l(3) =   1
                l(4) =   1
     Q(r) pseudized with 0 coefficients 


     PseudoPot. # 4 for H  read from file:
     /users/kbadger1/espresso/pseudo/pslibrary.1.0.0/pbe/PSEUDOPOTENTIALS/H.pbe-kjpaw_psl.1.0.0.UPF
     MD5 check sum: fe4c6fa958fa6d3815bf5d2419cbf1df
     Pseudo is Projector augmented-wave, Zval =  1.0
     Generated using 'atomic' code by A. Dal Corso  v.7.0
     Shape of augmentation charge: PSQ
     Using radial grid of  929 points,  2 beta functions with: 
                l(1) =   0
                l(2) =   0
     Q(r) pseudized with 0 coefficients 


     atomic species   valence    mass     pseudopotential
        Co             9.00    58.93319     Co( 1.00)
        C              4.00    12.01100     C ( 1.00)
        O              6.00    15.99900     O ( 1.00)
        H              1.00     1.00800     H ( 1.00)

     Starting magnetic structure 
     atomic species   magnetization
        Co           1.000
        C            1.000
        O            0.000
        H            0.000

     No symmetry found



   Cartesian axes

     site n.     atom                  positions (alat units)
         1           Co  tau(   1) = (   0.0000000   0.1924501   1.3333333  )
         2           Co  tau(   2) = (   0.3333333   0.1924501   1.3333333  )
         3           Co  tau(   3) = (   0.6666667   0.1924501   1.3333333  )
         4           Co  tau(   4) = (   0.1666667   0.4811252   1.3333333  )
         5           Co  tau(   5) = (   0.5000000   0.4811252   1.3333333  )
         6           Co  tau(   6) = (   0.8333333   0.4811252   1.3333333  )
         7           Co  tau(   7) = (   0.3333333   0.7698004   1.3333333  )
         8           Co  tau(   8) = (   0.6666667   0.7698004   1.3333333  )
         9           Co  tau(   9) = (   1.0000000   0.7698004   1.3333333  )
        10           Co  tau(  10) = (   0.0000000   0.0000000   1.6036667  )
        11           Co  tau(  11) = (   0.3333333   0.0000000   1.6036667  )
        12           Co  tau(  12) = (   0.6666667   0.0000000   1.6036667  )
        13           Co  tau(  13) = (   0.1666667   0.2886751   1.6036667  )
        14           Co  tau(  14) = (   0.5000000   0.2886751   1.6036667  )
        15           Co  tau(  15) = (   0.8333333   0.2886751   1.6036667  )
        16           Co  tau(  16) = (   0.3333333   0.5773503   1.6036667  )
        17           Co  tau(  17) = (   0.6666667   0.5773503   1.6036667  )
        18           Co  tau(  18) = (   1.0000000   0.5773503   1.6036667  )
        19           Co  tau(  19) = (   0.0000000   0.1924501   1.8740000  )
        20           Co  tau(  20) = (   0.3333333   0.1924501   1.8740000  )
        21           Co  tau(  21) = (   0.6666667   0.1924501   1.8740000  )
        22           Co  tau(  22) = (   0.1666667   0.4811252   1.8740000  )
        23           Co  tau(  23) = (   0.5000000   0.4811252   1.8740000  )
        24           Co  tau(  24) = (   0.8333333   0.4811252   1.8740000  )
        25           Co  tau(  25) = (   0.3333333   0.7698004   1.8740000  )
        26           Co  tau(  26) = (   0.6666667   0.7698004   1.8740000  )
        27           Co  tau(  27) = (   1.0000000   0.7698004   1.8740000  )
        28           Co  tau(  28) = (   0.0000000   0.0000000   2.1443333  )
        29           Co  tau(  29) = (   0.3333333   0.0000000   2.1443333  )
        30           Co  tau(  30) = (   0.6666667   0.0000000   2.1443333  )
        31           Co  tau(  31) = (   0.1666667   0.2886751   2.1443333  )
        32           Co  tau(  32) = (   0.5000000   0.2886751   2.1443333  )
        33           Co  tau(  33) = (   0.8333333   0.2886751   2.1443333  )
        34           Co  tau(  34) = (   0.3333333   0.5773503   2.1443333  )
        35           Co  tau(  35) = (   0.6666667   0.5773503   2.1443333  )
        36           Co  tau(  36) = (   1.0000000   0.5773503   2.1443333  )
        37           C   tau(  37) = (   0.1776672  -0.0463946   2.3343097  )
        38           O   tau(  38) = (   0.1065639  -0.0677635   2.4774456  )
        39           H   tau(  39) = (   0.3551657   0.0078119   2.3534253  )

     number of k points=    13  Marzari-Vanderbilt smearing, width (Ry)=  0.0010
                       cart. coord. in units 2pi/alat
        k(    1) = (   0.0000000   0.0000000   0.0000000), wk =   0.0400000
        k(    2) = (   0.0000000   0.2309401   0.0000000), wk =   0.0800000
        k(    3) = (   0.0000000   0.4618802   0.0000000), wk =   0.0800000
        k(    4) = (   0.2000000  -0.1154701   0.0000000), wk =   0.0800000
        k(    5) = (   0.2000000   0.1154701   0.0000000), wk =   0.0800000
        k(    6) = (   0.2000000   0.3464102   0.0000000), wk =   0.0800000
        k(    7) = (   0.2000000  -0.5773503   0.0000000), wk =   0.0800000
        k(    8) = (   0.2000000  -0.3464102   0.0000000), wk =   0.0800000
        k(    9) = (   0.4000000  -0.2309401   0.0000000), wk =   0.0800000
        k(   10) = (   0.4000000   0.0000000   0.0000000), wk =   0.0800000
        k(   11) = (   0.4000000   0.2309401   0.0000000), wk =   0.0800000
        k(   12) = (   0.4000000  -0.6928203   0.0000000), wk =   0.0800000
        k(   13) = (   0.4000000  -0.4618802   0.0000000), wk =   0.0800000

     Dense  grid:   752179 G-vectors     FFT dimensions: (  80,  80, 288)

     Smooth grid:   409445 G-vectors     FFT dimensions: (  64,  64, 225)

     Estimated max dynamical RAM per process >      99.02 MB

     Estimated total dynamical RAM >       9.28 GB
     Generating pointlists ...
     new r_m :   0.0868 (alat units)  1.2299 (a.u.) for type    1
     new r_m :   0.0665 (alat units)  0.9427 (a.u.) for type    2
     new r_m :   0.0665 (alat units)  0.9427 (a.u.) for type    3
     new r_m :   0.0770 (alat units)  1.0908 (a.u.) for type    4

     Initial potential from superposition of free atoms

     starting charge     334.9897, renormalised to     335.0000

     negative rho (up, down):  3.045E-03 4.658E-04


     %%%%%%%%%%%%%%%%%%%%%%%%%%%%%%%%%%%%%%%%%%%%%%%%%%%%%%%%%%%%%%%%%%%%%%%%
     %                                                                      %
     % You are using vdW-DF, which was implemented by the Thonhauser group. %
     % Please cite the following two papers that made this development      %
     % possible and the two reviews that describe the various versions:     %
     %                                                                      %
     %   T. Thonhauser et al., PRL 115, 136402 (2015).                      %
     %   T. Thonhauser et al., PRB 76, 125112 (2007).                       %
     %   K. Berland et al., Rep. Prog. Phys. 78, 066501 (2015).             %
     %   D.C. Langreth et al., J. Phys.: Condens. Matter 21, 084203 (2009). %
     %                                                                      %
     % If you are calculating stress with vdW-DF, please also cite:         %
     %                                                                      %
     %   R. Sabatini et al., J. Phys.: Condens. Matter 24, 424209 (2012).   %
     %   C.M. Frostenson et al., Electr. Struct. 4, 014001 (2022).          %
     %                                                                      %
     %%%%%%%%%%%%%%%%%%%%%%%%%%%%%%%%%%%%%%%%%%%%%%%%%%%%%%%%%%%%%%%%%%%%%%%%

     %%%%%%%%%%%%%%%%%%%%%%%%%%%%%%%%%%%%%%%%%%%%%%%%%%%%%%%%%%%%%%%%%%%%%%%%
     %                                                                      %
     %  vdW-DF NEWS:                                                        %
     %                                                                      %
     %  * vdW-DF3 is now available. DOI: 10.1021/acs.jctc.0c00471           %
     %    use with input_dft = 'vdW-DF3-opt1' or 'vdW-DF3-opt2'             %
     %                                                                      %
     %  * Unscreened and range-separated hybrid vdW-DF-cx functionals       %
     %    DOI: 10.1063/1.4986522 and 10.1088/1361-648X/ac2ad2               %
     %    use with input_dft = 'vdW-DF-cx0'    and 'vdW-DF-ahcx'            %
     %  * Unscreened and range-separated hybrid vdW-DF2-b86r functionals    %
     %    DOI: 10.1063/1.4986522 and DOI: 10.1103/PhysRevX.12.041003        %
     %    use with input_dft = 'vdW-DF2-br0' and 'vdW-DF2-ahbr'             %
     %                                                                      %
     %%%%%%%%%%%%%%%%%%%%%%%%%%%%%%%%%%%%%%%%%%%%%%%%%%%%%%%%%%%%%%%%%%%%%%%%


     Starting wfcs are  333 randomized atomic wfcs
     Checking if some PAW data can be deallocated... 

     total cpu time spent up to now is       16.9 secs

     per-process dynamical memory:   230.1 Mb

     Self-consistent Calculation

     iteration #  1     ecut=    50.00 Ry     beta= 0.70
     Davidson diagonalization with overlap
     ethr =  1.00E-02,  avg # of iterations =  2.0

     negative rho (up, down):  3.001E-05 6.314E-08

     total cpu time spent up to now is       37.8 secs

     total energy              =   -6053.05864541 Ry
     estimated scf accuracy    <      39.43862501 Ry

     total magnetization       =    69.00 Bohr mag/cell
     absolute magnetization    =    81.27 Bohr mag/cell

     iteration #  2     ecut=    50.00 Ry     beta= 0.70
     Davidson diagonalization with overlap
     ethr =  1.00E-02,  avg # of iterations =  1.0

     negative rho (up, down):  4.015E-06 4.531E-08

     total cpu time spent up to now is       59.5 secs

     total energy              =   -6052.57259222 Ry
     estimated scf accuracy    <      24.33233408 Ry

     total magnetization       =    68.55 Bohr mag/cell
     absolute magnetization    =    76.60 Bohr mag/cell

     iteration #  3     ecut=    50.00 Ry     beta= 0.70
     Davidson diagonalization with overlap
     ethr =  7.26E-03,  avg # of iterations =  1.1

     negative rho (up, down):  2.165E-08 0.000E+00

     total cpu time spent up to now is       73.1 secs

     total energy              =   -6055.08535266 Ry
     estimated scf accuracy    <      86.08157873 Ry

     total magnetization       =    65.96 Bohr mag/cell
     absolute magnetization    =    73.27 Bohr mag/cell

     iteration #  4     ecut=    50.00 Ry     beta= 0.70
     Davidson diagonalization with overlap
     ethr =  7.26E-03,  avg # of iterations =  1.0

     total cpu time spent up to now is       92.3 secs

     total energy              =   -6056.33909312 Ry
     estimated scf accuracy    <       5.18949064 Ry

     total magnetization       =    60.52 Bohr mag/cell
     absolute magnetization    =    70.33 Bohr mag/cell

     iteration #  5     ecut=    50.00 Ry     beta= 0.70
     Davidson diagonalization with overlap
     ethr =  1.55E-03,  avg # of iterations =  1.3

     total cpu time spent up to now is      106.6 secs

     total energy              =   -6056.36522893 Ry
     estimated scf accuracy    <       2.56682119 Ry

     total magnetization       =    59.93 Bohr mag/cell
     absolute magnetization    =    69.40 Bohr mag/cell

     iteration #  6     ecut=    50.00 Ry     beta= 0.70
     Davidson diagonalization with overlap
     ethr =  7.66E-04,  avg # of iterations =  1.5

     total cpu time spent up to now is      124.1 secs

     total energy              =   -6056.48360595 Ry
     estimated scf accuracy    <       0.54651226 Ry

     total magnetization       =    59.90 Bohr mag/cell
     absolute magnetization    =    69.11 Bohr mag/cell

     iteration #  7     ecut=    50.00 Ry     beta= 0.70
     Davidson diagonalization with overlap
     ethr =  1.63E-04,  avg # of iterations =  7.7

     total cpu time spent up to now is      151.0 secs

     total energy              =   -6056.52343478 Ry
     estimated scf accuracy    <       0.91026987 Ry

     total magnetization       =    60.30 Bohr mag/cell
     absolute magnetization    =    68.98 Bohr mag/cell

     iteration #  8     ecut=    50.00 Ry     beta= 0.70
     Davidson diagonalization with overlap
     ethr =  1.63E-04,  avg # of iterations =  1.6

     total cpu time spent up to now is      165.0 secs

     total energy              =   -6056.53760028 Ry
     estimated scf accuracy    <       0.11784899 Ry

     total magnetization       =    60.58 Bohr mag/cell
     absolute magnetization    =    69.03 Bohr mag/cell

     iteration #  9     ecut=    50.00 Ry     beta= 0.70
     Davidson diagonalization with overlap
     c_bands:  3 eigenvalues not converged
     c_bands:  1 eigenvalues not converged
     ethr =  3.52E-05,  avg # of iterations = 12.2

     total cpu time spent up to now is      200.4 secs

     total energy              =   -6056.54539476 Ry
     estimated scf accuracy    <       0.23686406 Ry

     total magnetization       =    60.76 Bohr mag/cell
     absolute magnetization    =    68.80 Bohr mag/cell

     iteration # 10     ecut=    50.00 Ry     beta= 0.70
     Davidson diagonalization with overlap
     ethr =  3.52E-05,  avg # of iterations =  2.8

     total cpu time spent up to now is      221.0 secs

     total energy              =   -6056.55333019 Ry
     estimated scf accuracy    <       0.18884157 Ry

     total magnetization       =    61.02 Bohr mag/cell
     absolute magnetization    =    68.81 Bohr mag/cell

     iteration # 11     ecut=    50.00 Ry     beta= 0.70
     Davidson diagonalization with overlap
     ethr =  3.52E-05,  avg # of iterations =  1.4

     total cpu time spent up to now is      238.5 secs

     total energy              =   -6056.54423726 Ry
     estimated scf accuracy    <       0.10502065 Ry

     total magnetization       =    60.97 Bohr mag/cell
     absolute magnetization    =    68.70 Bohr mag/cell

     iteration # 12     ecut=    50.00 Ry     beta= 0.70
     Davidson diagonalization with overlap
     ethr =  3.13E-05,  avg # of iterations =  1.7

     total cpu time spent up to now is      254.1 secs

     total energy              =   -6056.54699036 Ry
     estimated scf accuracy    <       0.07736618 Ry

     total magnetization       =    60.93 Bohr mag/cell
     absolute magnetization    =    68.49 Bohr mag/cell

     iteration # 13     ecut=    50.00 Ry     beta= 0.70
     Davidson diagonalization with overlap
     ethr =  2.31E-05,  avg # of iterations =  1.2

     total cpu time spent up to now is      270.9 secs

     total energy              =   -6056.54683589 Ry
     estimated scf accuracy    <       0.07919825 Ry

     total magnetization       =    60.99 Bohr mag/cell
     absolute magnetization    =    68.46 Bohr mag/cell

     iteration # 14     ecut=    50.00 Ry     beta= 0.70
     Davidson diagonalization with overlap
     ethr =  2.31E-05,  avg # of iterations =  1.2

     total cpu time spent up to now is      284.2 secs

     total energy              =   -6056.54135205 Ry
     estimated scf accuracy    <       0.07739546 Ry

     total magnetization       =    60.99 Bohr mag/cell
     absolute magnetization    =    68.52 Bohr mag/cell

     iteration # 15     ecut=    50.00 Ry     beta= 0.70
     Davidson diagonalization with overlap
     ethr =  2.31E-05,  avg # of iterations =  1.4

     negative rho (up, down):  2.703E-03 2.111E-03

     total cpu time spent up to now is      303.8 secs

     total energy              =   -6056.53805214 Ry
     estimated scf accuracy    <       0.12995687 Ry

     total magnetization       =    61.02 Bohr mag/cell
     absolute magnetization    =    68.48 Bohr mag/cell

     iteration # 16     ecut=    50.00 Ry     beta= 0.70
     Davidson diagonalization with overlap
     ethr =  2.31E-05,  avg # of iterations =  1.8

     negative rho (up, down):  1.673E-02 1.558E-02

     total cpu time spent up to now is      318.0 secs

     total energy              =   -6056.53597785 Ry
     estimated scf accuracy    <       0.06746168 Ry

     total magnetization       =    60.98 Bohr mag/cell
     absolute magnetization    =    68.34 Bohr mag/cell

     iteration # 17     ecut=    50.00 Ry     beta= 0.70
     Davidson diagonalization with overlap
     ethr =  2.01E-05,  avg # of iterations =  1.2

     negative rho (up, down):  2.974E-02 2.827E-02

     total cpu time spent up to now is      337.0 secs

     total energy              =   -6056.53559053 Ry
     estimated scf accuracy    <       0.03063262 Ry

     total magnetization       =    61.05 Bohr mag/cell
     absolute magnetization    =    68.34 Bohr mag/cell

     iteration # 18     ecut=    50.00 Ry     beta= 0.70
     Davidson diagonalization with overlap
     c_bands:  2 eigenvalues not converged
     ethr =  9.14E-06,  avg # of iterations =  3.7

     negative rho (up, down):  3.098E-02 2.940E-02

     total cpu time spent up to now is      358.1 secs

     total energy              =   -6056.53520479 Ry
     estimated scf accuracy    <       0.01292289 Ry

     total magnetization       =    61.08 Bohr mag/cell
     absolute magnetization    =    68.32 Bohr mag/cell

     iteration # 19     ecut=    50.00 Ry     beta= 0.70
     Davidson diagonalization with overlap
     c_bands:  1 eigenvalues not converged
     ethr =  3.86E-06,  avg # of iterations =  5.8

     negative rho (up, down):  2.018E-02 1.885E-02

     total cpu time spent up to now is      376.0 secs

     total energy              =   -6056.53484989 Ry
     estimated scf accuracy    <       0.01156753 Ry

     total magnetization       =    61.09 Bohr mag/cell
     absolute magnetization    =    68.36 Bohr mag/cell

     iteration # 20     ecut=    50.00 Ry     beta= 0.70
     Davidson diagonalization with overlap
     ethr =  3.45E-06,  avg # of iterations =  1.3

     negative rho (up, down):  2.760E-02 2.616E-02

     total cpu time spent up to now is      395.1 secs

     total energy              =   -6056.53421643 Ry
     estimated scf accuracy    <       0.01454347 Ry

     total magnetization       =    61.10 Bohr mag/cell
     absolute magnetization    =    68.38 Bohr mag/cell

     iteration # 21     ecut=    50.00 Ry     beta= 0.70
     Davidson diagonalization with overlap
     ethr =  3.45E-06,  avg # of iterations =  1.4

     negative rho (up, down):  7.702E-03 7.006E-03

     total cpu time spent up to now is      409.0 secs

     total energy              =   -6056.53272820 Ry
     estimated scf accuracy    <       0.01091513 Ry

     total magnetization       =    61.10 Bohr mag/cell
     absolute magnetization    =    68.38 Bohr mag/cell

     iteration # 22     ecut=    50.00 Ry     beta= 0.70
     Davidson diagonalization with overlap
     c_bands:  1 eigenvalues not converged
     ethr =  3.26E-06,  avg # of iterations =  2.2

     negative rho (up, down):  1.169E-02 1.100E-02

     total cpu time spent up to now is      429.8 secs

     total energy              =   -6056.53306069 Ry
     estimated scf accuracy    <       0.00633096 Ry

     total magnetization       =    61.09 Bohr mag/cell
     absolute magnetization    =    68.43 Bohr mag/cell

     iteration # 23     ecut=    50.00 Ry     beta= 0.70
     Davidson diagonalization with overlap
     ethr =  1.89E-06,  avg # of iterations =  2.2

     negative rho (up, down):  1.170E-02 1.106E-02

     total cpu time spent up to now is      447.9 secs

     total energy              =   -6056.53332932 Ry
     estimated scf accuracy    <       0.00249490 Ry

     total magnetization       =    61.09 Bohr mag/cell
     absolute magnetization    =    68.43 Bohr mag/cell

     iteration # 24     ecut=    50.00 Ry     beta= 0.70
     Davidson diagonalization with overlap
     ethr =  7.45E-07,  avg # of iterations =  2.3

     negative rho (up, down):  8.071E-03 7.503E-03

     total cpu time spent up to now is      464.4 secs

     total energy              =   -6056.53346123 Ry
     estimated scf accuracy    <       0.00149361 Ry

     total magnetization       =    61.09 Bohr mag/cell
     absolute magnetization    =    68.44 Bohr mag/cell

     iteration # 25     ecut=    50.00 Ry     beta= 0.70
     Davidson diagonalization with overlap
     ethr =  4.46E-07,  avg # of iterations =  1.5

     negative rho (up, down):  7.785E-03 7.182E-03

     total cpu time spent up to now is      483.1 secs

     total energy              =   -6056.53341596 Ry
     estimated scf accuracy    <       0.00170043 Ry

     total magnetization       =    61.09 Bohr mag/cell
     absolute magnetization    =    68.44 Bohr mag/cell

     iteration # 26     ecut=    50.00 Ry     beta= 0.70
     Davidson diagonalization with overlap
     ethr =  4.46E-07,  avg # of iterations =  1.2

     negative rho (up, down):  5.009E-03 4.339E-03

     total cpu time spent up to now is      498.3 secs

     total energy              =   -6056.53360666 Ry
     estimated scf accuracy    <       0.00025628 Ry

     total magnetization       =    61.09 Bohr mag/cell
     absolute magnetization    =    68.44 Bohr mag/cell

     iteration # 27     ecut=    50.00 Ry     beta= 0.70
     Davidson diagonalization with overlap
     ethr =  7.65E-08,  avg # of iterations =  5.4

     negative rho (up, down):  4.636E-03 3.905E-03

     total cpu time spent up to now is      520.9 secs

     total energy              =   -6056.53363382 Ry
     estimated scf accuracy    <       0.00046272 Ry

     total magnetization       =    61.09 Bohr mag/cell
     absolute magnetization    =    68.44 Bohr mag/cell

     iteration # 28     ecut=    50.00 Ry     beta= 0.70
     Davidson diagonalization with overlap
     ethr =  7.65E-08,  avg # of iterations =  1.4

     negative rho (up, down):  3.653E-03 2.792E-03

     total cpu time spent up to now is      541.9 secs

     total energy              =   -6056.53363850 Ry
     estimated scf accuracy    <       0.00011328 Ry

     total magnetization       =    61.09 Bohr mag/cell
     absolute magnetization    =    68.44 Bohr mag/cell

     iteration # 29     ecut=    50.00 Ry     beta= 0.70
     Davidson diagonalization with overlap
     c_bands:  3 eigenvalues not converged
     ethr =  3.38E-08,  avg # of iterations =  3.2

     negative rho (up, down):  3.222E-03 2.252E-03

     total cpu time spent up to now is      557.8 secs

     total energy              =   -6056.53366029 Ry
     estimated scf accuracy    <       0.00010529 Ry

     total magnetization       =    61.09 Bohr mag/cell
     absolute magnetization    =    68.44 Bohr mag/cell

     iteration # 30     ecut=    50.00 Ry     beta= 0.70
     Davidson diagonalization with overlap
     ethr =  3.14E-08,  avg # of iterations =  1.4

     negative rho (up, down):  2.444E-03 1.356E-03

     total cpu time spent up to now is      577.1 secs

     total energy              =   -6056.53367432 Ry
     estimated scf accuracy    <       0.00009228 Ry

     total magnetization       =    61.09 Bohr mag/cell
     absolute magnetization    =    68.44 Bohr mag/cell

     iteration # 31     ecut=    50.00 Ry     beta= 0.70
     Davidson diagonalization with overlap
     ethr =  2.75E-08,  avg # of iterations =  1.5

     negative rho (up, down):  2.926E-03 1.856E-03

     total cpu time spent up to now is      591.2 secs

     total energy              =   -6056.53367569 Ry
     estimated scf accuracy    <       0.00005326 Ry

     total magnetization       =    61.09 Bohr mag/cell
     absolute magnetization    =    68.43 Bohr mag/cell

     iteration # 32     ecut=    50.00 Ry     beta= 0.70
     Davidson diagonalization with overlap
     ethr =  1.59E-08,  avg # of iterations =  1.7

     negative rho (up, down):  2.405E-03 1.286E-03

     total cpu time spent up to now is      610.5 secs

     total energy              =   -6056.53368613 Ry
     estimated scf accuracy    <       0.00005218 Ry

     total magnetization       =    61.09 Bohr mag/cell
     absolute magnetization    =    68.44 Bohr mag/cell

     iteration # 33     ecut=    50.00 Ry     beta= 0.70
     Davidson diagonalization with overlap
     ethr =  1.56E-08,  avg # of iterations =  1.7

     negative rho (up, down):  2.285E-03 1.199E-03

     total cpu time spent up to now is      630.3 secs

     total energy              =   -6056.53368850 Ry
     estimated scf accuracy    <       0.00006863 Ry

     total magnetization       =    61.09 Bohr mag/cell
     absolute magnetization    =    68.43 Bohr mag/cell

     iteration # 34     ecut=    50.00 Ry     beta= 0.70
     Davidson diagonalization with overlap
     ethr =  1.56E-08,  avg # of iterations =  1.5

     negative rho (up, down):  2.189E-03 1.139E-03

     total cpu time spent up to now is      644.3 secs

     total energy              =   -6056.53368922 Ry
     estimated scf accuracy    <       0.00002279 Ry

     total magnetization       =    61.09 Bohr mag/cell
     absolute magnetization    =    68.43 Bohr mag/cell

     iteration # 35     ecut=    50.00 Ry     beta= 0.70
     Davidson diagonalization with overlap
     ethr =  6.80E-09,  avg # of iterations =  2.8

     negative rho (up, down):  2.232E-03 1.191E-03

     total cpu time spent up to now is      665.7 secs

     total energy              =   -6056.53368983 Ry
     estimated scf accuracy    <       0.00000338 Ry

     total magnetization       =    61.09 Bohr mag/cell
     absolute magnetization    =    68.43 Bohr mag/cell

     iteration # 36     ecut=    50.00 Ry     beta= 0.70
     Davidson diagonalization with overlap
     c_bands:  1 eigenvalues not converged
     c_bands:  1 eigenvalues not converged
     ethr =  1.01E-09,  avg # of iterations =  8.6

     negative rho (up, down):  2.231E-03 1.157E-03

     total cpu time spent up to now is      693.5 secs

     total energy              =   -6056.53369152 Ry
     estimated scf accuracy    <       0.00000736 Ry

     total magnetization       =    61.09 Bohr mag/cell
     absolute magnetization    =    68.43 Bohr mag/cell

     iteration # 37     ecut=    50.00 Ry     beta= 0.70
     Davidson diagonalization with overlap
     ethr =  1.01E-09,  avg # of iterations =  1.8

     negative rho (up, down):  2.219E-03 1.156E-03

     total cpu time spent up to now is      709.9 secs

     total energy              =   -6056.53369135 Ry
     estimated scf accuracy    <       0.00000328 Ry

     total magnetization       =    61.09 Bohr mag/cell
     absolute magnetization    =    68.43 Bohr mag/cell

     iteration # 38     ecut=    50.00 Ry     beta= 0.70
     Davidson diagonalization with overlap
     ethr =  9.79E-10,  avg # of iterations =  1.1

     negative rho (up, down):  2.216E-03 1.145E-03

     total cpu time spent up to now is      728.1 secs

     total energy              =   -6056.53369180 Ry
     estimated scf accuracy    <       0.00000092 Ry

     total magnetization       =    61.09 Bohr mag/cell
     absolute magnetization    =    68.43 Bohr mag/cell

     iteration # 39     ecut=    50.00 Ry     beta= 0.70
     Davidson diagonalization with overlap
     ethr =  2.74E-10,  avg # of iterations =  2.7

     negative rho (up, down):  2.241E-03 1.159E-03

     total cpu time spent up to now is      748.9 secs

     total energy              =   -6056.53369203 Ry
     estimated scf accuracy    <       0.00000054 Ry

     total magnetization       =    61.09 Bohr mag/cell
     absolute magnetization    =    68.43 Bohr mag/cell

     iteration # 40     ecut=    50.00 Ry     beta= 0.70
     Davidson diagonalization with overlap
     ethr =  1.60E-10,  avg # of iterations =  2.7

     negative rho (up, down):  2.236E-03 1.154E-03

     total cpu time spent up to now is      766.3 secs

     total energy              =   -6056.53369205 Ry
     estimated scf accuracy    <       0.00000097 Ry

     total magnetization       =    61.09 Bohr mag/cell
     absolute magnetization    =    68.43 Bohr mag/cell

     iteration # 41     ecut=    50.00 Ry     beta= 0.70
     Davidson diagonalization with overlap
     ethr =  1.60E-10,  avg # of iterations =  1.4

     negative rho (up, down):  2.234E-03 1.150E-03

     total cpu time spent up to now is      784.5 secs

     total energy              =   -6056.53369208 Ry
     estimated scf accuracy    <       0.00000013 Ry

     total magnetization       =    61.09 Bohr mag/cell
     absolute magnetization    =    68.43 Bohr mag/cell

     iteration # 42     ecut=    50.00 Ry     beta= 0.70
     Davidson diagonalization with overlap
     ethr =  4.01E-11,  avg # of iterations =  5.8

     negative rho (up, down):  2.235E-03 1.150E-03

     total cpu time spent up to now is      809.5 secs

     total energy              =   -6056.53369210 Ry
     estimated scf accuracy    <       0.00000015 Ry

     total magnetization       =    61.09 Bohr mag/cell
     absolute magnetization    =    68.43 Bohr mag/cell

     iteration # 43     ecut=    50.00 Ry     beta= 0.70
     Davidson diagonalization with overlap
     ethr =  4.01E-11,  avg # of iterations =  1.5

     negative rho (up, down):  2.235E-03 1.149E-03

     total cpu time spent up to now is      823.7 secs

     total energy              =   -6056.53369210 Ry
     estimated scf accuracy    <       0.00000001 Ry

     total magnetization       =    61.09 Bohr mag/cell
     absolute magnetization    =    68.43 Bohr mag/cell

     iteration # 44     ecut=    50.00 Ry     beta= 0.70
     Davidson diagonalization with overlap
     ethr =  4.46E-12,  avg # of iterations =  7.2

     negative rho (up, down):  2.234E-03 1.148E-03

     total cpu time spent up to now is      851.9 secs

     total energy              =   -6056.53369210 Ry
     estimated scf accuracy    <       0.00000002 Ry

     total magnetization       =    61.09 Bohr mag/cell
     absolute magnetization    =    68.43 Bohr mag/cell

     iteration # 45     ecut=    50.00 Ry     beta= 0.70
     Davidson diagonalization with overlap
     ethr =  4.46E-12,  avg # of iterations =  1.2

     negative rho (up, down):  2.229E-03 1.143E-03

     Magnetic moment per site  (integrated on atomic sphere of radius R)
     atom   1 (R=0.087)  charge=  5.4881  magn=  1.6212
     atom   2 (R=0.087)  charge=  5.4871  magn=  1.6167
     atom   3 (R=0.087)  charge=  5.4870  magn=  1.6232
     atom   4 (R=0.087)  charge=  5.4873  magn=  1.6276
     atom   5 (R=0.087)  charge=  5.4872  magn=  1.6259
     atom   6 (R=0.087)  charge=  5.4873  magn=  1.6206
     atom   7 (R=0.087)  charge=  5.4882  magn=  1.6246
     atom   8 (R=0.087)  charge=  5.4890  magn=  1.6097
     atom   9 (R=0.087)  charge=  5.4871  magn=  1.6187
     atom  10 (R=0.087)  charge=  5.4836  magn=  1.5584
     atom  11 (R=0.087)  charge=  5.4840  magn=  1.5582
     atom  12 (R=0.087)  charge=  5.4837  magn=  1.5654
     atom  13 (R=0.087)  charge=  5.4831  magn=  1.5647
     atom  14 (R=0.087)  charge=  5.4831  magn=  1.5652
     atom  15 (R=0.087)  charge=  5.4833  magn=  1.5582
     atom  16 (R=0.087)  charge=  5.4835  magn=  1.5545
     atom  17 (R=0.087)  charge=  5.4834  magn=  1.5621
     atom  18 (R=0.087)  charge=  5.4831  magn=  1.5599
     atom  19 (R=0.087)  charge=  5.4827  magn=  1.5617
     atom  20 (R=0.087)  charge=  5.4822  magn=  1.5509
     atom  21 (R=0.087)  charge=  5.4825  magn=  1.5739
     atom  22 (R=0.087)  charge=  5.4829  magn=  1.5684
     atom  23 (R=0.087)  charge=  5.4831  magn=  1.5641
     atom  24 (R=0.087)  charge=  5.4824  magn=  1.5676
     atom  25 (R=0.087)  charge=  5.4821  magn=  1.5651
     atom  26 (R=0.087)  charge=  5.4807  magn=  1.5676
     atom  27 (R=0.087)  charge=  5.4810  magn=  1.5499
     atom  28 (R=0.087)  charge=  5.5003  magn=  1.3221
     atom  29 (R=0.087)  charge=  5.4962  magn=  0.8751
     atom  30 (R=0.087)  charge=  5.4878  magn=  1.6184
     atom  31 (R=0.087)  charge=  5.4907  magn=  1.6350
     atom  32 (R=0.087)  charge=  5.4872  magn=  1.6288
     atom  33 (R=0.087)  charge=  5.4863  magn=  1.6282
     atom  34 (R=0.087)  charge=  5.4880  magn=  1.6340
     atom  35 (R=0.087)  charge=  5.4946  magn=  1.5377
     atom  36 (R=0.087)  charge=  5.4882  magn=  1.6431
     atom  37 (R=0.067)  charge=  1.0806  magn= -0.0183
     atom  38 (R=0.067)  charge=  2.9954  magn= -0.0196
     atom  39 (R=0.077)  charge=  0.6445  magn= -0.0051

     total cpu time spent up to now is      870.9 secs

     End of self-consistent calculation

 ------ SPIN UP ------------


          k = 0.0000 0.0000 0.0000 ( 51087 PWs)   bands (ev):

   -21.8936 -10.2071  -7.6050  -6.7636  -6.3637  -5.8217  -5.4759  -4.7830
    -4.7573  -4.7557  -4.7518  -4.7343  -4.7294  -4.6953  -4.3882  -4.2239
    -4.2223  -4.2199  -4.1919  -4.1858  -4.1533  -3.7081  -3.7042  -3.7010
    -3.6901  -3.6831  -3.6464  -3.5813  -3.5747  -3.5721  -3.5673  -3.5649
    -3.5105  -3.5005  -3.5003  -3.1953  -3.1888  -3.1842  -3.1818  -3.1674
    -3.1234  -3.1204  -3.1181  -3.1142  -3.1095  -3.1048  -3.1008  -2.9620
    -2.9569  -2.9522  -2.8929  -2.8868  -2.8803  -2.8751  -2.8713  -2.8565
    -2.8503  -2.8496  -2.8466  -2.7827  -2.7488  -2.7427  -2.7354  -2.7314
    -2.6730  -2.5689  -2.2231  -2.2120  -2.2046  -2.1995  -2.1940  -2.1039
    -2.0814  -2.0742  -2.0526  -2.0482  -2.0435  -2.0334  -2.0289  -2.0218
    -1.9934  -1.9746  -1.9677  -1.9272  -1.9166  -1.9144  -1.8978  -1.8947
    -1.8909  -1.8849  -1.8779  -1.8770  -1.8727  -1.8524  -1.8481  -1.8431
    -1.8426  -1.8382  -1.8375  -1.8360  -1.8319  -1.8274  -1.8265  -1.8224
    -1.8187  -1.7958  -1.7729  -1.7470  -1.7376  -1.6727  -1.6679  -1.5790
    -1.4549  -1.3885  -1.3810  -1.3791  -1.3770  -1.3726  -1.3611  -1.3467
    -1.3444  -1.3392  -1.3051  -1.2893  -1.2834  -1.2655  -1.1679  -1.1640
    -1.1340  -1.1284  -1.0426  -0.9857  -0.9687  -0.9506  -0.9472  -0.9223
    -0.8980  -0.8906  -0.8857  -0.8821  -0.8774  -0.8439  -0.7705  -0.7601
    -0.6662  -0.6443  -0.6422  -0.6382  -0.6136  -0.6038  -0.5793  -0.5786
    -0.5744  -0.5722  -0.5675  -0.5638  -0.5576  -0.5532  -0.5503  -0.5464
    -0.5406  -0.5371  -0.5208  -0.5151  -0.5016  -0.4947  -0.4890  -0.4822
    -0.4714  -0.4624  -0.4500  -0.4480  -0.4394  -0.4345  -0.4233  -0.4199
    -0.4146  -0.4119  -0.3950  -0.3760  -0.3545  -0.3451  -0.3423  -0.3355
    -0.3306  -0.3274  -0.3153  -0.3004  -0.2939  -0.2607  -0.2523  -0.2508
    -0.2462  -0.2397  -0.1815  -0.1781  -0.1733  -0.1621  -0.1465  -0.1224
     0.3990   0.9830

          k = 0.0000 0.2309 0.0000 ( 51134 PWs)   bands (ev):

   -21.8936 -10.2039  -7.4587  -6.7615  -6.2717  -5.8166  -5.5266  -5.4059
    -4.9974  -4.9905  -4.6311  -4.4883  -4.4147  -4.4117  -4.3470  -4.2914
    -4.2452  -4.2284  -4.1402  -4.0913  -4.0853  -3.8239  -3.7137  -3.7057
    -3.6327  -3.5995  -3.5884  -3.5839  -3.5805  -3.5640  -3.5533  -3.5361
    -3.4942  -3.4658  -3.4482  -3.4300  -3.4280  -3.2475  -3.2068  -3.2006
    -3.1537  -3.1470  -3.1422  -3.1363  -3.0844  -3.0345  -3.0139  -2.9991
    -2.9783  -2.9732  -2.9519  -2.9384  -2.8575  -2.8441  -2.8171  -2.8010
    -2.7713  -2.7531  -2.7410  -2.7310  -2.7141  -2.6932  -2.6699  -2.6613
    -2.6019  -2.5458  -2.3273  -2.3182  -2.3000  -2.2917  -2.2517  -2.1805
    -2.1741  -2.1657  -2.1526  -2.1417  -2.1369  -2.1223  -2.1076  -2.0567
    -2.0361  -2.0293  -2.0094  -1.9711  -1.9688  -1.9660  -1.9501  -1.9410
    -1.9307  -1.9232  -1.9198  -1.9157  -1.9062  -1.8851  -1.8550  -1.8311
    -1.8145  -1.7973  -1.7529  -1.7430  -1.7323  -1.7263  -1.7181  -1.7128
    -1.6960  -1.6871  -1.6789  -1.6771  -1.6668  -1.6548  -1.6316  -1.6299
    -1.6094  -1.6048  -1.5865  -1.5189  -1.5058  -1.4514  -1.4092  -1.4051
    -1.3959  -1.3875  -1.3795  -1.3715  -1.3635  -1.3508  -1.2911  -1.2228
    -1.2094  -1.1889  -1.1166  -1.1112  -1.0934  -1.0479  -1.0236  -1.0126
    -0.9825  -0.9263  -0.9144  -0.8945  -0.8765  -0.8669  -0.8348  -0.8266
    -0.8120  -0.7990  -0.7845  -0.7457  -0.7416  -0.7262  -0.7213  -0.7107
    -0.6898  -0.6482  -0.6450  -0.6372  -0.6293  -0.6032  -0.5810  -0.5753
    -0.5658  -0.5567  -0.5529  -0.5423  -0.5213  -0.5161  -0.5038  -0.4869
    -0.4519  -0.4423  -0.4234  -0.3974  -0.3806  -0.3666  -0.3433  -0.3237
    -0.3165  -0.3067  -0.3008  -0.2971  -0.2750  -0.2702  -0.2603  -0.2228
    -0.1865  -0.1773  -0.1724  -0.1505  -0.1442  -0.1372  -0.1038  -0.0869
    -0.0301  -0.0052   0.1887   0.2063   0.3003   0.4011   0.4625   0.4925
     0.5065   0.7937

          k = 0.0000 0.4619 0.0000 ( 51204 PWs)   bands (ev):

   -21.8936 -10.1987  -7.0341  -6.7585  -6.3642  -6.0702  -5.6653  -5.3930
    -5.1406  -5.1225  -5.0025  -4.2991  -4.2453  -4.2398  -4.2220  -4.1692
    -4.0581  -4.0555  -4.0100  -3.9268  -3.9213  -3.9153  -3.8051  -3.7468
    -3.7426  -3.7279  -3.7262  -3.6721  -3.6196  -3.6159  -3.5800  -3.4597
    -3.4529  -3.4410  -3.4287  -3.4072  -3.4015  -3.3146  -3.2955  -3.2904
    -3.2839  -3.2768  -3.1753  -3.0812  -3.0692  -3.0077  -2.9730  -2.9627
    -2.9391  -2.9183  -2.8971  -2.8926  -2.8781  -2.8530  -2.8203  -2.7967
    -2.7766  -2.7308  -2.7220  -2.6725  -2.5850  -2.5747  -2.5576  -2.5309
    -2.4936  -2.4692  -2.4451  -2.4328  -2.4061  -2.3489  -2.3058  -2.2995
    -2.2918  -2.2879  -2.2769  -2.2569  -2.2491  -2.2371  -2.2139  -2.1941
    -2.1619  -2.1365  -2.1262  -2.1035  -2.0727  -2.0588  -2.0194  -1.9788
    -1.9662  -1.9629  -1.9346  -1.9191  -1.9002  -1.8662  -1.8579  -1.8464
    -1.8419  -1.8208  -1.8161  -1.7936  -1.7756  -1.7703  -1.7599  -1.7463
    -1.7269  -1.7079  -1.6676  -1.6572  -1.6006  -1.5863  -1.5697  -1.5638
    -1.5334  -1.5148  -1.4918  -1.4566  -1.4457  -1.4242  -1.4201  -1.4152
    -1.4133  -1.4059  -1.3958  -1.3894  -1.3823  -1.3666  -1.3593  -1.3508
    -1.3450  -1.3094  -1.2465  -1.2178  -1.1917  -1.1775  -1.1648  -1.1473
    -1.1129  -1.0780  -1.0518  -1.0413  -1.0296  -0.9907  -0.9584  -0.9139
    -0.9032  -0.8782  -0.8661  -0.8420  -0.8286  -0.8103  -0.7841  -0.7479
    -0.6976  -0.6675  -0.6574  -0.6560  -0.6415  -0.6365  -0.6262  -0.6173
    -0.6038  -0.5947  -0.5048  -0.4896  -0.4782  -0.4683  -0.4621  -0.4572
    -0.4440  -0.4334  -0.4109  -0.4072  -0.3821  -0.3687  -0.3111  -0.2950
    -0.2876  -0.2705  -0.2554  -0.2086  -0.1901  -0.1671  -0.1533  -0.1202
    -0.0918  -0.0741  -0.0700  -0.0507  -0.0488  -0.0447  -0.0316   0.0193
     0.0666   0.1035   0.3894   0.7702   1.0139   1.1656   1.1931   1.3946
     1.4435   1.5616

          k = 0.2000-0.1155 0.0000 ( 51134 PWs)   bands (ev):

   -21.8936 -10.2036  -7.4598  -6.7658  -6.2669  -5.8030  -5.5393  -5.4056
    -4.9968  -4.9895  -4.6292  -4.4980  -4.4156  -4.4105  -4.3473  -4.2976
    -4.2484  -4.2136  -4.1472  -4.0919  -4.0778  -3.8269  -3.7153  -3.7036
    -3.6297  -3.6021  -3.5874  -3.5842  -3.5801  -3.5725  -3.5538  -3.5289
    -3.5025  -3.4663  -3.4459  -3.4310  -3.4280  -3.2393  -3.2070  -3.2013
    -3.1698  -3.1468  -3.1424  -3.1336  -3.0661  -3.0569  -3.0137  -2.9937
    -2.9795  -2.9693  -2.9594  -2.9384  -2.8650  -2.8387  -2.8211  -2.7975
    -2.7709  -2.7484  -2.7377  -2.7227  -2.7096  -2.6907  -2.6707  -2.6619
    -2.6051  -2.5457  -2.3314  -2.3177  -2.2949  -2.2829  -2.2502  -2.1791
    -2.1749  -2.1666  -2.1532  -2.1449  -2.1377  -2.1192  -2.0939  -2.0578
    -2.0372  -2.0295  -2.0109  -1.9710  -1.9666  -1.9654  -1.9572  -1.9357
    -1.9321  -1.9264  -1.9222  -1.9178  -1.9046  -1.8927  -1.8384  -1.8299
    -1.8167  -1.7896  -1.7689  -1.7395  -1.7348  -1.7301  -1.7174  -1.7092
    -1.7008  -1.6863  -1.6809  -1.6763  -1.6640  -1.6534  -1.6307  -1.6248
    -1.6160  -1.6004  -1.5886  -1.5260  -1.5097  -1.4559  -1.4080  -1.4042
    -1.3932  -1.3846  -1.3776  -1.3733  -1.3666  -1.3555  -1.2626  -1.2361
    -1.2081  -1.1872  -1.1177  -1.1115  -1.0918  -1.0508  -1.0253  -1.0108
    -0.9584  -0.9419  -0.9188  -0.9034  -0.8794  -0.8690  -0.8390  -0.8325
    -0.8175  -0.7922  -0.7796  -0.7441  -0.7412  -0.7291  -0.7220  -0.7128
    -0.6885  -0.6484  -0.6423  -0.6398  -0.6115  -0.5980  -0.5783  -0.5754
    -0.5663  -0.5587  -0.5537  -0.5426  -0.5219  -0.5171  -0.5042  -0.4942
    -0.4462  -0.4339  -0.4167  -0.3994  -0.3822  -0.3676  -0.3411  -0.3247
    -0.3166  -0.3073  -0.2997  -0.2958  -0.2754  -0.2688  -0.2613  -0.2212
    -0.1843  -0.1759  -0.1727  -0.1488  -0.1438  -0.1327  -0.0998  -0.0872
    -0.0349  -0.0154   0.1756   0.2052   0.2859   0.3804   0.4582   0.4949
     0.5218   0.7852

          k = 0.2000 0.1155 0.0000 ( 51134 PWs)   bands (ev):

   -21.8936 -10.2034  -7.4612  -6.7711  -6.2623  -5.7914  -5.5030  -5.4560
    -4.9946  -4.9838  -4.6308  -4.5038  -4.4150  -4.4095  -4.3492  -4.2978
    -4.2457  -4.2109  -4.1519  -4.0892  -4.0764  -3.8278  -3.7134  -3.7048
    -3.6279  -3.6062  -3.5872  -3.5843  -3.5794  -3.5723  -3.5531  -3.5308
    -3.5006  -3.4656  -3.4468  -3.4296  -3.4246  -3.2462  -3.2089  -3.2020
    -3.1693  -3.1465  -3.1436  -3.1356  -3.0820  -3.0367  -3.0159  -2.9943
    -2.9739  -2.9674  -2.9495  -2.9380  -2.8848  -2.8457  -2.8296  -2.7892
    -2.7721  -2.7497  -2.7375  -2.7145  -2.7016  -2.6877  -2.6711  -2.6555
    -2.6224  -2.5418  -2.3316  -2.3246  -2.2947  -2.2797  -2.2497  -2.1774
    -2.1759  -2.1657  -2.1536  -2.1487  -2.1373  -2.1162  -2.0938  -2.0526
    -2.0443  -2.0272  -2.0040  -1.9714  -1.9668  -1.9634  -1.9568  -1.9375
    -1.9318  -1.9276  -1.9230  -1.9182  -1.9009  -1.8797  -1.8421  -1.8379
    -1.8195  -1.7854  -1.7568  -1.7384  -1.7333  -1.7252  -1.7141  -1.7103
    -1.7036  -1.6918  -1.6846  -1.6755  -1.6714  -1.6540  -1.6298  -1.6256
    -1.6124  -1.6033  -1.5827  -1.5310  -1.5050  -1.4697  -1.4058  -1.4005
    -1.3982  -1.3888  -1.3758  -1.3738  -1.3628  -1.3557  -1.2429  -1.2249
    -1.2171  -1.1848  -1.1192  -1.1136  -1.0858  -1.0558  -1.0263  -1.0189
    -0.9606  -0.9331  -0.9228  -0.8969  -0.8883  -0.8723  -0.8375  -0.8323
    -0.8127  -0.7925  -0.7808  -0.7424  -0.7373  -0.7349  -0.7296  -0.7118
    -0.6912  -0.6491  -0.6404  -0.6370  -0.6137  -0.5855  -0.5809  -0.5756
    -0.5612  -0.5581  -0.5543  -0.5443  -0.5271  -0.5140  -0.5078  -0.5065
    -0.4449  -0.4276  -0.4136  -0.4015  -0.3787  -0.3767  -0.3385  -0.3238
    -0.3202  -0.3065  -0.2994  -0.2948  -0.2744  -0.2681  -0.2604  -0.2175
    -0.1809  -0.1757  -0.1721  -0.1463  -0.1456  -0.1361  -0.0960  -0.0892
    -0.0349  -0.0201   0.1818   0.2063   0.2515   0.3806   0.4544   0.4852
     0.5330   0.7682

          k = 0.2000 0.3464 0.0000 ( 51202 PWs)   bands (ev):

   -21.8936 -10.1992  -7.1789  -6.7658  -6.1483  -5.8705  -5.8137  -5.6105
    -5.4334  -4.7230  -4.6501  -4.4199  -4.4103  -4.3641  -4.2039  -4.1997
    -4.1098  -4.1019  -4.0798  -3.9669  -3.9484  -3.8279  -3.8178  -3.7597
    -3.7118  -3.6245  -3.6205  -3.5911  -3.5691  -3.5593  -3.5535  -3.5233
    -3.5190  -3.4994  -3.4554  -3.4394  -3.4075  -3.3729  -3.3606  -3.2530
    -3.2337  -3.1510  -3.1381  -3.1111  -3.1014  -3.0853  -2.9948  -2.9702
    -2.9408  -2.9234  -2.9091  -2.9022  -2.8638  -2.8481  -2.8302  -2.8159
    -2.7951  -2.7063  -2.6820  -2.6420  -2.6255  -2.6086  -2.5921  -2.5612
    -2.5554  -2.4913  -2.4376  -2.3639  -2.3543  -2.3165  -2.2971  -2.2777
    -2.2656  -2.2526  -2.2460  -2.2262  -2.2104  -2.1967  -2.1869  -2.1755
    -2.1718  -2.1436  -2.0940  -2.0561  -2.0041  -1.9978  -1.9727  -1.9625
    -1.9491  -1.9289  -1.9173  -1.8864  -1.8763  -1.8524  -1.8423  -1.8378
    -1.8244  -1.8175  -1.7995  -1.7940  -1.7858  -1.7776  -1.7581  -1.7438
    -1.7319  -1.7182  -1.6888  -1.6658  -1.6512  -1.6366  -1.6037  -1.6001
    -1.5868  -1.5717  -1.5617  -1.5258  -1.4956  -1.4903  -1.4715  -1.4403
    -1.4315  -1.4241  -1.4170  -1.3976  -1.3867  -1.3728  -1.3570  -1.3242
    -1.2768  -1.2605  -1.2476  -1.2002  -1.1402  -1.1225  -1.1094  -1.0345
    -0.9987  -0.9899  -0.9834  -0.9723  -0.9605  -0.9518  -0.9341  -0.9268
    -0.9044  -0.8879  -0.8662  -0.8321  -0.8236  -0.8121  -0.7862  -0.7794
    -0.7613  -0.7436  -0.7144  -0.7066  -0.7004  -0.6909  -0.6006  -0.5437
    -0.5392  -0.5112  -0.5020  -0.4940  -0.4871  -0.4675  -0.4554  -0.4498
    -0.4352  -0.3989  -0.3623  -0.3564  -0.3409  -0.3324  -0.2942  -0.2856
    -0.2720  -0.2667  -0.2625  -0.2380  -0.2268  -0.2222  -0.2199  -0.1909
    -0.1867  -0.1089  -0.0948  -0.0917  -0.0489  -0.0381  -0.0285   0.0277
     0.2767   0.2975   0.3582   0.5032   0.6044   0.6823   1.0779   1.1615
     1.2429   1.3844

          k = 0.2000-0.5774 0.0000 ( 51262 PWs)   bands (ev):

   -21.8936 -10.1968  -6.8066  -6.6173  -6.5823  -6.0604  -5.8837  -5.5858
    -5.2169  -5.1613  -4.7426  -4.4031  -4.1660  -4.1230  -4.0128  -3.9912
    -3.9851  -3.9623  -3.9580  -3.9302  -3.8822  -3.8736  -3.8706  -3.8605
    -3.7893  -3.7470  -3.7254  -3.7181  -3.6954  -3.6847  -3.5794  -3.5423
    -3.5332  -3.5143  -3.5003  -3.4569  -3.3808  -3.3613  -3.2692  -3.2471
    -3.2398  -3.1785  -3.1594  -3.1443  -3.1157  -3.0449  -3.0328  -3.0255
    -2.9722  -2.9578  -2.8973  -2.8450  -2.8107  -2.8046  -2.7832  -2.7458
    -2.7192  -2.6673  -2.6534  -2.6394  -2.6328  -2.6109  -2.5967  -2.5323
    -2.4938  -2.4541  -2.4358  -2.4277  -2.4201  -2.3670  -2.3553  -2.3073
    -2.2925  -2.2612  -2.2550  -2.2471  -2.2395  -2.2101  -2.1888  -2.1779
    -2.1647  -2.1560  -2.1340  -2.1177  -2.1133  -2.0918  -2.0411  -2.0189
    -2.0094  -1.9946  -1.9521  -1.9308  -1.8971  -1.8838  -1.8715  -1.8535
    -1.8359  -1.8204  -1.8166  -1.8127  -1.7979  -1.7859  -1.7643  -1.7576
    -1.7008  -1.6779  -1.6676  -1.6629  -1.6497  -1.6470  -1.6375  -1.6283
    -1.6203  -1.6108  -1.5955  -1.5594  -1.5530  -1.5170  -1.5082  -1.4783
    -1.4230  -1.4188  -1.3827  -1.3720  -1.3601  -1.3533  -1.3341  -1.2857
    -1.2669  -1.2574  -1.2397  -1.1888  -1.1671  -1.1256  -1.1092  -1.0955
    -1.0736  -1.0651  -1.0553  -1.0333  -1.0088  -0.9926  -0.9715  -0.9620
    -0.9217  -0.8995  -0.8938  -0.8826  -0.8688  -0.8345  -0.8014  -0.7844
    -0.7759  -0.7674  -0.7520  -0.7401  -0.7292  -0.7051  -0.6710  -0.5665
    -0.5081  -0.4972  -0.4940  -0.4843  -0.4766  -0.4700  -0.4519  -0.4413
    -0.4115  -0.4002  -0.3936  -0.3859  -0.3383  -0.2966  -0.2686  -0.2638
    -0.2472  -0.2391  -0.2203  -0.2060  -0.1776  -0.1624  -0.1566  -0.1429
    -0.1321  -0.0726  -0.0697  -0.0623  -0.0455  -0.0344  -0.0126   0.0304
     0.2087   0.3227   0.5469   0.7613   1.1850   1.2350   1.4095   1.5637
     1.7370   1.7925

          k = 0.2000-0.3464 0.0000 ( 51202 PWs)   bands (ev):

   -21.8936 -10.1995  -7.1721  -6.7656  -6.1505  -5.8872  -5.8185  -5.6156
    -5.4121  -4.7264  -4.6451  -4.4221  -4.4093  -4.3642  -4.2021  -4.2000
    -4.1088  -4.1006  -4.0769  -3.9676  -3.9534  -3.8280  -3.8169  -3.7633
    -3.7143  -3.6222  -3.6205  -3.5897  -3.5682  -3.5596  -3.5576  -3.5242
    -3.5162  -3.4997  -3.4624  -3.4399  -3.4054  -3.3701  -3.3532  -3.2454
    -3.2341  -3.1480  -3.1401  -3.1200  -3.0987  -3.0843  -3.0054  -2.9520
    -2.9356  -2.9303  -2.9103  -2.8932  -2.8689  -2.8469  -2.8245  -2.8107
    -2.7936  -2.7262  -2.6776  -2.6596  -2.6235  -2.6091  -2.5777  -2.5613
    -2.5497  -2.5062  -2.4300  -2.3646  -2.3480  -2.3095  -2.3017  -2.2748
    -2.2602  -2.2554  -2.2481  -2.2224  -2.2129  -2.2036  -2.1892  -2.1740
    -2.1595  -2.1546  -2.0930  -2.0707  -2.0038  -1.9984  -1.9727  -1.9566
    -1.9479  -1.9372  -1.9176  -1.8859  -1.8769  -1.8554  -1.8463  -1.8394
    -1.8255  -1.8162  -1.8092  -1.7944  -1.7832  -1.7772  -1.7589  -1.7419
    -1.7293  -1.7158  -1.6938  -1.6736  -1.6543  -1.6403  -1.6065  -1.6042
    -1.5917  -1.5655  -1.5607  -1.5240  -1.4977  -1.4844  -1.4733  -1.4448
    -1.4269  -1.4229  -1.4204  -1.3948  -1.3907  -1.3715  -1.3587  -1.3133
    -1.2800  -1.2535  -1.2464  -1.2077  -1.1406  -1.1202  -1.1147  -1.0183
    -1.0011  -0.9902  -0.9775  -0.9682  -0.9582  -0.9537  -0.9389  -0.9139
    -0.9084  -0.8921  -0.8657  -0.8337  -0.8218  -0.8138  -0.7917  -0.7736
    -0.7603  -0.7400  -0.7230  -0.7052  -0.6982  -0.6896  -0.5940  -0.5488
    -0.5373  -0.5145  -0.5077  -0.4970  -0.4817  -0.4666  -0.4584  -0.4517
    -0.4321  -0.4000  -0.3556  -0.3535  -0.3409  -0.3361  -0.2986  -0.2855
    -0.2705  -0.2687  -0.2625  -0.2366  -0.2284  -0.2221  -0.2142  -0.1983
    -0.1889  -0.1136  -0.0931  -0.0901  -0.0461  -0.0437  -0.0273   0.0429
     0.2634   0.2969   0.3550   0.5284   0.5770   0.6878   1.1352   1.1676
     1.2416   1.3729

          k = 0.4000-0.2309 0.0000 ( 51204 PWs)   bands (ev):

   -21.8936 -10.1980  -7.0456  -6.7632  -6.3463  -6.0660  -5.6393  -5.4231
    -5.1377  -5.1187  -5.0144  -4.3076  -4.2494  -4.2422  -4.2029  -4.1735
    -4.0588  -4.0543  -4.0118  -3.9257  -3.9218  -3.9147  -3.8111  -3.7465
    -3.7396  -3.7295  -3.7253  -3.6725  -3.6241  -3.6176  -3.5982  -3.4601
    -3.4530  -3.4407  -3.4236  -3.4102  -3.3975  -3.3044  -3.2940  -3.2903
    -3.2884  -3.2778  -3.1657  -3.1128  -3.0660  -3.0248  -2.9718  -2.9613
    -2.9391  -2.9180  -2.8954  -2.8932  -2.8792  -2.8549  -2.8077  -2.7953
    -2.7758  -2.7318  -2.7211  -2.6505  -2.5818  -2.5774  -2.5604  -2.5242
    -2.4809  -2.4650  -2.4484  -2.4318  -2.3980  -2.3465  -2.3025  -2.2982
    -2.2916  -2.2865  -2.2657  -2.2577  -2.2475  -2.2363  -2.2239  -2.1815
    -2.1584  -2.1383  -2.1272  -2.1018  -2.0779  -2.0580  -2.0314  -1.9779
    -1.9677  -1.9615  -1.9360  -1.9223  -1.8926  -1.8635  -1.8597  -1.8508
    -1.8375  -1.8164  -1.8128  -1.7935  -1.7887  -1.7713  -1.7539  -1.7459
    -1.7279  -1.7071  -1.6685  -1.6419  -1.6023  -1.5871  -1.5636  -1.5497
    -1.5361  -1.5172  -1.4989  -1.4558  -1.4445  -1.4318  -1.4207  -1.4165
    -1.4100  -1.4052  -1.3946  -1.3913  -1.3854  -1.3746  -1.3623  -1.3480
    -1.3263  -1.3122  -1.2573  -1.2146  -1.1936  -1.1787  -1.1683  -1.1374
    -1.1251  -1.0788  -1.0570  -1.0391  -1.0318  -0.9919  -0.9637  -0.9213
    -0.9127  -0.8784  -0.8605  -0.8550  -0.8261  -0.8077  -0.7744  -0.7536
    -0.7134  -0.6656  -0.6585  -0.6405  -0.6382  -0.6341  -0.6216  -0.6179
    -0.5976  -0.5941  -0.5056  -0.4876  -0.4813  -0.4730  -0.4595  -0.4548
    -0.4401  -0.4213  -0.4191  -0.4079  -0.3806  -0.3615  -0.3085  -0.2954
    -0.2854  -0.2732  -0.2501  -0.2073  -0.1901  -0.1674  -0.1509  -0.1208
    -0.0823  -0.0720  -0.0677  -0.0490  -0.0479  -0.0450  -0.0277   0.0119
     0.0662   0.1030   0.3728   0.7709   0.9905   1.1396   1.1903   1.3422
     1.4312   1.5606

          k = 0.4000 0.0000 0.0000 ( 51202 PWs)   bands (ev):

   -21.8936 -10.1987  -7.1842  -6.7661  -6.1439  -5.8591  -5.8084  -5.6109
    -5.4488  -4.7114  -4.6586  -4.4230  -4.4176  -4.3613  -4.2041  -4.1987
    -4.1058  -4.1030  -4.0895  -3.9684  -3.9403  -3.8298  -3.8184  -3.7583
    -3.7128  -3.6237  -3.6153  -3.5858  -3.5705  -3.5610  -3.5541  -3.5323
    -3.5166  -3.4992  -3.4647  -3.4470  -3.4048  -3.3756  -3.3625  -3.2468
    -3.2339  -3.1500  -3.1357  -3.1106  -3.0972  -3.0867  -3.0126  -2.9848
    -2.9442  -2.9142  -2.9094  -2.9027  -2.8568  -2.8481  -2.8262  -2.8167
    -2.7962  -2.7087  -2.6852  -2.6299  -2.6155  -2.6101  -2.5934  -2.5609
    -2.5553  -2.4666  -2.4382  -2.3603  -2.3531  -2.3164  -2.3010  -2.2785
    -2.2634  -2.2509  -2.2462  -2.2224  -2.2146  -2.1989  -2.1931  -2.1738
    -2.1559  -2.1463  -2.0956  -2.0583  -2.0049  -1.9972  -1.9807  -1.9603
    -1.9415  -1.9323  -1.9145  -1.8869  -1.8792  -1.8496  -1.8413  -1.8343
    -1.8238  -1.8213  -1.8051  -1.7901  -1.7855  -1.7721  -1.7601  -1.7423
    -1.7253  -1.7051  -1.6832  -1.6628  -1.6516  -1.6414  -1.6082  -1.6026
    -1.5832  -1.5716  -1.5597  -1.5332  -1.4993  -1.4913  -1.4678  -1.4400
    -1.4330  -1.4271  -1.4177  -1.3925  -1.3863  -1.3798  -1.3585  -1.3288
    -1.2731  -1.2650  -1.2562  -1.2027  -1.1318  -1.1276  -1.1119  -1.0355
    -0.9990  -0.9901  -0.9806  -0.9746  -0.9602  -0.9532  -0.9370  -0.9338
    -0.9052  -0.8886  -0.8672  -0.8307  -0.8152  -0.8101  -0.7837  -0.7783
    -0.7588  -0.7429  -0.7142  -0.7090  -0.7028  -0.6919  -0.6028  -0.5430
    -0.5364  -0.5114  -0.5016  -0.4978  -0.4828  -0.4682  -0.4568  -0.4491
    -0.4344  -0.3962  -0.3698  -0.3524  -0.3418  -0.3302  -0.2909  -0.2848
    -0.2711  -0.2692  -0.2594  -0.2383  -0.2271  -0.2215  -0.2186  -0.1912
    -0.1865  -0.1086  -0.0944  -0.0922  -0.0489  -0.0428  -0.0145   0.0255
     0.2906   0.2976   0.3606   0.4931   0.6121   0.6694   1.0246   1.1699
     1.2325   1.3593

          k = 0.4000 0.2309 0.0000 ( 51204 PWs)   bands (ev):

   -21.8936 -10.1975  -7.0601  -6.7678  -6.3262  -6.0607  -5.5861  -5.4825
    -5.1387  -5.1061  -5.0288  -4.3092  -4.2512  -4.2405  -4.1978  -4.1786
    -4.0588  -4.0528  -4.0115  -3.9238  -3.9197  -3.9150  -3.8138  -3.7438
    -3.7388  -3.7298  -3.7244  -3.6720  -3.6227  -3.6181  -3.6017  -3.4607
    -3.4555  -3.4401  -3.4268  -3.4072  -3.3951  -3.3155  -3.2938  -3.2900
    -3.2836  -3.2801  -3.1828  -3.1002  -3.0687  -3.0056  -2.9732  -2.9545
    -2.9390  -2.9272  -2.8960  -2.8928  -2.8869  -2.8654  -2.7990  -2.7925
    -2.7800  -2.7370  -2.7233  -2.6341  -2.5774  -2.5739  -2.5655  -2.5255
    -2.4914  -2.4530  -2.4472  -2.4383  -2.4073  -2.3471  -2.3136  -2.2977
    -2.2934  -2.2910  -2.2682  -2.2555  -2.2440  -2.2416  -2.2164  -2.1716
    -2.1532  -2.1408  -2.1234  -2.0975  -2.0754  -2.0648  -2.0197  -1.9843
    -1.9689  -1.9646  -1.9361  -1.9216  -1.8863  -1.8631  -1.8560  -1.8527
    -1.8398  -1.8187  -1.8103  -1.7899  -1.7818  -1.7714  -1.7555  -1.7445
    -1.7261  -1.7113  -1.6669  -1.6288  -1.6050  -1.5895  -1.5600  -1.5553
    -1.5324  -1.5212  -1.4925  -1.4497  -1.4405  -1.4356  -1.4259  -1.4181
    -1.4098  -1.4043  -1.3940  -1.3899  -1.3844  -1.3807  -1.3594  -1.3444
    -1.3219  -1.2978  -1.2689  -1.2125  -1.1899  -1.1805  -1.1735  -1.1253
    -1.1166  -1.0845  -1.0608  -1.0395  -1.0338  -0.9849  -0.9777  -0.9339
    -0.9144  -0.8797  -0.8634  -0.8560  -0.8294  -0.8004  -0.7741  -0.7569
    -0.7180  -0.6716  -0.6584  -0.6435  -0.6366  -0.6287  -0.6207  -0.6126
    -0.5999  -0.5944  -0.4989  -0.4900  -0.4864  -0.4723  -0.4596  -0.4477
    -0.4388  -0.4221  -0.4133  -0.4038  -0.3886  -0.3615  -0.3061  -0.2918
    -0.2870  -0.2778  -0.2470  -0.2071  -0.1899  -0.1640  -0.1520  -0.1189
    -0.0849  -0.0715  -0.0689  -0.0493  -0.0487  -0.0454  -0.0212   0.0161
     0.0651   0.0978   0.3379   0.8601   0.9374   1.1007   1.1910   1.2424
     1.4556   1.5711

          k = 0.4000-0.6928 0.0000 ( 51262 PWs)   bands (ev):

   -21.8936 -10.1960  -6.8649  -6.6055  -6.5200  -6.0804  -5.8953  -5.4869
    -5.3114  -5.1689  -4.7218  -4.4017  -4.1685  -4.1265  -4.0217  -3.9872
    -3.9844  -3.9660  -3.9562  -3.9294  -3.8802  -3.8732  -3.8711  -3.8620
    -3.7897  -3.7561  -3.7239  -3.7151  -3.6936  -3.6885  -3.5615  -3.5410
    -3.5379  -3.5266  -3.5073  -3.4583  -3.3755  -3.3505  -3.2831  -3.2465
    -3.2443  -3.1833  -3.1592  -3.1463  -3.1168  -3.0422  -3.0340  -3.0242
    -2.9622  -2.9494  -2.9272  -2.8527  -2.8259  -2.8057  -2.7663  -2.7437
    -2.6935  -2.6666  -2.6508  -2.6470  -2.6400  -2.6058  -2.5791  -2.5218
    -2.5071  -2.4495  -2.4423  -2.4311  -2.4044  -2.3711  -2.3587  -2.3053
    -2.2934  -2.2583  -2.2542  -2.2436  -2.2308  -2.2211  -2.1848  -2.1714
    -2.1613  -2.1534  -2.1428  -2.1199  -2.1115  -2.0671  -2.0523  -2.0305
    -2.0136  -2.0074  -1.9410  -1.9333  -1.8933  -1.8759  -1.8667  -1.8555
    -1.8320  -1.8260  -1.8115  -1.8022  -1.7955  -1.7664  -1.7615  -1.7533
    -1.6903  -1.6786  -1.6715  -1.6646  -1.6474  -1.6449  -1.6419  -1.6287
    -1.6212  -1.6137  -1.5940  -1.5763  -1.5483  -1.5162  -1.5052  -1.4908
    -1.4292  -1.4162  -1.3908  -1.3696  -1.3553  -1.3483  -1.3318  -1.2977
    -1.2719  -1.2593  -1.2456  -1.1876  -1.1503  -1.1276  -1.1143  -1.0918
    -1.0795  -1.0580  -1.0522  -1.0408  -1.0147  -0.9993  -0.9611  -0.9506
    -0.9152  -0.9078  -0.9005  -0.8759  -0.8627  -0.8433  -0.8032  -0.7986
    -0.7834  -0.7696  -0.7519  -0.7388  -0.7236  -0.7005  -0.6748  -0.5736
    -0.5054  -0.4960  -0.4935  -0.4793  -0.4743  -0.4664  -0.4531  -0.4346
    -0.4146  -0.4028  -0.3989  -0.3889  -0.3309  -0.2842  -0.2676  -0.2626
    -0.2571  -0.2375  -0.2175  -0.2010  -0.1754  -0.1608  -0.1549  -0.1413
    -0.1401  -0.0798  -0.0683  -0.0611  -0.0453  -0.0342  -0.0130   0.0283
     0.1892   0.3347   0.6122   0.7524   1.0634   1.2364   1.3307   1.6624
     1.7126   1.7685

          k = 0.4000-0.4619 0.0000 ( 51262 PWs)   bands (ev):

   -21.8936 -10.1963  -6.8353  -6.6108  -6.5535  -6.0709  -5.8860  -5.5476
    -5.2555  -5.1656  -4.7306  -4.4029  -4.1662  -4.1231  -4.0203  -3.9898
    -3.9842  -3.9650  -3.9594  -3.9291  -3.8817  -3.8736  -3.8705  -3.8631
    -3.7918  -3.7515  -3.7234  -3.7163  -3.6949  -3.6851  -3.5650  -3.5415
    -3.5379  -3.5232  -3.5092  -3.4617  -3.3732  -3.3533  -3.2660  -3.2506
    -3.2427  -3.1848  -3.1558  -3.1422  -3.1164  -3.0627  -3.0326  -3.0257
    -2.9713  -2.9557  -2.9000  -2.8449  -2.8187  -2.8016  -2.7801  -2.7455
    -2.7089  -2.6656  -2.6551  -2.6422  -2.6353  -2.6007  -2.5937  -2.5282
    -2.4843  -2.4516  -2.4386  -2.4284  -2.4183  -2.3653  -2.3440  -2.3093
    -2.2876  -2.2576  -2.2510  -2.2447  -2.2391  -2.2217  -2.1893  -2.1742
    -2.1642  -2.1503  -2.1389  -2.1208  -2.1132  -2.0780  -2.0445  -2.0254
    -2.0143  -2.0089  -1.9521  -1.9263  -1.8942  -1.8790  -1.8653  -1.8494
    -1.8380  -1.8233  -1.8175  -1.8074  -1.8034  -1.7773  -1.7597  -1.7533
    -1.6963  -1.6808  -1.6704  -1.6631  -1.6511  -1.6459  -1.6394  -1.6301
    -1.6158  -1.6112  -1.5941  -1.5640  -1.5479  -1.5180  -1.5092  -1.4860
    -1.4299  -1.4211  -1.3855  -1.3678  -1.3638  -1.3492  -1.3373  -1.2932
    -1.2675  -1.2562  -1.2411  -1.1866  -1.1526  -1.1284  -1.1151  -1.0922
    -1.0786  -1.0680  -1.0508  -1.0380  -1.0116  -0.9967  -0.9693  -0.9575
    -0.9156  -0.9056  -0.8978  -0.8839  -0.8610  -0.8387  -0.7997  -0.7916
    -0.7786  -0.7685  -0.7485  -0.7358  -0.7322  -0.6999  -0.6710  -0.5707
    -0.5055  -0.4967  -0.4914  -0.4843  -0.4737  -0.4683  -0.4569  -0.4351
    -0.4108  -0.4081  -0.3964  -0.3836  -0.3354  -0.2964  -0.2663  -0.2626
    -0.2445  -0.2392  -0.2206  -0.2036  -0.1795  -0.1624  -0.1563  -0.1428
    -0.1354  -0.0728  -0.0670  -0.0613  -0.0454  -0.0351  -0.0112   0.0320
     0.2007   0.3329   0.5789   0.7529   1.1035   1.2382   1.3652   1.6082
     1.7386   1.7812

 ------ SPIN DOWN ----------


          k = 0.0000 0.0000 0.0000 ( 51087 PWs)   bands (ev):

   -21.9353 -10.2641  -7.7363  -6.7483  -6.4350  -5.8165  -5.4933  -4.5838
    -4.5574  -4.5555  -4.5536  -4.5307  -4.5244  -4.4248  -3.6865  -3.6808
    -3.6782  -3.6542  -3.6455  -3.6283  -3.5029  -2.7603  -2.7412  -2.7344
    -2.7281  -2.7197  -2.6258  -2.5354  -2.2821  -2.2720  -2.2683  -2.2617
    -2.2547  -2.1834  -2.0699  -2.0625  -2.0001  -1.9870  -1.9718  -1.9665
    -1.8894  -1.8836  -1.8348  -1.8304  -1.7966  -1.7560  -1.7391  -1.7188
    -1.7036  -1.6475  -1.5180  -1.4794  -1.4668  -1.4542  -1.4379  -1.4347
    -1.4311  -1.4294  -1.3995  -1.3903  -1.3715  -1.3528  -1.3501  -1.3489
    -1.2772  -1.2469  -0.8917  -0.8040  -0.7901  -0.7723  -0.7703  -0.6115
    -0.6054  -0.5399  -0.4683  -0.4641  -0.4519  -0.4465  -0.4381  -0.4280
    -0.3991  -0.3809  -0.3585  -0.3497  -0.3484  -0.3426  -0.3198  -0.2910
    -0.2796  -0.2567  -0.2493  -0.2480  -0.2183  -0.2051  -0.1974  -0.1951
    -0.1889  -0.1809  -0.1696  -0.1674  -0.1595  -0.1575  -0.0892  -0.0695
    -0.0450  -0.0265  -0.0145  -0.0015   0.0520   0.0544   0.0632   0.0667
     0.0699   0.0711   0.0736   0.0759   0.1449   0.1468   0.2026   0.2272
     0.2346   0.2437   0.2532   0.2643   0.3676   0.4519   0.4660   0.4976
     0.5221   0.5440   0.5530   0.5559   0.6174   0.7895   0.8370   0.8788
     0.8903   0.9650   1.0277   1.0611   1.0755   1.1112   1.1187   1.1224
     1.2348   1.2599   1.2732   1.2765   1.2856   1.2953   1.3006   1.3240
     1.3434   1.3557   1.3725   1.3800   1.3960   1.3990   1.4111   1.4335
     1.4399   1.4421   1.4457   1.4570   1.4900   1.5099   1.5135   1.5297
     1.5371   1.5538   1.5624   1.5636   1.5729   1.5757   1.5775   1.6130
     1.6173   1.6390   1.6428   1.6501   1.6600   1.6658   1.6711   1.7024
     1.7040   1.7104   1.7138   1.7176   1.7223   1.7261   1.7350   1.7389
     1.7474   1.7931   1.7933   1.9000   1.9430   1.9463   1.9484   1.9496
     1.9513   1.9546

          k = 0.0000 0.2309 0.0000 ( 51134 PWs)   bands (ev):

   -21.9353 -10.2608  -7.5889  -6.7465  -6.3343  -5.8334  -5.5431  -5.4209
    -4.9311  -4.9247  -4.4159  -4.2704  -4.0075  -4.0029  -3.8942  -3.8785
    -3.7119  -3.4577  -3.3306  -3.3213  -3.2177  -2.9438  -2.7672  -2.7326
    -2.6772  -2.6553  -2.5995  -2.5257  -2.3677  -2.3096  -2.2981  -2.2924
    -2.2571  -2.2455  -2.2098  -2.2033  -2.1737  -2.1370  -2.0327  -2.0182
    -1.9463  -1.9405  -1.8981  -1.8182  -1.7754  -1.7456  -1.7316  -1.6418
    -1.6074  -1.5853  -1.5394  -1.5131  -1.4860  -1.4699  -1.4468  -1.4412
    -1.4358  -1.4225  -1.3493  -1.3197  -1.3053  -1.2847  -1.2608  -1.2345
    -1.1899  -1.1126  -0.9474  -0.8584  -0.8313  -0.8228  -0.7760  -0.7095
    -0.6963  -0.6594  -0.6113  -0.5903  -0.5265  -0.4948  -0.4771  -0.4664
    -0.4215  -0.4134  -0.4098  -0.4021  -0.3905  -0.3735  -0.3412  -0.3206
    -0.2769  -0.2580  -0.2387  -0.2376  -0.2226  -0.1986  -0.1862  -0.1666
    -0.1613  -0.1545  -0.1442  -0.1374  -0.1353  -0.1322  -0.1159  -0.0937
    -0.0649  -0.0506  -0.0438  -0.0361  -0.0086   0.0099   0.0245   0.0337
     0.0642   0.0825   0.0947   0.1251   0.1602   0.1726   0.1816   0.2120
     0.3294   0.3466   0.3740   0.4148   0.4349   0.4477   0.4859   0.4945
     0.5088   0.5126   0.5263   0.5364   0.6696   0.7628   0.8420   0.8555
     0.8603   0.8789   0.8957   0.9024   0.9501   0.9656   1.0303   1.0427
     1.0692   1.0908   1.1287   1.1578   1.1789   1.1995   1.2223   1.2565
     1.2813   1.3129   1.3290   1.3505   1.3554   1.3649   1.3974   1.4105
     1.4406   1.4552   1.4852   1.4966   1.5217   1.5291   1.5412   1.5573
     1.5963   1.6033   1.6096   1.6166   1.6373   1.6757   1.6913   1.6975
     1.7016   1.7055   1.7402   1.7543   1.7601   1.7795   1.7866   1.7925
     1.8114   1.8483   1.8526   1.8701   1.8783   1.8837   1.8967   1.9140
     1.9286   1.9373   1.9461   1.9535   2.0328   2.0464   2.0538   2.1046
     2.1251   2.1503

          k = 0.0000 0.4619 0.0000 ( 51204 PWs)   bands (ev):

   -21.9353 -10.2557  -7.1567  -6.7483  -6.4621  -6.1028  -5.7040  -5.4159
    -5.1498  -5.1254  -4.9915  -4.0690  -4.0174  -3.9365  -3.4396  -3.3917
    -3.3821  -3.2714  -3.1219  -3.0604  -2.9518  -2.9351  -2.8018  -2.7861
    -2.7501  -2.7167  -2.6688  -2.6555  -2.5814  -2.5396  -2.5132  -2.4850
    -2.4496  -2.3667  -2.2526  -2.2204  -2.1742  -2.1663  -2.0583  -2.0482
    -2.0365  -2.0276  -1.9830  -1.8045  -1.7494  -1.7317  -1.6976  -1.6792
    -1.5320  -1.5147  -1.5060  -1.5015  -1.4886  -1.4596  -1.4536  -1.4429
    -1.4121  -1.3458  -1.3330  -1.3191  -1.3102  -1.2739  -1.1568  -1.0994
    -1.0327  -0.9679  -0.9066  -0.8882  -0.8591  -0.8232  -0.7950  -0.7783
    -0.7670  -0.7527  -0.7250  -0.6929  -0.6660  -0.6200  -0.6126  -0.5788
    -0.5418  -0.5194  -0.4992  -0.4909  -0.4649  -0.4437  -0.3903  -0.3324
    -0.3154  -0.3028  -0.2703  -0.2534  -0.2254  -0.2091  -0.1835  -0.1680
    -0.1319  -0.1273  -0.1111  -0.0880  -0.0824  -0.0792  -0.0730  -0.0375
    -0.0268   0.0018   0.0084   0.0147   0.0270   0.0316   0.0556   0.0604
     0.0764   0.1020   0.1282   0.2029   0.2238   0.2294   0.2524   0.2771
     0.2840   0.3031   0.3088   0.3596   0.3824   0.3988   0.4077   0.4265
     0.4609   0.4674   0.4908   0.5016   0.5369   0.6086   0.6740   0.6943
     0.7273   0.7635   0.7865   0.8858   0.9057   0.9326   0.9555   0.9656
     0.9812   1.0127   1.0358   1.0513   1.0666   1.1300   1.1883   1.2528
     1.2643   1.2943   1.3169   1.3452   1.3712   1.3848   1.4025   1.4244
     1.4530   1.4673   1.4822   1.5296   1.5540   1.5707   1.5960   1.6149
     1.6229   1.6295   1.6629   1.6782   1.6913   1.7025   1.7118   1.7416
     1.7519   1.8010   1.8104   1.8482   1.8600   1.8815   1.8871   1.9020
     1.9084   1.9291   1.9380   1.9485   1.9660   1.9753   1.9828   1.9868
     2.0188   2.0289   2.1125   2.1978   2.2078   2.3081   2.5792   2.6618
     2.7097   2.7613

          k = 0.2000-0.1155 0.0000 ( 51134 PWs)   bands (ev):

   -21.9353 -10.2606  -7.5899  -6.7523  -6.3286  -5.8175  -5.5556  -5.4261
    -4.9301  -4.9209  -4.4093  -4.2929  -4.0084  -4.0012  -3.8998  -3.8559
    -3.7157  -3.4595  -3.3312  -3.3091  -3.2262  -2.9564  -2.7628  -2.7185
    -2.6776  -2.6644  -2.5926  -2.5215  -2.3913  -2.3073  -2.3006  -2.2929
    -2.2601  -2.2334  -2.2113  -2.2050  -2.1726  -2.1338  -2.0313  -2.0187
    -1.9460  -1.9403  -1.9178  -1.7955  -1.7685  -1.7454  -1.7181  -1.6512
    -1.6080  -1.5804  -1.5364  -1.5150  -1.4863  -1.4672  -1.4439  -1.4423
    -1.4351  -1.4124  -1.3599  -1.3184  -1.3035  -1.2820  -1.2694  -1.2415
    -1.1826  -1.1121  -0.9527  -0.8570  -0.8306  -0.8241  -0.7846  -0.7093
    -0.6948  -0.6681  -0.6131  -0.5887  -0.5281  -0.4931  -0.4735  -0.4609
    -0.4243  -0.4153  -0.4123  -0.4010  -0.3828  -0.3631  -0.3479  -0.3325
    -0.2756  -0.2530  -0.2396  -0.2360  -0.2259  -0.2046  -0.1806  -0.1701
    -0.1595  -0.1501  -0.1460  -0.1373  -0.1357  -0.1323  -0.1197  -0.0924
    -0.0629  -0.0499  -0.0383  -0.0333  -0.0205   0.0066   0.0121   0.0364
     0.0693   0.0815   0.0994   0.1278   0.1558   0.1741   0.1829   0.2126
     0.3218   0.3438   0.3788   0.4115   0.4403   0.4583   0.4753   0.4927
     0.5075   0.5121   0.5312   0.5366   0.6572   0.7856   0.8279   0.8541
     0.8601   0.8769   0.8938   0.9052   0.9478   0.9612   1.0280   1.0460
     1.0719   1.1164   1.1270   1.1661   1.1813   1.2008   1.2243   1.2440
     1.2838   1.3112   1.3317   1.3429   1.3503   1.3672   1.3980   1.4110
     1.4328   1.4561   1.4802   1.4997   1.5208   1.5369   1.5436   1.5753
     1.5937   1.6031   1.6117   1.6151   1.6328   1.6672   1.6879   1.6952
     1.6988   1.7078   1.7376   1.7576   1.7620   1.7768   1.7868   1.7973
     1.8085   1.8497   1.8521   1.8718   1.8787   1.8841   1.8961   1.9129
     1.9255   1.9367   1.9445   1.9516   2.0316   2.0468   2.0550   2.0975
     2.1239   2.1605

          k = 0.2000 0.1155 0.0000 ( 51134 PWs)   bands (ev):

   -21.9353 -10.2604  -7.5910  -6.7590  -6.3228  -5.8039  -5.5215  -5.4769
    -4.9221  -4.9213  -4.4092  -4.3019  -4.0071  -4.0021  -3.8997  -3.8486
    -3.7161  -3.4593  -3.3306  -3.3026  -3.2328  -2.9664  -2.7497  -2.7327
    -2.6935  -2.6370  -2.5918  -2.5262  -2.3907  -2.3066  -2.2999  -2.2928
    -2.2660  -2.2262  -2.2103  -2.2038  -2.1745  -2.1342  -2.0322  -2.0268
    -1.9444  -1.9389  -1.8889  -1.8155  -1.7544  -1.7480  -1.7370  -1.6290
    -1.6208  -1.5859  -1.5380  -1.5174  -1.4904  -1.4604  -1.4497  -1.4414
    -1.4360  -1.3868  -1.3615  -1.3288  -1.3076  -1.2932  -1.2668  -1.2357
    -1.1999  -1.0935  -0.9593  -0.8533  -0.8288  -0.8096  -0.7745  -0.7264
    -0.7056  -0.6648  -0.6098  -0.5874  -0.5230  -0.4910  -0.4819  -0.4511
    -0.4294  -0.4164  -0.4103  -0.4020  -0.3828  -0.3761  -0.3568  -0.3282
    -0.2685  -0.2524  -0.2392  -0.2372  -0.2276  -0.1995  -0.1804  -0.1670
    -0.1581  -0.1518  -0.1475  -0.1364  -0.1361  -0.1344  -0.1086  -0.0932
    -0.0572  -0.0515  -0.0380  -0.0363  -0.0177   0.0088   0.0163   0.0260
     0.0722   0.0756   0.1201   0.1282   0.1514   0.1685   0.1831   0.2136
     0.3078   0.3513   0.3735   0.4104   0.4261   0.4579   0.4748   0.4886
     0.5032   0.5187   0.5309   0.5358   0.6808   0.7899   0.8280   0.8478
     0.8607   0.8701   0.8981   0.9077   0.9363   0.9711   1.0054   1.0323
     1.0499   1.1253   1.1367   1.1659   1.1829   1.2073   1.2238   1.2406
     1.2799   1.3168   1.3405   1.3462   1.3539   1.3703   1.4014   1.4078
     1.4350   1.4564   1.4821   1.5112   1.5157   1.5368   1.5489   1.5700
     1.5858   1.6012   1.6106   1.6166   1.6292   1.6693   1.6825   1.6879
     1.7026   1.7061   1.7437   1.7585   1.7610   1.7786   1.7846   1.7967
     1.8084   1.8507   1.8528   1.8685   1.8768   1.8848   1.8892   1.9105
     1.9233   1.9419   1.9472   1.9490   2.0310   2.0434   2.0547   2.0901
     2.1290   2.1642

          k = 0.2000 0.3464 0.0000 ( 51202 PWs)   bands (ev):

   -21.9353 -10.2562  -7.3034  -6.7569  -6.1856  -5.9468  -5.8874  -5.6303
    -5.4557  -4.6711  -4.5625  -4.2010  -4.1847  -4.0795  -3.3670  -3.3617
    -3.3532  -3.3456  -3.2389  -3.1612  -3.0721  -3.0516  -2.9935  -2.7093
    -2.6731  -2.6099  -2.5993  -2.5421  -2.5057  -2.4961  -2.4715  -2.3998
    -2.3923  -2.3819  -2.3711  -2.2797  -2.2323  -2.1725  -2.0317  -2.0099
    -1.9764  -1.9492  -1.8949  -1.8740  -1.8609  -1.7186  -1.6739  -1.6550
    -1.6036  -1.5296  -1.4931  -1.4899  -1.4743  -1.4619  -1.4512  -1.4277
    -1.4101  -1.3845  -1.3473  -1.3133  -1.2738  -1.2226  -1.1516  -1.1141
    -1.0348  -1.0177  -0.9418  -0.8928  -0.8265  -0.7954  -0.7774  -0.7481
    -0.7307  -0.7136  -0.7001  -0.6629  -0.6228  -0.6048  -0.5908  -0.5684
    -0.5589  -0.5276  -0.5163  -0.5103  -0.4703  -0.3937  -0.3458  -0.3329
    -0.3262  -0.3193  -0.2727  -0.2609  -0.2474  -0.2248  -0.2103  -0.1950
    -0.1758  -0.1599  -0.1515  -0.1303  -0.1175  -0.1065  -0.0811  -0.0570
    -0.0510  -0.0393  -0.0266  -0.0075   0.0060   0.0101   0.0296   0.0370
     0.0617   0.1249   0.1290   0.1429   0.2425   0.2564   0.2816   0.2994
     0.3262   0.3524   0.3803   0.3959   0.4200   0.4441   0.4530   0.4608
     0.4733   0.4883   0.5329   0.5390   0.6089   0.6771   0.7171   0.7646
     0.8241   0.8575   0.8835   0.9177   0.9246   0.9324   0.9415   0.9596
     0.9727   0.9907   1.0094   1.0218   1.0601   1.0909   1.1570   1.1829
     1.1900   1.2188   1.2516   1.2693   1.2758   1.3112   1.3417   1.3750
     1.4250   1.4787   1.5282   1.5642   1.5834   1.6042   1.6189   1.6265
     1.6365   1.6522   1.6734   1.6807   1.6936   1.7460   1.7530   1.7588
     1.7628   1.8001   1.8089   1.8157   1.8319   1.8543   1.8618   1.8857
     1.8917   1.8995   1.9043   1.9215   1.9312   1.9567   1.9798   2.0143
     2.0302   2.0458   2.1279   2.1564   2.2608   2.2980   2.3764   2.4456
     2.5664   2.6227

          k = 0.2000-0.5774 0.0000 ( 51262 PWs)   bands (ev):

   -21.9353 -10.2537  -6.8249  -6.7339  -6.6650  -6.1020  -5.9416  -5.6262
    -5.2509  -5.1754  -4.7026  -4.2525  -3.7185  -3.5850  -3.3918  -3.3869
    -3.3565  -3.1602  -3.1410  -2.9877  -2.9747  -2.9682  -2.8421  -2.8331
    -2.8285  -2.7999  -2.7928  -2.7753  -2.6294  -2.5459  -2.4511  -2.4341
    -2.4145  -2.4076  -2.3637  -2.3384  -2.2848  -2.2358  -2.1805  -2.0107
    -1.9297  -1.8914  -1.8877  -1.8660  -1.8025  -1.7212  -1.6567  -1.6451
    -1.6126  -1.5928  -1.5845  -1.4857  -1.4605  -1.4287  -1.4172  -1.4095
    -1.3559  -1.3098  -1.2745  -1.2531  -1.2037  -1.1694  -1.1651  -1.0700
    -1.0422  -1.0051  -0.9077  -0.8665  -0.8634  -0.8433  -0.8007  -0.7896
    -0.7408  -0.7311  -0.7048  -0.6716  -0.6493  -0.6222  -0.5877  -0.5797
    -0.5703  -0.5324  -0.5239  -0.5116  -0.5031  -0.4962  -0.4618  -0.4363
    -0.4309  -0.4008  -0.3852  -0.3469  -0.3119  -0.2850  -0.2613  -0.2252
    -0.1952  -0.1646  -0.1452  -0.1317  -0.1023  -0.0844  -0.0790  -0.0590
    -0.0227  -0.0112   0.0203   0.0385   0.0495   0.0658   0.1162   0.1510
     0.1815   0.1971   0.2030   0.2198   0.2350   0.2626   0.2921   0.3111
     0.3156   0.3297   0.3796   0.4049   0.4138   0.4254   0.4630   0.4793
     0.4976   0.5094   0.5309   0.5565   0.5688   0.5814   0.5971   0.6211
     0.6794   0.7445   0.7934   0.8458   0.8653   0.8803   0.9062   0.9318
     0.9329   0.9554   0.9714   1.0067   1.0734   1.1099   1.1184   1.1460
     1.1687   1.1816   1.2313   1.2469   1.2722   1.2929   1.3422   1.3757
     1.4065   1.4924   1.5332   1.5452   1.6053   1.6266   1.6519   1.6696
     1.6743   1.6808   1.6982   1.7069   1.7410   1.7580   1.7676   1.7738
     1.8028   1.8339   1.8497   1.8562   1.8626   1.8667   1.8735   1.8780
     1.8962   1.9296   1.9404   1.9620   1.9720   1.9850   1.9968   2.0179
     2.0802   2.1224   2.1960   2.3459   2.5585   2.6810   2.7810   2.8656
     2.8788   2.9331

          k = 0.2000-0.3464 0.0000 ( 51202 PWs)   bands (ev):

   -21.9353 -10.2564  -7.2986  -6.7538  -6.1882  -5.9628  -5.8928  -5.6353
    -5.4341  -4.6735  -4.5591  -4.2019  -4.1827  -4.0802  -3.3683  -3.3608
    -3.3545  -3.3496  -3.2395  -3.1586  -3.0745  -3.0505  -2.9923  -2.6888
    -2.6553  -2.6159  -2.6026  -2.5660  -2.5125  -2.4990  -2.4537  -2.3991
    -2.3955  -2.3856  -2.3762  -2.2850  -2.2375  -2.1639  -2.0247  -2.0106
    -1.9774  -1.9412  -1.9316  -1.8793  -1.8463  -1.7159  -1.6747  -1.6554
    -1.5842  -1.5174  -1.4959  -1.4876  -1.4790  -1.4682  -1.4544  -1.4315
    -1.4131  -1.3943  -1.3386  -1.3251  -1.2650  -1.2101  -1.1506  -1.1108
    -1.0467  -1.0181  -0.9425  -0.8864  -0.8198  -0.7967  -0.7789  -0.7616
    -0.7357  -0.7118  -0.6943  -0.6514  -0.6294  -0.6012  -0.5895  -0.5761
    -0.5569  -0.5338  -0.5160  -0.5115  -0.4757  -0.4059  -0.3441  -0.3365
    -0.3309  -0.3157  -0.2821  -0.2508  -0.2400  -0.2253  -0.2086  -0.1916
    -0.1763  -0.1666  -0.1504  -0.1311  -0.1151  -0.0902  -0.0765  -0.0641
    -0.0464  -0.0448  -0.0367  -0.0054   0.0064   0.0197   0.0303   0.0366
     0.0605   0.1279   0.1325   0.1430   0.2416   0.2560   0.2758   0.3031
     0.3239   0.3445   0.3791   0.3920   0.4322   0.4427   0.4519   0.4611
     0.4730   0.4847   0.5288   0.5619   0.6062   0.6380   0.7598   0.7675
     0.8067   0.8429   0.9024   0.9214   0.9296   0.9365   0.9448   0.9635
     0.9655   0.9956   1.0159   1.0329   1.0605   1.1116   1.1225   1.1661
     1.2030   1.2197   1.2475   1.2715   1.2786   1.3154   1.3436   1.3801
     1.4046   1.4622   1.5445   1.5669   1.5787   1.6116   1.6175   1.6219
     1.6457   1.6555   1.6741   1.6767   1.7072   1.7424   1.7496   1.7566
     1.7694   1.7969   1.8046   1.8150   1.8313   1.8513   1.8652   1.8822
     1.8910   1.8985   1.9014   1.9258   1.9313   1.9509   1.9811   2.0156
     2.0309   2.0587   2.1212   2.1531   2.2454   2.2949   2.3970   2.4650
     2.5454   2.6275

          k = 0.4000-0.2309 0.0000 ( 51204 PWs)   bands (ev):

   -21.9353 -10.2549  -7.1642  -6.7627  -6.4407  -6.0962  -5.6793  -5.4493
    -5.1476  -5.1202  -5.0029  -4.0730  -4.0213  -3.9226  -3.4512  -3.3892
    -3.3788  -3.2747  -3.1201  -3.0700  -2.9465  -2.9319  -2.7942  -2.7845
    -2.7421  -2.7073  -2.6708  -2.6503  -2.5876  -2.5363  -2.5185  -2.4928
    -2.4498  -2.3967  -2.2512  -2.2340  -2.1722  -2.1513  -2.0590  -2.0464
    -2.0420  -2.0340  -1.9790  -1.7672  -1.7531  -1.7296  -1.6965  -1.6551
    -1.5292  -1.5157  -1.5074  -1.4903  -1.4821  -1.4635  -1.4498  -1.4480
[...]
     atom    8 type  1   force =    -0.00321500   -0.00113603   -0.09964209
     atom    9 type  1   force =     0.00500500   -0.00111260   -0.09981195
     atom   10 type  1   force =    -0.00162783    0.00101303   -0.01081479
     atom   11 type  1   force =     0.00005934   -0.00011869   -0.00655190
     atom   12 type  1   force =     0.00132936    0.00121833   -0.01006834
     atom   13 type  1   force =    -0.00054274   -0.00070119   -0.01103838
     atom   14 type  1   force =     0.00096276   -0.00020518   -0.01121605
     atom   15 type  1   force =    -0.00049825   -0.00023050   -0.01256308
     atom   16 type  1   force =     0.00079206    0.00158311   -0.01395147
     atom   17 type  1   force =     0.00114041   -0.00177226   -0.00966414
     atom   18 type  1   force =    -0.00108617    0.00001048   -0.01194470
     atom   19 type  1   force =     0.00282891    0.00312915    0.01063731
     atom   20 type  1   force =    -0.00029861    0.02107734   -0.00681759
     atom   21 type  1   force =    -0.00316083   -0.00149024    0.01757676
     atom   22 type  1   force =    -0.00010159    0.00042484    0.02021751
     atom   23 type  1   force =    -0.00190570   -0.00129742    0.01453697
     atom   24 type  1   force =     0.00067499    0.00162149    0.01345377
     atom   25 type  1   force =    -0.00447433   -0.00206576    0.01078287
     atom   26 type  1   force =    -0.01260401   -0.01084568   -0.00580184
     atom   27 type  1   force =     0.01843503   -0.00983262   -0.00645964
     atom   28 type  1   force =     0.03164319   -0.02057117    0.13939641
     atom   29 type  1   force =    -0.07990488   -0.02609526    0.15339791
     atom   30 type  1   force =     0.00279071   -0.00050522    0.12457542
     atom   31 type  1   force =     0.00324382   -0.02316378    0.13675655
     atom   32 type  1   force =    -0.00031166   -0.00038406    0.12131689
     atom   33 type  1   force =    -0.00114604   -0.00083931    0.10220214
     atom   34 type  1   force =     0.00407810    0.00439492    0.11426128
     atom   35 type  1   force =    -0.00320847    0.04237120    0.14139843
     atom   36 type  1   force =    -0.00343703    0.00573128    0.12479415
     atom   37 type  2   force =     0.02822299   -0.01832340    0.33439038
     atom   38 type  3   force =     1.20419699    0.36578559   -2.39784851
     atom   39 type  4   force =    -0.02306634   -0.00702195   -0.02414096
     The ionic contribution  to forces
     atom    1 type  1   force =    -0.00574640    0.00836635 -111.14136442
     atom    2 type  1   force =     0.00519398    0.00849749 -111.14247618
     atom    3 type  1   force =     0.00055242    0.00177800 -111.13106252
     atom    4 type  1   force =    -0.00017482    0.00136686 -111.13049037
     atom    5 type  1   force =    -0.00291196   -0.00638676 -111.13658767
     atom    6 type  1   force =     0.00308678   -0.00691922 -111.13624148
     atom    7 type  1   force =    -0.00828012   -0.00153400 -111.13914073
     atom    8 type  1   force =    -0.00038589   -0.00320559 -111.15656659
     atom    9 type  1   force =     0.00866601   -0.00196315 -111.13990572
     atom   10 type  1   force =    -0.06304906    0.01978483  -40.18604851
     atom   11 type  1   force =     0.05946720    0.01783254  -40.19370012
     atom   12 type  1   force =     0.00358333    0.00692098  -40.06910602
     atom   13 type  1   force =    -0.00336612    0.06691919  -40.09975752
     atom   14 type  1   force =     0.02128529    0.01122155  -40.06335910
     atom   15 type  1   force =    -0.01791924    0.00902194  -40.05692120
     atom   16 type  1   force =    -0.03861569   -0.02608071  -40.07266352
     atom   17 type  1   force =    -0.00010578   -0.07559559  -40.15088849
     atom   18 type  1   force =     0.03872077   -0.03002254  -40.07261663
     atom   19 type  1   force =    -0.28482684    0.42032911   31.28660765
     atom   20 type  1   force =     0.25968062    0.43625617   31.23016003
     atom   21 type  1   force =     0.02516047    0.07730971   31.73921525
     atom   22 type  1   force =    -0.00958087    0.05652466   31.76472685
     atom   23 type  1   force =    -0.13933463   -0.30809364   31.51259399
     atom   24 type  1   force =     0.14892829   -0.32758827   31.53249304
     atom   25 type  1   force =    -0.40819234   -0.07006338   31.39051658
     atom   26 type  1   force =    -0.02309736   -0.18925524   30.41567013
     atom   27 type  1   force =     0.43093350   -0.09839606   31.35445760
     atom   28 type  1   force =    -4.44138655    1.46586920   98.79998965
     atom   29 type  1   force =     4.36879103    1.29486665   97.68905633
     atom   30 type  1   force =     0.13022740    0.18287369  104.14789188
     atom   31 type  1   force =    -0.10748345    2.57722340  103.41156666
     atom   32 type  1   force =     0.62604709    0.43029111  104.27775908
     atom   33 type  1   force =    -0.51440624    0.34567516  104.37458089
     atom   34 type  1   force =    -1.32659939   -0.95097533  103.92662521
     atom   35 type  1   force =     0.08089348   -4.07690400  101.31092062
     atom   36 type  1   force =     1.25031713   -1.02837941  104.09578046
     atom   37 type  2   force =     2.69984033    0.63554224   52.20162736
     atom   38 type  3   force =    -4.44669803   -1.39171583   89.50849129
     atom   39 type  4   force =     1.68078565    0.51860790   15.24816625
     The local contribution  to forces
     atom    1 type  1   force =     0.00311920   -0.00740648  111.24606962
     atom    2 type  1   force =    -0.00407601   -0.01379718  111.24444731
     atom    3 type  1   force =     0.00097444   -0.00053230  111.23399353
     atom    4 type  1   force =    -0.00154580   -0.00246835  111.23613397
     atom    5 type  1   force =     0.00389191    0.00717864  111.24261141
     atom    6 type  1   force =    -0.00224305    0.00527595  111.24175942
     atom    7 type  1   force =     0.01088179    0.00257433  111.24597144
     atom    8 type  1   force =     0.00375431    0.00496429  111.25960733
     atom    9 type  1   force =    -0.01432466    0.00445530  111.24211711
     atom   10 type  1   force =     0.06387860   -0.02197337   40.17604671
     atom   11 type  1   force =    -0.05910218   -0.01845063   40.17796903
     atom   12 type  1   force =    -0.00494311   -0.00812934   40.06041922
     atom   13 type  1   force =     0.00480319   -0.06585764   40.09451835
     atom   14 type  1   force =    -0.02286181   -0.01130746   40.05467832
     atom   15 type  1   force =     0.01858716   -0.00906572   40.04846326
     atom   16 type  1   force =     0.03817497    0.02572824   40.06568838
     atom   17 type  1   force =    -0.00159816    0.07776179   40.14391575
     atom   18 type  1   force =    -0.03647873    0.03109834   40.06586478
     atom   19 type  1   force =     0.28246120   -0.42138462  -31.27780686
     atom   20 type  1   force =    -0.25909533   -0.45563713  -31.20648963
     atom   21 type  1   force =    -0.02168579   -0.07526771  -31.73341077
     atom   22 type  1   force =     0.00917409   -0.05772153  -31.75937764
     atom   23 type  1   force =     0.14084042    0.30829378  -31.50409132
     atom   24 type  1   force =    -0.14929902    0.32534843  -31.52477156
     atom   25 type  1   force =     0.41006635    0.07093326  -31.38222193
     atom   26 type  1   force =     0.03637401    0.19877595  -30.39819875
     atom   27 type  1   force =    -0.44951920    0.10867901  -31.33032576
     atom   28 type  1   force =     4.38533049   -1.43849468  -98.94986042
     atom   29 type  1   force =    -4.26829497   -1.26539554  -97.82780312
     atom   30 type  1   force =    -0.12853265   -0.18173302 -104.28320038
     atom   31 type  1   force =     0.09846004   -2.53823230 -103.55907377
     atom   32 type  1   force =    -0.62124897   -0.42386904 -104.40978184
     atom   33 type  1   force =     0.51423095   -0.34385231 -104.48566501
     atom   34 type  1   force =     1.31934757    0.94414281 -104.04951237
     atom   35 type  1   force =    -0.08223802    4.01687490 -101.45854994
     atom   36 type  1   force =    -1.23986078    1.01302126 -104.22961403
     atom   37 type  2   force =    -2.72583341   -0.61852144  -52.53661868
     atom   38 type  3   force =     3.26217202    1.02828605  -87.12402145
     atom   39 type  4   force =    -1.65079882   -0.50927351  -15.23395553
     The core correction contribution to forces
     atom    1 type  1   force =    -0.00004529   -0.00009058    0.00975160
     atom    2 type  1   force =     0.00000109   -0.00036263    0.01012154
     atom    3 type  1   force =     0.00014165    0.00002586    0.00942120
     atom    4 type  1   force =    -0.00005163   -0.00006947    0.01022269
     atom    5 type  1   force =     0.00020522    0.00008761    0.00986238
     atom    6 type  1   force =    -0.00001828   -0.00009141    0.00979393
     atom    7 type  1   force =     0.00010290    0.00009867    0.00995906
     atom    8 type  1   force =     0.00053365    0.00038290    0.00998972
     atom    9 type  1   force =    -0.00053436    0.00011356    0.01014893
     atom   10 type  1   force =    -0.00033456    0.00016325   -0.00189817
     atom   11 type  1   force =     0.00004156    0.00005282   -0.00159717
     atom   12 type  1   force =     0.00022506    0.00003660   -0.00170504
     atom   13 type  1   force =    -0.00022870    0.00030350   -0.00186028
     atom   14 type  1   force =     0.00016168    0.00019418   -0.00192879
     atom   15 type  1   force =     0.00003642   -0.00012019   -0.00165402
     atom   16 type  1   force =    -0.00018966   -0.00000375   -0.00187335
     atom   17 type  1   force =    -0.00023988   -0.00015183   -0.00170817
     atom   18 type  1   force =     0.00027759   -0.00029573   -0.00192437
     atom   19 type  1   force =    -0.00006587    0.00007891    0.00121846
     atom   20 type  1   force =     0.00005829   -0.00006372    0.00017444
     atom   21 type  1   force =     0.00028700    0.00003803    0.00186142
     atom   22 type  1   force =     0.00039540    0.00025733    0.00212724
     atom   23 type  1   force =     0.00001456    0.00015867    0.00189656
     atom   24 type  1   force =     0.00028271   -0.00037071    0.00141815
     atom   25 type  1   force =     0.00055977   -0.00011118    0.00181177
     atom   26 type  1   force =     0.00036278    0.00041358    0.00106515
     atom   27 type  1   force =     0.00020011    0.00014057    0.00053155
     atom   28 type  1   force =     0.00958384   -0.00262624   -0.00200980
     atom   29 type  1   force =    -0.02129085   -0.00590704    0.02019624
     atom   30 type  1   force =    -0.00350940    0.00006281   -0.00782170
     atom   31 type  1   force =     0.00152794   -0.00570569   -0.00778198
     atom   32 type  1   force =    -0.00147200   -0.00310280   -0.00788863
     atom   33 type  1   force =     0.00002531   -0.00058964   -0.01046211
     atom   34 type  1   force =     0.00075110    0.00090287   -0.00919207
     atom   35 type  1   force =     0.00102999    0.00813563   -0.00584791
     atom   36 type  1   force =    -0.00205874    0.00369022   -0.00819333
     atom   37 type  2   force =    -0.00208391   -0.00043814   -0.00202308
     atom   38 type  3   force =    -0.00930581   -0.00285310    0.01838656
     atom   39 type  4   force =     0.00000000    0.00000000    0.00000000
     The Hubbard contrib.    to forces
     atom    1 type  1   force =     0.00000000    0.00000000    0.00000000
     atom    2 type  1   force =     0.00000000    0.00000000    0.00000000
     atom    3 type  1   force =     0.00000000    0.00000000    0.00000000
     atom    4 type  1   force =     0.00000000    0.00000000    0.00000000
     atom    5 type  1   force =     0.00000000    0.00000000    0.00000000
     atom    6 type  1   force =     0.00000000    0.00000000    0.00000000
     atom    7 type  1   force =     0.00000000    0.00000000    0.00000000
     atom    8 type  1   force =     0.00000000    0.00000000    0.00000000
     atom    9 type  1   force =     0.00000000    0.00000000    0.00000000
     atom   10 type  1   force =     0.00000000    0.00000000    0.00000000
     atom   11 type  1   force =     0.00000000    0.00000000    0.00000000
     atom   12 type  1   force =     0.00000000    0.00000000    0.00000000
     atom   13 type  1   force =     0.00000000    0.00000000    0.00000000
     atom   14 type  1   force =     0.00000000    0.00000000    0.00000000
     atom   15 type  1   force =     0.00000000    0.00000000    0.00000000
     atom   16 type  1   force =     0.00000000    0.00000000    0.00000000
     atom   17 type  1   force =     0.00000000    0.00000000    0.00000000
     atom   18 type  1   force =     0.00000000    0.00000000    0.00000000
     atom   19 type  1   force =     0.00000000    0.00000000    0.00000000
     atom   20 type  1   force =     0.00000000    0.00000000    0.00000000
     atom   21 type  1   force =     0.00000000    0.00000000    0.00000000
     atom   22 type  1   force =     0.00000000    0.00000000    0.00000000
     atom   23 type  1   force =     0.00000000    0.00000000    0.00000000
     atom   24 type  1   force =     0.00000000    0.00000000    0.00000000
     atom   25 type  1   force =     0.00000000    0.00000000    0.00000000
     atom   26 type  1   force =     0.00000000    0.00000000    0.00000000
     atom   27 type  1   force =     0.00000000    0.00000000    0.00000000
     atom   28 type  1   force =     0.00000000    0.00000000    0.00000000
     atom   29 type  1   force =     0.00000000    0.00000000    0.00000000
     atom   30 type  1   force =     0.00000000    0.00000000    0.00000000
     atom   31 type  1   force =     0.00000000    0.00000000    0.00000000
     atom   32 type  1   force =     0.00000000    0.00000000    0.00000000
     atom   33 type  1   force =     0.00000000    0.00000000    0.00000000
     atom   34 type  1   force =     0.00000000    0.00000000    0.00000000
     atom   35 type  1   force =     0.00000000    0.00000000    0.00000000
     atom   36 type  1   force =     0.00000000    0.00000000    0.00000000
     atom   37 type  2   force =     0.00000000    0.00000000    0.00000000
     atom   38 type  3   force =     0.00000000    0.00000000    0.00000000
     atom   39 type  4   force =     0.00000000    0.00000000    0.00000000
     The SCF correction term to forces
     atom    1 type  1   force =     0.00000000    0.00000000   -0.00000000
     atom    2 type  1   force =     0.00000000    0.00000000   -0.00000000
     atom    3 type  1   force =    -0.00000000   -0.00000000   -0.00000000
     atom    4 type  1   force =     0.00000000    0.00000000   -0.00000000
     atom    5 type  1   force =    -0.00000000   -0.00000000   -0.00000000
     atom    6 type  1   force =    -0.00000000    0.00000000   -0.00000000
     atom    7 type  1   force =    -0.00000000   -0.00000000   -0.00000000
     atom    8 type  1   force =    -0.00000000   -0.00000000   -0.00000000
     atom    9 type  1   force =     0.00000000    0.00000000   -0.00000000
     atom   10 type  1   force =    -0.00000000   -0.00000000   -0.00000000
     atom   11 type  1   force =     0.00000000    0.00000000   -0.00000000
     atom   12 type  1   force =     0.00000000    0.00000000   -0.00000000
     atom   13 type  1   force =     0.00000000    0.00000000   -0.00000000
     atom   14 type  1   force =    -0.00000000    0.00000000   -0.00000000
     atom   15 type  1   force =    -0.00000000    0.00000000    0.00000000
     atom   16 type  1   force =     0.00000000   -0.00000000   -0.00000000
     atom   17 type  1   force =    -0.00000000   -0.00000000   -0.00000000
     atom   18 type  1   force =     0.00000000   -0.00000000   -0.00000000
     atom   19 type  1   force =    -0.00000000    0.00000000   -0.00000000
     atom   20 type  1   force =    -0.00000000    0.00000000   -0.00000000
     atom   21 type  1   force =     0.00000000   -0.00000000   -0.00000000
     atom   22 type  1   force =    -0.00000000   -0.00000000   -0.00000000
     atom   23 type  1   force =    -0.00000000   -0.00000000   -0.00000000
     atom   24 type  1   force =     0.00000000   -0.00000000   -0.00000000
     atom   25 type  1   force =     0.00000000    0.00000000   -0.00000000
     atom   26 type  1   force =    -0.00000000    0.00000000   -0.00000000
     atom   27 type  1   force =     0.00000000   -0.00000000   -0.00000000
     atom   28 type  1   force =    -0.00000000    0.00000000   -0.00000000
     atom   29 type  1   force =     0.00000000    0.00000000   -0.00000000
     atom   30 type  1   force =     0.00000000   -0.00000000   -0.00000000
     atom   31 type  1   force =    -0.00000000    0.00000000   -0.00000000
     atom   32 type  1   force =    -0.00000000   -0.00000000   -0.00000000
     atom   33 type  1   force =     0.00000000   -0.00000000   -0.00000000
     atom   34 type  1   force =    -0.00000000    0.00000000   -0.00000000
     atom   35 type  1   force =     0.00000000   -0.00000000   -0.00000000
     atom   36 type  1   force =     0.00000000   -0.00000000   -0.00000000
     atom   37 type  2   force =    -0.00000534    0.00000787    0.00000986
     atom   38 type  3   force =    -0.00001186    0.00000277    0.00002256
     atom   39 type  4   force =     0.00000313    0.00000103    0.00000247

     Total force =     0.017141     Total SCF correction =     0.000029

     Writing all to output data dir ./pwscf.save/

     init_run     :     16.08s CPU     16.55s WALL (       1 calls)
     electrons    :    838.11s CPU    854.18s WALL (       1 calls)
     forces       :      3.43s CPU      3.53s WALL (       1 calls)

     Called by init_run:
     wfcinit      :     12.98s CPU     13.34s WALL (       1 calls)
     potinit      :      2.00s CPU      2.07s WALL (       1 calls)
     hinit0       :      0.85s CPU      0.86s WALL (       1 calls)

     Called by electrons:
     c_bands      :    721.84s CPU    733.16s WALL (      45 calls)
     sum_band     :     80.66s CPU     84.47s WALL (      45 calls)
     v_of_rho     :      7.90s CPU      8.31s WALL (      46 calls)
     newd         :      2.51s CPU      2.55s WALL (      46 calls)
     PAW_pot      :     11.58s CPU     11.73s WALL (      46 calls)
     mix_rho      :     14.99s CPU     15.22s WALL (      45 calls)
     vdW_kernel   :      1.10s CPU      1.11s WALL (       1 calls)

     Called by c_bands:
     init_us_2    :      8.05s CPU      8.18s WALL (    2392 calls)
     init_us_2:cp :      8.04s CPU      8.17s WALL (    2392 calls)
     cegterg      :    696.90s CPU    707.57s WALL (    1170 calls)

     Called by *egterg:
     cdiaghg      :    191.02s CPU    194.81s WALL (    4243 calls)
     h_psi        :    344.84s CPU    349.77s WALL (    4269 calls)
     s_psi        :     34.08s CPU     34.61s WALL (    4269 calls)
     g_psi        :      0.84s CPU      0.87s WALL (    3073 calls)

     Called by h_psi:
     h_psi:calbec :     54.19s CPU     54.99s WALL (    4269 calls)
     vloc_psi     :    253.74s CPU    257.39s WALL (    4269 calls)
     add_vuspsi   :     34.78s CPU     35.23s WALL (    4269 calls)

     General routines
     calbec       :     75.82s CPU     77.44s WALL (    5543 calls)
     fft          :      5.03s CPU      5.47s WALL (    4171 calls)
     ffts         :      9.26s CPU      9.42s WALL (   16650 calls)
     fftw         :    285.51s CPU    291.49s WALL ( 1224892 calls)
     interpolate  :      0.37s CPU      0.38s WALL (      92 calls)

     Parallel routines

     PWSCF        :  14m23.31s CPU  14m45.54s WALL


   This run was terminated on:  10:41:47  17Dec2025            

=------------------------------------------------------------------------------=
   JOB DONE.
=------------------------------------------------------------------------------=
