
     Program PWSCF v.7.1 starts on  9Dec2025 at 14:58:39 
        Git branch: heads/qe-7.1
        Last git commit: 48ba0178f8fede6d020eb786884699a9f063f55d-dirty
        Last git commit date: Fri Jan 27 14:22:33 2023 +0000
        Last git commit subject: Merge branch 'fix_hubbard' into 'develop'

     This program is part of the open-source Quantum ESPRESSO suite
     for quantum simulation of materials; please cite
         "P. Giannozzi et al., J. Phys.:Condens. Matter 21 395502 (2009);
         "P. Giannozzi et al., J. Phys.:Condens. Matter 29 465901 (2017);
         "P. Giannozzi et al., J. Chem. Phys. 152 154105 (2020);
          URL http://www.quantum-espresso.org", 
     in publications or presentations arising from this work. More details at
     http://www.quantum-espresso.org/quote

     Parallel version (MPI), running on    96 processors

     MPI processes distributed on     2 nodes
     48066 MiB available memory on the printing compute node when the environment starts

     Reading input from espresso.pwi
Warning: card &CELL ignored
Warning: card / ignored
Warning: card &FCP ignored
Warning: card / ignored
Warning: card &RISM ignored
Warning: card / ignored

     Current dimensions of program PWSCF are:
     Max number of different atomic species (ntypx) = 10
     Max number of k-points (npk) =  40000
     Max angular momentum in pseudopotentials (lmaxx) =  4
     file Co.pbe-n-kjpaw_psl.1.0.0.UPF: wavefunction(s)  4S 3D renormalized
     file C.pbe-n-kjpaw_psl.1.0.0.UPF: wavefunction(s)  2S 2P renormalized
     file O.pbe-nl-kjpaw_psl.1.0.0.UPF: wavefunction(s)  2S 2P renormalized
     file H.pbe-kjpaw_psl.1.0.0.UPF: wavefunction(s)  1S renormalized

     **************************************************************************
     Initializing libbeef V0.1.2 with the BEEF-vdW functional.
     Citation: Wellendorff et al., PRB 85, 235149 (2012).
     **************************************************************************


     IMPORTANT: XC functional enforced from input :
     Exchange-correlation= BEEF-VDW
                           (   1   4  43  14   2   0   0)
     Any further DFT definition will be discarded
     Please, verify this is what you really want


     R & G space division:  proc/nbgrp/npool/nimage =      96
     Subspace diagonalization in iterative solution of the eigenvalue problem:
     one sub-group per band group will be used
     custom distributed-memory algorithm (size of sub-group:  2*  2 procs)


     Parallelization info
     --------------------
     sticks:   dense  smooth     PW     G-vecs:    dense   smooth      PW
     Min          43      28      7                 7829     4248     595
     Max          44      29      8                 7845     4281     630
     Sum        4153    2773    757               752179   409445   59217

     Using Slab Decomposition



     bravais-lattice index     =            0
     lattice parameter (alat)  =      14.1729  a.u.
     unit-cell volume          =    8574.3059 (a.u.)^3
     number of atoms/cell      =           39
     number of atomic types    =            4
     number of electrons       =       335.00
     number of Kohn-Sham states=          202
     kinetic-energy cutoff     =      50.0000  Ry
     charge density cutoff     =     300.0000  Ry
     scf convergence threshold =      1.0E-08
     mixing beta               =       0.7000
     number of iterations used =            8  local-TF  mixing
     Exchange-correlation= BEEF-VDW
                           (   1   4  43  14   2   0   0)

     celldm(1)=  14.172946  celldm(2)=   0.000000  celldm(3)=   0.000000
     celldm(4)=   0.000000  celldm(5)=   0.000000  celldm(6)=   0.000000

     crystal axes: (cart. coord. in units of alat)
               a(1) = (   1.000000   0.000000   0.000000 )  
               a(2) = (   0.500000   0.866025   0.000000 )  
               a(3) = (   0.000000   0.000000   3.477667 )  

     reciprocal axes: (cart. coord. in units 2 pi/alat)
               b(1) = (  1.000000 -0.577350  0.000000 )  
               b(2) = (  0.000000  1.154701  0.000000 )  
               b(3) = (  0.000000  0.000000  0.287549 )  


     PseudoPot. # 1 for Co read from file:
     /users/kbadger1/espresso/pseudo/pslibrary.1.0.0/pbe/PSEUDOPOTENTIALS/Co.pbe-n-kjpaw_psl.1.0.0.UPF
     MD5 check sum: 88af6ec42553d4236c267fdfcb472151
     Pseudo is Projector augmented-wave + core cor, Zval =  9.0
     Generated using 'atomic' code by A. Dal Corso  v.7.0
     Shape of augmentation charge: PSQ
     Using radial grid of 1193 points,  6 beta functions with: 
                l(1) =   0
                l(2) =   0
                l(3) =   1
                l(4) =   1
                l(5) =   2
                l(6) =   2
     Q(r) pseudized with 0 coefficients 


     PseudoPot. # 2 for C  read from file:
     /users/kbadger1/espresso/pseudo/pslibrary.1.0.0/pbe/PSEUDOPOTENTIALS/C.pbe-n-kjpaw_psl.1.0.0.UPF
     MD5 check sum: 6408e75cdba28732cea38a4db8498ce4
     Pseudo is Projector augmented-wave + core cor, Zval =  4.0
     Generated using 'atomic' code by A. Dal Corso  v.7.0
     Shape of augmentation charge: PSQ
     Using radial grid of 1073 points,  4 beta functions with: 
                l(1) =   0
                l(2) =   0
                l(3) =   1
                l(4) =   1
     Q(r) pseudized with 0 coefficients 


     PseudoPot. # 3 for O  read from file:
     /users/kbadger1/espresso/pseudo/pslibrary.1.0.0/pbe/PSEUDOPOTENTIALS/O.pbe-nl-kjpaw_psl.1.0.0.UPF
     MD5 check sum: f0439fab3598ca4e468f064226030408
     Pseudo is Projector augmented-wave + core cor, Zval =  6.0
     Generated using 'atomic' code by A. Dal Corso  v.7.0
     Shape of augmentation charge: PSQ
     Using radial grid of 1095 points,  4 beta functions with: 
                l(1) =   0
                l(2) =   0
                l(3) =   1
                l(4) =   1
     Q(r) pseudized with 0 coefficients 


     PseudoPot. # 4 for H  read from file:
     /users/kbadger1/espresso/pseudo/pslibrary.1.0.0/pbe/PSEUDOPOTENTIALS/H.pbe-kjpaw_psl.1.0.0.UPF
     MD5 check sum: fe4c6fa958fa6d3815bf5d2419cbf1df
     Pseudo is Projector augmented-wave, Zval =  1.0
     Generated using 'atomic' code by A. Dal Corso  v.7.0
     Shape of augmentation charge: PSQ
     Using radial grid of  929 points,  2 beta functions with: 
                l(1) =   0
                l(2) =   0
     Q(r) pseudized with 0 coefficients 


     atomic species   valence    mass     pseudopotential
        Co             9.00    58.93319     Co( 1.00)
        C              4.00    12.01100     C ( 1.00)
        O              6.00    15.99900     O ( 1.00)
        H              1.00     1.00800     H ( 1.00)

     Starting magnetic structure 
     atomic species   magnetization
        Co           1.000
        C            1.000
        O            0.000
        H            0.000

     No symmetry found



   Cartesian axes

     site n.     atom                  positions (alat units)
         1           Co  tau(   1) = (   0.0000000   0.1924501   1.3333333  )
         2           Co  tau(   2) = (   0.3333333   0.1924501   1.3333333  )
         3           Co  tau(   3) = (   0.6666667   0.1924501   1.3333333  )
         4           Co  tau(   4) = (   0.1666667   0.4811252   1.3333333  )
         5           Co  tau(   5) = (   0.5000000   0.4811252   1.3333333  )
         6           Co  tau(   6) = (   0.8333333   0.4811252   1.3333333  )
         7           Co  tau(   7) = (   0.3333333   0.7698004   1.3333333  )
         8           Co  tau(   8) = (   0.6666667   0.7698004   1.3333333  )
         9           Co  tau(   9) = (   1.0000000   0.7698004   1.3333333  )
        10           Co  tau(  10) = (   0.0000000   0.0000000   1.6036667  )
        11           Co  tau(  11) = (   0.3333333   0.0000000   1.6036667  )
        12           Co  tau(  12) = (   0.6666667   0.0000000   1.6036667  )
        13           Co  tau(  13) = (   0.1666667   0.2886751   1.6036667  )
        14           Co  tau(  14) = (   0.5000000   0.2886751   1.6036667  )
        15           Co  tau(  15) = (   0.8333333   0.2886751   1.6036667  )
        16           Co  tau(  16) = (   0.3333333   0.5773503   1.6036667  )
        17           Co  tau(  17) = (   0.6666667   0.5773503   1.6036667  )
        18           Co  tau(  18) = (   1.0000000   0.5773503   1.6036667  )
        19           Co  tau(  19) = (   0.0000000   0.1924501   1.8740000  )
        20           Co  tau(  20) = (   0.3333333   0.1924501   1.8740000  )
        21           Co  tau(  21) = (   0.6666667   0.1924501   1.8740000  )
        22           Co  tau(  22) = (   0.1666667   0.4811252   1.8740000  )
        23           Co  tau(  23) = (   0.5000000   0.4811252   1.8740000  )
        24           Co  tau(  24) = (   0.8333333   0.4811252   1.8740000  )
        25           Co  tau(  25) = (   0.3333333   0.7698004   1.8740000  )
        26           Co  tau(  26) = (   0.6666667   0.7698004   1.8740000  )
        27           Co  tau(  27) = (   1.0000000   0.7698004   1.8740000  )
        28           Co  tau(  28) = (   0.0000000   0.0000000   2.1443333  )
        29           Co  tau(  29) = (   0.3333333   0.0000000   2.1443333  )
        30           Co  tau(  30) = (   0.6666667   0.0000000   2.1443333  )
        31           Co  tau(  31) = (   0.1666667   0.2886751   2.1443333  )
        32           Co  tau(  32) = (   0.5000000   0.2886751   2.1443333  )
        33           Co  tau(  33) = (   0.8333333   0.2886751   2.1443333  )
        34           Co  tau(  34) = (   0.3333333   0.5773503   2.1443333  )
        35           Co  tau(  35) = (   0.6666667   0.5773503   2.1443333  )
        36           Co  tau(  36) = (   1.0000000   0.5773503   2.1443333  )
        37           C   tau(  37) = (   0.2303788  -0.0172927   2.3698790  )
        38           O   tau(  38) = (   0.0692281  -0.0334413   2.4157728  )
        39           H   tau(  39) = (   0.3306112  -0.0081221   2.4770740  )

     number of k points=    13  Marzari-Vanderbilt smearing, width (Ry)=  0.0010
                       cart. coord. in units 2pi/alat
        k(    1) = (   0.0000000   0.0000000   0.0000000), wk =   0.0400000
        k(    2) = (   0.0000000   0.2309401   0.0000000), wk =   0.0800000
        k(    3) = (   0.0000000   0.4618802   0.0000000), wk =   0.0800000
        k(    4) = (   0.2000000  -0.1154701   0.0000000), wk =   0.0800000
        k(    5) = (   0.2000000   0.1154701   0.0000000), wk =   0.0800000
        k(    6) = (   0.2000000   0.3464102   0.0000000), wk =   0.0800000
        k(    7) = (   0.2000000  -0.5773503   0.0000000), wk =   0.0800000
        k(    8) = (   0.2000000  -0.3464102   0.0000000), wk =   0.0800000
        k(    9) = (   0.4000000  -0.2309401   0.0000000), wk =   0.0800000
        k(   10) = (   0.4000000   0.0000000   0.0000000), wk =   0.0800000
        k(   11) = (   0.4000000   0.2309401   0.0000000), wk =   0.0800000
        k(   12) = (   0.4000000  -0.6928203   0.0000000), wk =   0.0800000
        k(   13) = (   0.4000000  -0.4618802   0.0000000), wk =   0.0800000

     Dense  grid:   752179 G-vectors     FFT dimensions: (  80,  80, 288)

     Smooth grid:   409445 G-vectors     FFT dimensions: (  64,  64, 225)

     Estimated max dynamical RAM per process >      99.02 MB

     Estimated total dynamical RAM >       9.28 GB
     Generating pointlists ...
     new r_m :   0.1025 (alat units)  1.4530 (a.u.) for type    1
     new r_m :   0.0607 (alat units)  0.8597 (a.u.) for type    2
     new r_m :   0.0694 (alat units)  0.9841 (a.u.) for type    3
     new r_m :   0.0607 (alat units)  0.8597 (a.u.) for type    4

     Initial potential from superposition of free atoms

     starting charge     334.9897, renormalised to     335.0000

     negative rho (up, down):  2.993E-03 4.701E-04


     %%%%%%%%%%%%%%%%%%%%%%%%%%%%%%%%%%%%%%%%%%%%%%%%%%%%%%%%%%%%%%%%%%%%%%%%
     %                                                                      %
     % You are using vdW-DF, which was implemented by the Thonhauser group. %
     % Please cite the following two papers that made this development      %
     % possible and the two reviews that describe the various versions:     %
     %                                                                      %
     %   T. Thonhauser et al., PRL 115, 136402 (2015).                      %
     %   T. Thonhauser et al., PRB 76, 125112 (2007).                       %
     %   K. Berland et al., Rep. Prog. Phys. 78, 066501 (2015).             %
     %   D.C. Langreth et al., J. Phys.: Condens. Matter 21, 084203 (2009). %
     %                                                                      %
     % If you are calculating stress with vdW-DF, please also cite:         %
     %                                                                      %
     %   R. Sabatini et al., J. Phys.: Condens. Matter 24, 424209 (2012).   %
     %   C.M. Frostenson et al., Electr. Struct. 4, 014001 (2022).          %
     %                                                                      %
     %%%%%%%%%%%%%%%%%%%%%%%%%%%%%%%%%%%%%%%%%%%%%%%%%%%%%%%%%%%%%%%%%%%%%%%%

     %%%%%%%%%%%%%%%%%%%%%%%%%%%%%%%%%%%%%%%%%%%%%%%%%%%%%%%%%%%%%%%%%%%%%%%%
     %                                                                      %
     %  vdW-DF NEWS:                                                        %
     %                                                                      %
     %  * vdW-DF3 is now available. DOI: 10.1021/acs.jctc.0c00471           %
     %    use with input_dft = 'vdW-DF3-opt1' or 'vdW-DF3-opt2'             %
     %                                                                      %
     %  * Unscreened and range-separated hybrid vdW-DF-cx functionals       %
     %    DOI: 10.1063/1.4986522 and 10.1088/1361-648X/ac2ad2               %
     %    use with input_dft = 'vdW-DF-cx0'    and 'vdW-DF-ahcx'            %
     %  * Unscreened and range-separated hybrid vdW-DF2-b86r functionals    %
     %    DOI: 10.1063/1.4986522 and DOI: 10.1103/PhysRevX.12.041003        %
     %    use with input_dft = 'vdW-DF2-br0' and 'vdW-DF2-ahbr'             %
     %                                                                      %
     %%%%%%%%%%%%%%%%%%%%%%%%%%%%%%%%%%%%%%%%%%%%%%%%%%%%%%%%%%%%%%%%%%%%%%%%


     Starting wfcs are  333 randomized atomic wfcs
     Checking if some PAW data can be deallocated... 

     total cpu time spent up to now is       12.3 secs

     per-process dynamical memory:   231.8 Mb

     Self-consistent Calculation

     iteration #  1     ecut=    50.00 Ry     beta= 0.70
     Davidson diagonalization with overlap
     ethr =  1.00E-02,  avg # of iterations =  2.0

     negative rho (up, down):  2.222E-05 5.952E-08

     total cpu time spent up to now is       34.3 secs

     total energy              =   -6053.06349522 Ry
     estimated scf accuracy    <      39.78472822 Ry

     total magnetization       =    69.00 Bohr mag/cell
     absolute magnetization    =    81.17 Bohr mag/cell

     iteration #  2     ecut=    50.00 Ry     beta= 0.70
     Davidson diagonalization with overlap
     ethr =  1.00E-02,  avg # of iterations =  1.0

     negative rho (up, down):  2.496E-06 2.231E-09

     total cpu time spent up to now is       52.3 secs

     total energy              =   -6052.46627336 Ry
     estimated scf accuracy    <      25.40382794 Ry

     total magnetization       =    68.84 Bohr mag/cell
     absolute magnetization    =    76.71 Bohr mag/cell

     iteration #  3     ecut=    50.00 Ry     beta= 0.70
     Davidson diagonalization with overlap
     ethr =  7.58E-03,  avg # of iterations =  1.0

     negative rho (up, down):  1.828E-08 0.000E+00

     total cpu time spent up to now is       65.8 secs

     total energy              =   -6055.15276435 Ry
     estimated scf accuracy    <      84.83884752 Ry

     total magnetization       =    66.12 Bohr mag/cell
     absolute magnetization    =    73.26 Bohr mag/cell

     iteration #  4     ecut=    50.00 Ry     beta= 0.70
     Davidson diagonalization with overlap
     ethr =  7.58E-03,  avg # of iterations =  1.0

     total cpu time spent up to now is       83.2 secs

     total energy              =   -6056.34475513 Ry
     estimated scf accuracy    <       5.70831890 Ry

     total magnetization       =    60.63 Bohr mag/cell
     absolute magnetization    =    70.45 Bohr mag/cell

     iteration #  5     ecut=    50.00 Ry     beta= 0.70
     Davidson diagonalization with overlap
     ethr =  1.70E-03,  avg # of iterations =  1.2

     total cpu time spent up to now is       96.3 secs

     total energy              =   -6056.37781611 Ry
     estimated scf accuracy    <       3.38682327 Ry

     total magnetization       =    60.41 Bohr mag/cell
     absolute magnetization    =    69.80 Bohr mag/cell

     iteration #  6     ecut=    50.00 Ry     beta= 0.70
     Davidson diagonalization with overlap
     ethr =  1.01E-03,  avg # of iterations =  1.4

     total cpu time spent up to now is      114.4 secs

     total energy              =   -6056.48316535 Ry
     estimated scf accuracy    <       0.54207996 Ry

     total magnetization       =    60.45 Bohr mag/cell
     absolute magnetization    =    69.63 Bohr mag/cell

     iteration #  7     ecut=    50.00 Ry     beta= 0.70
     Davidson diagonalization with overlap
     ethr =  1.62E-04,  avg # of iterations =  6.5

     total cpu time spent up to now is      133.3 secs

     total energy              =   -6056.51644342 Ry
     estimated scf accuracy    <       0.72909469 Ry

     total magnetization       =    60.78 Bohr mag/cell
     absolute magnetization    =    69.47 Bohr mag/cell

     iteration #  8     ecut=    50.00 Ry     beta= 0.70
     Davidson diagonalization with overlap
     ethr =  1.62E-04,  avg # of iterations =  2.2

     total cpu time spent up to now is      151.9 secs

     total energy              =   -6056.53297702 Ry
     estimated scf accuracy    <       0.16879272 Ry

     total magnetization       =    60.95 Bohr mag/cell
     absolute magnetization    =    69.42 Bohr mag/cell

     iteration #  9     ecut=    50.00 Ry     beta= 0.70
     Davidson diagonalization with overlap
     c_bands:  1 eigenvalues not converged
     c_bands:  3 eigenvalues not converged
     ethr =  5.04E-05,  avg # of iterations =  9.8

     total cpu time spent up to now is      178.5 secs

     total energy              =   -6056.54157922 Ry
     estimated scf accuracy    <       0.17232943 Ry

     total magnetization       =    61.26 Bohr mag/cell
     absolute magnetization    =    69.43 Bohr mag/cell

     iteration # 10     ecut=    50.00 Ry     beta= 0.70
     Davidson diagonalization with overlap
     ethr =  5.04E-05,  avg # of iterations =  2.0

     total cpu time spent up to now is      193.2 secs

     total energy              =   -6056.54094176 Ry
     estimated scf accuracy    <       0.17987189 Ry

     total magnetization       =    61.33 Bohr mag/cell
     absolute magnetization    =    69.30 Bohr mag/cell

     iteration # 11     ecut=    50.00 Ry     beta= 0.70
     Davidson diagonalization with overlap
     ethr =  5.04E-05,  avg # of iterations =  1.5

     total cpu time spent up to now is      211.1 secs

     total energy              =   -6056.53794533 Ry
     estimated scf accuracy    <       0.10321109 Ry

     total magnetization       =    61.33 Bohr mag/cell
     absolute magnetization    =    69.18 Bohr mag/cell

     iteration # 12     ecut=    50.00 Ry     beta= 0.70
     Davidson diagonalization with overlap
     ethr =  3.08E-05,  avg # of iterations =  2.3

     negative rho (up, down):  1.413E-07 0.000E+00

     total cpu time spent up to now is      229.8 secs

     total energy              =   -6056.53949436 Ry
     estimated scf accuracy    <       0.08884073 Ry

     total magnetization       =    61.29 Bohr mag/cell
     absolute magnetization    =    69.02 Bohr mag/cell

     iteration # 13     ecut=    50.00 Ry     beta= 0.70
     Davidson diagonalization with overlap
     ethr =  2.65E-05,  avg # of iterations =  2.0

     total cpu time spent up to now is      244.3 secs

     total energy              =   -6056.53682407 Ry
     estimated scf accuracy    <       0.09513122 Ry

     total magnetization       =    61.34 Bohr mag/cell
     absolute magnetization    =    68.99 Bohr mag/cell

     iteration # 14     ecut=    50.00 Ry     beta= 0.70
     Davidson diagonalization with overlap
     ethr =  2.65E-05,  avg # of iterations =  1.7

     negative rho (up, down):  6.432E-03 5.002E-03

     total cpu time spent up to now is      262.7 secs

     total energy              =   -6056.53001608 Ry
     estimated scf accuracy    <       0.06030564 Ry

     total magnetization       =    61.33 Bohr mag/cell
     absolute magnetization    =    69.01 Bohr mag/cell

     iteration # 15     ecut=    50.00 Ry     beta= 0.70
     Davidson diagonalization with overlap
     ethr =  1.80E-05,  avg # of iterations =  3.2

     negative rho (up, down):  8.895E-03 7.350E-03

     total cpu time spent up to now is      278.4 secs

     total energy              =   -6056.52913247 Ry
     estimated scf accuracy    <       0.06456568 Ry

     total magnetization       =    61.34 Bohr mag/cell
     absolute magnetization    =    68.95 Bohr mag/cell

     iteration # 16     ecut=    50.00 Ry     beta= 0.70
     Davidson diagonalization with overlap
     ethr =  1.80E-05,  avg # of iterations =  1.4

     negative rho (up, down):  1.379E-02 1.209E-02

     total cpu time spent up to now is      296.8 secs

     total energy              =   -6056.52870036 Ry
     estimated scf accuracy    <       0.02514964 Ry

     total magnetization       =    61.33 Bohr mag/cell
     absolute magnetization    =    68.93 Bohr mag/cell

     iteration # 17     ecut=    50.00 Ry     beta= 0.70
     Davidson diagonalization with overlap
     c_bands:  3 eigenvalues not converged
     c_bands:  2 eigenvalues not converged
     c_bands:  2 eigenvalues not converged
     c_bands:  1 eigenvalues not converged
     c_bands:  2 eigenvalues not converged
     ethr =  7.51E-06,  avg # of iterations =  8.6

     negative rho (up, down):  1.519E-02 1.358E-02

     total cpu time spent up to now is      321.7 secs

     total energy              =   -6056.52709941 Ry
     estimated scf accuracy    <       0.03393997 Ry

     total magnetization       =    61.33 Bohr mag/cell
     absolute magnetization    =    68.91 Bohr mag/cell

     iteration # 18     ecut=    50.00 Ry     beta= 0.70
     Davidson diagonalization with overlap
     ethr =  7.51E-06,  avg # of iterations =  1.6

     negative rho (up, down):  7.368E-03 6.140E-03

     total cpu time spent up to now is      335.6 secs

     total energy              =   -6056.52697774 Ry
     estimated scf accuracy    <       0.01984045 Ry

     total magnetization       =    61.33 Bohr mag/cell
     absolute magnetization    =    68.89 Bohr mag/cell

     iteration # 19     ecut=    50.00 Ry     beta= 0.70
     Davidson diagonalization with overlap
     ethr =  5.92E-06,  avg # of iterations =  2.5

     negative rho (up, down):  1.899E-02 1.748E-02

     total cpu time spent up to now is      355.3 secs

     total energy              =   -6056.52512763 Ry
     estimated scf accuracy    <       0.01532592 Ry

     total magnetization       =    61.33 Bohr mag/cell
     absolute magnetization    =    68.89 Bohr mag/cell

     iteration # 20     ecut=    50.00 Ry     beta= 0.70
     Davidson diagonalization with overlap
     ethr =  4.57E-06,  avg # of iterations =  2.0

     negative rho (up, down):  1.776E-02 1.679E-02

     total cpu time spent up to now is      369.5 secs

     total energy              =   -6056.52399134 Ry
     estimated scf accuracy    <       0.01516623 Ry

     total magnetization       =    61.33 Bohr mag/cell
     absolute magnetization    =    68.86 Bohr mag/cell

     iteration # 21     ecut=    50.00 Ry     beta= 0.70
     Davidson diagonalization with overlap
     ethr =  4.53E-06,  avg # of iterations =  1.6

     negative rho (up, down):  1.707E-02 1.613E-02

     total cpu time spent up to now is      387.5 secs

     total energy              =   -6056.52391105 Ry
     estimated scf accuracy    <       0.01681228 Ry

     total magnetization       =    61.33 Bohr mag/cell
     absolute magnetization    =    68.85 Bohr mag/cell

     iteration # 22     ecut=    50.00 Ry     beta= 0.70
     Davidson diagonalization with overlap
     ethr =  4.53E-06,  avg # of iterations =  1.0

     negative rho (up, down):  1.936E-02 1.843E-02

     total cpu time spent up to now is      400.5 secs

     total energy              =   -6056.52441913 Ry
     estimated scf accuracy    <       0.00579332 Ry

     total magnetization       =    61.34 Bohr mag/cell
     absolute magnetization    =    68.86 Bohr mag/cell

     iteration # 23     ecut=    50.00 Ry     beta= 0.70
     Davidson diagonalization with overlap
     c_bands:  1 eigenvalues not converged
     ethr =  1.73E-06,  avg # of iterations =  5.2

     negative rho (up, down):  1.136E-02 1.057E-02

     total cpu time spent up to now is      422.4 secs

     total energy              =   -6056.52422169 Ry
     estimated scf accuracy    <       0.00155864 Ry

     total magnetization       =    61.33 Bohr mag/cell
     absolute magnetization    =    68.85 Bohr mag/cell

     iteration # 24     ecut=    50.00 Ry     beta= 0.70
     Davidson diagonalization with overlap
     ethr =  4.65E-07,  avg # of iterations =  5.5

     negative rho (up, down):  6.585E-03 5.754E-03

     total cpu time spent up to now is      444.5 secs

     total energy              =   -6056.52417946 Ry
     estimated scf accuracy    <       0.00279740 Ry

     total magnetization       =    61.33 Bohr mag/cell
     absolute magnetization    =    68.86 Bohr mag/cell

     iteration # 25     ecut=    50.00 Ry     beta= 0.70
     Davidson diagonalization with overlap
     ethr =  4.65E-07,  avg # of iterations =  1.8

     negative rho (up, down):  7.310E-03 6.551E-03

     total cpu time spent up to now is      458.9 secs

     total energy              =   -6056.52441006 Ry
     estimated scf accuracy    <       0.00093716 Ry

     total magnetization       =    61.33 Bohr mag/cell
     absolute magnetization    =    68.87 Bohr mag/cell

     iteration # 26     ecut=    50.00 Ry     beta= 0.70
     Davidson diagonalization with overlap
     ethr =  2.80E-07,  avg # of iterations =  1.7

     negative rho (up, down):  6.226E-03 5.458E-03

     total cpu time spent up to now is      478.0 secs

     total energy              =   -6056.52440217 Ry
     estimated scf accuracy    <       0.00107737 Ry

     total magnetization       =    61.33 Bohr mag/cell
     absolute magnetization    =    68.86 Bohr mag/cell

     iteration # 27     ecut=    50.00 Ry     beta= 0.70
     Davidson diagonalization with overlap
     ethr =  2.80E-07,  avg # of iterations =  1.0

     negative rho (up, down):  6.216E-03 5.448E-03

     total cpu time spent up to now is      491.1 secs

     total energy              =   -6056.52451119 Ry
     estimated scf accuracy    <       0.00062989 Ry

     total magnetization       =    61.33 Bohr mag/cell
     absolute magnetization    =    68.86 Bohr mag/cell

     iteration # 28     ecut=    50.00 Ry     beta= 0.70
     Davidson diagonalization with overlap
     ethr =  1.88E-07,  avg # of iterations =  1.5

     negative rho (up, down):  4.925E-03 4.127E-03

     total cpu time spent up to now is      509.4 secs

     total energy              =   -6056.52447566 Ry
     estimated scf accuracy    <       0.00021882 Ry

     total magnetization       =    61.33 Bohr mag/cell
     absolute magnetization    =    68.86 Bohr mag/cell

     iteration # 29     ecut=    50.00 Ry     beta= 0.70
     Davidson diagonalization with overlap
     ethr =  6.53E-08,  avg # of iterations =  4.3

     negative rho (up, down):  3.931E-03 3.063E-03

     total cpu time spent up to now is      530.1 secs

     total energy              =   -6056.52447985 Ry
     estimated scf accuracy    <       0.00016759 Ry

     total magnetization       =    61.33 Bohr mag/cell
     absolute magnetization    =    68.86 Bohr mag/cell

     iteration # 30     ecut=    50.00 Ry     beta= 0.70
     Davidson diagonalization with overlap
     ethr =  5.00E-08,  avg # of iterations =  1.8

     negative rho (up, down):  3.444E-03 2.401E-03

     total cpu time spent up to now is      545.2 secs

     total energy              =   -6056.52451525 Ry
     estimated scf accuracy    <       0.00033439 Ry

     total magnetization       =    61.33 Bohr mag/cell
     absolute magnetization    =    68.86 Bohr mag/cell

     iteration # 31     ecut=    50.00 Ry     beta= 0.70
     Davidson diagonalization with overlap
     ethr =  5.00E-08,  avg # of iterations =  1.8

     negative rho (up, down):  3.291E-03 2.218E-03

     total cpu time spent up to now is      564.0 secs

     total energy              =   -6056.52452141 Ry
     estimated scf accuracy    <       0.00005024 Ry

     total magnetization       =    61.33 Bohr mag/cell
     absolute magnetization    =    68.86 Bohr mag/cell

     iteration # 32     ecut=    50.00 Ry     beta= 0.70
     Davidson diagonalization with overlap
     ethr =  1.50E-08,  avg # of iterations =  3.6

     negative rho (up, down):  3.312E-03 2.275E-03

     total cpu time spent up to now is      580.3 secs

     total energy              =   -6056.52451993 Ry
     estimated scf accuracy    <       0.00021393 Ry

     total magnetization       =    61.33 Bohr mag/cell
     absolute magnetization    =    68.86 Bohr mag/cell

     iteration # 33     ecut=    50.00 Ry     beta= 0.70
     Davidson diagonalization with overlap
     ethr =  1.50E-08,  avg # of iterations =  2.0

     negative rho (up, down):  3.070E-03 2.003E-03

     total cpu time spent up to now is      599.9 secs

     total energy              =   -6056.52452494 Ry
     estimated scf accuracy    <       0.00001419 Ry

     total magnetization       =    61.33 Bohr mag/cell
     absolute magnetization    =    68.86 Bohr mag/cell

     iteration # 34     ecut=    50.00 Ry     beta= 0.70
     Davidson diagonalization with overlap
     ethr =  4.23E-09,  avg # of iterations =  5.0

     negative rho (up, down):  3.069E-03 2.045E-03

     total cpu time spent up to now is      622.1 secs

     total energy              =   -6056.52452679 Ry
     estimated scf accuracy    <       0.00003988 Ry

     total magnetization       =    61.33 Bohr mag/cell
     absolute magnetization    =    68.86 Bohr mag/cell

     iteration # 35     ecut=    50.00 Ry     beta= 0.70
     Davidson diagonalization with overlap
     ethr =  4.23E-09,  avg # of iterations =  2.1

     negative rho (up, down):  2.995E-03 1.955E-03

     total cpu time spent up to now is      636.8 secs

     total energy              =   -6056.52452705 Ry
     estimated scf accuracy    <       0.00001032 Ry

     total magnetization       =    61.33 Bohr mag/cell
     absolute magnetization    =    68.86 Bohr mag/cell

     iteration # 36     ecut=    50.00 Ry     beta= 0.70
     Davidson diagonalization with overlap
     ethr =  3.08E-09,  avg # of iterations =  1.6

     negative rho (up, down):  2.846E-03 1.804E-03

     total cpu time spent up to now is      654.9 secs

     total energy              =   -6056.52452629 Ry
     estimated scf accuracy    <       0.00001506 Ry

     total magnetization       =    61.33 Bohr mag/cell
     absolute magnetization    =    68.86 Bohr mag/cell

     iteration # 37     ecut=    50.00 Ry     beta= 0.70
     Davidson diagonalization with overlap
     ethr =  3.08E-09,  avg # of iterations =  1.9

     negative rho (up, down):  2.766E-03 1.730E-03

     total cpu time spent up to now is      670.0 secs

     total energy              =   -6056.52452577 Ry
     estimated scf accuracy    <       0.00001507 Ry

     total magnetization       =    61.33 Bohr mag/cell
     absolute magnetization    =    68.86 Bohr mag/cell

     iteration # 38     ecut=    50.00 Ry     beta= 0.70
     Davidson diagonalization with overlap
     ethr =  3.08E-09,  avg # of iterations =  1.2

     negative rho (up, down):  2.709E-03 1.672E-03

     total cpu time spent up to now is      687.8 secs

     total energy              =   -6056.52452564 Ry
     estimated scf accuracy    <       0.00000836 Ry

     total magnetization       =    61.33 Bohr mag/cell
     absolute magnetization    =    68.86 Bohr mag/cell

     iteration # 39     ecut=    50.00 Ry     beta= 0.70
     Davidson diagonalization with overlap
     ethr =  2.50E-09,  avg # of iterations =  1.2

     negative rho (up, down):  2.540E-03 1.473E-03

     total cpu time spent up to now is      701.3 secs

     total energy              =   -6056.52452490 Ry
     estimated scf accuracy    <       0.00000440 Ry

     total magnetization       =    61.33 Bohr mag/cell
     absolute magnetization    =    68.86 Bohr mag/cell

     iteration # 40     ecut=    50.00 Ry     beta= 0.70
     Davidson diagonalization with overlap
     ethr =  1.31E-09,  avg # of iterations =  2.2

     negative rho (up, down):  2.535E-03 1.468E-03

     total cpu time spent up to now is      720.7 secs

     total energy              =   -6056.52452492 Ry
     estimated scf accuracy    <       0.00000384 Ry

     total magnetization       =    61.33 Bohr mag/cell
     absolute magnetization    =    68.86 Bohr mag/cell

     iteration # 41     ecut=    50.00 Ry     beta= 0.70
     Davidson diagonalization with overlap
     ethr =  1.15E-09,  avg # of iterations =  1.2

     negative rho (up, down):  2.372E-03 1.270E-03

     total cpu time spent up to now is      734.4 secs

     total energy              =   -6056.52452537 Ry
     estimated scf accuracy    <       0.00000361 Ry

     total magnetization       =    61.33 Bohr mag/cell
     absolute magnetization    =    68.86 Bohr mag/cell

     iteration # 42     ecut=    50.00 Ry     beta= 0.70
     Davidson diagonalization with overlap
     ethr =  1.08E-09,  avg # of iterations =  1.9

     negative rho (up, down):  2.322E-03 1.227E-03

     total cpu time spent up to now is      753.1 secs

     total energy              =   -6056.52452519 Ry
     estimated scf accuracy    <       0.00000474 Ry

     total magnetization       =    61.33 Bohr mag/cell
     absolute magnetization    =    68.85 Bohr mag/cell

     iteration # 43     ecut=    50.00 Ry     beta= 0.70
     Davidson diagonalization with overlap
     ethr =  1.08E-09,  avg # of iterations =  1.2

     negative rho (up, down):  2.267E-03 1.165E-03

     total cpu time spent up to now is      771.0 secs

     total energy              =   -6056.52452543 Ry
     estimated scf accuracy    <       0.00000111 Ry

     total magnetization       =    61.33 Bohr mag/cell
     absolute magnetization    =    68.85 Bohr mag/cell

     iteration # 44     ecut=    50.00 Ry     beta= 0.70
     Davidson diagonalization with overlap
     ethr =  3.32E-10,  avg # of iterations =  2.9

     negative rho (up, down):  2.203E-03 1.100E-03

     total cpu time spent up to now is      786.8 secs

     total energy              =   -6056.52452529 Ry
     estimated scf accuracy    <       0.00000070 Ry

     total magnetization       =    61.33 Bohr mag/cell
     absolute magnetization    =    68.85 Bohr mag/cell

     iteration # 45     ecut=    50.00 Ry     beta= 0.70
     Davidson diagonalization with overlap
     ethr =  2.08E-10,  avg # of iterations =  3.5

     negative rho (up, down):  2.252E-03 1.150E-03

     total cpu time spent up to now is      807.0 secs

     total energy              =   -6056.52452540 Ry
     estimated scf accuracy    <       0.00000234 Ry

     total magnetization       =    61.33 Bohr mag/cell
     absolute magnetization    =    68.85 Bohr mag/cell

     iteration # 46     ecut=    50.00 Ry     beta= 0.70
     Davidson diagonalization with overlap
     ethr =  2.08E-10,  avg # of iterations =  1.4

     negative rho (up, down):  2.236E-03 1.135E-03

     total cpu time spent up to now is      820.8 secs

     total energy              =   -6056.52452541 Ry
     estimated scf accuracy    <       0.00000052 Ry

     total magnetization       =    61.33 Bohr mag/cell
     absolute magnetization    =    68.85 Bohr mag/cell

     iteration # 47     ecut=    50.00 Ry     beta= 0.70
     Davidson diagonalization with overlap
     ethr =  1.55E-10,  avg # of iterations =  1.6

     negative rho (up, down):  2.237E-03 1.135E-03

     total cpu time spent up to now is      839.6 secs

     total energy              =   -6056.52452543 Ry
     estimated scf accuracy    <       0.00000056 Ry

     total magnetization       =    61.33 Bohr mag/cell
     absolute magnetization    =    68.85 Bohr mag/cell

     iteration # 48     ecut=    50.00 Ry     beta= 0.70
     Davidson diagonalization with overlap
     ethr =  1.55E-10,  avg # of iterations =  1.4

     negative rho (up, down):  2.212E-03 1.110E-03

     total cpu time spent up to now is      853.9 secs

     total energy              =   -6056.52452540 Ry
     estimated scf accuracy    <       0.00000054 Ry

     total magnetization       =    61.33 Bohr mag/cell
     absolute magnetization    =    68.85 Bohr mag/cell

     iteration # 49     ecut=    50.00 Ry     beta= 0.70
     Davidson diagonalization with overlap
     ethr =  1.55E-10,  avg # of iterations =  1.0

     negative rho (up, down):  2.216E-03 1.114E-03

     total cpu time spent up to now is      871.5 secs

     total energy              =   -6056.52452542 Ry
     estimated scf accuracy    <       0.00000031 Ry

     total magnetization       =    61.33 Bohr mag/cell
     absolute magnetization    =    68.85 Bohr mag/cell

     iteration # 50     ecut=    50.00 Ry     beta= 0.70
     Davidson diagonalization with overlap
     ethr =  9.12E-11,  avg # of iterations =  1.3

     negative rho (up, down):  2.203E-03 1.102E-03

     total cpu time spent up to now is      888.4 secs

     total energy              =   -6056.52452539 Ry
     estimated scf accuracy    <       0.00000011 Ry

     total magnetization       =    61.33 Bohr mag/cell
     absolute magnetization    =    68.85 Bohr mag/cell

     iteration # 51     ecut=    50.00 Ry     beta= 0.70
     Davidson diagonalization with overlap
     ethr =  3.15E-11,  avg # of iterations =  3.3

     negative rho (up, down):  2.200E-03 1.099E-03

     total cpu time spent up to now is      905.7 secs

     total energy              =   -6056.52452539 Ry
     estimated scf accuracy    <       0.00000019 Ry

     total magnetization       =    61.33 Bohr mag/cell
     absolute magnetization    =    68.85 Bohr mag/cell

     iteration # 52     ecut=    50.00 Ry     beta= 0.70
     Davidson diagonalization with overlap
     ethr =  3.15E-11,  avg # of iterations =  1.6

     negative rho (up, down):  2.200E-03 1.099E-03

     total cpu time spent up to now is      924.2 secs

     total energy              =   -6056.52452540 Ry
     estimated scf accuracy    <       0.00000008 Ry

     total magnetization       =    61.33 Bohr mag/cell
     absolute magnetization    =    68.85 Bohr mag/cell

     iteration # 53     ecut=    50.00 Ry     beta= 0.70
     Davidson diagonalization with overlap
     ethr =  2.43E-11,  avg # of iterations =  2.1

     negative rho (up, down):  2.208E-03 1.107E-03

     total cpu time spent up to now is      938.9 secs

     total energy              =   -6056.52452542 Ry
     estimated scf accuracy    <       0.00000002 Ry

     total magnetization       =    61.33 Bohr mag/cell
     absolute magnetization    =    68.85 Bohr mag/cell

     iteration # 54     ecut=    50.00 Ry     beta= 0.70
     Davidson diagonalization with overlap
     ethr =  6.51E-12,  avg # of iterations =  4.8

     negative rho (up, down):  2.209E-03 1.108E-03

     total cpu time spent up to now is      960.6 secs

     total energy              =   -6056.52452543 Ry
     estimated scf accuracy    <       0.00000001 Ry

     total magnetization       =    61.33 Bohr mag/cell
     absolute magnetization    =    68.85 Bohr mag/cell

     iteration # 55     ecut=    50.00 Ry     beta= 0.70
     Davidson diagonalization with overlap
     ethr =  4.19E-12,  avg # of iterations =  2.7

     negative rho (up, down):  2.209E-03 1.109E-03

     total cpu time spent up to now is      981.3 secs

     total energy              =   -6056.52452543 Ry
     estimated scf accuracy    <       0.00000004 Ry

     total magnetization       =    61.33 Bohr mag/cell
     absolute magnetization    =    68.85 Bohr mag/cell

     iteration # 56     ecut=    50.00 Ry     beta= 0.70
     Davidson diagonalization with overlap
     ethr =  4.19E-12,  avg # of iterations =  1.3

     negative rho (up, down):  2.218E-03 1.118E-03

     Magnetic moment per site  (integrated on atomic sphere of radius R)
     atom   1 (R=0.103)  charge=  6.2239  magn=  1.7648
     atom   2 (R=0.103)  charge=  6.2238  magn=  1.7673
     atom   3 (R=0.103)  charge=  6.2236  magn=  1.7688
     atom   4 (R=0.103)  charge=  6.2241  magn=  1.7711
     atom   5 (R=0.103)  charge=  6.2236  magn=  1.7703
     atom   6 (R=0.103)  charge=  6.2240  magn=  1.7701
     atom   7 (R=0.103)  charge=  6.2237  magn=  1.7704
     atom   8 (R=0.103)  charge=  6.2241  magn=  1.7634
     atom   9 (R=0.103)  charge=  6.2243  magn=  1.7656
     atom  10 (R=0.103)  charge=  6.2298  magn=  1.7065
     atom  11 (R=0.103)  charge=  6.2300  magn=  1.6862
     atom  12 (R=0.103)  charge=  6.2303  magn=  1.7025
     atom  13 (R=0.103)  charge=  6.2296  magn=  1.7015
     atom  14 (R=0.103)  charge=  6.2306  magn=  1.6947
     atom  15 (R=0.103)  charge=  6.2300  magn=  1.6928
     atom  16 (R=0.103)  charge=  6.2296  magn=  1.6913
     atom  17 (R=0.103)  charge=  6.2301  magn=  1.7024
     atom  18 (R=0.103)  charge=  6.2303  magn=  1.6965
     atom  19 (R=0.103)  charge=  6.2289  magn=  1.6872
     atom  20 (R=0.103)  charge=  6.2306  magn=  1.6720
     atom  21 (R=0.103)  charge=  6.2289  magn=  1.7063
     atom  22 (R=0.103)  charge=  6.2302  magn=  1.6940
     atom  23 (R=0.103)  charge=  6.2300  magn=  1.6871
     atom  24 (R=0.103)  charge=  6.2300  magn=  1.7018
     atom  25 (R=0.103)  charge=  6.2288  magn=  1.6837
     atom  26 (R=0.103)  charge=  6.2256  magn=  1.7216
     atom  27 (R=0.103)  charge=  6.2321  magn=  1.6608
     atom  28 (R=0.103)  charge=  6.2305  magn=  1.6712
     atom  29 (R=0.103)  charge=  6.2534  magn=  1.1193
     atom  30 (R=0.103)  charge=  6.2253  magn=  1.7734
     atom  31 (R=0.103)  charge=  6.2278  magn=  1.7656
     atom  32 (R=0.103)  charge=  6.2234  magn=  1.7729
     atom  33 (R=0.103)  charge=  6.2244  magn=  1.7879
     atom  34 (R=0.103)  charge=  6.2264  magn=  1.7897
     atom  35 (R=0.103)  charge=  6.2323  magn=  1.7530
     atom  36 (R=0.103)  charge=  6.2243  magn=  1.7636
     atom  37 (R=0.061)  charge=  0.8406  magn= -0.0198
     atom  38 (R=0.069)  charge=  3.2072  magn= -0.0106
     atom  39 (R=0.061)  charge=  0.5063  magn= -0.0033

     total cpu time spent up to now is      994.6 secs

     End of self-consistent calculation

 ------ SPIN UP ------------


          k = 0.0000 0.0000 0.0000 ( 51087 PWs)   bands (ev):

   -21.3689  -9.9611  -7.4883  -6.6302  -6.1401  -5.5710  -5.0664  -4.6173
    -4.5854  -4.5828  -4.5806  -4.5792  -4.5666  -4.5264  -4.2291  -4.0578
    -4.0523  -4.0508  -4.0460  -4.0263  -3.9877  -3.5424  -3.5386  -3.5342
    -3.5280  -3.5143  -3.4875  -3.4079  -3.4041  -3.3959  -3.3937  -3.3912
    -3.3666  -3.3316  -3.3264  -3.0191  -3.0138  -3.0126  -3.0111  -2.9663
    -2.9526  -2.9475  -2.9468  -2.9404  -2.9390  -2.9366  -2.9284  -2.7855
    -2.7812  -2.7355  -2.7234  -2.7156  -2.7075  -2.7010  -2.6963  -2.6804
    -2.6777  -2.6735  -2.6648  -2.5793  -2.5764  -2.5736  -2.5648  -2.5511
    -2.5101  -2.1027  -2.0514  -2.0352  -2.0348  -2.0323  -2.0224  -1.9286
    -1.9069  -1.9060  -1.8860  -1.8755  -1.8584  -1.8544  -1.8510  -1.8387
    -1.8225  -1.8028  -1.7963  -1.7563  -1.7527  -1.7376  -1.7299  -1.7230
    -1.7211  -1.7110  -1.7077  -1.6937  -1.6828  -1.6795  -1.6751  -1.6710
    -1.6695  -1.6660  -1.6622  -1.6605  -1.6577  -1.6546  -1.6495  -1.6482
    -1.6450  -1.5963  -1.5854  -1.5738  -1.5646  -1.4977  -1.4933  -1.4298
    -1.3023  -1.2180  -1.2132  -1.2088  -1.2072  -1.2024  -1.1828  -1.1668
    -1.1647  -1.1536  -1.1274  -1.1157  -1.1105  -1.0535  -1.0012  -0.9884
    -0.9796  -0.9630  -0.8745  -0.8061  -0.7948  -0.7841  -0.7753  -0.7524
    -0.7426  -0.7234  -0.7180  -0.7160  -0.7137  -0.6943  -0.6344  -0.5970
    -0.5405  -0.4767  -0.4732  -0.4698  -0.4447  -0.4222  -0.4093  -0.4057
    -0.4005  -0.3986  -0.3957  -0.3891  -0.3861  -0.3826  -0.3821  -0.3725
    -0.3634  -0.3620  -0.3376  -0.3300  -0.3266  -0.3244  -0.3207  -0.3150
    -0.2980  -0.2962  -0.2732  -0.2713  -0.2682  -0.2568  -0.2495  -0.2455
    -0.2436  -0.2399  -0.2142  -0.1945  -0.1846  -0.1698  -0.1678  -0.1651
    -0.1609  -0.1548  -0.1465  -0.1346  -0.1267  -0.1169  -0.0769  -0.0764
    -0.0728  -0.0683  -0.0105  -0.0062  -0.0022   0.0012   0.0211   0.0503
     0.4014   0.9469

          k = 0.0000 0.2309 0.0000 ( 51134 PWs)   bands (ev):

   -21.3689  -9.9608  -7.3424  -6.5999  -6.0648  -5.5800  -5.2923  -5.0597
    -4.8352  -4.8243  -4.4670  -4.3145  -4.2460  -4.2413  -4.1736  -4.1253
    -4.1001  -4.0720  -3.9685  -3.9322  -3.9135  -3.6594  -3.5518  -3.5368
    -3.4607  -3.4327  -3.4242  -3.4122  -3.4086  -3.3943  -3.3889  -3.3685
    -3.3343  -3.2903  -3.2867  -3.2637  -3.2579  -3.0622  -3.0330  -3.0289
    -2.9832  -2.9774  -2.9687  -2.9612  -2.8838  -2.8508  -2.8408  -2.8132
    -2.8039  -2.8007  -2.7772  -2.7571  -2.6812  -2.6690  -2.6399  -2.6090
    -2.5910  -2.5763  -2.5645  -2.5536  -2.5309  -2.5188  -2.4950  -2.4916
    -2.4265  -2.1824  -2.1550  -2.1412  -2.1208  -2.0994  -2.0536  -2.0056
    -2.0016  -1.9962  -1.9772  -1.9763  -1.9591  -1.9340  -1.9032  -1.8785
    -1.8620  -1.8512  -1.8399  -1.8051  -1.7926  -1.7889  -1.7855  -1.7718
    -1.7565  -1.7539  -1.7490  -1.7450  -1.7294  -1.6927  -1.6704  -1.6635
    -1.6439  -1.6065  -1.5783  -1.5707  -1.5586  -1.5508  -1.5444  -1.5367
    -1.5197  -1.5131  -1.5091  -1.5028  -1.4911  -1.4726  -1.4642  -1.4548
    -1.4350  -1.4258  -1.3913  -1.3480  -1.3331  -1.3157  -1.2549  -1.2347
    -1.2255  -1.2112  -1.2069  -1.1989  -1.1976  -1.1853  -1.1016  -1.0489
    -1.0393  -1.0181  -0.9675  -0.9450  -0.9301  -0.8759  -0.8642  -0.8452
    -0.8214  -0.7493  -0.7408  -0.7212  -0.7019  -0.6931  -0.6811  -0.6679
    -0.6601  -0.6386  -0.6301  -0.5829  -0.5703  -0.5630  -0.5483  -0.5398
    -0.5122  -0.4967  -0.4735  -0.4668  -0.4424  -0.4269  -0.4084  -0.3996
    -0.3935  -0.3849  -0.3769  -0.3719  -0.3588  -0.3420  -0.3387  -0.3263
    -0.2801  -0.2615  -0.2571  -0.2234  -0.2081  -0.2023  -0.1780  -0.1530
    -0.1478  -0.1350  -0.1291  -0.1178  -0.1051  -0.0957  -0.0883  -0.0565
    -0.0504  -0.0098   0.0001   0.0066   0.0285   0.0326   0.0725   0.0841
     0.0934   0.1387   0.3710   0.3825   0.4882   0.5870   0.6333   0.6584
     0.7442   0.7969

          k = 0.0000 0.4619 0.0000 ( 51204 PWs)   bands (ev):

   -21.3689  -9.9603  -6.9360  -6.5598  -6.1687  -5.8649  -5.4222  -5.0595
    -4.9723  -4.9652  -4.7942  -4.1271  -4.1007  -4.0731  -4.0599  -3.9904
    -3.8890  -3.8844  -3.8440  -3.7587  -3.7510  -3.7412  -3.6494  -3.5730
    -3.5656  -3.5623  -3.5568  -3.5049  -3.4571  -3.4452  -3.4404  -3.2952
    -3.2806  -3.2786  -3.2649  -3.2412  -3.2332  -3.1332  -3.1258  -3.1148
    -3.1091  -3.1030  -2.9850  -2.9104  -2.8933  -2.8136  -2.7972  -2.7779
    -2.7607  -2.7285  -2.7214  -2.7146  -2.7024  -2.6824  -2.6287  -2.6166
    -2.5851  -2.5606  -2.5459  -2.4202  -2.4104  -2.4035  -2.3744  -2.3452
    -2.2951  -2.2830  -2.2670  -2.2548  -2.2051  -2.1691  -2.1385  -2.1217
    -2.1198  -2.1093  -2.1053  -2.0879  -2.0789  -2.0558  -2.0199  -2.0000
    -1.9838  -1.9679  -1.9488  -1.9342  -1.9067  -1.8787  -1.8215  -1.8073
    -1.7996  -1.7720  -1.7603  -1.7460  -1.7080  -1.6921  -1.6872  -1.6786
    -1.6629  -1.6455  -1.6358  -1.6187  -1.5996  -1.5962  -1.5870  -1.5718
    -1.5588  -1.5349  -1.5043  -1.4877  -1.4266  -1.4104  -1.3990  -1.3784
    -1.3620  -1.3406  -1.3231  -1.2923  -1.2702  -1.2555  -1.2509  -1.2482
    -1.2421  -1.2381  -1.2221  -1.2149  -1.2035  -1.2002  -1.1875  -1.1795
    -1.1533  -1.1250  -1.0648  -1.0596  -1.0170  -1.0109  -0.9894  -0.9705
    -0.9382  -0.9321  -0.8906  -0.8836  -0.8661  -0.8278  -0.8077  -0.7685
    -0.7472  -0.7307  -0.6935  -0.6782  -0.6595  -0.6505  -0.6326  -0.5716
    -0.5269  -0.4991  -0.4852  -0.4699  -0.4679  -0.4605  -0.4514  -0.4421
    -0.4258  -0.4200  -0.3497  -0.3293  -0.3087  -0.3047  -0.2934  -0.2920
    -0.2782  -0.2607  -0.2492  -0.2322  -0.2187  -0.2011  -0.1436  -0.1202
    -0.1160  -0.0998  -0.0883  -0.0448  -0.0213   0.0041   0.0150   0.0521
     0.0598   0.1001   0.1056   0.1250   0.1274   0.1332   0.1566   0.1635
     0.2320   0.2649   0.3941   0.8915   1.1637   1.3503   1.3735   1.4007
     1.6570   1.7460

          k = 0.2000-0.1155 0.0000 ( 51134 PWs)   bands (ev):

   -21.3689  -9.9617  -7.3411  -6.5996  -6.0585  -5.5632  -5.3166  -5.0637
    -4.8285  -4.8143  -4.4725  -4.3422  -4.2445  -4.2395  -4.1780  -4.1318
    -4.0911  -4.0505  -3.9811  -3.9277  -3.9073  -3.6611  -3.5503  -3.5383
    -3.4636  -3.4414  -3.4173  -3.4107  -3.4079  -3.4006  -3.3850  -3.3651
    -3.3345  -3.2889  -3.2864  -3.2607  -3.2579  -3.0681  -3.0360  -3.0273
    -2.9802  -2.9767  -2.9689  -2.9592  -2.8953  -2.8521  -2.8408  -2.8139
    -2.8052  -2.8007  -2.7688  -2.7597  -2.6840  -2.6677  -2.6447  -2.6052
    -2.5972  -2.5703  -2.5633  -2.5446  -2.5287  -2.5144  -2.4961  -2.4897
    -2.4352  -2.1815  -2.1557  -2.1386  -2.1243  -2.1012  -2.0555  -2.0064
    -2.0031  -1.9933  -1.9872  -1.9682  -1.9590  -1.9336  -1.9104  -1.8770
    -1.8583  -1.8443  -1.8367  -1.8048  -1.7947  -1.7878  -1.7829  -1.7703
    -1.7589  -1.7528  -1.7484  -1.7452  -1.7410  -1.7054  -1.6734  -1.6505
    -1.6396  -1.6133  -1.5789  -1.5651  -1.5624  -1.5553  -1.5472  -1.5370
    -1.5267  -1.5179  -1.5065  -1.5050  -1.4912  -1.4781  -1.4629  -1.4502
    -1.4320  -1.4220  -1.4026  -1.3686  -1.3215  -1.2947  -1.2456  -1.2315
    -1.2278  -1.2202  -1.2049  -1.2000  -1.1901  -1.1764  -1.0767  -1.0395
    -1.0243  -1.0107  -0.9743  -0.9445  -0.9262  -0.8902  -0.8678  -0.8390
    -0.8127  -0.7755  -0.7486  -0.7348  -0.7120  -0.6973  -0.6717  -0.6602
    -0.6569  -0.6366  -0.6163  -0.5843  -0.5719  -0.5625  -0.5473  -0.5452
    -0.5282  -0.4890  -0.4706  -0.4693  -0.4512  -0.4284  -0.4055  -0.3965
    -0.3925  -0.3827  -0.3805  -0.3771  -0.3582  -0.3450  -0.3415  -0.3129
    -0.2759  -0.2600  -0.2567  -0.2261  -0.2146  -0.1935  -0.1751  -0.1521
    -0.1433  -0.1374  -0.1306  -0.1170  -0.1091  -0.0952  -0.0869  -0.0626
    -0.0466  -0.0104   0.0038   0.0095   0.0282   0.0327   0.0763   0.0841
     0.1034   0.1418   0.3764   0.3819   0.4499   0.5532   0.6366   0.6684
     0.6889   0.8327

          k = 0.2000 0.1155 0.0000 ( 51134 PWs)   bands (ev):

   -21.3689  -9.9618  -7.3409  -6.5997  -6.0569  -5.5619  -5.3136  -5.0754
    -4.8222  -4.8130  -4.4742  -4.3484  -4.2451  -4.2385  -4.1780  -4.1319
    -4.0844  -4.0519  -3.9830  -3.9251  -3.9080  -3.6627  -3.5472  -3.5416
    -3.4630  -3.4439  -3.4157  -3.4131  -3.4061  -3.3999  -3.3832  -3.3644
    -3.3344  -3.2910  -3.2850  -3.2602  -3.2580  -3.0618  -3.0326  -3.0271
    -2.9790  -2.9745  -2.9681  -2.9653  -2.8860  -2.8526  -2.8425  -2.8185
    -2.8054  -2.8018  -2.7754  -2.7640  -2.6817  -2.6686  -2.6485  -2.6039
    -2.5992  -2.5694  -2.5637  -2.5385  -2.5313  -2.5158  -2.4988  -2.4909
    -2.4353  -2.1749  -2.1582  -2.1424  -2.1198  -2.1001  -2.0545  -2.0052
    -1.9990  -1.9940  -1.9823  -1.9717  -1.9637  -1.9394  -1.8956  -1.8758
    -1.8632  -1.8537  -1.8302  -1.8050  -1.7940  -1.7893  -1.7856  -1.7671
    -1.7581  -1.7556  -1.7485  -1.7436  -1.7348  -1.7088  -1.6757  -1.6541
    -1.6373  -1.6065  -1.5844  -1.5706  -1.5576  -1.5559  -1.5432  -1.5373
    -1.5228  -1.5194  -1.5106  -1.5057  -1.4952  -1.4728  -1.4553  -1.4478
    -1.4344  -1.4288  -1.4114  -1.3682  -1.3266  -1.2896  -1.2485  -1.2316
    -1.2214  -1.2167  -1.2095  -1.1990  -1.1970  -1.1851  -1.0881  -1.0537
    -1.0206  -1.0009  -0.9712  -0.9458  -0.9195  -0.8922  -0.8681  -0.8483
    -0.7971  -0.7668  -0.7478  -0.7247  -0.7094  -0.6994  -0.6809  -0.6672
    -0.6550  -0.6377  -0.6159  -0.5714  -0.5647  -0.5622  -0.5474  -0.5426
    -0.5304  -0.4962  -0.4729  -0.4666  -0.4471  -0.4244  -0.4094  -0.3991
    -0.3942  -0.3864  -0.3805  -0.3702  -0.3535  -0.3476  -0.3355  -0.3153
    -0.2797  -0.2620  -0.2545  -0.2318  -0.2077  -0.2008  -0.1718  -0.1525
    -0.1424  -0.1401  -0.1262  -0.1171  -0.1041  -0.0933  -0.0885  -0.0581
    -0.0452  -0.0079   0.0033   0.0073   0.0310   0.0329   0.0720   0.0786
     0.1069   0.1317   0.3661   0.3813   0.4667   0.5469   0.6370   0.6510
     0.6984   0.8452

          k = 0.2000 0.3464 0.0000 ( 51202 PWs)   bands (ev):

   -21.3689  -9.9614  -7.0614  -6.5642  -5.9372  -5.6916  -5.6596  -5.3859
    -5.0558  -4.5693  -4.4708  -4.2497  -4.2470  -4.2055  -4.0318  -4.0269
    -3.9384  -3.9301  -3.9144  -3.7986  -3.7909  -3.6621  -3.6498  -3.5873
    -3.5430  -3.4516  -3.4470  -3.4229  -3.4059  -3.3968  -3.3859  -3.3620
    -3.3503  -3.3237  -3.3162  -3.2742  -3.2379  -3.1937  -3.1862  -3.0648
    -3.0555  -2.9724  -2.9618  -2.9398  -2.9103  -2.9083  -2.8187  -2.7708
    -2.7652  -2.7435  -2.7319  -2.7191  -2.6808  -2.6730  -2.6546  -2.6429
    -2.6231  -2.5192  -2.5073  -2.4532  -2.4488  -2.4296  -2.3928  -2.3882
    -2.3753  -2.2837  -2.1965  -2.1852  -2.1642  -2.1361  -2.1259  -2.0998
    -2.0956  -2.0775  -2.0651  -2.0507  -2.0398  -2.0251  -2.0117  -1.9998
    -1.9834  -1.9564  -1.9105  -1.8692  -1.8305  -1.8207  -1.8015  -1.7843
    -1.7760  -1.7582  -1.7212  -1.7173  -1.6937  -1.6756  -1.6718  -1.6628
    -1.6569  -1.6421  -1.6383  -1.6241  -1.6145  -1.6077  -1.5816  -1.5659
    -1.5587  -1.5444  -1.5128  -1.4916  -1.4770  -1.4529  -1.4417  -1.4256
    -1.4179  -1.4076  -1.3877  -1.3619  -1.3345  -1.3205  -1.3008  -1.2762
    -1.2581  -1.2537  -1.2440  -1.2256  -1.2127  -1.1970  -1.1885  -1.1463
    -1.1008  -1.0907  -1.0689  -1.0579  -0.9881  -0.9490  -0.9362  -0.8881
    -0.8312  -0.8232  -0.8164  -0.8011  -0.7928  -0.7753  -0.7669  -0.7344
    -0.7318  -0.7183  -0.6883  -0.6684  -0.6499  -0.6447  -0.6205  -0.6125
    -0.5936  -0.5739  -0.5544  -0.5376  -0.5279  -0.5141  -0.4622  -0.3895
    -0.3690  -0.3494  -0.3358  -0.3241  -0.3183  -0.2937  -0.2837  -0.2780
    -0.2699  -0.2465  -0.1939  -0.1745  -0.1661  -0.1598  -0.1298  -0.1055
    -0.0986  -0.0912  -0.0850  -0.0650  -0.0598  -0.0490  -0.0434  -0.0355
    -0.0138   0.0481   0.0675   0.0791   0.0939   0.1270   0.1351   0.1492
     0.4457   0.4734   0.4957   0.6589   0.7835   0.8285   1.1278   1.3443
     1.3784   1.5662

          k = 0.2000-0.5774 0.0000 ( 51262 PWs)   bands (ev):

   -21.3689  -9.9611  -6.7180  -6.4430  -6.3384  -5.8462  -5.7149  -5.3135
    -4.9709  -4.9241  -4.5914  -4.2371  -3.9929  -3.9453  -3.8336  -3.8180
    -3.8161  -3.7890  -3.7835  -3.7661  -3.7225  -3.7029  -3.7019  -3.6978
    -3.6140  -3.5971  -3.5530  -3.5512  -3.5233  -3.5162  -3.4214  -3.3800
    -3.3678  -3.3602  -3.3418  -3.2974  -3.2199  -3.1969  -3.0834  -3.0716
    -3.0676  -2.9982  -2.9818  -2.9637  -2.9409  -2.8628  -2.8551  -2.8487
    -2.7848  -2.7745  -2.6994  -2.6670  -2.6363  -2.6300  -2.5794  -2.5714
    -2.4946  -2.4848  -2.4796  -2.4680  -2.4547  -2.4292  -2.4117  -2.3505
    -2.2842  -2.2762  -2.2604  -2.2533  -2.2046  -2.1980  -2.1643  -2.1353
    -2.1255  -2.0895  -2.0829  -2.0752  -2.0517  -2.0251  -2.0114  -2.0026
    -1.9953  -1.9863  -1.9579  -1.9416  -1.9384  -1.9084  -1.8695  -1.8505
    -1.8343  -1.7903  -1.7718  -1.7456  -1.7238  -1.6965  -1.6928  -1.6735
    -1.6620  -1.6553  -1.6443  -1.6382  -1.6243  -1.6181  -1.5928  -1.5856
    -1.5366  -1.5085  -1.4965  -1.4921  -1.4753  -1.4679  -1.4650  -1.4543
    -1.4486  -1.4356  -1.4197  -1.3931  -1.3773  -1.3508  -1.3336  -1.3145
    -1.2555  -1.2505  -1.2337  -1.1959  -1.1815  -1.1730  -1.1602  -1.1112
    -1.0887  -1.0762  -1.0592  -1.0453  -1.0059  -0.9515  -0.9451  -0.9235
    -0.9089  -0.9037  -0.8897  -0.8744  -0.8440  -0.8306  -0.8038  -0.7755
    -0.7647  -0.7378  -0.7163  -0.7110  -0.7030  -0.6671  -0.6340  -0.6292
    -0.6126  -0.5964  -0.5841  -0.5722  -0.5411  -0.5123  -0.4994  -0.4399
    -0.3601  -0.3287  -0.3214  -0.3101  -0.3052  -0.2982  -0.2902  -0.2748
    -0.2480  -0.2328  -0.2233  -0.2157  -0.1640  -0.1600  -0.0989  -0.0946
    -0.0730  -0.0622  -0.0574  -0.0414   0.0022   0.0079   0.0151   0.0239
     0.0339   0.0977   0.1074   0.1163   0.1284   0.1368   0.1604   0.1967
     0.3003   0.5078   0.5780   0.8601   1.3793   1.4116   1.4963   1.7066
     1.8938   1.9617

          k = 0.2000-0.3464 0.0000 ( 51202 PWs)   bands (ev):

   -21.3689  -9.9612  -7.0620  -6.5641  -5.9399  -5.6924  -5.6605  -5.3847
    -5.0500  -4.5733  -4.4668  -4.2514  -4.2468  -4.2030  -4.0313  -4.0275
    -3.9370  -3.9307  -3.9122  -3.8021  -3.7913  -3.6573  -3.6530  -3.5885
    -3.5429  -3.4533  -3.4466  -3.4208  -3.4085  -3.3941  -3.3884  -3.3611
    -3.3518  -3.3272  -3.3093  -3.2771  -3.2398  -3.1994  -3.1823  -3.0693
    -3.0594  -2.9720  -2.9637  -2.9374  -2.9252  -2.9001  -2.8142  -2.7765
    -2.7567  -2.7418  -2.7333  -2.7134  -2.6826  -2.6723  -2.6502  -2.6357
    -2.6269  -2.5159  -2.5011  -2.4551  -2.4463  -2.4240  -2.3994  -2.3854
    -2.3729  -2.2817  -2.2087  -2.1898  -2.1744  -2.1402  -2.1252  -2.1066
    -2.0965  -2.0763  -2.0583  -2.0481  -2.0354  -2.0285  -2.0148  -2.0007
    -1.9875  -1.9690  -1.9025  -1.8539  -1.8276  -1.8176  -1.7974  -1.7849
    -1.7712  -1.7456  -1.7423  -1.7139  -1.6972  -1.6785  -1.6711  -1.6636
    -1.6609  -1.6455  -1.6338  -1.6213  -1.6083  -1.5997  -1.5817  -1.5713
    -1.5484  -1.5437  -1.5278  -1.4963  -1.4791  -1.4630  -1.4321  -1.4258
    -1.4163  -1.4023  -1.3912  -1.3433  -1.3289  -1.3148  -1.2983  -1.2777
    -1.2619  -1.2533  -1.2436  -1.2278  -1.2142  -1.2052  -1.1796  -1.1443
    -1.1158  -1.0848  -1.0748  -1.0370  -0.9927  -0.9558  -0.9383  -0.8887
    -0.8380  -0.8231  -0.8160  -0.8020  -0.7930  -0.7830  -0.7594  -0.7465
    -0.7343  -0.7119  -0.6890  -0.6795  -0.6536  -0.6382  -0.6277  -0.6113
    -0.6055  -0.5852  -0.5450  -0.5345  -0.5262  -0.5075  -0.4472  -0.3847
    -0.3742  -0.3531  -0.3332  -0.3253  -0.3203  -0.2938  -0.2873  -0.2786
    -0.2605  -0.2473  -0.1884  -0.1806  -0.1724  -0.1615  -0.1264  -0.1152
    -0.0985  -0.0905  -0.0863  -0.0723  -0.0596  -0.0506  -0.0438  -0.0317
    -0.0126   0.0485   0.0715   0.0822   0.0879   0.1254   0.1339   0.1652
     0.4573   0.4709   0.4869   0.6692   0.7720   0.8260   1.1318   1.3472
     1.3683   1.5874

          k = 0.4000-0.2309 0.0000 ( 51204 PWs)   bands (ev):

   -21.3689  -9.9626  -6.9300  -6.5582  -6.1603  -5.8544  -5.4085  -5.0989
    -4.9739  -4.9310  -4.8350  -4.1478  -4.0889  -4.0744  -4.0318  -4.0030
    -3.8857  -3.8835  -3.8477  -3.7558  -3.7499  -3.7432  -3.6606  -3.5712
    -3.5658  -3.5591  -3.5566  -3.5067  -3.4595  -3.4518  -3.4418  -3.2849
    -3.2829  -3.2760  -3.2536  -3.2388  -3.2334  -3.1346  -3.1300  -3.1174
    -3.1099  -3.1026  -2.9996  -2.9040  -2.8956  -2.8121  -2.8021  -2.7746
    -2.7613  -2.7287  -2.7227  -2.7164  -2.6947  -2.6855  -2.6265  -2.6174
    -2.5922  -2.5574  -2.5490  -2.4233  -2.4123  -2.3990  -2.3772  -2.3468
    -2.2987  -2.2894  -2.2727  -2.2540  -2.2034  -2.1605  -2.1273  -2.1231
    -2.1205  -2.1068  -2.0909  -2.0840  -2.0775  -2.0564  -2.0269  -2.0059
    -1.9873  -1.9620  -1.9481  -1.9180  -1.9093  -1.8784  -1.8160  -1.8021
    -1.7979  -1.7890  -1.7670  -1.7573  -1.7191  -1.6914  -1.6901  -1.6797
    -1.6677  -1.6457  -1.6421  -1.6149  -1.6102  -1.5994  -1.5895  -1.5657
    -1.5565  -1.5478  -1.4948  -1.4480  -1.4320  -1.4138  -1.3885  -1.3796
    -1.3609  -1.3470  -1.3082  -1.2833  -1.2692  -1.2587  -1.2528  -1.2486
    -1.2399  -1.2351  -1.2262  -1.2151  -1.2084  -1.1978  -1.1817  -1.1683
    -1.1517  -1.1206  -1.0836  -1.0499  -1.0114  -1.0077  -0.9874  -0.9732
    -0.9453  -0.9131  -0.8997  -0.8828  -0.8616  -0.8401  -0.8196  -0.7689
    -0.7411  -0.7134  -0.6934  -0.6782  -0.6619  -0.6430  -0.6323  -0.5909
    -0.5463  -0.4924  -0.4810  -0.4733  -0.4647  -0.4612  -0.4468  -0.4440
    -0.4284  -0.4191  -0.3414  -0.3298  -0.3148  -0.2933  -0.2917  -0.2798
    -0.2743  -0.2606  -0.2514  -0.2440  -0.2217  -0.2047  -0.1380  -0.1200
    -0.1134  -0.0989  -0.0787  -0.0659  -0.0215  -0.0008   0.0149   0.0477
     0.0605   0.1031   0.1063   0.1237   0.1284   0.1335   0.1524   0.1709
     0.2320   0.2673   0.3450   0.9633   1.1390   1.3109   1.3724   1.3877
     1.6146   1.7727

          k = 0.4000 0.0000 0.0000 ( 51202 PWs)   bands (ev):

   -21.3689  -9.9629  -7.0575  -6.5646  -5.9244  -5.6742  -5.6681  -5.3958
    -5.0682  -4.5358  -4.5065  -4.2562  -4.2474  -4.2031  -4.0343  -4.0272
    -3.9369  -3.9329  -3.9272  -3.7972  -3.7765  -3.6614  -3.6511  -3.5846
    -3.5411  -3.4500  -3.4420  -3.4266  -3.4081  -3.3982  -3.3849  -3.3635
    -3.3469  -3.3233  -3.3135  -3.2764  -3.2362  -3.1939  -3.1872  -3.0709
    -3.0549  -2.9745  -2.9594  -2.9349  -2.9230  -2.9111  -2.8256  -2.7740
    -2.7699  -2.7364  -2.7323  -2.7176  -2.6764  -2.6632  -2.6559  -2.6430
    -2.6237  -2.5190  -2.5071  -2.4534  -2.4451  -2.4387  -2.3921  -2.3888
    -2.3769  -2.2685  -2.2066  -2.1851  -2.1682  -2.1419  -2.1174  -2.1024
    -2.0856  -2.0791  -2.0704  -2.0551  -2.0395  -2.0234  -2.0207  -2.0002
    -1.9770  -1.9504  -1.9071  -1.8848  -1.8304  -1.8185  -1.8055  -1.7878
    -1.7662  -1.7559  -1.7331  -1.7214  -1.6928  -1.6766  -1.6664  -1.6633
    -1.6543  -1.6486  -1.6358  -1.6181  -1.6121  -1.6061  -1.5861  -1.5681
    -1.5584  -1.5313  -1.5090  -1.4903  -1.4745  -1.4654  -1.4519  -1.4264
    -1.4141  -1.3930  -1.3833  -1.3574  -1.3485  -1.3159  -1.3028  -1.2668
    -1.2592  -1.2485  -1.2443  -1.2243  -1.2114  -1.1962  -1.1820  -1.1476
    -1.0981  -1.0838  -1.0698  -1.0302  -0.9922  -0.9579  -0.9384  -0.8929
    -0.8371  -0.8212  -0.8174  -0.7934  -0.7865  -0.7729  -0.7672  -0.7565
    -0.7294  -0.7194  -0.6873  -0.6693  -0.6614  -0.6414  -0.6218  -0.6157
    -0.6023  -0.5843  -0.5532  -0.5356  -0.5228  -0.5098  -0.4397  -0.4067
    -0.3693  -0.3468  -0.3353  -0.3240  -0.3176  -0.2916  -0.2846  -0.2773
    -0.2593  -0.2502  -0.1945  -0.1767  -0.1643  -0.1622  -0.1226  -0.1186
    -0.0942  -0.0903  -0.0854  -0.0757  -0.0562  -0.0501  -0.0435  -0.0246
    -0.0148   0.0453   0.0668   0.0791   0.0872   0.1264   0.1302   0.1558
     0.4616   0.4721   0.5343   0.5676   0.8088   0.8206   1.1351   1.3436
     1.3670   1.5808

          k = 0.4000 0.2309 0.0000 ( 51204 PWs)   bands (ev):

   -21.3689  -9.9629  -6.9293  -6.5583  -6.1573  -5.8515  -5.4051  -5.1116
    -4.9731  -4.9223  -4.8481  -4.1492  -4.0800  -4.0736  -4.0326  -4.0054
    -3.8868  -3.8823  -3.8467  -3.7550  -3.7492  -3.7437  -3.6662  -3.5701
    -3.5668  -3.5576  -3.5566  -3.5074  -3.4640  -3.4501  -3.4404  -3.2839
    -3.2821  -3.2721  -3.2529  -3.2379  -3.2305  -3.1309  -3.1226  -3.1134
    -3.1088  -3.1048  -2.9897  -2.9052  -2.8986  -2.8194  -2.8032  -2.7807
    -2.7672  -2.7340  -2.7239  -2.7148  -2.6939  -2.6898  -2.6218  -2.6177
    -2.5929  -2.5602  -2.5516  -2.4271  -2.4093  -2.3986  -2.3858  -2.3478
    -2.3018  -2.2849  -2.2761  -2.2560  -2.1983  -2.1556  -2.1362  -2.1239
    -2.1224  -2.1090  -2.0934  -2.0846  -2.0743  -2.0537  -2.0490  -2.0022
    -1.9728  -1.9596  -1.9457  -1.9166  -1.8920  -1.8742  -1.8294  -1.8034
    -1.7944  -1.7857  -1.7632  -1.7536  -1.7107  -1.6905  -1.6827  -1.6749
    -1.6601  -1.6530  -1.6384  -1.6156  -1.6088  -1.5982  -1.5850  -1.5687
    -1.5557  -1.5395  -1.4992  -1.4817  -1.4296  -1.4112  -1.3900  -1.3800
    -1.3573  -1.3400  -1.3228  -1.2944  -1.2682  -1.2598  -1.2538  -1.2492
    -1.2422  -1.2387  -1.2259  -1.2180  -1.2106  -1.1983  -1.1786  -1.1705
    -1.1595  -1.1171  -1.0839  -1.0455  -1.0131  -1.0078  -0.9970  -0.9736
    -0.9528  -0.9118  -0.8920  -0.8844  -0.8643  -0.8233  -0.8076  -0.7725
    -0.7472  -0.7048  -0.6836  -0.6697  -0.6608  -0.6418  -0.6122  -0.6061
    -0.5504  -0.4913  -0.4838  -0.4713  -0.4651  -0.4594  -0.4487  -0.4443
    -0.4330  -0.4179  -0.3463  -0.3223  -0.3098  -0.3017  -0.2947  -0.2896
    -0.2731  -0.2523  -0.2458  -0.2360  -0.2222  -0.2106  -0.1369  -0.1206
    -0.1126  -0.1064  -0.0789  -0.0564  -0.0219  -0.0012   0.0165   0.0492
     0.0606   0.1021   0.1049   0.1254   0.1282   0.1316   0.1482   0.1778
     0.2320   0.2591   0.3535   0.9457   1.1417   1.3083   1.3664   1.3846
     1.6798   1.7258

          k = 0.4000-0.6928 0.0000 ( 51262 PWs)   bands (ev):

   -21.3689  -9.9627  -6.7118  -6.4354  -6.3382  -5.8722  -5.6883  -5.2319
    -5.0849  -4.9489  -4.5429  -4.2320  -3.9963  -3.9520  -3.8548  -3.8194
    -3.8107  -3.7964  -3.7846  -3.7685  -3.7100  -3.7041  -3.7010  -3.6943
    -3.6171  -3.5996  -3.5532  -3.5492  -3.5214  -3.5189  -3.4053  -3.3848
    -3.3684  -3.3633  -3.3356  -3.2973  -3.2103  -3.1942  -3.0890  -3.0703
    -3.0686  -2.9919  -2.9854  -2.9641  -2.9361  -2.8717  -2.8590  -2.8420
    -2.7928  -2.7779  -2.6937  -2.6724  -2.6385  -2.6281  -2.5783  -2.5729
    -2.5032  -2.4863  -2.4751  -2.4715  -2.4577  -2.4378  -2.4168  -2.3501
    -2.2911  -2.2715  -2.2660  -2.2556  -2.2113  -2.1937  -2.1433  -2.1394
    -2.1108  -2.0890  -2.0819  -2.0684  -2.0639  -2.0405  -2.0165  -1.9941
    -1.9868  -1.9839  -1.9601  -1.9412  -1.9326  -1.8994  -1.8695  -1.8494
    -1.8329  -1.7976  -1.7678  -1.7540  -1.7320  -1.7000  -1.6884  -1.6792
    -1.6598  -1.6550  -1.6470  -1.6345  -1.6252  -1.5952  -1.5869  -1.5612
    -1.5330  -1.5057  -1.4941  -1.4907  -1.4783  -1.4695  -1.4665  -1.4558
    -1.4437  -1.4347  -1.4195  -1.4047  -1.3807  -1.3685  -1.3348  -1.3255
    -1.2855  -1.2493  -1.2109  -1.1917  -1.1852  -1.1782  -1.1654  -1.1014
    -1.0917  -1.0869  -1.0688  -1.0407  -0.9759  -0.9552  -0.9366  -0.9245
    -0.9139  -0.9036  -0.8834  -0.8766  -0.8430  -0.8216  -0.7940  -0.7840
    -0.7626  -0.7363  -0.7240  -0.7171  -0.6899  -0.6556  -0.6434  -0.6213
    -0.6075  -0.5972  -0.5819  -0.5753  -0.5395  -0.5259  -0.5072  -0.4337
    -0.3640  -0.3267  -0.3173  -0.3136  -0.3056  -0.2968  -0.2871  -0.2669
    -0.2496  -0.2368  -0.2229  -0.2130  -0.1701  -0.1554  -0.0999  -0.0880
    -0.0709  -0.0610  -0.0551  -0.0333  -0.0060   0.0095   0.0161   0.0203
     0.0325   0.0745   0.1080   0.1097   0.1273   0.1397   0.1585   0.1915
     0.2864   0.5098   0.6135   0.8654   1.3021   1.4177   1.4684   1.8065
     1.8953   1.9428

          k = 0.4000-0.4619 0.0000 ( 51262 PWs)   bands (ev):

   -21.3689  -9.9625  -6.7118  -6.4365  -6.3400  -5.8671  -5.6931  -5.2510
    -5.0647  -4.9367  -4.5533  -4.2324  -3.9963  -3.9502  -3.8537  -3.8166
    -3.8126  -3.7971  -3.7865  -3.7668  -3.7114  -3.7025  -3.6996  -3.6953
    -3.6178  -3.5966  -3.5545  -3.5502  -3.5230  -3.5176  -3.4081  -3.3835
    -3.3674  -3.3654  -3.3369  -3.2969  -3.2114  -3.1963  -3.0966  -3.0735
    -3.0686  -2.9879  -2.9836  -2.9722  -2.9393  -2.8593  -2.8538  -2.8480
    -2.7861  -2.7751  -2.6978  -2.6678  -2.6416  -2.6281  -2.5796  -2.5719
    -2.5000  -2.4863  -2.4786  -2.4680  -2.4585  -2.4299  -2.4133  -2.3496
    -2.2911  -2.2709  -2.2639  -2.2542  -2.2142  -2.1982  -2.1524  -2.1345
    -2.1129  -2.0911  -2.0824  -2.0716  -2.0559  -2.0307  -2.0163  -1.9989
    -1.9898  -1.9776  -1.9578  -1.9412  -1.9370  -1.8935  -1.8717  -1.8532
    -1.8418  -1.7978  -1.7741  -1.7571  -1.7188  -1.7026  -1.6884  -1.6815
    -1.6618  -1.6539  -1.6443  -1.6365  -1.6244  -1.6076  -1.5853  -1.5676
    -1.5296  -1.5050  -1.4978  -1.4913  -1.4856  -1.4709  -1.4638  -1.4580
    -1.4478  -1.4387  -1.4205  -1.3961  -1.3857  -1.3489  -1.3363  -1.3170
    -1.2734  -1.2469  -1.2148  -1.1933  -1.1825  -1.1712  -1.1613  -1.1088
    -1.0909  -1.0782  -1.0697  -1.0211  -1.0050  -0.9535  -0.9316  -0.9239
    -0.9095  -0.9012  -0.8920  -0.8694  -0.8526  -0.8313  -0.7999  -0.7709
    -0.7636  -0.7351  -0.7291  -0.7178  -0.6887  -0.6680  -0.6494  -0.6279
    -0.6092  -0.5945  -0.5874  -0.5763  -0.5405  -0.5280  -0.4933  -0.4248
    -0.3653  -0.3269  -0.3182  -0.3082  -0.3053  -0.2953  -0.2846  -0.2764
    -0.2437  -0.2348  -0.2231  -0.2173  -0.1702  -0.1571  -0.0998  -0.0887
    -0.0815  -0.0618  -0.0490  -0.0402  -0.0013   0.0085   0.0137   0.0210
     0.0357   0.0761   0.1053   0.1137   0.1267   0.1372   0.1607   0.1978
     0.2773   0.5095   0.6224   0.8578   1.3211   1.4187   1.4618   1.7961
     1.8974   1.9445

 ------ SPIN DOWN ----------


          k = 0.0000 0.0000 0.0000 ( 51087 PWs)   bands (ev):

   -21.3996 -10.0498  -7.6188  -6.6652  -6.1981  -5.5711  -5.0880  -4.4145
    -4.3866  -4.3836  -4.3811  -4.3780  -4.3631  -4.2588  -3.5218  -3.5098
    -3.5084  -3.5065  -3.4821  -3.4706  -3.3584  -2.5721  -2.5637  -2.5592
    -2.5554  -2.5349  -2.4861  -2.1023  -2.0948  -2.0917  -2.0905  -2.0838
    -2.0812  -1.9039  -1.8914  -1.8233  -1.8107  -1.8065  -1.7987  -1.7223
    -1.7008  -1.6762  -1.6528  -1.6292  -1.5760  -1.5515  -1.5465  -1.5423
    -1.5280  -1.4949  -1.3133  -1.2863  -1.2765  -1.2740  -1.2699  -1.2625
    -1.2622  -1.2518  -1.2399  -1.2020  -1.1978  -1.1857  -1.1822  -1.1706
    -1.1342  -0.9708  -0.6416  -0.6144  -0.5982  -0.5955  -0.5750  -0.4528
    -0.4030  -0.3012  -0.2797  -0.2769  -0.2668  -0.2653  -0.2589  -0.2224
    -0.2110  -0.2017  -0.1861  -0.1855  -0.1843  -0.1727  -0.1369  -0.0968
    -0.0885  -0.0766  -0.0739  -0.0632  -0.0455  -0.0233  -0.0204  -0.0157
    -0.0153  -0.0083   0.0087   0.0110   0.0188   0.0221   0.0708   0.1083
     0.1544   0.1725   0.1987   0.2267   0.2314   0.2402   0.2430   0.2453
     0.2466   0.2476   0.2495   0.2646   0.3166   0.3177   0.3617   0.4013
     0.4109   0.4254   0.4391   0.4562   0.5753   0.6288   0.6331   0.6854
     0.7139   0.7172   0.7235   0.7277   0.7379   0.8855   1.0309   1.0495
     1.0730   1.0767   1.2201   1.2518   1.2717   1.2866   1.2878   1.2927
     1.2952   1.4427   1.4505   1.4565   1.4622   1.4694   1.4868   1.4923
     1.4976   1.5226   1.5411   1.5497   1.5669   1.5976   1.6048   1.6097
     1.6164   1.6187   1.6202   1.6406   1.6713   1.6913   1.6971   1.7124
     1.7243   1.7364   1.7389   1.7406   1.7443   1.7490   1.7527   1.7898
     1.7944   1.8177   1.8219   1.8273   1.8366   1.8416   1.8424   1.8731
     1.8781   1.8818   1.8887   1.8907   1.8943   1.9005   1.9040   1.9100
     1.9131   1.9609   1.9677   1.9931   2.1169   2.1194   2.1229   2.1260
     2.1289   2.1307

          k = 0.0000 0.2309 0.0000 ( 51134 PWs)   bands (ev):

   -21.3996 -10.0495  -7.4710  -6.6291  -6.1230  -5.6012  -5.3099  -5.0737
    -4.7731  -4.7603  -4.2440  -4.0999  -3.8398  -3.8330  -3.7569  -3.7192
    -3.5397  -3.2979  -3.1743  -3.1524  -3.0493  -2.7730  -2.5868  -2.5592
    -2.4940  -2.4677  -2.4407  -2.2176  -2.1355  -2.1326  -2.1202  -2.0879
    -2.0814  -2.0491  -2.0357  -2.0013  -1.9965  -1.8791  -1.8485  -1.7734
    -1.7669  -1.7242  -1.6420  -1.6041  -1.5787  -1.5681  -1.5076  -1.4511
    -1.4283  -1.4019  -1.3595  -1.3400  -1.3178  -1.2921  -1.2772  -1.2680
    -1.2557  -1.2193  -1.1760  -1.1586  -1.1294  -1.0948  -1.0832  -1.0579
    -0.9778  -0.9275  -0.7185  -0.6617  -0.6470  -0.6270  -0.5906  -0.5508
    -0.5051  -0.4796  -0.4392  -0.4201  -0.3203  -0.2968  -0.2852  -0.2706
    -0.2592  -0.2445  -0.2355  -0.2148  -0.2074  -0.1846  -0.1564  -0.1066
    -0.0783  -0.0754  -0.0618  -0.0421  -0.0387  -0.0165  -0.0056   0.0103
     0.0189   0.0248   0.0312   0.0336   0.0364   0.0412   0.0771   0.0883
     0.1138   0.1300   0.1386   0.1408   0.1738   0.1865   0.2012   0.2083
     0.2381   0.2570   0.2821   0.3109   0.3440   0.3541   0.3594   0.3840
     0.4504   0.5420   0.5870   0.5964   0.6064   0.6432   0.6563   0.6778
     0.6935   0.7038   0.7048   0.7091   0.7519   0.9128   1.0147   1.0363
     1.0430   1.0525   1.0679   1.0781   1.1011   1.1497   1.2000   1.2300
     1.2495   1.2651   1.3179   1.3265   1.3560   1.3783   1.4047   1.4244
     1.4643   1.4702   1.5088   1.5224   1.5317   1.5457   1.5651   1.5729
     1.5994   1.6172   1.6656   1.6731   1.6989   1.7092   1.7192   1.7276
     1.7745   1.7760   1.7855   1.7878   1.8075   1.8438   1.8635   1.8712
     1.8751   1.8820   1.9116   1.9261   1.9351   1.9474   1.9654   1.9740
     1.9857   2.0214   2.0256   2.0303   2.0505   2.0567   2.0623   2.0869
     2.1041   2.1127   2.1183   2.1416   2.1951   2.2208   2.2288   2.2617
     2.2960   2.3147

          k = 0.0000 0.4619 0.0000 ( 51204 PWs)   bands (ev):

   -21.3996 -10.0490  -7.0490  -6.6001  -6.2607  -5.9068  -5.4643  -5.0792
    -4.9803  -4.9697  -4.7865  -3.8932  -3.8838  -3.7827  -3.2757  -3.2191
    -3.2139  -3.0946  -2.9588  -2.8925  -2.7837  -2.7634  -2.6201  -2.6120
    -2.5693  -2.5481  -2.4944  -2.4625  -2.3864  -2.3682  -2.3120  -2.3010
    -2.2825  -2.0986  -2.0743  -1.9990  -1.9946  -1.8829  -1.8760  -1.8651
    -1.8604  -1.8344  -1.5965  -1.5717  -1.5662  -1.5312  -1.5168  -1.4887
    -1.3482  -1.3443  -1.3229  -1.3144  -1.2983  -1.2835  -1.2780  -1.2557
    -1.2144  -1.1618  -1.1560  -1.1454  -1.1164  -1.0915  -0.9799  -0.9311
    -0.8374  -0.8050  -0.7451  -0.6926  -0.6694  -0.6471  -0.6149  -0.6030
    -0.5857  -0.5720  -0.5373  -0.5090  -0.4715  -0.4446  -0.4224  -0.3977
    -0.3638  -0.3450  -0.3183  -0.3168  -0.2969  -0.2501  -0.1935  -0.1805
    -0.1265  -0.1126  -0.0967  -0.0477  -0.0233  -0.0161   0.0009   0.0349
     0.0551   0.0652   0.0786   0.0888   0.0966   0.1012   0.1154   0.1429
     0.1524   0.1753   0.1902   0.1932   0.2006   0.2054   0.2261   0.2343
     0.2609   0.2735   0.3101   0.3656   0.4040   0.4190   0.4389   0.4580
     0.4603   0.4738   0.4899   0.5199   0.5570   0.5711   0.5785   0.6150
     0.6417   0.6463   0.6721   0.6784   0.6999   0.7145   0.8237   0.8611
     0.9039   0.9390   0.9996   1.0311   1.0969   1.1149   1.1280   1.1482
     1.1567   1.1657   1.2064   1.2419   1.2553   1.3048   1.3904   1.4205
     1.4292   1.4383   1.4967   1.5125   1.5350   1.5426   1.5763   1.5810
     1.6175   1.6343   1.6640   1.7167   1.7438   1.7556   1.7675   1.7870
     1.7975   1.8004   1.8208   1.8552   1.8715   1.8762   1.8935   1.9113
     1.9254   1.9575   2.0182   2.0242   2.0358   2.0536   2.0602   2.0753
     2.0834   2.1140   2.1202   2.1246   2.1355   2.1480   2.1545   2.1588
     2.1839   2.2046   2.3129   2.3408   2.3667   2.4770   2.6362   2.8087
     2.8796   2.9176

          k = 0.2000-0.1155 0.0000 ( 51134 PWs)   bands (ev):

   -21.3996 -10.0504  -7.4699  -6.6288  -6.1165  -5.5797  -5.3359  -5.0869
    -4.7638  -4.7464  -4.2506  -4.1397  -3.8398  -3.8316  -3.7451  -3.6882
    -3.5456  -3.2993  -3.1695  -3.1411  -3.0654  -2.7963  -2.5765  -2.5458
    -2.5074  -2.4619  -2.4344  -2.2206  -2.1379  -2.1264  -2.1232  -2.0904
    -2.0815  -2.0477  -2.0361  -2.0025  -1.9935  -1.8686  -1.8494  -1.7805
    -1.7676  -1.7427  -1.6481  -1.5963  -1.5833  -1.5685  -1.5210  -1.4552
    -1.4235  -1.4027  -1.3514  -1.3252  -1.3195  -1.2943  -1.2742  -1.2675
    -1.2582  -1.2041  -1.1768  -1.1602  -1.1307  -1.0961  -1.0797  -1.0577
    -0.9957  -0.9170  -0.7159  -0.6612  -0.6499  -0.6232  -0.5961  -0.5583
    -0.4954  -0.4849  -0.4288  -0.4143  -0.3157  -0.2953  -0.2871  -0.2675
    -0.2615  -0.2431  -0.2356  -0.2133  -0.2033  -0.1897  -0.1523  -0.1078
    -0.0880  -0.0744  -0.0688  -0.0428  -0.0276  -0.0112  -0.0056   0.0141
     0.0162   0.0227   0.0291   0.0327   0.0365   0.0502   0.0720   0.0892
     0.1111   0.1279   0.1343   0.1426   0.1683   0.1901   0.1995   0.2138
     0.2455   0.2706   0.3098   0.3166   0.3331   0.3569   0.3598   0.3842
     0.4268   0.5257   0.5697   0.5962   0.6004   0.6435   0.6564   0.6799
     0.6822   0.7019   0.7050   0.7082   0.7786   0.9196   1.0099   1.0312
     1.0409   1.0566   1.0634   1.0787   1.0938   1.1407   1.1954   1.2293
     1.2410   1.2752   1.3179   1.3245   1.3499   1.3796   1.3979   1.4088
     1.4666   1.4892   1.5062   1.5228   1.5318   1.5444   1.5631   1.5724
     1.6022   1.6274   1.6538   1.6780   1.6983   1.7121   1.7202   1.7526
     1.7668   1.7790   1.7835   1.7926   1.8069   1.8345   1.8625   1.8715
     1.8774   1.8799   1.9146   1.9266   1.9363   1.9495   1.9610   1.9779
     1.9846   2.0218   2.0242   2.0297   2.0496   2.0540   2.0638   2.0824
     2.0890   2.1150   2.1217   2.1393   2.2073   2.2201   2.2312   2.2459
     2.3050   2.3172

          k = 0.2000 0.1155 0.0000 ( 51134 PWs)   bands (ev):

   -21.3996 -10.0505  -7.4697  -6.6289  -6.1150  -5.5770  -5.3353  -5.0981
    -4.7549  -4.7469  -4.2525  -4.1483  -3.8382  -3.8325  -3.7356  -3.6873
    -3.5478  -3.2990  -3.1663  -3.1431  -3.0676  -2.7993  -2.5715  -2.5458
    -2.5064  -2.4614  -2.4371  -2.2212  -2.1354  -2.1249  -2.1209  -2.0861
    -2.0821  -2.0486  -2.0361  -2.0004  -1.9960  -1.8725  -1.8477  -1.7794
    -1.7667  -1.7283  -1.6769  -1.6077  -1.5885  -1.5689  -1.4850  -1.4509
    -1.4301  -1.4069  -1.3548  -1.3374  -1.3122  -1.2932  -1.2746  -1.2706
    -1.2581  -1.2043  -1.1854  -1.1613  -1.1320  -1.0937  -1.0810  -1.0582
    -0.9693  -0.9206  -0.7268  -0.6615  -0.6486  -0.6245  -0.5927  -0.5601
    -0.5067  -0.4835  -0.4273  -0.4111  -0.3242  -0.2921  -0.2846  -0.2789
    -0.2453  -0.2355  -0.2321  -0.2192  -0.2119  -0.1841  -0.1621  -0.1082
    -0.0877  -0.0750  -0.0645  -0.0517  -0.0420  -0.0064  -0.0033   0.0083
     0.0191   0.0203   0.0292   0.0337   0.0395   0.0523   0.0787   0.0900
     0.1126   0.1286   0.1402   0.1425   0.1557   0.1902   0.2057   0.2147
     0.2454   0.2610   0.3067   0.3135   0.3424   0.3528   0.3585   0.3835
     0.4569   0.5361   0.5702   0.5968   0.6042   0.6501   0.6542   0.6806
     0.6945   0.6975   0.7047   0.7067   0.7483   0.9154   1.0146   1.0234
     1.0419   1.0627   1.0723   1.0784   1.0984   1.1590   1.1977   1.2246
     1.2410   1.2620   1.3199   1.3251   1.3519   1.3764   1.3907   1.4081
     1.4700   1.4841   1.5117   1.5257   1.5326   1.5451   1.5616   1.5740
     1.5977   1.6274   1.6612   1.6708   1.6908   1.7122   1.7222   1.7473
     1.7695   1.7796   1.7833   1.7927   1.8041   1.8393   1.8635   1.8718
     1.8760   1.8823   1.9091   1.9272   1.9372   1.9496   1.9605   1.9777
     1.9829   2.0217   2.0240   2.0320   2.0506   2.0544   2.0620   2.0837
     2.0906   2.1161   2.1192   2.1397   2.2057   2.2198   2.2322   2.2441
     2.3057   2.3192

          k = 0.2000 0.3464 0.0000 ( 51202 PWs)   bands (ev):

   -21.3996 -10.0501  -7.1827  -6.5926  -5.9782  -5.7707  -5.7372  -5.4072
    -5.0764  -4.5179  -4.3914  -4.0300  -4.0229  -3.9219  -3.2072  -3.1908
    -3.1825  -3.1773  -3.0701  -2.9897  -2.9113  -2.8847  -2.8461  -2.5157
    -2.4378  -2.4313  -2.4145  -2.3610  -2.3381  -2.3208  -2.2327  -2.2201
    -2.2112  -2.2071  -2.1927  -2.0736  -2.0081  -1.8527  -1.8375  -1.8324
    -1.7574  -1.7525  -1.7100  -1.6993  -1.5873  -1.5042  -1.4857  -1.4596
    -1.3842  -1.3556  -1.3162  -1.3124  -1.2990  -1.2921  -1.2611  -1.2525
    -1.2359  -1.2205  -1.1518  -1.1337  -1.0765  -1.0080  -0.9651  -0.9244
    -0.8570  -0.8455  -0.7428  -0.7131  -0.6247  -0.6123  -0.5949  -0.5563
    -0.5457  -0.5270  -0.5218  -0.5088  -0.4459  -0.4308  -0.4008  -0.3876
    -0.3834  -0.3540  -0.3404  -0.3257  -0.2741  -0.2309  -0.1773  -0.1627
    -0.1456  -0.1172  -0.0917  -0.0647  -0.0448  -0.0364  -0.0220  -0.0077
     0.0117   0.0161   0.0346   0.0443   0.0589   0.0718   0.1015   0.1197
     0.1329   0.1421   0.1558   0.1733   0.1853   0.1980   0.2069   0.2143
[...]
     atom    8 type  1   force =     0.00098197   -0.00095390   -0.10142288
     atom    9 type  1   force =     0.00321996   -0.00179394   -0.10549904
     atom   10 type  1   force =     0.00138143    0.00036071   -0.00869369
     atom   11 type  1   force =     0.00097119    0.00007297   -0.01275436
     atom   12 type  1   force =    -0.00260418    0.00095615   -0.00967095
     atom   13 type  1   force =     0.00098851   -0.00073175   -0.01125984
     atom   14 type  1   force =     0.00030219   -0.00106739   -0.01007401
     atom   15 type  1   force =    -0.00076220   -0.00006405   -0.01320895
     atom   16 type  1   force =     0.00099414   -0.00057255   -0.01743307
     atom   17 type  1   force =    -0.00036994   -0.00011661   -0.01044275
     atom   18 type  1   force =    -0.00036261    0.00173045   -0.01163607
     atom   19 type  1   force =     0.00123842    0.01002544    0.00242368
     atom   20 type  1   force =    -0.00334104    0.00816770    0.01122258
     atom   21 type  1   force =     0.00168810   -0.00064549    0.01748668
     atom   22 type  1   force =     0.00005866   -0.00096161    0.01855161
     atom   23 type  1   force =     0.00161082   -0.00108366    0.01375577
     atom   24 type  1   force =    -0.00048158   -0.00011069    0.01809994
     atom   25 type  1   force =    -0.01000161   -0.00293457    0.00467749
     atom   26 type  1   force =    -0.00046931   -0.00801335   -0.00091383
     atom   27 type  1   force =     0.00694903   -0.00409947    0.01050102
     atom   28 type  1   force =     0.05894173   -0.00894703    0.10951256
     atom   29 type  1   force =    -0.00220591   -0.00154831    0.02137894
     atom   30 type  1   force =     0.00480240   -0.00117301    0.11811328
     atom   31 type  1   force =    -0.00888705   -0.03013299    0.13949988
     atom   32 type  1   force =     0.00073488   -0.00019864    0.10585112
     atom   33 type  1   force =     0.00221039   -0.00656929    0.10904264
     atom   34 type  1   force =     0.01067361    0.01563271    0.12690268
     atom   35 type  1   force =    -0.01952173    0.05708422    0.16930792
     atom   36 type  1   force =    -0.00231859    0.00030669    0.10772131
     atom   37 type  2   force =    -0.39254541   -0.05072035    0.21145301
     atom   38 type  3   force =     2.15001114    0.24840811   -1.17013126
     atom   39 type  4   force =    -0.05387691   -0.00511180   -0.05508136
     The ionic contribution  to forces
     atom    1 type  1   force =    -0.00538391    0.00831417 -111.18220665
     atom    2 type  1   force =     0.00570525    0.00774264 -111.18156582
     atom    3 type  1   force =    -0.00032132    0.00242588 -111.17085050
     atom    4 type  1   force =    -0.00033351    0.00193080 -111.17022394
     atom    5 type  1   force =    -0.00187998   -0.00590568 -111.17460583
     atom    6 type  1   force =     0.00221349   -0.00533877 -111.17393885
     atom    7 type  1   force =    -0.00792664   -0.00236753 -111.17916707
     atom    8 type  1   force =     0.00065849   -0.00442575 -111.19376076
     atom    9 type  1   force =     0.00726813   -0.00237576 -111.17784970
     atom   10 type  1   force =    -0.05432394    0.01052660  -40.23116505
     atom   11 type  1   force =     0.05870619    0.00877099  -40.22241035
     atom   12 type  1   force =    -0.00437736    0.00430163  -40.11455448
     atom   13 type  1   force =     0.00075550    0.06686504  -40.14831331
     atom   14 type  1   force =     0.02244712    0.01421116  -40.10181414
     atom   15 type  1   force =    -0.02320425    0.01873580  -40.10331773
     atom   16 type  1   force =    -0.03324878   -0.02727761  -40.11383486
     atom   17 type  1   force =     0.00362575   -0.07191438  -40.17332645
     atom   18 type  1   force =     0.02962171   -0.02421727  -40.10666518
     atom   19 type  1   force =    -0.26991116    0.42677153   31.14418124
     atom   20 type  1   force =     0.28598543    0.39934078   31.17310720
     atom   21 type  1   force =    -0.01560653    0.10730338   31.66884556
     atom   22 type  1   force =    -0.01539368    0.08296885   31.69712401
     atom   23 type  1   force =    -0.08984641   -0.28301889   31.51354476
     atom   24 type  1   force =     0.10525236   -0.25308625   31.54532186
     atom   25 type  1   force =    -0.39836317   -0.11434603   31.28745379
     atom   26 type  1   force =     0.03412547   -0.25256845   30.49399026
     atom   27 type  1   force =     0.36343060   -0.11501411   31.35657912
     atom   28 type  1   force =    -3.69344242    0.87805718   97.54608727
     atom   29 type  1   force =     4.15119208    0.63867347   97.97034019
     atom   30 type  1   force =    -0.20452155    0.13161083  103.96846440
     atom   31 type  1   force =     0.03211554    2.84070820  102.97804783
     atom   32 type  1   force =     0.71919119    0.54551320  104.24181891
     atom   33 type  1   force =    -0.76017473    0.72135394  104.18584403
     atom   34 type  1   force =    -1.20477013   -1.08832653  103.86239468
     atom   35 type  1   force =     0.20748594   -3.53595644  101.97718138
     atom   36 type  1   force =     0.99908549   -0.88202948  104.11836532
     atom   37 type  2   force =     6.07826916    0.57456742   55.95438593
     atom   38 type  3   force =    -8.26322091   -1.00223515   88.15524396
     atom   39 type  4   force =     1.93911549    0.17971062   15.08124897
     The local contribution  to forces
     atom    1 type  1   force =     0.00239268   -0.00905465  111.28635393
     atom    2 type  1   force =    -0.00476995   -0.01034076  111.28859785
     atom    3 type  1   force =     0.00234026   -0.00140613  111.27689505
     atom    4 type  1   force =     0.00113702   -0.00175779  111.27817296
     atom    5 type  1   force =     0.00008958    0.00829245  111.28173185
     atom    6 type  1   force =    -0.00171946    0.00253674  111.28085781
     atom    7 type  1   force =     0.01192525    0.00137509  111.28129188
     atom    8 type  1   force =    -0.00132626    0.00574339  111.29814315
     atom    9 type  1   force =    -0.01062826    0.00450391  111.28605640
     atom   10 type  1   force =     0.05207351   -0.01101976   40.21887120
     atom   11 type  1   force =    -0.05877655   -0.00908912   40.21314411
     atom   12 type  1   force =     0.00725489   -0.00517892   40.10314838
     atom   13 type  1   force =    -0.00145955   -0.06576586   40.13915970
     atom   14 type  1   force =    -0.02308695   -0.01251938   40.09117008
     atom   15 type  1   force =     0.02450737   -0.01857326   40.09470023
     atom   16 type  1   force =     0.03245448    0.02830428   40.10855403
     atom   17 type  1   force =    -0.00431119    0.07206369   40.16293982
     atom   18 type  1   force =    -0.02895294    0.02268654   40.09674336
     atom   19 type  1   force =     0.26840689   -0.43878193  -31.12573111
     atom   20 type  1   force =    -0.28251460   -0.40741574  -31.16585538
     atom   21 type  1   force =     0.01423205   -0.10723662  -31.66378605
     atom   22 type  1   force =     0.01501406   -0.08245478  -31.68995160
     atom   23 type  1   force =     0.08852619    0.28366952  -31.50440987
     atom   24 type  1   force =    -0.10395326    0.25280429  -31.53958572
     atom   25 type  1   force =     0.41083635    0.11990900  -31.26929129
     atom   26 type  1   force =    -0.03401742    0.26219629  -30.47254937
     atom   27 type  1   force =    -0.36906341    0.11908550  -31.35119808
     atom   28 type  1   force =     3.61157929   -0.86722434  -97.66201173
     atom   29 type  1   force =    -4.14725672   -0.63558532  -97.97947164
     atom   30 type  1   force =     0.19769691   -0.12955467 -104.09787746
     atom   31 type  1   force =    -0.02043574   -2.80053086 -103.12782332
     atom   32 type  1   force =    -0.71678398   -0.54309820 -104.35491175
     atom   33 type  1   force =     0.75448816   -0.71166338 -104.30439558
     atom   34 type  1   force =     1.18848985    1.06752355 -103.99899139
     atom   35 type  1   force =    -0.18455174    3.46613997 -102.15808835
     atom   36 type  1   force =    -0.99264105    0.87747832 -104.23325606
     atom   37 type  2   force =    -5.68387478   -0.52312614  -56.15971113
     atom   38 type  3   force =     6.13307817    0.75743035  -87.00008830
     atom   39 type  4   force =    -1.88529751   -0.17604840  -15.01719692
     The core correction contribution to forces
     atom    1 type  1   force =    -0.00018468   -0.00032582    0.01021432
     atom    2 type  1   force =    -0.00006663   -0.00028314    0.01048927
     atom    3 type  1   force =    -0.00001464    0.00003193    0.01001404
     atom    4 type  1   force =    -0.00009734   -0.00002399    0.01001494
     atom    5 type  1   force =     0.00002627    0.00027183    0.01031400
     atom    6 type  1   force =    -0.00009385   -0.00014857    0.01011491
     atom    7 type  1   force =     0.00045229    0.00003734    0.01053384
     atom    8 type  1   force =    -0.00009141    0.00014282    0.01026254
     atom    9 type  1   force =    -0.00018033    0.00024173    0.01042870
     atom   10 type  1   force =    -0.00001558   -0.00009546   -0.00147747
     atom   11 type  1   force =    -0.00004061    0.00001590   -0.00184389
     atom   12 type  1   force =     0.00009509    0.00016354   -0.00163186
     atom   13 type  1   force =     0.00004690   -0.00001957   -0.00185987
     atom   14 type  1   force =    -0.00006491   -0.00008928   -0.00163762
     atom   15 type  1   force =    -0.00005207   -0.00005349   -0.00191169
     atom   16 type  1   force =     0.00019219    0.00007332   -0.00187683
     atom   17 type  1   force =     0.00001016    0.00013342   -0.00176594
     atom   18 type  1   force =    -0.00014681   -0.00002989   -0.00174899
     atom   19 type  1   force =    -0.00006162    0.00015685    0.00067094
     atom   20 type  1   force =    -0.00049442    0.00099043    0.00040471
     atom   21 type  1   force =     0.00025350   -0.00008829    0.00171453
     atom   22 type  1   force =     0.00020621   -0.00010510    0.00217747
     atom   23 type  1   force =    -0.00024614    0.00002415    0.00153707
     atom   24 type  1   force =    -0.00015181   -0.00026357    0.00200975
     atom   25 type  1   force =     0.00007587    0.00002550    0.00144066
     atom   26 type  1   force =    -0.00028675    0.00002751    0.00100058
     atom   27 type  1   force =     0.00120333   -0.00083173    0.00014284
     atom   28 type  1   force =     0.00987134   -0.00202808    0.00431507
     atom   29 type  1   force =    -0.00380887   -0.00085844   -0.00545906
     atom   30 type  1   force =    -0.00089361    0.00012658   -0.00956434
     atom   31 type  1   force =     0.00201026   -0.00423315   -0.00746805
     atom   32 type  1   force =    -0.00192178   -0.00202525   -0.00951832
     atom   33 type  1   force =     0.00000130   -0.00012917   -0.01048131
     atom   34 type  1   force =     0.00049398    0.00034984   -0.00930523
     atom   35 type  1   force =     0.00185764    0.00602013   -0.00556376
     atom   36 type  1   force =    -0.00239392    0.00220772   -0.00902891
     atom   37 type  2   force =     0.00400289    0.00008013   -0.00348192
     atom   38 type  3   force =    -0.01738244   -0.00205544    0.01045830
     atom   39 type  4   force =     0.00000000    0.00000000    0.00000000
     The Hubbard contrib.    to forces
     atom    1 type  1   force =     0.00000000    0.00000000    0.00000000
     atom    2 type  1   force =     0.00000000    0.00000000    0.00000000
     atom    3 type  1   force =     0.00000000    0.00000000    0.00000000
     atom    4 type  1   force =     0.00000000    0.00000000    0.00000000
     atom    5 type  1   force =     0.00000000    0.00000000    0.00000000
     atom    6 type  1   force =     0.00000000    0.00000000    0.00000000
     atom    7 type  1   force =     0.00000000    0.00000000    0.00000000
     atom    8 type  1   force =     0.00000000    0.00000000    0.00000000
     atom    9 type  1   force =     0.00000000    0.00000000    0.00000000
     atom   10 type  1   force =     0.00000000    0.00000000    0.00000000
     atom   11 type  1   force =     0.00000000    0.00000000    0.00000000
     atom   12 type  1   force =     0.00000000    0.00000000    0.00000000
     atom   13 type  1   force =     0.00000000    0.00000000    0.00000000
     atom   14 type  1   force =     0.00000000    0.00000000    0.00000000
     atom   15 type  1   force =     0.00000000    0.00000000    0.00000000
     atom   16 type  1   force =     0.00000000    0.00000000    0.00000000
     atom   17 type  1   force =     0.00000000    0.00000000    0.00000000
     atom   18 type  1   force =     0.00000000    0.00000000    0.00000000
     atom   19 type  1   force =     0.00000000    0.00000000    0.00000000
     atom   20 type  1   force =     0.00000000    0.00000000    0.00000000
     atom   21 type  1   force =     0.00000000    0.00000000    0.00000000
     atom   22 type  1   force =     0.00000000    0.00000000    0.00000000
     atom   23 type  1   force =     0.00000000    0.00000000    0.00000000
     atom   24 type  1   force =     0.00000000    0.00000000    0.00000000
     atom   25 type  1   force =     0.00000000    0.00000000    0.00000000
     atom   26 type  1   force =     0.00000000    0.00000000    0.00000000
     atom   27 type  1   force =     0.00000000    0.00000000    0.00000000
     atom   28 type  1   force =     0.00000000    0.00000000    0.00000000
     atom   29 type  1   force =     0.00000000    0.00000000    0.00000000
     atom   30 type  1   force =     0.00000000    0.00000000    0.00000000
     atom   31 type  1   force =     0.00000000    0.00000000    0.00000000
     atom   32 type  1   force =     0.00000000    0.00000000    0.00000000
     atom   33 type  1   force =     0.00000000    0.00000000    0.00000000
     atom   34 type  1   force =     0.00000000    0.00000000    0.00000000
     atom   35 type  1   force =     0.00000000    0.00000000    0.00000000
     atom   36 type  1   force =     0.00000000    0.00000000    0.00000000
     atom   37 type  2   force =     0.00000000    0.00000000    0.00000000
     atom   38 type  3   force =     0.00000000    0.00000000    0.00000000
     atom   39 type  4   force =     0.00000000    0.00000000    0.00000000
     The SCF correction term to forces
     atom    1 type  1   force =     0.00000000    0.00000000   -0.00000000
     atom    2 type  1   force =    -0.00000000   -0.00000000   -0.00000000
     atom    3 type  1   force =     0.00000000    0.00000000   -0.00000000
     atom    4 type  1   force =    -0.00000000   -0.00000000   -0.00000000
     atom    5 type  1   force =     0.00000000   -0.00000000   -0.00000000
     atom    6 type  1   force =     0.00000000   -0.00000000   -0.00000000
     atom    7 type  1   force =     0.00000000    0.00000000   -0.00000000
     atom    8 type  1   force =     0.00000000    0.00000000   -0.00000000
     atom    9 type  1   force =    -0.00000000   -0.00000000   -0.00000000
     atom   10 type  1   force =    -0.00000000    0.00000000    0.00000000
     atom   11 type  1   force =     0.00000000   -0.00000000    0.00000000
     atom   12 type  1   force =     0.00000000   -0.00000000    0.00000000
     atom   13 type  1   force =    -0.00000000    0.00000000    0.00000000
     atom   14 type  1   force =     0.00000000    0.00000000    0.00000000
     atom   15 type  1   force =     0.00000000    0.00000000    0.00000000
     atom   16 type  1   force =    -0.00000000   -0.00000000    0.00000000
     atom   17 type  1   force =    -0.00000000   -0.00000000    0.00000000
     atom   18 type  1   force =     0.00000000   -0.00000000    0.00000000
     atom   19 type  1   force =    -0.00000000    0.00000000    0.00000000
     atom   20 type  1   force =     0.00000000    0.00000000    0.00000000
     atom   21 type  1   force =     0.00000000   -0.00000000    0.00000000
     atom   22 type  1   force =     0.00000000    0.00000000    0.00000000
     atom   23 type  1   force =    -0.00000000    0.00000000    0.00000000
     atom   24 type  1   force =     0.00000000   -0.00000000    0.00000000
     atom   25 type  1   force =    -0.00000000   -0.00000000    0.00000000
     atom   26 type  1   force =    -0.00000000   -0.00000000    0.00000000
     atom   27 type  1   force =     0.00000000   -0.00000000    0.00000000
     atom   28 type  1   force =    -0.00000000   -0.00000000    0.00000000
     atom   29 type  1   force =     0.00000000   -0.00000000    0.00000000
     atom   30 type  1   force =     0.00000000   -0.00000000    0.00000000
     atom   31 type  1   force =    -0.00000000    0.00000000    0.00000000
     atom   32 type  1   force =     0.00000000    0.00000000    0.00000000
     atom   33 type  1   force =    -0.00000000   -0.00000000    0.00000000
     atom   34 type  1   force =     0.00000000    0.00000000    0.00000000
     atom   35 type  1   force =    -0.00000000   -0.00000000    0.00000000
     atom   36 type  1   force =     0.00000000   -0.00000000    0.00000000
     atom   37 type  2   force =    -0.00000973   -0.00000409    0.00001317
     atom   38 type  3   force =    -0.00000862   -0.00000383    0.00000477
     atom   39 type  4   force =    -0.00000065   -0.00000031    0.00000224

     Total force =     0.012387     Total SCF correction =     0.000020

     Writing all to output data dir ./pwscf.save/

     init_run     :     11.53s CPU     11.95s WALL (       1 calls)
     electrons    :    963.68s CPU    982.48s WALL (       1 calls)
     forces       :      3.37s CPU      3.42s WALL (       1 calls)

     Called by init_run:
     wfcinit      :      8.33s CPU      8.63s WALL (       1 calls)
     potinit      :      2.11s CPU      2.20s WALL (       1 calls)
     hinit0       :      0.84s CPU      0.85s WALL (       1 calls)

     Called by electrons:
     c_bands      :    814.01s CPU    828.16s WALL (      56 calls)
     sum_band     :    102.57s CPU    104.39s WALL (      56 calls)
     v_of_rho     :     10.22s CPU     10.39s WALL (      57 calls)
     newd         :      3.96s CPU      4.01s WALL (      57 calls)
     PAW_pot      :     14.91s CPU     15.06s WALL (      57 calls)
     mix_rho      :     19.42s CPU     21.72s WALL (      56 calls)
     vdW_kernel   :      1.12s CPU      1.13s WALL (       1 calls)

     Called by c_bands:
     init_us_2    :     10.07s CPU     10.27s WALL (    2964 calls)
     init_us_2:cp :     10.05s CPU     10.27s WALL (    2964 calls)
     cegterg      :    786.30s CPU    799.72s WALL (    1456 calls)

     Called by *egterg:
     cdiaghg      :    218.71s CPU    223.21s WALL (    4985 calls)
     h_psi        :    377.46s CPU    383.51s WALL (    5011 calls)
     s_psi        :     40.89s CPU     41.39s WALL (    5011 calls)
     g_psi        :      1.02s CPU      1.05s WALL (    3529 calls)

     Called by h_psi:
     h_psi:calbec :     61.21s CPU     62.01s WALL (    5011 calls)
     vloc_psi     :    271.37s CPU    276.05s WALL (    5011 calls)
     add_vuspsi   :     42.27s CPU     42.80s WALL (    5011 calls)

     General routines
     calbec       :     89.72s CPU     90.89s WALL (    6571 calls)
     fft          :      8.32s CPU      8.66s WALL (    5150 calls)
     ffts         :     11.61s CPU     12.99s WALL (   23795 calls)
     fftw         :    310.07s CPU    315.29s WALL ( 1505920 calls)
     interpolate  :      0.39s CPU      0.39s WALL (     114 calls)

     Parallel routines

     PWSCF        :  16m26.33s CPU  16m53.35s WALL


   This run was terminated on:  15:15:32   9Dec2025            

=------------------------------------------------------------------------------=
   JOB DONE.
=------------------------------------------------------------------------------=
