
     Program PWSCF v.7.1 starts on 20Nov2025 at 14:52:49 
        Git branch: heads/qe-7.1
        Last git commit: 48ba0178f8fede6d020eb786884699a9f063f55d-dirty
        Last git commit date: Fri Jan 27 14:22:33 2023 +0000
        Last git commit subject: Merge branch 'fix_hubbard' into 'develop'

     This program is part of the open-source Quantum ESPRESSO suite
     for quantum simulation of materials; please cite
         "P. Giannozzi et al., J. Phys.:Condens. Matter 21 395502 (2009);
         "P. Giannozzi et al., J. Phys.:Condens. Matter 29 465901 (2017);
         "P. Giannozzi et al., J. Chem. Phys. 152 154105 (2020);
          URL http://www.quantum-espresso.org", 
     in publications or presentations arising from this work. More details at
     http://www.quantum-espresso.org/quote

     Parallel version (MPI), running on    96 processors

     MPI processes distributed on     2 nodes
     51167 MiB available memory on the printing compute node when the environment starts

     Reading input from espresso.pwi
Warning: card &CELL ignored
Warning: card / ignored
Warning: card &FCP ignored
Warning: card / ignored
Warning: card &RISM ignored
Warning: card / ignored

     Current dimensions of program PWSCF are:
     Max number of different atomic species (ntypx) = 10
     Max number of k-points (npk) =  40000
     Max angular momentum in pseudopotentials (lmaxx) =  4
     file Co.pbe-n-kjpaw_psl.1.0.0.UPF: wavefunction(s)  4S 3D renormalized
     file C.pbe-n-kjpaw_psl.1.0.0.UPF: wavefunction(s)  2S 2P renormalized
     file O.pbe-nl-kjpaw_psl.1.0.0.UPF: wavefunction(s)  2S 2P renormalized
     file H.pbe-kjpaw_psl.1.0.0.UPF: wavefunction(s)  1S renormalized

     **************************************************************************
     Initializing libbeef V0.1.2 with the BEEF-vdW functional.
     Citation: Wellendorff et al., PRB 85, 235149 (2012).
     **************************************************************************


     IMPORTANT: XC functional enforced from input :
     Exchange-correlation= BEEF-VDW
                           (   1   4  43  14   2   0   0)
     Any further DFT definition will be discarded
     Please, verify this is what you really want


     R & G space division:  proc/nbgrp/npool/nimage =      96
     Subspace diagonalization in iterative solution of the eigenvalue problem:
     one sub-group per band group will be used
     custom distributed-memory algorithm (size of sub-group:  2*  2 procs)


     Parallelization info
     --------------------
     sticks:   dense  smooth     PW     G-vecs:    dense   smooth      PW
     Min          43      23      6                 7829     3049     440
     Max          44      24      7                 7845     3068     465
     Sum        4153    2221    613               752179   293251   42993

     Using Slab Decomposition



     bravais-lattice index     =            0
     lattice parameter (alat)  =      14.1729  a.u.
     unit-cell volume          =    8574.3059 (a.u.)^3
     number of atoms/cell      =           39
     number of atomic types    =            4
     number of electrons       =       335.00
     number of Kohn-Sham states=          202
     kinetic-energy cutoff     =      40.0000  Ry
     charge density cutoff     =     300.0000  Ry
     scf convergence threshold =      1.0E-06
     mixing beta               =       0.7000
     number of iterations used =            8  local-TF  mixing
     Exchange-correlation= BEEF-VDW
                           (   1   4  43  14   2   0   0)

     celldm(1)=  14.172946  celldm(2)=   0.000000  celldm(3)=   0.000000
     celldm(4)=   0.000000  celldm(5)=   0.000000  celldm(6)=   0.000000

     crystal axes: (cart. coord. in units of alat)
               a(1) = (   1.000000   0.000000   0.000000 )  
               a(2) = (   0.500000   0.866025   0.000000 )  
               a(3) = (   0.000000   0.000000   3.477667 )  

     reciprocal axes: (cart. coord. in units 2 pi/alat)
               b(1) = (  1.000000 -0.577350  0.000000 )  
               b(2) = (  0.000000  1.154701  0.000000 )  
               b(3) = (  0.000000  0.000000  0.287549 )  


     PseudoPot. # 1 for Co read from file:
     /users/kbadger1/espresso/pseudo/pslibrary.1.0.0/pbe/PSEUDOPOTENTIALS/Co.pbe-n-kjpaw_psl.1.0.0.UPF
     MD5 check sum: 88af6ec42553d4236c267fdfcb472151
     Pseudo is Projector augmented-wave + core cor, Zval =  9.0
     Generated using 'atomic' code by A. Dal Corso  v.7.0
     Shape of augmentation charge: PSQ
     Using radial grid of 1193 points,  6 beta functions with: 
                l(1) =   0
                l(2) =   0
                l(3) =   1
                l(4) =   1
                l(5) =   2
                l(6) =   2
     Q(r) pseudized with 0 coefficients 


     PseudoPot. # 2 for C  read from file:
     /users/kbadger1/espresso/pseudo/pslibrary.1.0.0/pbe/PSEUDOPOTENTIALS/C.pbe-n-kjpaw_psl.1.0.0.UPF
     MD5 check sum: 6408e75cdba28732cea38a4db8498ce4
     Pseudo is Projector augmented-wave + core cor, Zval =  4.0
     Generated using 'atomic' code by A. Dal Corso  v.7.0
     Shape of augmentation charge: PSQ
     Using radial grid of 1073 points,  4 beta functions with: 
                l(1) =   0
                l(2) =   0
                l(3) =   1
                l(4) =   1
     Q(r) pseudized with 0 coefficients 


     PseudoPot. # 3 for O  read from file:
     /users/kbadger1/espresso/pseudo/pslibrary.1.0.0/pbe/PSEUDOPOTENTIALS/O.pbe-nl-kjpaw_psl.1.0.0.UPF
     MD5 check sum: f0439fab3598ca4e468f064226030408
     Pseudo is Projector augmented-wave + core cor, Zval =  6.0
     Generated using 'atomic' code by A. Dal Corso  v.7.0
     Shape of augmentation charge: PSQ
     Using radial grid of 1095 points,  4 beta functions with: 
                l(1) =   0
                l(2) =   0
                l(3) =   1
                l(4) =   1
     Q(r) pseudized with 0 coefficients 


     PseudoPot. # 4 for H  read from file:
     /users/kbadger1/espresso/pseudo/pslibrary.1.0.0/pbe/PSEUDOPOTENTIALS/H.pbe-kjpaw_psl.1.0.0.UPF
     MD5 check sum: fe4c6fa958fa6d3815bf5d2419cbf1df
     Pseudo is Projector augmented-wave, Zval =  1.0
     Generated using 'atomic' code by A. Dal Corso  v.7.0
     Shape of augmentation charge: PSQ
     Using radial grid of  929 points,  2 beta functions with: 
                l(1) =   0
                l(2) =   0
     Q(r) pseudized with 0 coefficients 


     atomic species   valence    mass     pseudopotential
        Co             9.00    58.93319     Co( 1.00)
        C              4.00    12.00000     C ( 1.00)
        O              6.00    15.99491     O ( 1.00)
        H              1.00     1.00783     H ( 1.00)

     Starting magnetic structure 
     atomic species   magnetization
        Co           1.000
        C            1.000
        O            0.000
        H            0.000

     No symmetry found



   Cartesian axes

     site n.     atom                  positions (alat units)
         1           Co  tau(   1) = (   0.0000000   0.1924501   1.3333333  )
         2           Co  tau(   2) = (   0.3333333   0.1924501   1.3333333  )
         3           Co  tau(   3) = (   0.6666667   0.1924501   1.3333333  )
         4           Co  tau(   4) = (   0.1666667   0.4811252   1.3333333  )
         5           Co  tau(   5) = (   0.5000000   0.4811252   1.3333333  )
         6           Co  tau(   6) = (   0.8333333   0.4811252   1.3333333  )
         7           Co  tau(   7) = (   0.3333333   0.7698004   1.3333333  )
         8           Co  tau(   8) = (   0.6666667   0.7698004   1.3333333  )
         9           Co  tau(   9) = (   1.0000000   0.7698004   1.3333333  )
        10           Co  tau(  10) = (   0.0000000   0.0000000   1.6036667  )
        11           Co  tau(  11) = (   0.3333333   0.0000000   1.6036667  )
        12           Co  tau(  12) = (   0.6666667   0.0000000   1.6036667  )
        13           Co  tau(  13) = (   0.1666667   0.2886751   1.6036667  )
        14           Co  tau(  14) = (   0.5000000   0.2886751   1.6036667  )
        15           Co  tau(  15) = (   0.8333333   0.2886751   1.6036667  )
        16           Co  tau(  16) = (   0.3333333   0.5773503   1.6036667  )
        17           Co  tau(  17) = (   0.6666667   0.5773503   1.6036667  )
        18           Co  tau(  18) = (   1.0000000   0.5773503   1.6036667  )
        19           Co  tau(  19) = (   0.0000000   0.1924501   1.8740000  )
        20           Co  tau(  20) = (   0.3333333   0.1924501   1.8740000  )
        21           Co  tau(  21) = (   0.6666667   0.1924501   1.8740000  )
        22           Co  tau(  22) = (   0.1666667   0.4811252   1.8740000  )
        23           Co  tau(  23) = (   0.5000000   0.4811252   1.8740000  )
        24           Co  tau(  24) = (   0.8333333   0.4811252   1.8740000  )
        25           Co  tau(  25) = (   0.3333333   0.7698004   1.8740000  )
        26           Co  tau(  26) = (   0.6666667   0.7698004   1.8740000  )
        27           Co  tau(  27) = (   1.0000000   0.7698004   1.8740000  )
        28           Co  tau(  28) = (   0.0000000   0.0000000   2.1443333  )
        29           Co  tau(  29) = (   0.3333333   0.0000000   2.1443333  )
        30           Co  tau(  30) = (   0.6666667   0.0000000   2.1443333  )
        31           Co  tau(  31) = (   0.1666667   0.2886751   2.1443333  )
        32           Co  tau(  32) = (   0.5000000   0.2886751   2.1443333  )
        33           Co  tau(  33) = (   0.8333333   0.2886751   2.1443333  )
        34           Co  tau(  34) = (   0.3333333   0.5773503   2.1443333  )
        35           Co  tau(  35) = (   0.6666667   0.5773503   2.1443333  )
        36           Co  tau(  36) = (   1.0000000   0.5773503   2.1443333  )
        37           C   tau(  37) = (   0.4301425   0.2084713   2.3689869  )
        38           O   tau(  38) = (   0.3341907   0.0780406   2.4153460  )
        39           H   tau(  39) = (   0.4893046   0.2904958   2.4756467  )

     number of k points=    13  Marzari-Vanderbilt smearing, width (Ry)=  0.0010
                       cart. coord. in units 2pi/alat
        k(    1) = (   0.0000000   0.0000000   0.0000000), wk =   0.0400000
        k(    2) = (   0.0000000   0.2309401   0.0000000), wk =   0.0800000
        k(    3) = (   0.0000000   0.4618802   0.0000000), wk =   0.0800000
        k(    4) = (   0.2000000  -0.1154701   0.0000000), wk =   0.0800000
        k(    5) = (   0.2000000   0.1154701   0.0000000), wk =   0.0800000
        k(    6) = (   0.2000000   0.3464102   0.0000000), wk =   0.0800000
        k(    7) = (   0.2000000  -0.5773503   0.0000000), wk =   0.0800000
        k(    8) = (   0.2000000  -0.3464102   0.0000000), wk =   0.0800000
        k(    9) = (   0.4000000  -0.2309401   0.0000000), wk =   0.0800000
        k(   10) = (   0.4000000   0.0000000   0.0000000), wk =   0.0800000
        k(   11) = (   0.4000000   0.2309401   0.0000000), wk =   0.0800000
        k(   12) = (   0.4000000  -0.6928203   0.0000000), wk =   0.0800000
        k(   13) = (   0.4000000  -0.4618802   0.0000000), wk =   0.0800000

     Dense  grid:   752179 G-vectors     FFT dimensions: (  80,  80, 288)

     Smooth grid:   293251 G-vectors     FFT dimensions: (  60,  60, 200)

     Estimated max dynamical RAM per process >      84.82 MB

     Estimated total dynamical RAM >       7.95 GB
     Generating pointlists ...
     new r_m :   0.1025 (alat units)  1.4532 (a.u.) for type    1
     new r_m :   0.0606 (alat units)  0.8593 (a.u.) for type    2
     new r_m :   0.0695 (alat units)  0.9847 (a.u.) for type    3
     new r_m :   0.0606 (alat units)  0.8593 (a.u.) for type    4

     Initial potential from superposition of free atoms

     starting charge     334.9897, renormalised to     335.0000

     negative rho (up, down):  2.997E-03 4.701E-04


     %%%%%%%%%%%%%%%%%%%%%%%%%%%%%%%%%%%%%%%%%%%%%%%%%%%%%%%%%%%%%%%%%%%%%%%%
     %                                                                      %
     % You are using vdW-DF, which was implemented by the Thonhauser group. %
     % Please cite the following two papers that made this development      %
     % possible and the two reviews that describe the various versions:     %
     %                                                                      %
     %   T. Thonhauser et al., PRL 115, 136402 (2015).                      %
     %   T. Thonhauser et al., PRB 76, 125112 (2007).                       %
     %   K. Berland et al., Rep. Prog. Phys. 78, 066501 (2015).             %
     %   D.C. Langreth et al., J. Phys.: Condens. Matter 21, 084203 (2009). %
     %                                                                      %
     % If you are calculating stress with vdW-DF, please also cite:         %
     %                                                                      %
     %   R. Sabatini et al., J. Phys.: Condens. Matter 24, 424209 (2012).   %
     %   C.M. Frostenson et al., Electr. Struct. 4, 014001 (2022).          %
     %                                                                      %
     %%%%%%%%%%%%%%%%%%%%%%%%%%%%%%%%%%%%%%%%%%%%%%%%%%%%%%%%%%%%%%%%%%%%%%%%

     %%%%%%%%%%%%%%%%%%%%%%%%%%%%%%%%%%%%%%%%%%%%%%%%%%%%%%%%%%%%%%%%%%%%%%%%
     %                                                                      %
     %  vdW-DF NEWS:                                                        %
     %                                                                      %
     %  * vdW-DF3 is now available. DOI: 10.1021/acs.jctc.0c00471           %
     %    use with input_dft = 'vdW-DF3-opt1' or 'vdW-DF3-opt2'             %
     %                                                                      %
     %  * Unscreened and range-separated hybrid vdW-DF-cx functionals       %
     %    DOI: 10.1063/1.4986522 and 10.1088/1361-648X/ac2ad2               %
     %    use with input_dft = 'vdW-DF-cx0'    and 'vdW-DF-ahcx'            %
     %  * Unscreened and range-separated hybrid vdW-DF2-b86r functionals    %
     %    DOI: 10.1063/1.4986522 and DOI: 10.1103/PhysRevX.12.041003        %
     %    use with input_dft = 'vdW-DF2-br0' and 'vdW-DF2-ahbr'             %
     %                                                                      %
     %%%%%%%%%%%%%%%%%%%%%%%%%%%%%%%%%%%%%%%%%%%%%%%%%%%%%%%%%%%%%%%%%%%%%%%%


     Starting wfcs are  333 randomized atomic wfcs
     Checking if some PAW data can be deallocated... 

     total cpu time spent up to now is       11.5 secs

     per-process dynamical memory:   212.3 Mb

     Self-consistent Calculation

     iteration #  1     ecut=    40.00 Ry     beta= 0.70
     Davidson diagonalization with overlap
     ethr =  1.00E-02,  avg # of iterations =  2.0

     negative rho (up, down):  4.791E-05 9.446E-07

     total cpu time spent up to now is       30.8 secs

     total energy              =   -6052.95324151 Ry
     estimated scf accuracy    <      39.85537277 Ry

     total magnetization       =    69.00 Bohr mag/cell
     absolute magnetization    =    81.22 Bohr mag/cell

     iteration #  2     ecut=    40.00 Ry     beta= 0.70
     Davidson diagonalization with overlap
     ethr =  1.00E-02,  avg # of iterations =  1.0

     negative rho (up, down):  1.987E-05 5.575E-07

     total cpu time spent up to now is       42.8 secs

     total energy              =   -6052.34055890 Ry
     estimated scf accuracy    <      25.59877688 Ry

     total magnetization       =    68.84 Bohr mag/cell
     absolute magnetization    =    76.75 Bohr mag/cell

     iteration #  3     ecut=    40.00 Ry     beta= 0.70
     Davidson diagonalization with overlap
     ethr =  7.64E-03,  avg # of iterations =  1.0

     negative rho (up, down):  1.048E-06 1.779E-06

     total cpu time spent up to now is       60.3 secs

     total energy              =   -6055.04041038 Ry
     estimated scf accuracy    <      84.61889019 Ry

     total magnetization       =    66.12 Bohr mag/cell
     absolute magnetization    =    73.27 Bohr mag/cell

     iteration #  4     ecut=    40.00 Ry     beta= 0.70
     Davidson diagonalization with overlap
     ethr =  7.64E-03,  avg # of iterations =  1.0

     negative rho (up, down):  1.109E-06 5.051E-07

     total cpu time spent up to now is       71.8 secs

     total energy              =   -6056.24587020 Ry
     estimated scf accuracy    <       5.67291388 Ry

     total magnetization       =    60.72 Bohr mag/cell
     absolute magnetization    =    70.52 Bohr mag/cell

     iteration #  5     ecut=    40.00 Ry     beta= 0.70
     Davidson diagonalization with overlap
     ethr =  1.69E-03,  avg # of iterations =  1.3

     negative rho (up, down):  1.051E-06 4.962E-07

     total cpu time spent up to now is       88.1 secs

     total energy              =   -6056.26685653 Ry
     estimated scf accuracy    <       3.33848920 Ry

     total magnetization       =    60.45 Bohr mag/cell
     absolute magnetization    =    69.84 Bohr mag/cell

     iteration #  6     ecut=    40.00 Ry     beta= 0.70
     Davidson diagonalization with overlap
     ethr =  9.97E-04,  avg # of iterations =  1.4

     negative rho (up, down):  7.884E-07 4.201E-07

     total cpu time spent up to now is      100.1 secs

     total energy              =   -6056.37179293 Ry
     estimated scf accuracy    <       0.53633236 Ry

     total magnetization       =    60.45 Bohr mag/cell
     absolute magnetization    =    69.61 Bohr mag/cell

     iteration #  7     ecut=    40.00 Ry     beta= 0.70
     Davidson diagonalization with overlap
     ethr =  1.60E-04,  avg # of iterations =  6.1

     negative rho (up, down):  7.221E-07 4.334E-07

     total cpu time spent up to now is      122.1 secs

     total energy              =   -6056.40375734 Ry
     estimated scf accuracy    <       0.78993399 Ry

     total magnetization       =    60.64 Bohr mag/cell
     absolute magnetization    =    69.39 Bohr mag/cell

     iteration #  8     ecut=    40.00 Ry     beta= 0.70
     Davidson diagonalization with overlap
     ethr =  1.60E-04,  avg # of iterations =  2.2

     negative rho (up, down):  3.166E-07 1.792E-07

     total cpu time spent up to now is      134.7 secs

     total energy              =   -6056.41721183 Ry
     estimated scf accuracy    <       0.18300353 Ry

     total magnetization       =    60.78 Bohr mag/cell
     absolute magnetization    =    69.32 Bohr mag/cell

     iteration #  9     ecut=    40.00 Ry     beta= 0.70
     Davidson diagonalization with overlap
     c_bands:  3 eigenvalues not converged
     c_bands:  1 eigenvalues not converged
     ethr =  5.46E-05,  avg # of iterations =  9.1

     negative rho (up, down):  2.000E-07 1.068E-07

     total cpu time spent up to now is      158.9 secs

     total energy              =   -6056.42465767 Ry
     estimated scf accuracy    <       0.15628469 Ry

     total magnetization       =    61.28 Bohr mag/cell
     absolute magnetization    =    69.41 Bohr mag/cell

     iteration # 10     ecut=    40.00 Ry     beta= 0.70
     Davidson diagonalization with overlap
     ethr =  4.67E-05,  avg # of iterations =  2.0

     negative rho (up, down):  1.739E-07 1.045E-07

     total cpu time spent up to now is      176.2 secs

     total energy              =   -6056.42591663 Ry
     estimated scf accuracy    <       0.18525606 Ry

     total magnetization       =    61.32 Bohr mag/cell
     absolute magnetization    =    69.26 Bohr mag/cell

     iteration # 11     ecut=    40.00 Ry     beta= 0.70
     Davidson diagonalization with overlap
     ethr =  4.67E-05,  avg # of iterations =  1.4

     negative rho (up, down):  8.554E-08 6.577E-08

     total cpu time spent up to now is      189.1 secs

     total energy              =   -6056.42482592 Ry
     estimated scf accuracy    <       0.10478200 Ry

     total magnetization       =    61.34 Bohr mag/cell
     absolute magnetization    =    69.16 Bohr mag/cell

     iteration # 12     ecut=    40.00 Ry     beta= 0.70
     Davidson diagonalization with overlap
     ethr =  3.13E-05,  avg # of iterations =  2.5

     negative rho (up, down):  2.883E-06 7.172E-08

     total cpu time spent up to now is      206.5 secs

     total energy              =   -6056.42707740 Ry
     estimated scf accuracy    <       0.08449229 Ry

     total magnetization       =    61.31 Bohr mag/cell
     absolute magnetization    =    68.98 Bohr mag/cell

     iteration # 13     ecut=    40.00 Ry     beta= 0.70
     Davidson diagonalization with overlap
     ethr =  2.52E-05,  avg # of iterations =  1.8

     negative rho (up, down):  6.447E-08 1.435E-08

     total cpu time spent up to now is      218.7 secs

     total energy              =   -6056.42546444 Ry
     estimated scf accuracy    <       0.09304667 Ry

     total magnetization       =    61.34 Bohr mag/cell
     absolute magnetization    =    68.93 Bohr mag/cell

     iteration # 14     ecut=    40.00 Ry     beta= 0.70
     Davidson diagonalization with overlap
     ethr =  2.52E-05,  avg # of iterations =  1.8

     negative rho (up, down):  6.320E-03 4.609E-03

     total cpu time spent up to now is      236.6 secs

     total energy              =   -6056.42030624 Ry
     estimated scf accuracy    <       0.06469697 Ry

     total magnetization       =    61.34 Bohr mag/cell
     absolute magnetization    =    68.96 Bohr mag/cell

     iteration # 15     ecut=    40.00 Ry     beta= 0.70
     Davidson diagonalization with overlap
     c_bands:  2 eigenvalues not converged
     ethr =  1.93E-05,  avg # of iterations =  3.8

     negative rho (up, down):  1.022E-02 8.277E-03

     total cpu time spent up to now is      250.7 secs

     total energy              =   -6056.41946232 Ry
     estimated scf accuracy    <       0.06441422 Ry

     total magnetization       =    61.33 Bohr mag/cell
     absolute magnetization    =    68.89 Bohr mag/cell

     iteration # 16     ecut=    40.00 Ry     beta= 0.70
     Davidson diagonalization with overlap
     ethr =  1.92E-05,  avg # of iterations =  1.4

     negative rho (up, down):  1.890E-02 1.688E-02

     total cpu time spent up to now is      267.3 secs

     total energy              =   -6056.41940962 Ry
     estimated scf accuracy    <       0.02716969 Ry

     total magnetization       =    61.33 Bohr mag/cell
     absolute magnetization    =    68.87 Bohr mag/cell

     iteration # 17     ecut=    40.00 Ry     beta= 0.70
     Davidson diagonalization with overlap
     c_bands:  2 eigenvalues not converged
     c_bands:  2 eigenvalues not converged
     c_bands:  1 eigenvalues not converged
     c_bands:  4 eigenvalues not converged
     ethr =  8.11E-06,  avg # of iterations =  7.7

     negative rho (up, down):  1.695E-02 1.526E-02

     total cpu time spent up to now is      284.5 secs

     total energy              =   -6056.41906467 Ry
     estimated scf accuracy    <       0.01751144 Ry

     total magnetization       =    61.33 Bohr mag/cell
     absolute magnetization    =    68.86 Bohr mag/cell

     iteration # 18     ecut=    40.00 Ry     beta= 0.70
     Davidson diagonalization with overlap
     c_bands:  3 eigenvalues not converged
     ethr =  5.23E-06,  avg # of iterations =  5.9

     negative rho (up, down):  1.026E-02 8.887E-03

     total cpu time spent up to now is      306.0 secs

     total energy              =   -6056.41940949 Ry
     estimated scf accuracy    <       0.02013569 Ry

     total magnetization       =    61.33 Bohr mag/cell
     absolute magnetization    =    68.84 Bohr mag/cell

     iteration # 19     ecut=    40.00 Ry     beta= 0.70
     Davidson diagonalization with overlap
     ethr =  5.23E-06,  avg # of iterations =  1.3

     negative rho (up, down):  1.222E-02 1.106E-02

     total cpu time spent up to now is      322.3 secs

     total energy              =   -6056.41823431 Ry
     estimated scf accuracy    <       0.00878195 Ry

     total magnetization       =    61.33 Bohr mag/cell
     absolute magnetization    =    68.84 Bohr mag/cell

     iteration # 20     ecut=    40.00 Ry     beta= 0.70
     Davidson diagonalization with overlap
     c_bands:  2 eigenvalues not converged
     ethr =  2.62E-06,  avg # of iterations =  3.8

     negative rho (up, down):  1.076E-02 9.990E-03

     total cpu time spent up to now is      336.3 secs

     total energy              =   -6056.41769371 Ry
     estimated scf accuracy    <       0.02058597 Ry

     total magnetization       =    61.33 Bohr mag/cell
     absolute magnetization    =    68.82 Bohr mag/cell

     iteration # 21     ecut=    40.00 Ry     beta= 0.70
     Davidson diagonalization with overlap
     ethr =  2.62E-06,  avg # of iterations =  2.3

     negative rho (up, down):  1.318E-02 1.232E-02

     total cpu time spent up to now is      353.3 secs

     total energy              =   -6056.41753057 Ry
     estimated scf accuracy    <       0.02567250 Ry

     total magnetization       =    61.33 Bohr mag/cell
     absolute magnetization    =    68.82 Bohr mag/cell

     iteration # 22     ecut=    40.00 Ry     beta= 0.70
     Davidson diagonalization with overlap
     ethr =  2.62E-06,  avg # of iterations =  1.1

     negative rho (up, down):  1.594E-02 1.519E-02

     total cpu time spent up to now is      365.7 secs

     total energy              =   -6056.41848880 Ry
     estimated scf accuracy    <       0.00773983 Ry

     total magnetization       =    61.33 Bohr mag/cell
     absolute magnetization    =    68.82 Bohr mag/cell

     iteration # 23     ecut=    40.00 Ry     beta= 0.70
     Davidson diagonalization with overlap
     ethr =  2.31E-06,  avg # of iterations =  1.5

     negative rho (up, down):  9.132E-03 8.405E-03

     total cpu time spent up to now is      382.2 secs

     total energy              =   -6056.41862970 Ry
     estimated scf accuracy    <       0.00133313 Ry

     total magnetization       =    61.33 Bohr mag/cell
     absolute magnetization    =    68.82 Bohr mag/cell

     iteration # 24     ecut=    40.00 Ry     beta= 0.70
     Davidson diagonalization with overlap
     ethr =  3.98E-07,  avg # of iterations =  4.3

     negative rho (up, down):  6.301E-03 5.519E-03

     total cpu time spent up to now is      396.6 secs

     total energy              =   -6056.41866252 Ry
     estimated scf accuracy    <       0.00237846 Ry

     total magnetization       =    61.33 Bohr mag/cell
     absolute magnetization    =    68.83 Bohr mag/cell

     iteration # 25     ecut=    40.00 Ry     beta= 0.70
     Davidson diagonalization with overlap
     ethr =  3.98E-07,  avg # of iterations =  1.7

     negative rho (up, down):  5.471E-03 4.674E-03

     total cpu time spent up to now is      413.4 secs

     total energy              =   -6056.41889936 Ry
     estimated scf accuracy    <       0.00100196 Ry

     total magnetization       =    61.33 Bohr mag/cell
     absolute magnetization    =    68.83 Bohr mag/cell

     iteration # 26     ecut=    40.00 Ry     beta= 0.70
     Davidson diagonalization with overlap
     ethr =  2.99E-07,  avg # of iterations =  1.9

     negative rho (up, down):  5.120E-03 4.312E-03

     total cpu time spent up to now is      427.0 secs

     total energy              =   -6056.41893561 Ry
     estimated scf accuracy    <       0.00080982 Ry

     total magnetization       =    61.33 Bohr mag/cell
     absolute magnetization    =    68.83 Bohr mag/cell

     iteration # 27     ecut=    40.00 Ry     beta= 0.70
     Davidson diagonalization with overlap
     ethr =  2.42E-07,  avg # of iterations =  1.2

     negative rho (up, down):  4.927E-03 4.062E-03

     total cpu time spent up to now is      443.2 secs

     total energy              =   -6056.41901311 Ry
     estimated scf accuracy    <       0.00020287 Ry

     total magnetization       =    61.33 Bohr mag/cell
     absolute magnetization    =    68.83 Bohr mag/cell

     iteration # 28     ecut=    40.00 Ry     beta= 0.70
     Davidson diagonalization with overlap
     ethr =  6.06E-08,  avg # of iterations =  5.7

     negative rho (up, down):  4.207E-03 3.342E-03

     total cpu time spent up to now is      458.8 secs

     total energy              =   -6056.41898217 Ry
     estimated scf accuracy    <       0.00013276 Ry

     total magnetization       =    61.33 Bohr mag/cell
     absolute magnetization    =    68.82 Bohr mag/cell

     iteration # 29     ecut=    40.00 Ry     beta= 0.70
     Davidson diagonalization with overlap
     ethr =  3.96E-08,  avg # of iterations =  1.9

     negative rho (up, down):  3.619E-03 2.706E-03

     total cpu time spent up to now is      475.6 secs

     total energy              =   -6056.41898462 Ry
     estimated scf accuracy    <       0.00007947 Ry

     total magnetization       =    61.33 Bohr mag/cell
     absolute magnetization    =    68.82 Bohr mag/cell

     iteration # 30     ecut=    40.00 Ry     beta= 0.70
     Davidson diagonalization with overlap
     ethr =  2.37E-08,  avg # of iterations =  2.0

     negative rho (up, down):  3.071E-03 2.033E-03

     total cpu time spent up to now is      489.1 secs

     total energy              =   -6056.41900814 Ry
     estimated scf accuracy    <       0.00007565 Ry

     total magnetization       =    61.33 Bohr mag/cell
     absolute magnetization    =    68.82 Bohr mag/cell

     iteration # 31     ecut=    40.00 Ry     beta= 0.70
     Davidson diagonalization with overlap
     ethr =  2.26E-08,  avg # of iterations =  1.9

     negative rho (up, down):  2.792E-03 1.693E-03

     total cpu time spent up to now is      506.0 secs

     total energy              =   -6056.41902052 Ry
     estimated scf accuracy    <       0.00008090 Ry

     total magnetization       =    61.33 Bohr mag/cell
     absolute magnetization    =    68.82 Bohr mag/cell

     iteration # 32     ecut=    40.00 Ry     beta= 0.70
     Davidson diagonalization with overlap
     ethr =  2.26E-08,  avg # of iterations =  1.9

     negative rho (up, down):  2.878E-03 1.806E-03

     total cpu time spent up to now is      518.6 secs

     total energy              =   -6056.41902523 Ry
     estimated scf accuracy    <       0.00003109 Ry

     total magnetization       =    61.33 Bohr mag/cell
     absolute magnetization    =    68.82 Bohr mag/cell

     iteration # 33     ecut=    40.00 Ry     beta= 0.70
     Davidson diagonalization with overlap
     ethr =  9.28E-09,  avg # of iterations =  3.0

     negative rho (up, down):  2.876E-03 1.774E-03

     total cpu time spent up to now is      536.2 secs

     total energy              =   -6056.41902470 Ry
     estimated scf accuracy    <       0.00001018 Ry

     total magnetization       =    61.33 Bohr mag/cell
     absolute magnetization    =    68.82 Bohr mag/cell

     iteration # 34     ecut=    40.00 Ry     beta= 0.70
     Davidson diagonalization with overlap
     ethr =  3.04E-09,  avg # of iterations =  4.5

     negative rho (up, down):  2.876E-03 1.780E-03

     total cpu time spent up to now is      551.9 secs

     total energy              =   -6056.41902549 Ry
     estimated scf accuracy    <       0.00000864 Ry

     total magnetization       =    61.33 Bohr mag/cell
     absolute magnetization    =    68.82 Bohr mag/cell

     iteration # 35     ecut=    40.00 Ry     beta= 0.70
     Davidson diagonalization with overlap
     ethr =  2.58E-09,  avg # of iterations =  1.8

     negative rho (up, down):  2.833E-03 1.741E-03

     total cpu time spent up to now is      569.0 secs

     total energy              =   -6056.41902596 Ry
     estimated scf accuracy    <       0.00000985 Ry

     total magnetization       =    61.33 Bohr mag/cell
     absolute magnetization    =    68.82 Bohr mag/cell

     iteration # 36     ecut=    40.00 Ry     beta= 0.70
     Davidson diagonalization with overlap
     ethr =  2.58E-09,  avg # of iterations =  1.5

     negative rho (up, down):  2.793E-03 1.748E-03

     total cpu time spent up to now is      581.1 secs

     total energy              =   -6056.41902691 Ry
     estimated scf accuracy    <       0.00000901 Ry

     total magnetization       =    61.33 Bohr mag/cell
     absolute magnetization    =    68.82 Bohr mag/cell

     iteration # 37     ecut=    40.00 Ry     beta= 0.70
     Davidson diagonalization with overlap
     ethr =  2.58E-09,  avg # of iterations =  2.2

     negative rho (up, down):  2.793E-03 1.723E-03

     total cpu time spent up to now is      598.5 secs

     total energy              =   -6056.41902657 Ry
     estimated scf accuracy    <       0.00000508 Ry

     total magnetization       =    61.33 Bohr mag/cell
     absolute magnetization    =    68.82 Bohr mag/cell

     iteration # 38     ecut=    40.00 Ry     beta= 0.70
     Davidson diagonalization with overlap
     ethr =  1.52E-09,  avg # of iterations =  1.9

     negative rho (up, down):  2.638E-03 1.573E-03

     total cpu time spent up to now is      611.5 secs

     total energy              =   -6056.41902631 Ry
     estimated scf accuracy    <       0.00000445 Ry

     total magnetization       =    61.33 Bohr mag/cell
     absolute magnetization    =    68.82 Bohr mag/cell

     iteration # 39     ecut=    40.00 Ry     beta= 0.70
     Davidson diagonalization with overlap
     ethr =  1.33E-09,  avg # of iterations =  1.7

     negative rho (up, down):  2.619E-03 1.561E-03

     total cpu time spent up to now is      628.3 secs

     total energy              =   -6056.41902604 Ry
     estimated scf accuracy    <       0.00000592 Ry

     total magnetization       =    61.33 Bohr mag/cell
     absolute magnetization    =    68.82 Bohr mag/cell

     iteration # 40     ecut=    40.00 Ry     beta= 0.70
     Davidson diagonalization with overlap
     ethr =  1.33E-09,  avg # of iterations =  1.3

     negative rho (up, down):  2.550E-03 1.492E-03

     total cpu time spent up to now is      640.2 secs

     total energy              =   -6056.41902572 Ry
     estimated scf accuracy    <       0.00000267 Ry

     total magnetization       =    61.33 Bohr mag/cell
     absolute magnetization    =    68.82 Bohr mag/cell

     iteration # 41     ecut=    40.00 Ry     beta= 0.70
     Davidson diagonalization with overlap
     ethr =  7.97E-10,  avg # of iterations =  2.8

     negative rho (up, down):  2.396E-03 1.297E-03

     total cpu time spent up to now is      658.0 secs

     total energy              =   -6056.41902616 Ry
     estimated scf accuracy    <       0.00000246 Ry

     total magnetization       =    61.33 Bohr mag/cell
     absolute magnetization    =    68.82 Bohr mag/cell

     iteration # 42     ecut=    40.00 Ry     beta= 0.70
     Davidson diagonalization with overlap
     ethr =  7.33E-10,  avg # of iterations =  1.9

     negative rho (up, down):  2.476E-03 1.380E-03

     total cpu time spent up to now is      671.4 secs

     total energy              =   -6056.41902624 Ry
     estimated scf accuracy    <       0.00000266 Ry

     total magnetization       =    61.33 Bohr mag/cell
     absolute magnetization    =    68.82 Bohr mag/cell

     iteration # 43     ecut=    40.00 Ry     beta= 0.70
     Davidson diagonalization with overlap
     ethr =  7.33E-10,  avg # of iterations =  1.2

     negative rho (up, down):  2.410E-03 1.313E-03

     total cpu time spent up to now is      687.7 secs

     total energy              =   -6056.41902620 Ry
     estimated scf accuracy    <       0.00000157 Ry

     total magnetization       =    61.33 Bohr mag/cell
     absolute magnetization    =    68.82 Bohr mag/cell

     iteration # 44     ecut=    40.00 Ry     beta= 0.70
     Davidson diagonalization with overlap
     ethr =  4.69E-10,  avg # of iterations =  1.3

     negative rho (up, down):  2.217E-03 1.115E-03

     Magnetic moment per site  (integrated on atomic sphere of radius R)
     atom   1 (R=0.103)  charge=  6.2219  magn=  1.7703
     atom   2 (R=0.103)  charge=  6.2218  magn=  1.7629
     atom   3 (R=0.103)  charge=  6.2218  magn=  1.7670
     atom   4 (R=0.103)  charge=  6.2222  magn=  1.7697
     atom   5 (R=0.103)  charge=  6.2222  magn=  1.7653
     atom   6 (R=0.103)  charge=  6.2216  magn=  1.7689
     atom   7 (R=0.103)  charge=  6.2225  magn=  1.7711
     atom   8 (R=0.103)  charge=  6.2217  magn=  1.7703
     atom   9 (R=0.103)  charge=  6.2215  magn=  1.7644
     atom  10 (R=0.103)  charge=  6.2276  magn=  1.6905
     atom  11 (R=0.103)  charge=  6.2279  magn=  1.7055
     atom  12 (R=0.103)  charge=  6.2278  magn=  1.7002
     atom  13 (R=0.103)  charge=  6.2282  magn=  1.7012
     atom  14 (R=0.103)  charge=  6.2288  magn=  1.6851
     atom  15 (R=0.103)  charge=  6.2284  magn=  1.6935
     atom  16 (R=0.103)  charge=  6.2280  magn=  1.6954
     atom  17 (R=0.103)  charge=  6.2284  magn=  1.7015
     atom  18 (R=0.103)  charge=  6.2288  magn=  1.6916
     atom  19 (R=0.103)  charge=  6.2278  magn=  1.6860
     atom  20 (R=0.103)  charge=  6.2244  magn=  1.7214
     atom  21 (R=0.103)  charge=  6.2289  magn=  1.6703
     atom  22 (R=0.103)  charge=  6.2285  magn=  1.7006
     atom  23 (R=0.103)  charge=  6.2303  magn=  1.6601
     atom  24 (R=0.103)  charge=  6.2273  magn=  1.7052
     atom  25 (R=0.103)  charge=  6.2280  magn=  1.6932
     atom  26 (R=0.103)  charge=  6.2270  magn=  1.6837
     atom  27 (R=0.103)  charge=  6.2279  magn=  1.6844
     atom  28 (R=0.103)  charge=  6.2251  magn=  1.7900
     atom  29 (R=0.103)  charge=  6.2283  magn=  1.6687
     atom  30 (R=0.103)  charge=  6.2254  magn=  1.7661
     atom  31 (R=0.103)  charge=  6.2305  magn=  1.7507
     atom  32 (R=0.103)  charge=  6.2512  magn=  1.1192
     atom  33 (R=0.103)  charge=  6.2214  magn=  1.7728
     atom  34 (R=0.103)  charge=  6.2224  magn=  1.7635
     atom  35 (R=0.103)  charge=  6.2234  magn=  1.7726
     atom  36 (R=0.103)  charge=  6.2219  magn=  1.7886
     atom  37 (R=0.061)  charge=  0.8405  magn= -0.0199
     atom  38 (R=0.069)  charge=  3.2072  magn= -0.0099
     atom  39 (R=0.061)  charge=  0.5058  magn= -0.0031

     total cpu time spent up to now is      699.4 secs

     End of self-consistent calculation

 ------ SPIN UP ------------


          k = 0.0000 0.0000 0.0000 ( 36693 PWs)   bands (ev):

   -21.3718  -9.9767  -7.4963  -6.6421  -6.1478  -5.5780  -5.0783  -4.6187
    -4.5884  -4.5858  -4.5836  -4.5820  -4.5685  -4.5285  -4.2259  -4.0575
    -4.0518  -4.0504  -4.0455  -4.0250  -3.9868  -3.5391  -3.5349  -3.5307
    -3.5243  -3.5105  -3.4826  -3.4015  -3.3977  -3.3897  -3.3875  -3.3851
    -3.3605  -3.3251  -3.3202  -3.0134  -3.0079  -3.0066  -3.0051  -2.9610
    -2.9464  -2.9420  -2.9409  -2.9348  -2.9323  -2.9305  -2.9223  -2.7816
    -2.7774  -2.7305  -2.7173  -2.7086  -2.7003  -2.6941  -2.6892  -2.6739
    -2.6712  -2.6662  -2.6580  -2.5728  -2.5702  -2.5672  -2.5584  -2.5456
    -2.5031  -2.1046  -2.0453  -2.0290  -2.0286  -2.0260  -2.0185  -1.9196
    -1.8993  -1.8980  -1.8783  -1.8674  -1.8506  -1.8462  -1.8422  -1.8313
    -1.8157  -1.7941  -1.7884  -1.7489  -1.7453  -1.7324  -1.7236  -1.7166
    -1.7148  -1.7044  -1.7009  -1.6875  -1.6760  -1.6728  -1.6678  -1.6630
    -1.6616  -1.6575  -1.6544  -1.6518  -1.6496  -1.6471  -1.6425  -1.6412
    -1.6364  -1.5888  -1.5774  -1.5662  -1.5572  -1.4896  -1.4849  -1.4269
    -1.2957  -1.2111  -1.2050  -1.1998  -1.1983  -1.1950  -1.1756  -1.1587
    -1.1569  -1.1490  -1.1221  -1.1098  -1.1060  -1.0442  -0.9916  -0.9792
    -0.9708  -0.9546  -0.8661  -0.8011  -0.7892  -0.7788  -0.7707  -0.7457
    -0.7346  -0.7142  -0.7090  -0.7071  -0.7046  -0.6845  -0.6234  -0.5877
    -0.5291  -0.4673  -0.4638  -0.4603  -0.4373  -0.4138  -0.4009  -0.3980
    -0.3930  -0.3908  -0.3877  -0.3803  -0.3772  -0.3740  -0.3729  -0.3642
    -0.3544  -0.3531  -0.3294  -0.3220  -0.3172  -0.3151  -0.3124  -0.3082
    -0.2892  -0.2885  -0.2679  -0.2633  -0.2608  -0.2491  -0.2406  -0.2369
    -0.2350  -0.2307  -0.2069  -0.1865  -0.1753  -0.1606  -0.1583  -0.1558
    -0.1515  -0.1458  -0.1377  -0.1259  -0.1192  -0.1104  -0.0671  -0.0668
    -0.0636  -0.0590  -0.0011   0.0036   0.0073   0.0109   0.0298   0.0589
     0.4056   0.9549

          k = 0.0000 0.2309 0.0000 ( 36641 PWs)   bands (ev):

   -21.3718  -9.9773  -7.3492  -6.6116  -6.0663  -5.5701  -5.3229  -5.0742
    -4.8336  -4.8185  -4.4736  -4.3444  -4.2450  -4.2401  -4.1765  -4.1289
    -4.0924  -4.0509  -3.9776  -3.9254  -3.9049  -3.6557  -3.5459  -3.5337
    -3.4594  -3.4393  -3.4141  -3.4047  -3.4025  -3.3959  -3.3792  -3.3603
    -3.3285  -3.2824  -3.2799  -3.2556  -3.2527  -3.0624  -3.0307  -3.0217
    -2.9755  -2.9717  -2.9633  -2.9529  -2.8887  -2.8462  -2.8341  -2.8079
    -2.7997  -2.7944  -2.7622  -2.7532  -2.6774  -2.6611  -2.6381  -2.5990
    -2.5911  -2.5642  -2.5563  -2.5391  -2.5220  -2.5080  -2.4897  -2.4831
    -2.4282  -2.1811  -2.1498  -2.1331  -2.1182  -2.0941  -2.0502  -1.9990
    -1.9952  -1.9857  -1.9792  -1.9605  -1.9514  -1.9266  -1.9044  -1.8707
    -1.8508  -1.8373  -1.8294  -1.7959  -1.7869  -1.7791  -1.7753  -1.7623
    -1.7510  -1.7447  -1.7400  -1.7367  -1.7333  -1.6983  -1.6667  -1.6435
    -1.6329  -1.6083  -1.5719  -1.5576  -1.5551  -1.5469  -1.5401  -1.5294
    -1.5202  -1.5105  -1.4999  -1.4985  -1.4849  -1.4713  -1.4561  -1.4431
    -1.4247  -1.4153  -1.3958  -1.3625  -1.3172  -1.2870  -1.2371  -1.2230
    -1.2191  -1.2117  -1.1963  -1.1914  -1.1818  -1.1679  -1.0717  -1.0322
    -1.0161  -1.0027  -0.9646  -0.9362  -0.9171  -0.8801  -0.8580  -0.8299
    -0.8032  -0.7686  -0.7415  -0.7263  -0.7034  -0.6887  -0.6631  -0.6521
    -0.6484  -0.6273  -0.6071  -0.5750  -0.5633  -0.5536  -0.5393  -0.5366
    -0.5174  -0.4789  -0.4611  -0.4599  -0.4420  -0.4204  -0.3964  -0.3878
    -0.3836  -0.3737  -0.3715  -0.3687  -0.3494  -0.3356  -0.3328  -0.3039
    -0.2663  -0.2514  -0.2477  -0.2178  -0.2058  -0.1847  -0.1655  -0.1428
    -0.1337  -0.1283  -0.1213  -0.1075  -0.1002  -0.0856  -0.0773  -0.0535
    -0.0374  -0.0015   0.0135   0.0184   0.0377   0.0423   0.0850   0.0925
     0.1107   0.1504   0.3830   0.3886   0.4551   0.5575   0.6390   0.6712
     0.6901   0.8365

          k = 0.0000 0.4619 0.0000 ( 36606 PWs)   bands (ev):

   -21.3718  -9.9781  -6.9389  -6.5694  -6.1678  -5.8626  -5.4154  -5.1082
    -4.9798  -4.9370  -4.8397  -4.1492  -4.0915  -4.0715  -4.0331  -3.9981
    -3.8836  -3.8815  -3.8440  -3.7512  -3.7450  -3.7388  -3.6601  -3.5658
    -3.5605  -3.5551  -3.5523  -3.5018  -3.4553  -3.4471  -3.4370  -3.2825
    -3.2792  -3.2712  -3.2503  -3.2339  -3.2281  -3.1296  -3.1257  -3.1125
    -3.1037  -3.0963  -2.9929  -2.8986  -2.8895  -2.8068  -2.7964  -2.7682
    -2.7544  -2.7219  -2.7159  -2.7097  -2.6882  -2.6788  -2.6200  -2.6106
    -2.5854  -2.5514  -2.5431  -2.4190  -2.4063  -2.3938  -2.3711  -2.3394
    -2.2918  -2.2825  -2.2655  -2.2466  -2.1978  -2.1553  -2.1199  -2.1151
    -2.1129  -2.0997  -2.0847  -2.0769  -2.0702  -2.0500  -2.0193  -1.9987
    -1.9814  -1.9554  -1.9402  -1.9113  -1.9005  -1.8716  -1.8092  -1.7941
    -1.7902  -1.7802  -1.7586  -1.7495  -1.7114  -1.6835  -1.6821  -1.6718
    -1.6602  -1.6381  -1.6346  -1.6066  -1.6020  -1.5909  -1.5822  -1.5579
    -1.5483  -1.5406  -1.4858  -1.4407  -1.4241  -1.4050  -1.3805  -1.3716
    -1.3534  -1.3412  -1.3014  -1.2763  -1.2607  -1.2505  -1.2454  -1.2405
    -1.2310  -1.2265  -1.2174  -1.2081  -1.2005  -1.1909  -1.1738  -1.1608
    -1.1451  -1.1152  -1.0749  -1.0410  -1.0029  -0.9996  -0.9794  -0.9665
    -0.9385  -0.9037  -0.8914  -0.8737  -0.8530  -0.8302  -0.8106  -0.7597
    -0.7325  -0.7048  -0.6846  -0.6693  -0.6530  -0.6341  -0.6232  -0.5786
    -0.5375  -0.4838  -0.4718  -0.4642  -0.4553  -0.4519  -0.4379  -0.4344
    -0.4190  -0.4100  -0.3327  -0.3207  -0.3055  -0.2839  -0.2825  -0.2707
    -0.2650  -0.2513  -0.2424  -0.2344  -0.2123  -0.1961  -0.1284  -0.1109
    -0.1037  -0.0902  -0.0695  -0.0560  -0.0120   0.0082   0.0242   0.0565
     0.0702   0.1125   0.1157   0.1334   0.1380   0.1431   0.1603   0.1780
     0.2412   0.2754   0.3516   0.9685   1.1417   1.3136   1.3760   1.3924
     1.6145   1.7723

          k = 0.2000-0.1155 0.0000 ( 36641 PWs)   bands (ev):

   -21.3718  -9.9764  -7.3504  -6.6120  -6.0726  -5.5869  -5.2992  -5.0697
    -4.8399  -4.8289  -4.4681  -4.3171  -4.2465  -4.2418  -4.1721  -4.1225
    -4.1014  -4.0722  -3.9651  -3.9298  -3.9111  -3.6540  -3.5474  -3.5323
    -3.4565  -3.4304  -3.4212  -3.4062  -3.4027  -3.3901  -3.3831  -3.3636
    -3.3284  -3.2836  -3.2801  -3.2585  -3.2528  -3.0567  -3.0276  -3.0231
    -2.9785  -2.9720  -2.9632  -2.9550  -2.8775  -2.8441  -2.8342  -2.8073
    -2.7984  -2.7949  -2.7706  -2.7503  -2.6743  -2.6624  -2.6336  -2.6028
    -2.5850  -2.5696  -2.5578  -2.5474  -2.5253  -2.5123  -2.4888  -2.4849
    -2.4195  -2.1817  -2.1493  -2.1353  -2.1150  -2.0924  -2.0488  -1.9980
    -1.9937  -1.9884  -1.9696  -1.9684  -1.9515  -1.9268  -1.8970  -1.8721
    -1.8547  -1.8442  -1.8319  -1.7966  -1.7849  -1.7803  -1.7777  -1.7639
    -1.7488  -1.7457  -1.7404  -1.7366  -1.7220  -1.6857  -1.6642  -1.6566
    -1.6375  -1.6007  -1.5722  -1.5626  -1.5505  -1.5433  -1.5369  -1.5304
    -1.5121  -1.5061  -1.5025  -1.4965  -1.4863  -1.4665  -1.4575  -1.4476
    -1.4276  -1.4188  -1.3844  -1.3411  -1.3279  -1.3079  -1.2472  -1.2257
    -1.2166  -1.2027  -1.1985  -1.1904  -1.1893  -1.1762  -1.0950  -1.0422
    -1.0313  -1.0091  -0.9583  -0.9368  -0.9207  -0.8669  -0.8545  -0.8362
    -0.8133  -0.7422  -0.7322  -0.7129  -0.6929  -0.6861  -0.6712  -0.6589
    -0.6514  -0.6307  -0.6207  -0.5734  -0.5614  -0.5543  -0.5399  -0.5323
    -0.5021  -0.4866  -0.4643  -0.4573  -0.4339  -0.4180  -0.3993  -0.3913
    -0.3845  -0.3756  -0.3686  -0.3633  -0.3494  -0.3329  -0.3301  -0.3171
    -0.2707  -0.2522  -0.2486  -0.2150  -0.1987  -0.1932  -0.1686  -0.1438
    -0.1384  -0.1256  -0.1194  -0.1085  -0.0956  -0.0861  -0.0789  -0.0471
    -0.0411  -0.0006   0.0090   0.0164   0.0380   0.0422   0.0811   0.0915
     0.1017   0.1474   0.3779   0.3888   0.4921   0.5898   0.6365   0.6597
     0.7446   0.8048

          k = 0.2000 0.1155 0.0000 ( 36641 PWs)   bands (ev):

   -21.3718  -9.9774  -7.3489  -6.6117  -6.0645  -5.5685  -5.3197  -5.0873
    -4.8271  -4.8166  -4.4755  -4.3514  -4.2457  -4.2390  -4.1764  -4.1291
    -4.0849  -4.0523  -3.9796  -3.9226  -3.9056  -3.6572  -3.5428  -3.5372
    -3.4582  -3.4422  -3.4116  -3.4077  -3.4010  -3.3948  -3.3776  -3.3596
    -3.3283  -3.2846  -3.2786  -3.2551  -3.2529  -3.0559  -3.0268  -3.0214
    -2.9741  -2.9695  -2.9624  -2.9597  -2.8793  -2.8470  -2.8360  -2.8132
    -2.7997  -2.7955  -2.7690  -2.7575  -2.6751  -2.6619  -2.6421  -2.5983
    -2.5932  -2.5629  -2.5569  -2.5328  -2.5247  -2.5095  -2.4922  -2.4845
    -2.4284  -2.1736  -2.1526  -2.1372  -2.1138  -2.0929  -2.0495  -1.9973
    -1.9912  -1.9864  -1.9747  -1.9640  -1.9560  -1.9327  -1.8880  -1.8697
    -1.8569  -1.8460  -1.8224  -1.7964  -1.7861  -1.7818  -1.7776  -1.7592
    -1.7499  -1.7477  -1.7406  -1.7351  -1.7271  -1.7016  -1.6683  -1.6477
    -1.6303  -1.5998  -1.5793  -1.5630  -1.5500  -1.5472  -1.5355  -1.5302
    -1.5161  -1.5118  -1.5041  -1.4992  -1.4891  -1.4661  -1.4486  -1.4409
    -1.4271  -1.4220  -1.4048  -1.3623  -1.3217  -1.2812  -1.2401  -1.2231
    -1.2125  -1.2082  -1.2016  -1.1908  -1.1886  -1.1771  -1.0810  -1.0457
    -1.0120  -0.9929  -0.9629  -0.9373  -0.9103  -0.8826  -0.8588  -0.8391
    -0.7883  -0.7603  -0.7404  -0.7159  -0.7016  -0.6908  -0.6720  -0.6587
    -0.6463  -0.6288  -0.6067  -0.5624  -0.5562  -0.5521  -0.5392  -0.5337
    -0.5206  -0.4865  -0.4637  -0.4571  -0.4382  -0.4157  -0.4008  -0.3901
    -0.3853  -0.3773  -0.3716  -0.3614  -0.3448  -0.3386  -0.3262  -0.3065
    -0.2706  -0.2528  -0.2458  -0.2239  -0.1984  -0.1921  -0.1624  -0.1429
    -0.1329  -0.1308  -0.1171  -0.1077  -0.0947  -0.0839  -0.0790  -0.0497
    -0.0357   0.0012   0.0130   0.0162   0.0406   0.0425   0.0807   0.0870
     0.1153   0.1401   0.3727   0.3878   0.4704   0.5506   0.6395   0.6522
     0.6999   0.8493

          k = 0.2000 0.3464 0.0000 ( 36608 PWs)   bands (ev):

   -21.3718  -9.9784  -7.0659  -6.5763  -5.9324  -5.6813  -5.6747  -5.4022
    -5.0787  -4.5409  -4.5107  -4.2577  -4.2501  -4.2046  -4.0311  -4.0241
    -3.9332  -3.9285  -3.9226  -3.7963  -3.7751  -3.6555  -3.6450  -3.5788
    -3.5365  -3.4449  -3.4415  -3.4251  -3.4041  -3.3945  -3.3807  -3.3593
    -3.3422  -3.3179  -3.3079  -3.2708  -3.2331  -3.1870  -3.1808  -3.0653
    -3.0496  -2.9692  -2.9552  -2.9297  -2.9161  -2.9045  -2.8200  -2.7686
    -2.7637  -2.7293  -2.7253  -2.7110  -2.6705  -2.6568  -2.6492  -2.6366
    -2.6175  -2.5139  -2.5020  -2.4463  -2.4381  -2.4321  -2.3862  -2.3817
    -2.3699  -2.2618  -2.2016  -2.1781  -2.1618  -2.1354  -2.1112  -2.0959
    -2.0781  -2.0716  -2.0629  -2.0481  -2.0319  -2.0157  -2.0130  -1.9928
    -1.9707  -1.9435  -1.8991  -1.8790  -1.8221  -1.8102  -1.7982  -1.7804
    -1.7594  -1.7476  -1.7253  -1.7133  -1.6864  -1.6692  -1.6593  -1.6546
    -1.6466  -1.6406  -1.6276  -1.6109  -1.6046  -1.5995  -1.5794  -1.5612
    -1.5517  -1.5242  -1.5019  -1.4832  -1.4669  -1.4578  -1.4432  -1.4180
    -1.4062  -1.3856  -1.3760  -1.3508  -1.3410  -1.3071  -1.2946  -1.2580
    -1.2506  -1.2399  -1.2357  -1.2165  -1.2029  -1.1890  -1.1741  -1.1395
    -1.0916  -1.0752  -1.0613  -1.0217  -0.9836  -0.9492  -0.9296  -0.8829
    -0.8285  -0.8126  -0.8088  -0.7851  -0.7778  -0.7645  -0.7584  -0.7491
    -0.7213  -0.7111  -0.6785  -0.6599  -0.6525  -0.6322  -0.6133  -0.6071
    -0.5924  -0.5750  -0.5438  -0.5262  -0.5133  -0.5005  -0.4299  -0.3966
    -0.3597  -0.3377  -0.3261  -0.3146  -0.3085  -0.2822  -0.2754  -0.2677
    -0.2505  -0.2410  -0.1863  -0.1675  -0.1561  -0.1537  -0.1136  -0.1089
    -0.0848  -0.0807  -0.0758  -0.0663  -0.0469  -0.0407  -0.0340  -0.0152
    -0.0056   0.0531   0.0763   0.0883   0.0964   0.1358   0.1394   0.1642
     0.4676   0.4793   0.5402   0.5747   0.8130   0.8255   1.1392   1.3453
     1.3686   1.5792

          k = 0.2000-0.5774 0.0000 ( 36660 PWs)   bands (ev):

   -21.3718  -9.9780  -6.7237  -6.4440  -6.3483  -5.8744  -5.7012  -5.2600
    -5.0711  -4.9424  -4.5588  -4.2361  -3.9922  -3.9451  -3.8553  -3.8131
    -3.8092  -3.7936  -3.7814  -3.7636  -3.7098  -3.7007  -3.6992  -3.6916
    -3.6137  -3.5919  -3.5509  -3.5466  -3.5169  -3.5115  -3.4075  -3.3798
    -3.3636  -3.3617  -3.3326  -3.2916  -3.2074  -3.1919  -3.0915  -3.0672
    -3.0622  -2.9833  -2.9780  -2.9654  -2.9330  -2.8524  -2.8470  -2.8413
    -2.7797  -2.7689  -2.6910  -2.6611  -2.6356  -2.6218  -2.5732  -2.5655
    -2.4938  -2.4798  -2.4720  -2.4611  -2.4525  -2.4244  -2.4073  -2.3431
    -2.2844  -2.2630  -2.2559  -2.2462  -2.2094  -2.1905  -2.1476  -2.1268
    -2.1056  -2.0841  -2.0753  -2.0646  -2.0489  -2.0239  -2.0080  -1.9920
    -1.9826  -1.9702  -1.9520  -1.9339  -1.9303  -1.8863  -1.8629  -1.8459
    -1.8336  -1.7910  -1.7664  -1.7503  -1.7110  -1.6953  -1.6806  -1.6739
    -1.6543  -1.6460  -1.6371  -1.6290  -1.6164  -1.6023  -1.5781  -1.5608
    -1.5222  -1.4975  -1.4894  -1.4827  -1.4779  -1.4624  -1.4553  -1.4495
    -1.4402  -1.4315  -1.4121  -1.3877  -1.3768  -1.3402  -1.3275  -1.3076
    -1.2648  -1.2390  -1.2067  -1.1847  -1.1740  -1.1621  -1.1524  -1.1015
    -1.0823  -1.0702  -1.0630  -1.0142  -0.9958  -0.9455  -0.9237  -0.9151
    -0.9015  -0.8930  -0.8832  -0.8598  -0.8433  -0.8226  -0.7916  -0.7627
    -0.7546  -0.7266  -0.7199  -0.7089  -0.6794  -0.6587  -0.6406  -0.6198
    -0.6011  -0.5862  -0.5784  -0.5686  -0.5316  -0.5188  -0.4840  -0.4147
    -0.3547  -0.3176  -0.3088  -0.2987  -0.2964  -0.2858  -0.2753  -0.2669
    -0.2338  -0.2253  -0.2137  -0.2080  -0.1604  -0.1480  -0.0904  -0.0793
    -0.0728  -0.0523  -0.0396  -0.0310   0.0085   0.0180   0.0231   0.0300
     0.0451   0.0840   0.1150   0.1234   0.1363   0.1464   0.1702   0.2062
     0.2841   0.5161   0.6277   0.8612   1.3253   1.4235   1.4685   1.7985
     1.8988   1.9473

          k = 0.2000-0.3464 0.0000 ( 36608 PWs)   bands (ev):

   -21.3718  -9.9768  -7.0704  -6.5759  -5.9481  -5.6996  -5.6673  -5.3912
    -5.0595  -4.5782  -4.4708  -4.2540  -4.2493  -4.2037  -4.0282  -4.0244
    -3.9330  -3.9260  -3.9079  -3.8009  -3.7904  -3.6512  -3.6472  -3.5827
    -3.5381  -3.4530  -3.4414  -3.4184  -3.4049  -3.3900  -3.3843  -3.3579
    -3.3472  -3.3217  -3.3042  -3.2716  -3.2368  -3.1926  -3.1756  -3.0637
    -3.0541  -2.9666  -2.9593  -2.9318  -2.9191  -2.8932  -2.8081  -2.7697
    -2.7501  -2.7351  -2.7264  -2.7064  -2.6761  -2.6659  -2.6437  -2.6293
    -2.6208  -2.5098  -2.4956  -2.4479  -2.4398  -2.4174  -2.3937  -2.3787
    -2.3656  -2.2755  -2.2060  -2.1833  -2.1678  -2.1332  -2.1189  -2.0992
    -2.0890  -2.0680  -2.0513  -2.0409  -2.0286  -2.0210  -2.0078  -1.9937
    -1.9814  -1.9608  -1.8943  -1.8472  -1.8195  -1.8104  -1.7897  -1.7767
    -1.7639  -1.7383  -1.7357  -1.7060  -1.6898  -1.6723  -1.6636  -1.6556
    -1.6527  -1.6375  -1.6261  -1.6142  -1.6010  -1.5936  -1.5746  -1.5649
    -1.5423  -1.5380  -1.5198  -1.4891  -1.4710  -1.4547  -1.4235  -1.4185
    -1.4087  -1.3953  -1.3838  -1.3367  -1.3214  -1.3064  -1.2903  -1.2688
    -1.2535  -1.2445  -1.2346  -1.2197  -1.2073  -1.1970  -1.1718  -1.1353
    -1.1093  -1.0758  -1.0664  -1.0285  -0.9835  -0.9476  -0.9291  -0.8771
    -0.8299  -0.8147  -0.8075  -0.7930  -0.7845  -0.7738  -0.7517  -0.7384
    -0.7261  -0.7036  -0.6810  -0.6704  -0.6457  -0.6292  -0.6189  -0.6017
    -0.5963  -0.5753  -0.5362  -0.5250  -0.5173  -0.4975  -0.4363  -0.3747
    -0.3650  -0.3443  -0.3240  -0.3160  -0.3109  -0.2845  -0.2780  -0.2690
    -0.2515  -0.2385  -0.1798  -0.1720  -0.1635  -0.1532  -0.1164  -0.1058
    -0.0889  -0.0809  -0.0769  -0.0628  -0.0501  -0.0410  -0.0344  -0.0225
    -0.0032   0.0574   0.0808   0.0912   0.0972   0.1343   0.1430   0.1739
     0.4628   0.4781   0.4945   0.6747   0.7748   0.8303   1.1376   1.3492
     1.3705   1.5891

          k = 0.4000-0.2309 0.0000 ( 36606 PWs)   bands (ev):

   -21.3718  -9.9758  -6.9449  -6.5709  -6.1762  -5.8731  -5.4296  -5.0685
    -4.9780  -4.9705  -4.7995  -4.1289  -4.1035  -4.0736  -4.0568  -3.9860
    -3.8869  -3.8823  -3.8401  -3.7543  -3.7458  -3.7370  -3.6487  -3.5676
    -3.5607  -3.5578  -3.5527  -3.4999  -3.4527  -3.4402  -3.4359  -3.2928
    -3.2772  -3.2741  -3.2610  -3.2364  -3.2281  -3.1286  -3.1212  -3.1095
    -3.1026  -3.0965  -2.9785  -2.9047  -2.8872  -2.8081  -2.7916  -2.7710
    -2.7540  -2.7216  -2.7148  -2.7077  -2.6955  -2.6760  -2.6219  -2.6099
    -2.5785  -2.5548  -2.5400  -2.4154  -2.4045  -2.3981  -2.3685  -2.3380
    -2.2877  -2.2762  -2.2594  -2.2475  -2.2011  -2.1634  -2.1321  -2.1137
    -2.1120  -2.1018  -2.0991  -2.0808  -2.0719  -2.0493  -2.0122  -1.9940
    -1.9767  -1.9613  -1.9409  -1.9269  -1.8989  -1.8718  -1.8131  -1.8003
    -1.7916  -1.7645  -1.7523  -1.7382  -1.7013  -1.6842  -1.6793  -1.6706
    -1.6554  -1.6385  -1.6285  -1.6100  -1.5911  -1.5885  -1.5802  -1.5638
    -1.5512  -1.5275  -1.4964  -1.4809  -1.4188  -1.4017  -1.3898  -1.3700
    -1.3550  -1.3343  -1.3156  -1.2846  -1.2621  -1.2482  -1.2430  -1.2406
    -1.2341  -1.2300  -1.2138  -1.2065  -1.1955  -1.1933  -1.1802  -1.1704
    -1.1461  -1.1192  -1.0555  -1.0502  -1.0080  -1.0026  -0.9810  -0.9636
    -0.9317  -0.9247  -0.8820  -0.8747  -0.8580  -0.8188  -0.7989  -0.7583
    -0.7387  -0.7195  -0.6849  -0.6695  -0.6499  -0.6420  -0.6233  -0.5629
    -0.5167  -0.4907  -0.4767  -0.4607  -0.4587  -0.4512  -0.4427  -0.4328
    -0.4168  -0.4110  -0.3403  -0.3201  -0.2993  -0.2953  -0.2837  -0.2824
    -0.2690  -0.2521  -0.2399  -0.2232  -0.2095  -0.1921  -0.1340  -0.1106
    -0.1071  -0.0908  -0.0783  -0.0355  -0.0119   0.0132   0.0243   0.0612
     0.0696   0.1096   0.1149   0.1348   0.1368   0.1431   0.1639   0.1713
     0.2413   0.2734   0.4002   0.8987   1.1674   1.3537   1.3767   1.4037
     1.6551   1.7467

          k = 0.4000 0.0000 0.0000 ( 36608 PWs)   bands (ev):

   -21.3718  -9.9770  -7.0698  -6.5760  -5.9451  -5.6987  -5.6662  -5.3925
    -5.0660  -4.5738  -4.4752  -4.2524  -4.2495  -4.2062  -4.0286  -4.0237
    -3.9343  -3.9257  -3.9103  -3.7976  -3.7896  -3.6562  -3.6438  -3.5815
    -3.5383  -3.4506  -3.4425  -3.4204  -3.4023  -3.3930  -3.3816  -3.3585
    -3.3454  -3.3184  -3.3109  -3.2685  -3.2348  -3.1869  -3.1793  -3.0592
    -3.0502  -2.9671  -2.9574  -2.9343  -2.9037  -2.9018  -2.8131  -2.7647
    -2.7589  -2.7367  -2.7249  -2.7123  -2.6746  -2.6663  -2.6482  -2.6368
    -2.6170  -2.5145  -2.5016  -2.4458  -2.4424  -2.4233  -2.3873  -2.3816
    -2.3681  -2.2771  -2.1912  -2.1783  -2.1579  -2.1299  -2.1192  -2.0926
    -2.0879  -2.0697  -2.0588  -2.0437  -2.0323  -2.0175  -2.0045  -1.9923
    -1.9775  -1.9490  -1.9026  -1.8628  -1.8223  -1.8133  -1.7951  -1.7767
    -1.7689  -1.7498  -1.7137  -1.7091  -1.6887  -1.6679  -1.6644  -1.6547
    -1.6487  -1.6341  -1.6309  -1.6160  -1.6075  -1.6006  -1.5743  -1.5595
    -1.5511  -1.5377  -1.5060  -1.4843  -1.4692  -1.4451  -1.4334  -1.4167
    -1.4099  -1.4004  -1.3802  -1.3545  -1.3273  -1.3120  -1.2926  -1.2685
    -1.2495  -1.2450  -1.2355  -1.2174  -1.2058  -1.1885  -1.1804  -1.1380
    -1.0935  -1.0823  -1.0603  -1.0492  -0.9794  -0.9402  -0.9273  -0.8790
    -0.8226  -0.8144  -0.8078  -0.7925  -0.7841  -0.7668  -0.7580  -0.7264
    -0.7233  -0.7103  -0.6801  -0.6599  -0.6417  -0.6357  -0.6118  -0.6035
    -0.5839  -0.5644  -0.5443  -0.5285  -0.5187  -0.5044  -0.4521  -0.3799
    -0.3595  -0.3401  -0.3267  -0.3146  -0.3091  -0.2846  -0.2745  -0.2687
    -0.2601  -0.2377  -0.1854  -0.1668  -0.1567  -0.1515  -0.1201  -0.0962
    -0.0889  -0.0815  -0.0754  -0.0554  -0.0504  -0.0398  -0.0341  -0.0262
    -0.0045   0.0562   0.0770   0.0883   0.1032   0.1366   0.1440   0.1579
     0.4523   0.4806   0.5032   0.6640   0.7884   0.8327   1.1313   1.3448
     1.3811   1.5649

          k = 0.4000 0.2309 0.0000 ( 36606 PWs)   bands (ev):

   -21.3718  -9.9785  -6.9382  -6.5695  -6.1643  -5.8595  -5.4115  -5.1227
    -4.9789  -4.9272  -4.8543  -4.1510  -4.0816  -4.0703  -4.0341  -4.0006
    -3.8849  -3.8802  -3.8428  -3.7498  -3.7446  -3.7393  -3.6663  -3.5647
    -3.5615  -3.5535  -3.5523  -3.5024  -3.4598  -3.4452  -3.4354  -3.2811
    -3.2782  -3.2676  -3.2490  -3.2329  -3.2253  -3.1260  -3.1178  -3.1082
    -3.1026  -3.0987  -2.9826  -2.8999  -2.8933  -2.8152  -2.7981  -2.7745
    -2.7606  -2.7274  -2.7172  -2.7080  -2.6872  -2.6833  -2.6148  -2.6110
    -2.5866  -2.5553  -2.5456  -2.4237  -2.4035  -2.3926  -2.3804  -2.3403
    -2.2943  -2.2774  -2.2689  -2.2490  -2.1914  -2.1493  -2.1301  -2.1161
    -2.1147  -2.1019  -2.0867  -2.0783  -2.0671  -2.0476  -2.0417  -1.9943
    -1.9659  -1.9527  -1.9380  -1.9084  -1.8841  -1.8675  -1.8224  -1.7960
    -1.7868  -1.7784  -1.7551  -1.7458  -1.7032  -1.6827  -1.6744  -1.6668
    -1.6519  -1.6460  -1.6308  -1.6072  -1.6008  -1.5896  -1.5762  -1.5611
    -1.5478  -1.5315  -1.4908  -1.4736  -1.4214  -1.4025  -1.3813  -1.3717
    -1.3490  -1.3339  -1.3159  -1.2871  -1.2599  -1.2526  -1.2455  -1.2413
    -1.2341  -1.2306  -1.2174  -1.2094  -1.2038  -1.1915  -1.1709  -1.1626
    -1.1534  -1.1106  -1.0754  -1.0365  -1.0046  -0.9994  -0.9884  -0.9663
    -0.9469  -0.9038  -0.8828  -0.8757  -0.8557  -0.8145  -0.7990  -0.7642
    -0.7386  -0.6964  -0.6746  -0.6602  -0.6515  -0.6336  -0.6018  -0.5961
    -0.5406  -0.4825  -0.4746  -0.4622  -0.4560  -0.4503  -0.4397  -0.4353
    -0.4238  -0.4084  -0.3374  -0.3130  -0.3007  -0.2922  -0.2855  -0.2803
    -0.2638  -0.2430  -0.2367  -0.2266  -0.2126  -0.2022  -0.1272  -0.1116
    -0.1033  -0.0972  -0.0692  -0.0476  -0.0124   0.0078   0.0261   0.0577
     0.0703   0.1117   0.1142   0.1351   0.1379   0.1413   0.1562   0.1857
     0.2412   0.2672   0.3601   0.9502   1.1456   1.3115   1.3699   1.3888
     1.6768   1.7257

          k = 0.4000-0.6928 0.0000 ( 36660 PWs)   bands (ev):

   -21.3718  -9.9783  -6.7236  -6.4428  -6.3461  -5.8804  -5.6956  -5.2385
    -5.0940  -4.9560  -4.5471  -4.2356  -3.9921  -3.9470  -3.8563  -3.8165
    -3.8071  -3.7931  -3.7796  -3.7654  -3.7086  -3.7015  -3.6990  -3.6922
    -3.6126  -3.5954  -3.5495  -3.5454  -3.5153  -3.5130  -3.4044  -3.3811
    -3.3644  -3.3595  -3.3310  -3.2920  -3.2065  -3.1896  -3.0843  -3.0639
    -3.0621  -2.9869  -2.9800  -2.9575  -2.9296  -2.8652  -2.8523  -2.8352
    -2.7869  -2.7722  -2.6867  -2.6658  -2.6325  -2.6217  -2.5724  -2.5669
    -2.4972  -2.4796  -2.4690  -2.4645  -2.4522  -2.4326  -2.4115  -2.3430
    -2.2840  -2.2632  -2.2582  -2.2480  -2.2041  -2.1863  -2.1379  -2.1320
    -2.1044  -2.0818  -2.0752  -2.0613  -2.0577  -2.0332  -2.0084  -1.9868
    -1.9797  -1.9768  -1.9541  -1.9341  -1.9256  -1.8917  -1.8613  -1.8419
    -1.8254  -1.7918  -1.7599  -1.7484  -1.7247  -1.6914  -1.6804  -1.6713
    -1.6516  -1.6473  -1.6394  -1.6268  -1.6185  -1.5876  -1.5793  -1.5530
    -1.5242  -1.4983  -1.4857  -1.4827  -1.4699  -1.4611  -1.4583  -1.4478
    -1.4365  -1.4261  -1.4109  -1.3968  -1.3741  -1.3592  -1.3260  -1.3169
    -1.2773  -1.2411  -1.2030  -1.1832  -1.1764  -1.1699  -1.1567  -1.0942
    -1.0838  -1.0786  -1.0615  -1.0323  -0.9678  -0.9470  -0.9283  -0.9164
    -0.9061  -0.8951  -0.8744  -0.8670  -0.8343  -0.8128  -0.7854  -0.7756
    -0.7543  -0.7277  -0.7146  -0.7085  -0.6808  -0.6457  -0.6351  -0.6128
    -0.5992  -0.5899  -0.5737  -0.5668  -0.5293  -0.5170  -0.4986  -0.4240
    -0.3536  -0.3176  -0.3081  -0.3041  -0.2964  -0.2873  -0.2777  -0.2576
    -0.2400  -0.2272  -0.2136  -0.2033  -0.1610  -0.1458  -0.0902  -0.0786
    -0.0625  -0.0515  -0.0458  -0.0242   0.0037   0.0188   0.0258   0.0297
     0.0417   0.0822   0.1177   0.1194   0.1368   0.1491   0.1678   0.1999
     0.2926   0.5166   0.6195   0.8713   1.3039   1.4225   1.4747   1.8070
     1.8974   1.9448

          k = 0.4000-0.4619 0.0000 ( 36660 PWs)   bands (ev):

   -21.3718  -9.9766  -6.7296  -6.4505  -6.3469  -5.8540  -5.7223  -5.3220
    -4.9769  -4.9314  -4.5963  -4.2407  -3.9889  -3.9403  -3.8349  -3.8143
    -3.8120  -3.7846  -3.7785  -3.7643  -3.7221  -3.7018  -3.7001  -3.6937
    -3.6099  -3.5925  -3.5493  -3.5477  -3.5171  -3.5101  -3.4208  -3.3765
    -3.3639  -3.3562  -3.3376  -3.2921  -3.2160  -3.1926  -3.0782  -3.0654
    -3.0611  -2.9932  -2.9764  -2.9571  -2.9345  -2.8558  -2.8481  -2.8418
    -2.7786  -2.7684  -2.6923  -2.6605  -2.6303  -2.6236  -2.5727  -2.5652
    -2.4880  -2.4781  -2.4734  -2.4611  -2.4486  -2.4240  -2.4060  -2.3434
    -2.2775  -2.2687  -2.2522  -2.2452  -2.1992  -2.1906  -2.1607  -2.1280
    -2.1184  -2.0825  -2.0761  -2.0679  -2.0447  -2.0176  -2.0036  -1.9952
    -1.9877  -1.9787  -1.9514  -1.9346  -1.9314  -1.9033  -1.8615  -1.8434
    -1.8257  -1.7832  -1.7655  -1.7386  -1.7163  -1.6893  -1.6863  -1.6667
    -1.6545  -1.6477  -1.6369  -1.6306  -1.6160  -1.6111  -1.5855  -1.5772
    -1.5290  -1.5012  -1.4879  -1.4833  -1.4670  -1.4593  -1.4569  -1.4467
    -1.4412  -1.4282  -1.4113  -1.3852  -1.3684  -1.3423  -1.3248  -1.3060
    -1.2470  -1.2421  -1.2249  -1.1875  -1.1728  -1.1640  -1.1516  -1.1033
    -1.0806  -1.0682  -1.0526  -1.0370  -0.9976  -0.9430  -0.9378  -0.9145
    -0.9006  -0.8950  -0.8812  -0.8649  -0.8356  -0.8219  -0.7950  -0.7662
    -0.7563  -0.7293  -0.7077  -0.7020  -0.6932  -0.6578  -0.6259  -0.6204
    -0.6054  -0.5874  -0.5758  -0.5647  -0.5324  -0.5031  -0.4903  -0.4288
    -0.3500  -0.3195  -0.3122  -0.3011  -0.2956  -0.2888  -0.2810  -0.2648
    -0.2384  -0.2232  -0.2137  -0.2062  -0.1547  -0.1511  -0.0894  -0.0848
    -0.0646  -0.0528  -0.0475  -0.0322   0.0117   0.0173   0.0243   0.0328
     0.0432   0.1060   0.1171   0.1256   0.1379   0.1460   0.1699   0.2054
     0.3077   0.5141   0.5844   0.8638   1.3809   1.4167   1.5036   1.7098
     1.8964   1.9641

 ------ SPIN DOWN ----------


          k = 0.0000 0.0000 0.0000 ( 36693 PWs)   bands (ev):

   -21.4010 -10.0651  -7.6191  -6.6724  -6.2017  -5.5754  -5.0976  -4.4125
    -4.3850  -4.3821  -4.3794  -4.3766  -4.3605  -4.2566  -3.5195  -3.5070
    -3.5058  -3.5038  -3.4788  -3.4666  -3.3543  -2.5683  -2.5593  -2.5545
    -2.5507  -2.5301  -2.4809  -2.0959  -2.0880  -2.0849  -2.0838  -2.0771
    -2.0737  -1.8981  -1.8843  -1.8169  -1.8047  -1.8007  -1.7923  -1.7195
    -1.6953  -1.6716  -1.6465  -1.6244  -1.5718  -1.5456  -1.5394  -1.5351
    -1.5203  -1.4894  -1.3089  -1.2804  -1.2700  -1.2671  -1.2631  -1.2557
    -1.2556  -1.2447  -1.2328  -1.1949  -1.1917  -1.1789  -1.1752  -1.1637
    -1.1282  -0.9735  -0.6371  -0.6080  -0.5917  -0.5893  -0.5696  -0.4470
    -0.3969  -0.2948  -0.2731  -0.2705  -0.2602  -0.2582  -0.2525  -0.2154
    -0.2030  -0.1943  -0.1790  -0.1782  -0.1771  -0.1655  -0.1285  -0.0885
    -0.0814  -0.0685  -0.0662  -0.0566  -0.0383  -0.0162  -0.0135  -0.0086
    -0.0083  -0.0022   0.0164   0.0187   0.0263   0.0298   0.0777   0.1127
     0.1602   0.1785   0.2043   0.2340   0.2381   0.2481   0.2508   0.2532
     0.2543   0.2552   0.2570   0.2731   0.3245   0.3257   0.3698   0.4060
     0.4164   0.4307   0.4442   0.4611   0.5861   0.6362   0.6411   0.6934
     0.7217   0.7255   0.7321   0.7360   0.7480   0.8960   1.0388   1.0582
     1.0813   1.0853   1.2259   1.2604   1.2803   1.2949   1.2961   1.3012
     1.3036   1.4495   1.4578   1.4638   1.4697   1.4772   1.4946   1.5005
     1.5056   1.5293   1.5482   1.5568   1.5742   1.6049   1.6121   1.6175
     1.6241   1.6264   1.6277   1.6475   1.6787   1.6984   1.7050   1.7197
     1.7318   1.7442   1.7467   1.7481   1.7518   1.7572   1.7604   1.7981
     1.8025   1.8260   1.8299   1.8351   1.8447   1.8497   1.8505   1.8813
     1.8864   1.8900   1.8974   1.8993   1.9027   1.9087   1.9117   1.9178
     1.9209   1.9689   1.9761   2.0002   2.1253   2.1279   2.1319   2.1346
     2.1374   2.1391

          k = 0.0000 0.2309 0.0000 ( 36641 PWs)   bands (ev):

   -21.4010 -10.0657  -7.4703  -6.6365  -6.1201  -5.5833  -5.3360  -5.0948
    -4.7630  -4.7452  -4.2488  -4.1366  -3.8375  -3.8293  -3.7434  -3.6862
    -3.5424  -3.2943  -3.1659  -3.1372  -3.0608  -2.7931  -2.5730  -2.5417
    -2.5021  -2.4564  -2.4288  -2.2138  -2.1317  -2.1209  -2.1176  -2.0841
    -2.0743  -2.0409  -2.0292  -1.9964  -1.9866  -1.8641  -1.8434  -1.7750
    -1.7613  -1.7365  -1.6465  -1.5896  -1.5758  -1.5623  -1.5163  -1.4517
    -1.4162  -1.3963  -1.3454  -1.3182  -1.3124  -1.2879  -1.2678  -1.2612
    -1.2518  -1.1997  -1.1700  -1.1532  -1.1241  -1.0900  -1.0734  -1.0518
    -0.9920  -0.9124  -0.7116  -0.6542  -0.6429  -0.6168  -0.5897  -0.5519
    -0.4891  -0.4774  -0.4226  -0.4072  -0.3090  -0.2886  -0.2805  -0.2603
    -0.2542  -0.2362  -0.2279  -0.2066  -0.1962  -0.1832  -0.1465  -0.1003
    -0.0808  -0.0672  -0.0616  -0.0353  -0.0205  -0.0036   0.0021   0.0210
     0.0230   0.0298   0.0365   0.0401   0.0435   0.0566   0.0799   0.0969
     0.1188   0.1349   0.1416   0.1504   0.1759   0.1969   0.2065   0.2213
     0.2531   0.2758   0.3172   0.3236   0.3415   0.3649   0.3678   0.3921
     0.4398   0.5303   0.5748   0.6040   0.6080   0.6482   0.6643   0.6879
     0.6897   0.7102   0.7131   0.7162   0.7891   0.9275   1.0182   1.0395
     1.0491   1.0641   1.0712   1.0867   1.1024   1.1467   1.2016   1.2370
     1.2489   1.2833   1.3262   1.3329   1.3572   1.3875   1.4068   1.4169
     1.4747   1.4965   1.5133   1.5304   1.5399   1.5524   1.5709   1.5800
     1.6098   1.6353   1.6612   1.6858   1.7062   1.7198   1.7277   1.7603
     1.7742   1.7865   1.7917   1.8009   1.8157   1.8422   1.8705   1.8792
     1.8857   1.8881   1.9229   1.9348   1.9441   1.9574   1.9687   1.9860
     1.9929   2.0298   2.0320   2.0373   2.0576   2.0622   2.0718   2.0895
     2.0975   2.1233   2.1300   2.1469   2.2149   2.2282   2.2387   2.2540
     2.3127   2.3243

          k = 0.0000 0.4619 0.0000 ( 36606 PWs)   bands (ev):

   -21.4010 -10.0665  -7.0453  -6.6046  -6.2546  -5.8961  -5.4529  -5.1342
    -4.9855  -4.9309  -4.8265  -3.9074  -3.8637  -3.7598  -3.2963  -3.2153
    -3.2067  -3.0917  -2.9553  -2.9010  -2.7721  -2.7567  -2.6124  -2.6078
    -2.5525  -2.5310  -2.4849  -2.4662  -2.3761  -2.3601  -2.3144  -2.2933
    -2.2787  -2.0816  -2.0706  -1.9973  -1.9877  -1.8852  -1.8708  -1.8643
    -1.8509  -1.8419  -1.6635  -1.5587  -1.5511  -1.5192  -1.5099  -1.4596
    -1.3481  -1.3352  -1.3164  -1.3046  -1.2889  -1.2778  -1.2664  -1.2538
    -1.2004  -1.1532  -1.1513  -1.1394  -1.1144  -1.0676  -0.9710  -0.9417
    -0.8254  -0.7974  -0.7287  -0.6817  -0.6620  -0.6304  -0.6084  -0.5911
    -0.5831  -0.5559  -0.5248  -0.4913  -0.4735  -0.4355  -0.4145  -0.3890
    -0.3647  -0.3296  -0.3155  -0.3053  -0.2960  -0.2335  -0.1973  -0.1590
    -0.1218  -0.1021  -0.0809  -0.0447  -0.0325  -0.0075   0.0130   0.0377
     0.0588   0.0752   0.0825   0.0928   0.0995   0.1135   0.1373   0.1509
     0.1604   0.1863   0.1956   0.1996   0.2101   0.2203   0.2321   0.2544
     0.2681   0.2831   0.3278   0.3689   0.4123   0.4171   0.4485   0.4656
     0.4676   0.4883   0.4979   0.5118   0.5727   0.5755   0.5803   0.6174
     0.6336   0.6518   0.6822   0.6848   0.7085   0.7212   0.8058   0.8687
     0.9058   0.9372   0.9993   1.0535   1.1060   1.1285   1.1433   1.1498
     1.1670   1.1798   1.2109   1.2445   1.2589   1.2987   1.3929   1.4307
     1.4409   1.4483   1.5003   1.5209   1.5468   1.5595   1.5819   1.6014
     1.6312   1.6448   1.6672   1.7187   1.7502   1.7693   1.7806   1.8026
     1.8061   1.8106   1.8277   1.8469   1.8741   1.8844   1.8937   1.9171
     1.9326   1.9737   2.0154   2.0265   2.0385   2.0664   2.0726   2.0830
     2.0912   2.0989   2.1264   2.1322   2.1418   2.1547   2.1622   2.1655
     2.1833   2.2116   2.3177   2.3749   2.3944   2.4795   2.5760   2.8257
     2.9100   2.9473

          k = 0.2000-0.1155 0.0000 ( 36641 PWs)   bands (ev):

   -21.4010 -10.0648  -7.4714  -6.6368  -6.1265  -5.6044  -5.3108  -5.0814
    -4.7719  -4.7591  -4.2419  -4.0978  -3.8374  -3.8306  -3.7550  -3.7168
    -3.5365  -3.2929  -3.1707  -3.1486  -3.0447  -2.7697  -2.5834  -2.5552
    -2.4888  -2.4623  -2.4350  -2.2110  -2.1295  -2.1273  -2.1144  -2.0809
    -2.0742  -2.0426  -2.0288  -1.9947  -1.9899  -1.8742  -1.8425  -1.7671
    -1.7607  -1.7189  -1.6364  -1.5997  -1.5719  -1.5620  -1.5055  -1.4437
    -1.4229  -1.3966  -1.3528  -1.3337  -1.3109  -1.2857  -1.2705  -1.2618
    -1.2491  -1.2150  -1.1696  -1.1515  -1.1230  -1.0888  -1.0766  -1.0519
    -0.9767  -0.9211  -0.7141  -0.6549  -0.6400  -0.6203  -0.5848  -0.5446
    -0.4977  -0.4733  -0.4312  -0.4133  -0.3133  -0.2904  -0.2789  -0.2633
    -0.2519  -0.2375  -0.2279  -0.2075  -0.2006  -0.1785  -0.1494  -0.0991
    -0.0712  -0.0682  -0.0547  -0.0349  -0.0313  -0.0094   0.0023   0.0173
     0.0262   0.0318   0.0384   0.0410   0.0436   0.0480   0.0846   0.0958
     0.1214   0.1371   0.1463   0.1481   0.1806   0.1940   0.2087   0.2158
     0.2455   0.2641   0.2889   0.3180   0.3518   0.3620   0.3674   0.3918
     0.4610   0.5466   0.5941   0.6041   0.6148   0.6476   0.6637   0.6860
     0.7011   0.7115   0.7121   0.7163   0.7646   0.9209   1.0229   1.0444
     1.0512   1.0602   1.0759   1.0861   1.1093   1.1550   1.2060   1.2374
     1.2576   1.2737   1.3261   1.3349   1.3631   1.3862   1.4126   1.4327
     1.4722   1.4788   1.5161   1.5299   1.5400   1.5535   1.5727   1.5806
     1.6065   1.6250   1.6734   1.6813   1.7064   1.7169   1.7272   1.7351
     1.7821   1.7841   1.7934   1.7958   1.8164   1.8509   1.8714   1.8795
     1.8832   1.8903   1.9199   1.9341   1.9430   1.9553   1.9731   1.9824
     1.9941   2.0296   2.0333   2.0378   2.0586   2.0647   2.0701   2.0953
     2.1110   2.1211   2.1264   2.1491   2.2026   2.2290   2.2361   2.2696
     2.3034   2.3221

          k = 0.2000 0.1155 0.0000 ( 36641 PWs)   bands (ev):

   -21.4010 -10.0658  -7.4700  -6.6366  -6.1183  -5.5802  -5.3351  -5.1074
    -4.7536  -4.7455  -4.2507  -4.1463  -3.8359  -3.8302  -3.7328  -3.6852
    -3.5447  -3.2940  -3.1625  -3.1395  -3.0630  -2.7962  -2.5675  -2.5419
    -2.5006  -2.4561  -2.4318  -2.2140  -2.1293  -2.1190  -2.1150  -2.0795
    -2.0751  -2.0421  -2.0293  -1.9938  -1.9896  -1.8681  -1.8416  -1.7736
    -1.7605  -1.7245  -1.6734  -1.6029  -1.5816  -1.5626  -1.4797  -1.4446
    -1.4237  -1.4011  -1.3479  -1.3316  -1.3054  -1.2862  -1.2683  -1.2643
    -1.2518  -1.1990  -1.1795  -1.1542  -1.1255  -1.0872  -1.0745  -1.0514
    -0.9676  -0.9144  -0.7232  -0.6547  -0.6417  -0.6175  -0.5860  -0.5538
    -0.5007  -0.4761  -0.4208  -0.4042  -0.3178  -0.2854  -0.2771  -0.2724
    -0.2379  -0.2284  -0.2248  -0.2119  -0.2049  -0.1765  -0.1566  -0.1009
    -0.0802  -0.0679  -0.0570  -0.0441  -0.0353   0.0016   0.0041   0.0154
     0.0264   0.0275   0.0366   0.0412   0.0463   0.0589   0.0858   0.0975
     0.1206   0.1355   0.1482   0.1498   0.1625   0.1979   0.2131   0.2220
     0.2526   0.2680   0.3141   0.3206   0.3503   0.3606   0.3664   0.3913
     0.4670   0.5411   0.5746   0.6043   0.6118   0.6561   0.6619   0.6885
     0.7009   0.7056   0.7125   0.7147   0.7596   0.9244   1.0228   1.0310
     1.0502   1.0703   1.0804   1.0866   1.1072   1.1660   1.2052   1.2324
     1.2487   1.2692   1.3284   1.3336   1.3593   1.3839   1.3981   1.4161
     1.4785   1.4923   1.5196   1.5337   1.5409   1.5532   1.5693   1.5818
     1.6044   1.6349   1.6687   1.6785   1.6984   1.7199   1.7298   1.7549
     1.7772   1.7875   1.7913   1.8008   1.8125   1.8471   1.8715   1.8796
     1.8842   1.8899   1.9175   1.9353   1.9452   1.9576   1.9683   1.9856
     1.9912   2.0297   2.0320   2.0397   2.0587   2.0625   2.0700   2.0912
     2.0988   2.1244   2.1276   2.1472   2.2133   2.2279   2.2397   2.2521
     2.3128   2.3267

          k = 0.2000 0.3464 0.0000 ( 36608 PWs)   bands (ev):

   -21.4010 -10.0668  -7.1802  -6.6007  -5.9683  -5.7521  -5.7465  -5.4195
    -5.1008  -4.4850  -4.4279  -4.0332  -4.0202  -3.9204  -3.1925  -3.1857
    -3.1778  -3.1705  -3.0697  -2.9745  -2.8914  -2.8839  -2.8708  -2.5115
    -2.4349  -2.4237  -2.4182  -2.3392  -2.3298  -2.3072  -2.2269  -2.2144
    -2.2087  -2.2015  -2.1908  -2.0661  -2.0064  -1.8534  -1.8310  -1.8236
    -1.7673  -1.7524  -1.7021  -1.6849  -1.6167  -1.5137  -1.4835  -1.4297
    -1.3671  -1.3474  -1.3080  -1.3034  -1.3015  -1.2784  -1.2558  -1.2422
    -1.2302  -1.1917  -1.1550  -1.1205  -1.0925  -0.9900  -0.9556  -0.9253
    -0.8591  -0.8281  -0.7215  -0.7094  -0.6312  -0.6060  -0.5762  -0.5518
    -0.5424  -0.5152  -0.5030  -0.4984  -0.4445  -0.4195  -0.3902  -0.3772
    -0.3637  -0.3491  -0.3316  -0.3189  -0.2773  -0.2142  -0.1687  -0.1600
    -0.1354  -0.1188  -0.0776  -0.0601  -0.0380  -0.0311  -0.0180  -0.0086
     0.0127   0.0301   0.0413   0.0560   0.0683   0.0770   0.1141   0.1274
     0.1403   0.1501   0.1700   0.1788   0.1932   0.1977   0.2196   0.2239
     0.2635   0.3040   0.3205   0.3433   0.3835   0.4535   0.4674   0.4749
     0.5049   0.5125   0.5485   0.6015   0.6203   0.6290   0.6350   0.6431
     0.6587   0.6700   0.6988   0.7318   0.7872   0.8014   0.9151   0.9521
     0.9926   1.0496   1.0607   1.0816   1.1109   1.1254   1.1392   1.1537
     1.1689   1.1851   1.1930   1.2107   1.2340   1.2714   1.3278   1.3652
     1.3905   1.4055   1.4271   1.4445   1.4701   1.4825   1.5231   1.5391
     1.5914   1.6406   1.7081   1.7557   1.7586   1.7759   1.7972   1.8165
     1.8277   1.8352   1.8539   1.8651   1.8732   1.9111   1.9313   1.9346
     1.9451   1.9844   1.9912   1.9973   2.0125   2.0348   2.0378   2.0659
     2.0724   2.0781   2.0842   2.1146   2.1168   2.1346   2.1564   2.1852
     2.2132   2.2177   2.3251   2.3421   2.4314   2.4616   2.4941   2.6679
     2.7116   2.8040

          k = 0.2000-0.5774 0.0000 ( 36660 PWs)   bands (ev):

   -21.4010 -10.0664  -6.7752  -6.5573  -6.4157  -5.9250  -5.7494  -5.3065
    -5.0961  -4.9549  -4.5165  -4.0798  -3.5605  -3.4450  -3.2189  -3.2140
    -3.1826  -2.9891  -2.9554  -2.8152  -2.7941  -2.7880  -2.6693  -2.6573
    -2.6515  -2.6358  -2.6169  -2.5971  -2.4056  -2.2830  -2.2509  -2.2400
    -2.2325  -2.2153  -2.1862  -2.1746  -2.0698  -2.0508  -1.8393  -1.7412
    -1.7177  -1.7107  -1.7012  -1.6365  -1.5966  -1.5015  -1.4683  -1.4444
    -1.4206  -1.4098  -1.3730  -1.2860  -1.2478  -1.2362  -1.2282  -1.2011
    -1.1738  -1.1110  -1.0823  -1.0530  -1.0220  -1.0020  -0.9711  -0.8846
    -0.8656  -0.7906  -0.7052  -0.6940  -0.6732  -0.6277  -0.6091  -0.6024
    -0.5615  -0.5309  -0.5063  -0.4831  -0.4613  -0.4315  -0.4002  -0.3903
    -0.3655  -0.3514  -0.3366  -0.3231  -0.3202  -0.3085  -0.2749  -0.2647
    -0.2497  -0.2347  -0.1936  -0.1652  -0.1421  -0.0971  -0.0667  -0.0443
    -0.0036   0.0312   0.0500   0.0728   0.0921   0.1054   0.1107   0.1351
     0.1560   0.1800   0.2134   0.2345   0.2461   0.2506   0.2900   0.3386
     0.3611   0.3794   0.3876   0.3954   0.4131   0.4575   0.4673   0.4993
     0.5120   0.5429   0.5673   0.5892   0.6017   0.6204   0.6368   0.6617
     0.6841   0.6884   0.6959   0.7175   0.7544   0.7642   0.7713   0.8062
     0.8340   0.9308   0.9744   1.0352   1.0577   1.0701   1.0896   1.1095
     1.1206   1.1323   1.1504   1.1799   1.2422   1.2987   1.3151   1.3319
     1.3445   1.3774   1.4154   1.4328   1.4576   1.4711   1.5008   1.5511
     1.6014   1.6547   1.7102   1.7208   1.7561   1.8228   1.8270   1.8416
     1.8583   1.8647   1.8804   1.8924   1.9118   1.9387   1.9426   1.9537
     1.9961   2.0080   2.0291   2.0361   2.0442   2.0476   2.0552   2.0611
     2.0793   2.1018   2.1172   2.1434   2.1498   2.1727   2.1760   2.2071
     2.2635   2.2868   2.3652   2.5168   2.6384   2.7888   2.9721   3.0400
     3.0668   3.0764

          k = 0.2000-0.3464 0.0000 ( 36608 PWs)   bands (ev):

   -21.4010 -10.0652  -7.1842  -6.6003  -5.9861  -5.7716  -5.7375  -5.4076
    -5.0779  -4.5213  -4.3861  -4.0267  -4.0243  -3.9166  -3.2034  -3.1887
    -3.1785  -3.1742  -3.0665  -2.9899  -2.9072  -2.8757  -2.8428  -2.5128
    -2.4382  -2.4225  -2.4145  -2.3521  -2.3317  -2.3137  -2.2299  -2.2135
    -2.2094  -2.1978  -2.1896  -2.0689  -2.0051  -1.8411  -1.8329  -1.8194
    -1.7607  -1.7420  -1.6983  -1.6861  -1.5842  -1.5224  -1.4818  -1.4403
    -1.3660  -1.3471  -1.3099  -1.3046  -1.2942  -1.2758  -1.2637  -1.2508
    -1.2337  -1.2002  -1.1392  -1.1201  -1.0692  -1.0387  -0.9604  -0.9367
    -0.8558  -0.8236  -0.7251  -0.7134  -0.6230  -0.5987  -0.5903  -0.5510
    -0.5395  -0.5227  -0.5076  -0.4766  -0.4402  -0.4116  -0.3955  -0.3809
    -0.3697  -0.3415  -0.3259  -0.3139  -0.2610  -0.2380  -0.1678  -0.1612
    -0.1432  -0.1312  -0.0812  -0.0588  -0.0380  -0.0294  -0.0181  -0.0084
     0.0078   0.0319   0.0454   0.0624   0.0657   0.0756   0.1082   0.1338
     0.1397   0.1467   0.1670   0.1857   0.1915   0.2004   0.2137   0.2199
     0.2463   0.2975   0.3272   0.3304   0.4009   0.4540   0.4625   0.4836
     0.5053   0.5071   0.5490   0.5910   0.6206   0.6259   0.6373   0.6458
     0.6619   0.6685   0.6960   0.7588   0.7852   0.8196   0.9033   0.9574
     0.9884   1.0392   1.0612   1.0934   1.1159   1.1235   1.1362   1.1515
     1.1632   1.1897   1.1946   1.2033   1.2443   1.2821   1.3436   1.3602
     1.3784   1.4063   1.4186   1.4476   1.4667   1.4942   1.5285   1.5569
     1.5824   1.6308   1.6977   1.7470   1.7616   1.7758   1.7917   1.8103
     1.8261   1.8346   1.8604   1.8656   1.8715   1.9184   1.9293   1.9351
     1.9529   1.9774   1.9884   1.9989   2.0140   2.0341   2.0361   2.0653
     2.0757   2.0792   2.0840   2.1125   2.1206   2.1246   2.1622   2.1986
     2.2143   2.2349   2.3283   2.3405   2.4145   2.4648   2.4987   2.6313
     2.7329   2.8110

          k = 0.4000-0.2309 0.0000 ( 36606 PWs)   bands (ev):

   -21.4010 -10.0643  -7.0502  -6.6070  -6.2618  -5.9115  -5.4668  -5.0850
    -4.9795  -4.9690  -4.7865  -3.8917  -3.8822  -3.7800  -3.2728  -3.2159
    -3.2106  -3.0893  -2.9533  -2.8866  -2.7791  -2.7587  -2.6158  -2.6074
    -2.5664  -2.5446  -2.4888  -2.4563  -2.3807  -2.3623  -2.3067  -2.2947
    -2.2767  -2.0928  -2.0682  -1.9922  -1.9876  -1.8764  -1.8694  -1.8593
    -1.8543  -1.8278  -1.5923  -1.5685  -1.5602  -1.5245  -1.5102  -1.4854
[...]
     atom    8 type  1   force =    -0.00070904   -0.00410097   -0.09816061
     atom    9 type  1   force =     0.00164799    0.00248724   -0.10125263
     atom   10 type  1   force =     0.00010694    0.00116694   -0.01731603
     atom   11 type  1   force =     0.00078289    0.00095842   -0.00874919
     atom   12 type  1   force =    -0.00001649    0.00125147   -0.01137173
     atom   13 type  1   force =    -0.00043177   -0.00041517   -0.01045807
     atom   14 type  1   force =     0.00056602    0.00083891   -0.01267659
     atom   15 type  1   force =    -0.00066956    0.00071906   -0.01013452
     atom   16 type  1   force =     0.00141876   -0.00108195   -0.01164895
     atom   17 type  1   force =    -0.00053070   -0.00260982   -0.00975116
     atom   18 type  1   force =    -0.00049716   -0.00066986   -0.01330899
     atom   19 type  1   force =    -0.00026249    0.00179902    0.01379648
     atom   20 type  1   force =    -0.00709291    0.00369134   -0.00055923
     atom   21 type  1   force =     0.00529505   -0.00688572    0.01163922
     atom   22 type  1   force =    -0.00021254   -0.00041177    0.01835176
     atom   23 type  1   force =    -0.00018923    0.00794592    0.01066570
     atom   24 type  1   force =     0.00028552    0.00166027    0.01785373
     atom   25 type  1   force =    -0.00055482    0.00066345    0.01889687
     atom   26 type  1   force =    -0.00761875   -0.00699483    0.00485016
     atom   27 type  1   force =     0.00938791   -0.00390829    0.00256415
     atom   28 type  1   force =     0.02012804    0.00194580    0.12764423
     atom   29 type  1   force =     0.02077397    0.05689976    0.11074272
     atom   30 type  1   force =    -0.02919262    0.00712217    0.13703188
     atom   31 type  1   force =     0.04074858   -0.04754029    0.17061916
     atom   32 type  1   force =    -0.00198304   -0.00014608    0.02428917
     atom   33 type  1   force =     0.00027674    0.00075562    0.10484452
     atom   34 type  1   force =    -0.00109361   -0.00257076    0.10740863
     atom   35 type  1   force =     0.00111457    0.00466098    0.11739681
     atom   36 type  1   force =    -0.00434076    0.00460988    0.10768367
     atom   37 type  2   force =    -0.24542528   -0.31218027    0.20728304
     atom   38 type  3   force =     1.31426734    1.72401885   -1.17824436
     atom   39 type  4   force =    -0.03220566   -0.04429976   -0.05514787
     The ionic contribution  to forces
     atom    1 type  1   force =    -0.00626745    0.00134158 -111.17761802
     atom    2 type  1   force =    -0.00329168    0.00274217 -111.19677927
     atom    3 type  1   force =     0.00955905    0.00102143 -111.18415655
     atom    4 type  1   force =    -0.00356772    0.00477413 -111.17686027
     atom    5 type  1   force =     0.00167671    0.00745604 -111.18067137
     atom    6 type  1   force =     0.00189104   -0.00149092 -111.17357323
     atom    7 type  1   force =     0.00134509   -0.00121396 -111.17296290
     atom    8 type  1   force =    -0.00596555   -0.00582163 -111.18212925
     atom    9 type  1   force =     0.00462049   -0.00880884 -111.18484623
     atom   10 type  1   force =    -0.04142956   -0.01562577  -40.11766371
     atom   11 type  1   force =    -0.01657535   -0.05311704  -40.23450814
     atom   12 type  1   force =     0.05799677   -0.03260843  -40.14928560
     atom   13 type  1   force =    -0.06065717    0.03971618  -40.17830129
     atom   14 type  1   force =     0.03837059    0.04609664  -40.22486261
     atom   15 type  1   force =     0.02229958    0.01235062  -40.10398521
     atom   16 type  1   force =    -0.00633493    0.03850531  -40.10963237
     atom   17 type  1   force =     0.00191457   -0.00666270  -40.11710566
     atom   18 type  1   force =     0.00441844   -0.02865420  -40.10548469
     atom   19 type  1   force =    -0.30074768    0.06483647   31.50227791
     atom   20 type  1   force =    -0.19006670    0.15361496   30.47955462
     atom   21 type  1   force =     0.48797212    0.04540887   31.18247540
     atom   22 type  1   force =    -0.16931818    0.22672572   31.53835823
     atom   23 type  1   force =     0.08699541    0.37112337   31.35433496
     atom   24 type  1   force =     0.08302643   -0.06716695   31.67029762
     atom   25 type  1   force =     0.05681433   -0.05295896   31.69782122
     atom   26 type  1   force =    -0.29613890   -0.29520979   31.27801049
     atom   27 type  1   force =     0.23983563   -0.44583275   31.15144178
     atom   28 type  1   force =    -1.59831102   -0.52089291  103.82969753
     atom   29 type  1   force =    -0.96702334   -3.70439110   97.52892085
     atom   30 type  1   force =     2.43577815   -1.36990590  103.04473924
     atom   31 type  1   force =    -3.00257190    2.00294861  101.88398799
     atom   32 type  1   force =     2.72927376    3.24120304   98.01234480
     atom   33 type  1   force =     0.78685004    0.34786351  104.25843172
     atom   34 type  1   force =    -0.26771866    1.33197700  104.11498760
     atom   35 type  1   force =     0.02122241   -0.26839040  103.97471378
     atom   36 type  1   force =     0.23732971   -0.98586875  104.20462666
     atom   37 type  2   force =     3.56763745    4.92430327   55.96406904
     atom   38 type  3   force =    -5.08544986   -6.58276497   88.20742615
     atom   39 type  4   force =     1.14460790    1.58337703   15.09190875
     The local contribution  to forces
     atom    1 type  1   force =     0.00758628   -0.00394790  111.28340899
     atom    2 type  1   force =     0.00399553   -0.00378306  111.29976825
     atom    3 type  1   force =    -0.01148856    0.00104810  111.29000853
     atom    4 type  1   force =     0.00142510   -0.00298071  111.28258930
     atom    5 type  1   force =    -0.00172015   -0.01153796  111.28764027
     atom    6 type  1   force =     0.00006560    0.00268669  111.27836989
     atom    7 type  1   force =    -0.00102277    0.00160066  111.27958524
     atom    8 type  1   force =     0.00705176    0.00978919  111.28282651
     atom    9 type  1   force =    -0.00656572    0.00648679  111.28786968
     atom   10 type  1   force =     0.04168552    0.01442372   40.11210954
     atom   11 type  1   force =     0.01526096    0.05151796   40.22207745
     atom   12 type  1   force =    -0.05736762    0.03138303   40.14009519
     atom   13 type  1   force =     0.06057281   -0.04009512   40.16767195
     atom   14 type  1   force =    -0.03861523   -0.04591711   40.21529829
     atom   15 type  1   force =    -0.02127208   -0.01368026   40.09317534
     atom   16 type  1   force =     0.00518558   -0.03724005   40.09955571
     atom   17 type  1   force =    -0.00127849    0.00933561   40.10554917
     atom   18 type  1   force =    -0.00340894    0.02963323   40.09674140
     atom   19 type  1   force =     0.30068878   -0.06615250  -31.49337986
     atom   20 type  1   force =     0.19834824   -0.15840033  -30.45860407
     atom   21 type  1   force =    -0.49300481   -0.03849309  -31.17586723
     atom   22 type  1   force =     0.16960978   -0.22533901  -31.53305892
     atom   23 type  1   force =    -0.08619904   -0.37771837  -31.34922072
     atom   24 type  1   force =    -0.08358890    0.06608051  -31.66564164
     atom   25 type  1   force =    -0.05675044    0.05214530  -31.69113586
     atom   26 type  1   force =     0.30722349    0.30289606  -31.25985848
     atom   27 type  1   force =    -0.25095848    0.45041307  -31.13329694
     atom   28 type  1   force =     1.57076460    0.51641627 -103.96746309
     atom   29 type  1   force =     0.93628724    3.62561034  -97.64716081
     atom   30 type  1   force =    -2.39650254    1.36007988 -103.19207209
     atom   31 type  1   force =     2.95233542   -1.94591919 -102.06624266
     atom   32 type  1   force =    -2.72489150   -3.24031453  -98.02526773
     atom   33 type  1   force =    -0.78383972   -0.34687913 -104.37076846
     atom   34 type  1   force =     0.26723363   -1.32330875 -104.22988165
     atom   35 type  1   force =    -0.02246649    0.26154110 -104.10368617
     atom   36 type  1   force =    -0.23227640    0.97682776 -104.32196605
     atom   37 type  2   force =    -3.32090452   -4.61123165  -56.16554180
     atom   38 type  3   force =     3.78470047    4.87426147  -87.04413538
     atom   39 type  4   force =    -1.11371206   -1.53810760  -15.02675251
     The core correction contribution to forces
     atom    1 type  1   force =     0.00021184   -0.00014630    0.01050617
     atom    2 type  1   force =     0.00000549   -0.00011653    0.01041398
     atom    3 type  1   force =    -0.00019792    0.00008072    0.01066840
     atom    4 type  1   force =    -0.00016127   -0.00001422    0.01029106
     atom    5 type  1   force =     0.00010307   -0.00022380    0.01061138
     atom    6 type  1   force =    -0.00000041   -0.00010104    0.01018898
     atom    7 type  1   force =    -0.00004845   -0.00006754    0.01019534
     atom    8 type  1   force =     0.00015975    0.00037138    0.01070854
     atom    9 type  1   force =    -0.00031818   -0.00001615    0.01038958
     atom   10 type  1   force =     0.00007848    0.00012601   -0.00188238
     atom   11 type  1   force =    -0.00017568    0.00004355   -0.00146485
     atom   12 type  1   force =     0.00017728    0.00005398   -0.00186001
     atom   13 type  1   force =     0.00005064   -0.00005575   -0.00175048
     atom   14 type  1   force =     0.00004126    0.00003317   -0.00185536
     atom   15 type  1   force =    -0.00007500   -0.00007163   -0.00162517
     atom   16 type  1   force =    -0.00004516   -0.00003672   -0.00175453
     atom   17 type  1   force =     0.00011298    0.00000323   -0.00162269
     atom   18 type  1   force =    -0.00003796   -0.00009371   -0.00189746
     atom   19 type  1   force =    -0.00018888   -0.00028282    0.00152704
     atom   20 type  1   force =    -0.00016743   -0.00021237    0.00103290
     atom   21 type  1   force =     0.00074853   -0.00091724    0.00039612
     atom   22 type  1   force =    -0.00029049   -0.00000613    0.00198814
     atom   23 type  1   force =    -0.00013107    0.00150272    0.00017454
     atom   24 type  1   force =     0.00002976    0.00017303    0.00171640
     atom   25 type  1   force =     0.00011823    0.00024904    0.00216265
     atom   26 type  1   force =    -0.00009522    0.00003226    0.00143679
     atom   27 type  1   force =     0.00018361   -0.00017394    0.00064779
     atom   28 type  1   force =     0.00055242    0.00028883   -0.00942069
     atom   29 type  1   force =     0.00292611    0.00993951    0.00443153
     atom   30 type  1   force =    -0.00254467    0.00382491   -0.00776420
     atom   31 type  1   force =     0.00632965   -0.00151518   -0.00555792
     atom   32 type  1   force =    -0.00286464   -0.00276755   -0.00535817
     atom   33 type  1   force =    -0.00262646   -0.00067075   -0.00976840
     atom   34 type  1   force =     0.00076412   -0.00321372   -0.00921807
     atom   35 type  1   force =    -0.00037029   -0.00081894   -0.00979666
     atom   36 type  1   force =    -0.00006689    0.00002634   -0.01068682
     atom   37 type  2   force =     0.00300622    0.00413640   -0.00278307
     atom   38 type  3   force =    -0.01069508   -0.01395092    0.01055591
     atom   39 type  4   force =     0.00000000    0.00000000    0.00000000
     The Hubbard contrib.    to forces
     atom    1 type  1   force =     0.00000000    0.00000000    0.00000000
     atom    2 type  1   force =     0.00000000    0.00000000    0.00000000
     atom    3 type  1   force =     0.00000000    0.00000000    0.00000000
     atom    4 type  1   force =     0.00000000    0.00000000    0.00000000
     atom    5 type  1   force =     0.00000000    0.00000000    0.00000000
     atom    6 type  1   force =     0.00000000    0.00000000    0.00000000
     atom    7 type  1   force =     0.00000000    0.00000000    0.00000000
     atom    8 type  1   force =     0.00000000    0.00000000    0.00000000
     atom    9 type  1   force =     0.00000000    0.00000000    0.00000000
     atom   10 type  1   force =     0.00000000    0.00000000    0.00000000
     atom   11 type  1   force =     0.00000000    0.00000000    0.00000000
     atom   12 type  1   force =     0.00000000    0.00000000    0.00000000
     atom   13 type  1   force =     0.00000000    0.00000000    0.00000000
     atom   14 type  1   force =     0.00000000    0.00000000    0.00000000
     atom   15 type  1   force =     0.00000000    0.00000000    0.00000000
     atom   16 type  1   force =     0.00000000    0.00000000    0.00000000
     atom   17 type  1   force =     0.00000000    0.00000000    0.00000000
     atom   18 type  1   force =     0.00000000    0.00000000    0.00000000
     atom   19 type  1   force =     0.00000000    0.00000000    0.00000000
     atom   20 type  1   force =     0.00000000    0.00000000    0.00000000
     atom   21 type  1   force =     0.00000000    0.00000000    0.00000000
     atom   22 type  1   force =     0.00000000    0.00000000    0.00000000
     atom   23 type  1   force =     0.00000000    0.00000000    0.00000000
     atom   24 type  1   force =     0.00000000    0.00000000    0.00000000
     atom   25 type  1   force =     0.00000000    0.00000000    0.00000000
     atom   26 type  1   force =     0.00000000    0.00000000    0.00000000
     atom   27 type  1   force =     0.00000000    0.00000000    0.00000000
     atom   28 type  1   force =     0.00000000    0.00000000    0.00000000
     atom   29 type  1   force =     0.00000000    0.00000000    0.00000000
     atom   30 type  1   force =     0.00000000    0.00000000    0.00000000
     atom   31 type  1   force =     0.00000000    0.00000000    0.00000000
     atom   32 type  1   force =     0.00000000    0.00000000    0.00000000
     atom   33 type  1   force =     0.00000000    0.00000000    0.00000000
     atom   34 type  1   force =     0.00000000    0.00000000    0.00000000
     atom   35 type  1   force =     0.00000000    0.00000000    0.00000000
     atom   36 type  1   force =     0.00000000    0.00000000    0.00000000
     atom   37 type  2   force =     0.00000000    0.00000000    0.00000000
     atom   38 type  3   force =     0.00000000    0.00000000    0.00000000
     atom   39 type  4   force =     0.00000000    0.00000000    0.00000000
     The SCF correction term to forces
     atom    1 type  1   force =    -0.00000000   -0.00000000    0.00000000
     atom    2 type  1   force =    -0.00000000   -0.00000000    0.00000000
     atom    3 type  1   force =     0.00000000   -0.00000000    0.00000000
     atom    4 type  1   force =    -0.00000000   -0.00000000    0.00000000
     atom    5 type  1   force =     0.00000000    0.00000000    0.00000000
     atom    6 type  1   force =    -0.00000000    0.00000000    0.00000000
     atom    7 type  1   force =     0.00000000    0.00000000    0.00000000
     atom    8 type  1   force =     0.00000000    0.00000000    0.00000000
     atom    9 type  1   force =    -0.00000000    0.00000000    0.00000000
     atom   10 type  1   force =     0.00000000    0.00000000    0.00000000
     atom   11 type  1   force =    -0.00000000   -0.00000000    0.00000000
     atom   12 type  1   force =     0.00000000    0.00000000    0.00000000
     atom   13 type  1   force =    -0.00000000   -0.00000000    0.00000000
     atom   14 type  1   force =    -0.00000000   -0.00000000    0.00000000
     atom   15 type  1   force =     0.00000000   -0.00000000    0.00000000
     atom   16 type  1   force =     0.00000000    0.00000000    0.00000000
     atom   17 type  1   force =     0.00000000    0.00000000    0.00000000
     atom   18 type  1   force =    -0.00000000    0.00000000    0.00000000
     atom   19 type  1   force =    -0.00000000   -0.00000000    0.00000000
     atom   20 type  1   force =    -0.00000000    0.00000000    0.00000000
     atom   21 type  1   force =     0.00000000   -0.00000000    0.00000000
     atom   22 type  1   force =    -0.00000000   -0.00000000    0.00000000
     atom   23 type  1   force =     0.00000000   -0.00000000    0.00000000
     atom   24 type  1   force =    -0.00000000   -0.00000000    0.00000000
     atom   25 type  1   force =     0.00000000    0.00000000    0.00000000
     atom   26 type  1   force =    -0.00000000    0.00000000    0.00000000
     atom   27 type  1   force =     0.00000000    0.00000000    0.00000000
     atom   28 type  1   force =    -0.00000000    0.00000000    0.00000000
     atom   29 type  1   force =     0.00000000    0.00000000    0.00000000
     atom   30 type  1   force =     0.00000000    0.00000000    0.00000000
     atom   31 type  1   force =    -0.00000000    0.00000000    0.00000000
     atom   32 type  1   force =    -0.00000000   -0.00000000    0.00000000
     atom   33 type  1   force =     0.00000000   -0.00000000    0.00000000
     atom   34 type  1   force =    -0.00000000    0.00000000    0.00000000
     atom   35 type  1   force =    -0.00000000   -0.00000000    0.00000000
     atom   36 type  1   force =     0.00000000   -0.00000000    0.00000000
     atom   37 type  2   force =     0.00004669    0.00009128   -0.00006744
     atom   38 type  3   force =     0.00008178    0.00021629    0.00001780
     atom   39 type  4   force =    -0.00000962   -0.00001262   -0.00005412

     Total force =     0.013557     Total SCF correction =     0.000268

     Writing all to output data dir ./pwscf.save/

     init_run     :     10.73s CPU     11.14s WALL (       1 calls)
     electrons    :    674.50s CPU    688.10s WALL (       1 calls)
     forces       :      2.94s CPU      2.99s WALL (       1 calls)

     Called by init_run:
     wfcinit      :      7.27s CPU      7.55s WALL (       1 calls)
     potinit      :      2.38s CPU      2.46s WALL (       1 calls)
     hinit0       :      0.83s CPU      0.85s WALL (       1 calls)

     Called by electrons:
     c_bands      :    568.67s CPU    580.46s WALL (      44 calls)
     sum_band     :     75.58s CPU     76.46s WALL (      44 calls)
     v_of_rho     :      7.86s CPU      8.24s WALL (      45 calls)
     newd         :      2.41s CPU      2.44s WALL (      45 calls)
     PAW_pot      :     11.10s CPU     11.23s WALL (      45 calls)
     mix_rho      :     10.46s CPU     10.64s WALL (      44 calls)
     vdW_kernel   :      1.12s CPU      1.13s WALL (       1 calls)

     Called by c_bands:
     init_us_2    :      5.64s CPU      5.92s WALL (    2340 calls)
     init_us_2:cp :      5.63s CPU      5.91s WALL (    2340 calls)
     cegterg      :    551.86s CPU    562.69s WALL (    1144 calls)

     Called by *egterg:
     cdiaghg      :    175.20s CPU    176.25s WALL (    4036 calls)
     h_psi        :    258.97s CPU    267.82s WALL (    4062 calls)
     s_psi        :     24.36s CPU     24.59s WALL (    4062 calls)
     g_psi        :      0.47s CPU      0.48s WALL (    2892 calls)

     Called by h_psi:
     h_psi:calbec :     39.97s CPU     41.27s WALL (    4062 calls)
     vloc_psi     :    192.39s CPU    199.35s WALL (    4062 calls)
     add_vuspsi   :     25.38s CPU     25.96s WALL (    4062 calls)

     General routines
     calbec       :     58.39s CPU     59.87s WALL (    5310 calls)
     fft          :      5.82s CPU      6.20s WALL (    4082 calls)
     ffts         :      6.36s CPU      6.48s WALL (   16035 calls)
     fftw         :    224.65s CPU    231.71s WALL ( 1187570 calls)
     interpolate  :      0.53s CPU      0.54s WALL (      90 calls)

     Parallel routines

     PWSCF        :  11m36.92s CPU  11m56.03s WALL


   This run was terminated on:  15: 4:45  20Nov2025            

=------------------------------------------------------------------------------=
   JOB DONE.
=------------------------------------------------------------------------------=
