
     Program PWSCF v.7.1 starts on  6Dec2025 at 14:17:24 
        Git branch: heads/qe-7.1
        Last git commit: 48ba0178f8fede6d020eb786884699a9f063f55d-dirty
        Last git commit date: Fri Jan 27 14:22:33 2023 +0000
        Last git commit subject: Merge branch 'fix_hubbard' into 'develop'

     This program is part of the open-source Quantum ESPRESSO suite
     for quantum simulation of materials; please cite
         "P. Giannozzi et al., J. Phys.:Condens. Matter 21 395502 (2009);
         "P. Giannozzi et al., J. Phys.:Condens. Matter 29 465901 (2017);
         "P. Giannozzi et al., J. Chem. Phys. 152 154105 (2020);
          URL http://www.quantum-espresso.org", 
     in publications or presentations arising from this work. More details at
     http://www.quantum-espresso.org/quote

     Parallel version (MPI), running on    96 processors

     MPI processes distributed on     2 nodes
     83111 MiB available memory on the printing compute node when the environment starts

     Reading input from espresso.pwi
Warning: card &CELL ignored
Warning: card / ignored
Warning: card &FCP ignored
Warning: card / ignored
Warning: card &RISM ignored
Warning: card / ignored

     Current dimensions of program PWSCF are:
     Max number of different atomic species (ntypx) = 10
     Max number of k-points (npk) =  40000
     Max angular momentum in pseudopotentials (lmaxx) =  4
     file Co.pbe-n-kjpaw_psl.1.0.0.UPF: wavefunction(s)  4S 3D renormalized
     file C.pbe-n-kjpaw_psl.1.0.0.UPF: wavefunction(s)  2S 2P renormalized
     file O.pbe-nl-kjpaw_psl.1.0.0.UPF: wavefunction(s)  2S 2P renormalized
     file H.pbe-kjpaw_psl.1.0.0.UPF: wavefunction(s)  1S renormalized

     **************************************************************************
     Initializing libbeef V0.1.2 with the BEEF-vdW functional.
     Citation: Wellendorff et al., PRB 85, 235149 (2012).
     **************************************************************************


     IMPORTANT: XC functional enforced from input :
     Exchange-correlation= BEEF-VDW
                           (   1   4  43  14   2   0   0)
     Any further DFT definition will be discarded
     Please, verify this is what you really want


     R & G space division:  proc/nbgrp/npool/nimage =      96
     Subspace diagonalization in iterative solution of the eigenvalue problem:
     one sub-group per band group will be used
     custom distributed-memory algorithm (size of sub-group:  2*  2 procs)


     Parallelization info
     --------------------
     sticks:   dense  smooth     PW     G-vecs:    dense   smooth      PW
     Min          43      23      6                 7829     3049     440
     Max          44      24      7                 7845     3068     465
     Sum        4153    2221    613               752179   293251   42993

     Using Slab Decomposition



     bravais-lattice index     =            0
     lattice parameter (alat)  =      14.1729  a.u.
     unit-cell volume          =    8574.3059 (a.u.)^3
     number of atoms/cell      =           39
     number of atomic types    =            4
     number of electrons       =       335.00
     number of Kohn-Sham states=          202
     kinetic-energy cutoff     =      40.0000  Ry
     charge density cutoff     =     300.0000  Ry
     scf convergence threshold =      1.0E-06
     mixing beta               =       0.7000
     number of iterations used =            8  local-TF  mixing
     Exchange-correlation= BEEF-VDW
                           (   1   4  43  14   2   0   0)

     celldm(1)=  14.172946  celldm(2)=   0.000000  celldm(3)=   0.000000
     celldm(4)=   0.000000  celldm(5)=   0.000000  celldm(6)=   0.000000

     crystal axes: (cart. coord. in units of alat)
               a(1) = (   1.000000   0.000000   0.000000 )  
               a(2) = (   0.500000   0.866025   0.000000 )  
               a(3) = (   0.000000   0.000000   3.477667 )  

     reciprocal axes: (cart. coord. in units 2 pi/alat)
               b(1) = (  1.000000 -0.577350  0.000000 )  
               b(2) = (  0.000000  1.154701  0.000000 )  
               b(3) = (  0.000000  0.000000  0.287549 )  


     PseudoPot. # 1 for Co read from file:
     /users/kbadger1/espresso/pseudo/pslibrary.1.0.0/pbe/PSEUDOPOTENTIALS/Co.pbe-n-kjpaw_psl.1.0.0.UPF
     MD5 check sum: 88af6ec42553d4236c267fdfcb472151
     Pseudo is Projector augmented-wave + core cor, Zval =  9.0
     Generated using 'atomic' code by A. Dal Corso  v.7.0
     Shape of augmentation charge: PSQ
     Using radial grid of 1193 points,  6 beta functions with: 
                l(1) =   0
                l(2) =   0
                l(3) =   1
                l(4) =   1
                l(5) =   2
                l(6) =   2
     Q(r) pseudized with 0 coefficients 


     PseudoPot. # 2 for C  read from file:
     /users/kbadger1/espresso/pseudo/pslibrary.1.0.0/pbe/PSEUDOPOTENTIALS/C.pbe-n-kjpaw_psl.1.0.0.UPF
     MD5 check sum: 6408e75cdba28732cea38a4db8498ce4
     Pseudo is Projector augmented-wave + core cor, Zval =  4.0
     Generated using 'atomic' code by A. Dal Corso  v.7.0
     Shape of augmentation charge: PSQ
     Using radial grid of 1073 points,  4 beta functions with: 
                l(1) =   0
                l(2) =   0
                l(3) =   1
                l(4) =   1
     Q(r) pseudized with 0 coefficients 


     PseudoPot. # 3 for O  read from file:
     /users/kbadger1/espresso/pseudo/pslibrary.1.0.0/pbe/PSEUDOPOTENTIALS/O.pbe-nl-kjpaw_psl.1.0.0.UPF
     MD5 check sum: f0439fab3598ca4e468f064226030408
     Pseudo is Projector augmented-wave + core cor, Zval =  6.0
     Generated using 'atomic' code by A. Dal Corso  v.7.0
     Shape of augmentation charge: PSQ
     Using radial grid of 1095 points,  4 beta functions with: 
                l(1) =   0
                l(2) =   0
                l(3) =   1
                l(4) =   1
     Q(r) pseudized with 0 coefficients 


     PseudoPot. # 4 for H  read from file:
     /users/kbadger1/espresso/pseudo/pslibrary.1.0.0/pbe/PSEUDOPOTENTIALS/H.pbe-kjpaw_psl.1.0.0.UPF
     MD5 check sum: fe4c6fa958fa6d3815bf5d2419cbf1df
     Pseudo is Projector augmented-wave, Zval =  1.0
     Generated using 'atomic' code by A. Dal Corso  v.7.0
     Shape of augmentation charge: PSQ
     Using radial grid of  929 points,  2 beta functions with: 
                l(1) =   0
                l(2) =   0
     Q(r) pseudized with 0 coefficients 


     atomic species   valence    mass     pseudopotential
        Co             9.00    58.93319     Co( 1.00)
        C              4.00    12.01100     C ( 1.00)
        O              6.00    15.99900     O ( 1.00)
        H              1.00     1.00800     H ( 1.00)

     Starting magnetic structure 
     atomic species   magnetization
        Co           1.000
        C            1.000
        O            0.000
        H            0.000

     No symmetry found



   Cartesian axes

     site n.     atom                  positions (alat units)
         1           Co  tau(   1) = (   0.0000000   0.1924501   1.3333333  )
         2           Co  tau(   2) = (   0.3333333   0.1924501   1.3333333  )
         3           Co  tau(   3) = (   0.6666667   0.1924501   1.3333333  )
         4           Co  tau(   4) = (   0.1666667   0.4811252   1.3333333  )
         5           Co  tau(   5) = (   0.5000000   0.4811252   1.3333333  )
         6           Co  tau(   6) = (   0.8333333   0.4811252   1.3333333  )
         7           Co  tau(   7) = (   0.3333333   0.7698004   1.3333333  )
         8           Co  tau(   8) = (   0.6666667   0.7698004   1.3333333  )
         9           Co  tau(   9) = (   1.0000000   0.7698004   1.3333333  )
        10           Co  tau(  10) = (   0.0000000   0.0000000   1.6036667  )
        11           Co  tau(  11) = (   0.3333333   0.0000000   1.6036667  )
        12           Co  tau(  12) = (   0.6666667   0.0000000   1.6036667  )
        13           Co  tau(  13) = (   0.1666667   0.2886751   1.6036667  )
        14           Co  tau(  14) = (   0.5000000   0.2886751   1.6036667  )
        15           Co  tau(  15) = (   0.8333333   0.2886751   1.6036667  )
        16           Co  tau(  16) = (   0.3333333   0.5773503   1.6036667  )
        17           Co  tau(  17) = (   0.6666667   0.5773503   1.6036667  )
        18           Co  tau(  18) = (   1.0000000   0.5773503   1.6036667  )
        19           Co  tau(  19) = (   0.0000000   0.1924501   1.8740000  )
        20           Co  tau(  20) = (   0.3333333   0.1924501   1.8740000  )
        21           Co  tau(  21) = (   0.6666667   0.1924501   1.8740000  )
        22           Co  tau(  22) = (   0.1666667   0.4811252   1.8740000  )
        23           Co  tau(  23) = (   0.5000000   0.4811252   1.8740000  )
        24           Co  tau(  24) = (   0.8333333   0.4811252   1.8740000  )
        25           Co  tau(  25) = (   0.3333333   0.7698004   1.8740000  )
        26           Co  tau(  26) = (   0.6666667   0.7698004   1.8740000  )
        27           Co  tau(  27) = (   1.0000000   0.7698004   1.8740000  )
        28           Co  tau(  28) = (   0.0000000   0.0000000   2.1443333  )
        29           Co  tau(  29) = (   0.3333333   0.0000000   2.1443333  )
        30           Co  tau(  30) = (   0.6666667   0.0000000   2.1443333  )
        31           Co  tau(  31) = (   0.1666667   0.2886751   2.1443333  )
        32           Co  tau(  32) = (   0.5000000   0.2886751   2.1443333  )
        33           Co  tau(  33) = (   0.8333333   0.2886751   2.1443333  )
        34           Co  tau(  34) = (   0.3333333   0.5773503   2.1443333  )
        35           Co  tau(  35) = (   0.6666667   0.5773503   2.1443333  )
        36           Co  tau(  36) = (   1.0000000   0.5773503   2.1443333  )
        37           C   tau(  37) = (   0.1676583  -0.0496593   2.3332760  )
        38           O   tau(  38) = (   0.1652315  -0.0607355   2.4914161  )
        39           H   tau(  39) = (   0.4978730   0.0928273   2.2748712  )

     number of k points=    13  Marzari-Vanderbilt smearing, width (Ry)=  0.0010
                       cart. coord. in units 2pi/alat
        k(    1) = (   0.0000000   0.0000000   0.0000000), wk =   0.0400000
        k(    2) = (   0.0000000   0.2309401   0.0000000), wk =   0.0800000
        k(    3) = (   0.0000000   0.4618802   0.0000000), wk =   0.0800000
        k(    4) = (   0.2000000  -0.1154701   0.0000000), wk =   0.0800000
        k(    5) = (   0.2000000   0.1154701   0.0000000), wk =   0.0800000
        k(    6) = (   0.2000000   0.3464102   0.0000000), wk =   0.0800000
        k(    7) = (   0.2000000  -0.5773503   0.0000000), wk =   0.0800000
        k(    8) = (   0.2000000  -0.3464102   0.0000000), wk =   0.0800000
        k(    9) = (   0.4000000  -0.2309401   0.0000000), wk =   0.0800000
        k(   10) = (   0.4000000   0.0000000   0.0000000), wk =   0.0800000
        k(   11) = (   0.4000000   0.2309401   0.0000000), wk =   0.0800000
        k(   12) = (   0.4000000  -0.6928203   0.0000000), wk =   0.0800000
        k(   13) = (   0.4000000  -0.4618802   0.0000000), wk =   0.0800000

     Dense  grid:   752179 G-vectors     FFT dimensions: (  80,  80, 288)

     Smooth grid:   293251 G-vectors     FFT dimensions: (  60,  60, 200)

     Estimated max dynamical RAM per process >      84.82 MB

     Estimated total dynamical RAM >       7.95 GB
     Generating pointlists ...
     new r_m :   0.0947 (alat units)  1.3425 (a.u.) for type    1
     new r_m :   0.0654 (alat units)  0.9269 (a.u.) for type    2
     new r_m :   0.0654 (alat units)  0.9269 (a.u.) for type    3
     new r_m :   0.0947 (alat units)  1.3425 (a.u.) for type    4

     Initial potential from superposition of free atoms

     starting charge     334.9897, renormalised to     335.0000

     negative rho (up, down):  3.056E-03 4.498E-04


     %%%%%%%%%%%%%%%%%%%%%%%%%%%%%%%%%%%%%%%%%%%%%%%%%%%%%%%%%%%%%%%%%%%%%%%%
     %                                                                      %
     % You are using vdW-DF, which was implemented by the Thonhauser group. %
     % Please cite the following two papers that made this development      %
     % possible and the two reviews that describe the various versions:     %
     %                                                                      %
     %   T. Thonhauser et al., PRL 115, 136402 (2015).                      %
     %   T. Thonhauser et al., PRB 76, 125112 (2007).                       %
     %   K. Berland et al., Rep. Prog. Phys. 78, 066501 (2015).             %
     %   D.C. Langreth et al., J. Phys.: Condens. Matter 21, 084203 (2009). %
     %                                                                      %
     % If you are calculating stress with vdW-DF, please also cite:         %
     %                                                                      %
     %   R. Sabatini et al., J. Phys.: Condens. Matter 24, 424209 (2012).   %
     %   C.M. Frostenson et al., Electr. Struct. 4, 014001 (2022).          %
     %                                                                      %
     %%%%%%%%%%%%%%%%%%%%%%%%%%%%%%%%%%%%%%%%%%%%%%%%%%%%%%%%%%%%%%%%%%%%%%%%

     %%%%%%%%%%%%%%%%%%%%%%%%%%%%%%%%%%%%%%%%%%%%%%%%%%%%%%%%%%%%%%%%%%%%%%%%
     %                                                                      %
     %  vdW-DF NEWS:                                                        %
     %                                                                      %
     %  * vdW-DF3 is now available. DOI: 10.1021/acs.jctc.0c00471           %
     %    use with input_dft = 'vdW-DF3-opt1' or 'vdW-DF3-opt2'             %
     %                                                                      %
     %  * Unscreened and range-separated hybrid vdW-DF-cx functionals       %
     %    DOI: 10.1063/1.4986522 and 10.1088/1361-648X/ac2ad2               %
     %    use with input_dft = 'vdW-DF-cx0'    and 'vdW-DF-ahcx'            %
     %  * Unscreened and range-separated hybrid vdW-DF2-b86r functionals    %
     %    DOI: 10.1063/1.4986522 and DOI: 10.1103/PhysRevX.12.041003        %
     %    use with input_dft = 'vdW-DF2-br0' and 'vdW-DF2-ahbr'             %
     %                                                                      %
     %%%%%%%%%%%%%%%%%%%%%%%%%%%%%%%%%%%%%%%%%%%%%%%%%%%%%%%%%%%%%%%%%%%%%%%%


     Starting wfcs are  333 randomized atomic wfcs
     Checking if some PAW data can be deallocated... 

     total cpu time spent up to now is       11.4 secs

     per-process dynamical memory:   212.4 Mb

     Self-consistent Calculation

     iteration #  1     ecut=    40.00 Ry     beta= 0.70
     Davidson diagonalization with overlap
     ethr =  1.00E-02,  avg # of iterations =  2.0

     negative rho (up, down):  7.103E-05 1.771E-06

     total cpu time spent up to now is       35.1 secs

     total energy              =   -6053.03015700 Ry
     estimated scf accuracy    <      39.05529022 Ry

     total magnetization       =    69.00 Bohr mag/cell
     absolute magnetization    =    81.28 Bohr mag/cell

     iteration #  2     ecut=    40.00 Ry     beta= 0.70
     Davidson diagonalization with overlap
     ethr =  1.00E-02,  avg # of iterations =  1.0

     negative rho (up, down):  2.711E-05 9.596E-07

     total cpu time spent up to now is       55.6 secs

     total energy              =   -6052.59972301 Ry
     estimated scf accuracy    <      24.21855085 Ry

     total magnetization       =    69.00 Bohr mag/cell
     absolute magnetization    =    76.87 Bohr mag/cell

     iteration #  3     ecut=    40.00 Ry     beta= 0.70
     Davidson diagonalization with overlap
     ethr =  7.23E-03,  avg # of iterations =  1.3

     negative rho (up, down):  1.417E-06 2.997E-06

     total cpu time spent up to now is       68.0 secs

     total energy              =   -6055.08177595 Ry
     estimated scf accuracy    <      85.56140570 Ry

     total magnetization       =    66.12 Bohr mag/cell
     absolute magnetization    =    73.63 Bohr mag/cell

     iteration #  4     ecut=    40.00 Ry     beta= 0.70
     Davidson diagonalization with overlap
     ethr =  7.23E-03,  avg # of iterations =  1.0

     negative rho (up, down):  1.613E-06 8.568E-07

     total cpu time spent up to now is       88.1 secs

     total energy              =   -6056.36257512 Ry
     estimated scf accuracy    <       5.35190931 Ry

     total magnetization       =    60.36 Bohr mag/cell
     absolute magnetization    =    70.25 Bohr mag/cell

     iteration #  5     ecut=    40.00 Ry     beta= 0.70
     Davidson diagonalization with overlap
     ethr =  1.60E-03,  avg # of iterations =  1.2

     negative rho (up, down):  1.728E-06 7.813E-07

     total cpu time spent up to now is       99.8 secs

     total energy              =   -6056.34939199 Ry
     estimated scf accuracy    <       1.98030081 Ry

     total magnetization       =    60.41 Bohr mag/cell
     absolute magnetization    =    69.82 Bohr mag/cell

     iteration #  6     ecut=    40.00 Ry     beta= 0.70
     Davidson diagonalization with overlap
     ethr =  5.91E-04,  avg # of iterations =  2.1

     negative rho (up, down):  1.543E-06 8.392E-07

     total cpu time spent up to now is      121.8 secs

     total energy              =   -6056.44646042 Ry
     estimated scf accuracy    <       0.85372063 Ry

     total magnetization       =    59.97 Bohr mag/cell
     absolute magnetization    =    69.07 Bohr mag/cell

     iteration #  7     ecut=    40.00 Ry     beta= 0.70
     Davidson diagonalization with overlap
     ethr =  2.55E-04,  avg # of iterations =  4.5

     negative rho (up, down):  1.488E-06 8.767E-07

     total cpu time spent up to now is      145.3 secs

     total energy              =   -6056.47165651 Ry
     estimated scf accuracy    <       0.64108601 Ry

     total magnetization       =    60.13 Bohr mag/cell
     absolute magnetization    =    68.83 Bohr mag/cell

     iteration #  8     ecut=    40.00 Ry     beta= 0.70
     Davidson diagonalization with overlap
     ethr =  1.91E-04,  avg # of iterations =  1.5

     negative rho (up, down):  1.127E-06 6.257E-07

     total cpu time spent up to now is      157.4 secs

     total energy              =   -6056.49796912 Ry
     estimated scf accuracy    <       0.15697836 Ry

     total magnetization       =    60.15 Bohr mag/cell
     absolute magnetization    =    68.71 Bohr mag/cell

     iteration #  9     ecut=    40.00 Ry     beta= 0.70
     Davidson diagonalization with overlap
     c_bands:  1 eigenvalues not converged
     c_bands:  1 eigenvalues not converged
     ethr =  4.69E-05,  avg # of iterations =  8.7

     negative rho (up, down):  4.738E-07 2.538E-07

     total cpu time spent up to now is      186.9 secs

     total energy              =   -6056.50170433 Ry
     estimated scf accuracy    <       0.11134766 Ry

     total magnetization       =    60.53 Bohr mag/cell
     absolute magnetization    =    68.67 Bohr mag/cell

     iteration # 10     ecut=    40.00 Ry     beta= 0.70
     Davidson diagonalization with overlap
     ethr =  3.32E-05,  avg # of iterations =  3.5

     negative rho (up, down):  5.934E-07 3.281E-07

     total cpu time spent up to now is      209.4 secs

     total energy              =   -6056.50723638 Ry
     estimated scf accuracy    <       0.14937594 Ry

     total magnetization       =    60.77 Bohr mag/cell
     absolute magnetization    =    68.66 Bohr mag/cell

     iteration # 11     ecut=    40.00 Ry     beta= 0.70
     Davidson diagonalization with overlap
     ethr =  3.32E-05,  avg # of iterations =  2.2

     negative rho (up, down):  2.409E-07 1.579E-07

     total cpu time spent up to now is      221.8 secs

     total energy              =   -6056.50528413 Ry
     estimated scf accuracy    <       0.12570442 Ry

     total magnetization       =    60.76 Bohr mag/cell
     absolute magnetization    =    68.61 Bohr mag/cell

     iteration # 12     ecut=    40.00 Ry     beta= 0.70
     Davidson diagonalization with overlap
     ethr =  3.32E-05,  avg # of iterations =  1.6

     negative rho (up, down):  4.248E-06 2.833E-07

     total cpu time spent up to now is      243.3 secs

     total energy              =   -6056.50609447 Ry
     estimated scf accuracy    <       0.07887876 Ry

     total magnetization       =    60.69 Bohr mag/cell
     absolute magnetization    =    68.47 Bohr mag/cell

     iteration # 13     ecut=    40.00 Ry     beta= 0.70
     Davidson diagonalization with overlap
     ethr =  2.35E-05,  avg # of iterations =  2.3

     negative rho (up, down):  2.851E-06 2.365E-07

     total cpu time spent up to now is      264.8 secs

     total energy              =   -6056.50564853 Ry
     estimated scf accuracy    <       0.10670706 Ry

     total magnetization       =    60.75 Bohr mag/cell
     absolute magnetization    =    68.44 Bohr mag/cell

     iteration # 14     ecut=    40.00 Ry     beta= 0.70
     Davidson diagonalization with overlap
     ethr =  2.35E-05,  avg # of iterations =  1.3

     negative rho (up, down):  1.104E-02 8.671E-03

     total cpu time spent up to now is      276.6 secs

     total energy              =   -6056.50200631 Ry
     estimated scf accuracy    <       0.07329461 Ry

     total magnetization       =    60.73 Bohr mag/cell
     absolute magnetization    =    68.39 Bohr mag/cell

     iteration # 15     ecut=    40.00 Ry     beta= 0.70
     Davidson diagonalization with overlap
     ethr =  2.19E-05,  avg # of iterations =  1.2

     negative rho (up, down):  2.249E-02 2.047E-02

     total cpu time spent up to now is      297.3 secs

     total energy              =   -6056.50003576 Ry
     estimated scf accuracy    <       0.03615670 Ry

     total magnetization       =    60.71 Bohr mag/cell
     absolute magnetization    =    68.35 Bohr mag/cell

     iteration # 16     ecut=    40.00 Ry     beta= 0.70
     Davidson diagonalization with overlap
     c_bands:  1 eigenvalues not converged
     c_bands:  2 eigenvalues not converged
     ethr =  1.08E-05,  avg # of iterations =  5.7

     negative rho (up, down):  2.545E-02 2.365E-02

     total cpu time spent up to now is      313.4 secs

     total energy              =   -6056.50028224 Ry
     estimated scf accuracy    <       0.03727656 Ry

     total magnetization       =    60.69 Bohr mag/cell
     absolute magnetization    =    68.33 Bohr mag/cell

     iteration # 17     ecut=    40.00 Ry     beta= 0.70
     Davidson diagonalization with overlap
     ethr =  1.08E-05,  avg # of iterations =  1.5

     negative rho (up, down):  2.483E-02 2.301E-02

     total cpu time spent up to now is      334.4 secs

     total energy              =   -6056.50120694 Ry
     estimated scf accuracy    <       0.01562784 Ry

     total magnetization       =    60.74 Bohr mag/cell
     absolute magnetization    =    68.35 Bohr mag/cell

     iteration # 18     ecut=    40.00 Ry     beta= 0.70
     Davidson diagonalization with overlap
     c_bands:  2 eigenvalues not converged
     c_bands:  2 eigenvalues not converged
     ethr =  4.67E-06,  avg # of iterations =  6.8

     negative rho (up, down):  8.398E-03 7.255E-03

     total cpu time spent up to now is      360.5 secs

     total energy              =   -6056.50140588 Ry
     estimated scf accuracy    <       0.01656230 Ry

     total magnetization       =    60.75 Bohr mag/cell
     absolute magnetization    =    68.33 Bohr mag/cell

     iteration # 19     ecut=    40.00 Ry     beta= 0.70
     Davidson diagonalization with overlap
     ethr =  4.67E-06,  avg # of iterations =  2.0

     negative rho (up, down):  1.569E-02 1.438E-02

     total cpu time spent up to now is      372.7 secs

     total energy              =   -6056.50102042 Ry
     estimated scf accuracy    <       0.00773361 Ry

     total magnetization       =    60.75 Bohr mag/cell
     absolute magnetization    =    68.35 Bohr mag/cell

     iteration # 20     ecut=    40.00 Ry     beta= 0.70
     Davidson diagonalization with overlap
     c_bands:  1 eigenvalues not converged
     c_bands:  1 eigenvalues not converged
     ethr =  2.31E-06,  avg # of iterations =  3.7

     negative rho (up, down):  9.634E-03 9.050E-03

     total cpu time spent up to now is      395.0 secs

     total energy              =   -6056.50083626 Ry
     estimated scf accuracy    <       0.01169102 Ry

     total magnetization       =    60.73 Bohr mag/cell
     absolute magnetization    =    68.31 Bohr mag/cell

     iteration # 21     ecut=    40.00 Ry     beta= 0.70
     Davidson diagonalization with overlap
     ethr =  2.31E-06,  avg # of iterations =  2.2

     negative rho (up, down):  1.132E-02 1.088E-02

     total cpu time spent up to now is      416.6 secs

     total energy              =   -6056.50117343 Ry
     estimated scf accuracy    <       0.00548909 Ry

     total magnetization       =    60.74 Bohr mag/cell
     absolute magnetization    =    68.30 Bohr mag/cell

     iteration # 22     ecut=    40.00 Ry     beta= 0.70
     Davidson diagonalization with overlap
     ethr =  1.64E-06,  avg # of iterations =  2.0

     negative rho (up, down):  8.550E-03 8.135E-03

     total cpu time spent up to now is      429.8 secs

     total energy              =   -6056.50151329 Ry
     estimated scf accuracy    <       0.00270828 Ry

     total magnetization       =    60.74 Bohr mag/cell
     absolute magnetization    =    68.30 Bohr mag/cell

     iteration # 23     ecut=    40.00 Ry     beta= 0.70
     Davidson diagonalization with overlap
     ethr =  8.08E-07,  avg # of iterations =  2.5

     negative rho (up, down):  7.596E-03 7.055E-03

     total cpu time spent up to now is      451.2 secs

     total energy              =   -6056.50157857 Ry
     estimated scf accuracy    <       0.00232343 Ry

     total magnetization       =    60.75 Bohr mag/cell
     absolute magnetization    =    68.31 Bohr mag/cell

     iteration # 24     ecut=    40.00 Ry     beta= 0.70
     Davidson diagonalization with overlap
     ethr =  6.94E-07,  avg # of iterations =  2.1

     negative rho (up, down):  5.925E-03 5.183E-03

     total cpu time spent up to now is      463.6 secs

     total energy              =   -6056.50120326 Ry
     estimated scf accuracy    <       0.00263332 Ry

     total magnetization       =    60.76 Bohr mag/cell
     absolute magnetization    =    68.32 Bohr mag/cell

     iteration # 25     ecut=    40.00 Ry     beta= 0.70
     Davidson diagonalization with overlap
     ethr =  6.94E-07,  avg # of iterations =  1.6

     negative rho (up, down):  5.401E-03 4.691E-03

     total cpu time spent up to now is      485.7 secs

     total energy              =   -6056.50161313 Ry
     estimated scf accuracy    <       0.00119863 Ry

     total magnetization       =    60.76 Bohr mag/cell
     absolute magnetization    =    68.32 Bohr mag/cell

     iteration # 26     ecut=    40.00 Ry     beta= 0.70
     Davidson diagonalization with overlap
     ethr =  3.58E-07,  avg # of iterations =  2.7

     negative rho (up, down):  4.920E-03 4.094E-03

     total cpu time spent up to now is      507.4 secs

     total energy              =   -6056.50171348 Ry
     estimated scf accuracy    <       0.00097589 Ry

     total magnetization       =    60.76 Bohr mag/cell
     absolute magnetization    =    68.31 Bohr mag/cell

     iteration # 27     ecut=    40.00 Ry     beta= 0.70
     Davidson diagonalization with overlap
     ethr =  2.91E-07,  avg # of iterations =  1.7

     negative rho (up, down):  4.080E-03 3.187E-03

     total cpu time spent up to now is      519.6 secs

     total energy              =   -6056.50173764 Ry
     estimated scf accuracy    <       0.00042268 Ry

     total magnetization       =    60.76 Bohr mag/cell
     absolute magnetization    =    68.31 Bohr mag/cell

     iteration # 28     ecut=    40.00 Ry     beta= 0.70
     Davidson diagonalization with overlap
     c_bands:  1 eigenvalues not converged
     ethr =  1.26E-07,  avg # of iterations =  5.5

     negative rho (up, down):  3.035E-03 2.131E-03

     total cpu time spent up to now is      545.3 secs

     total energy              =   -6056.50171710 Ry
     estimated scf accuracy    <       0.00020670 Ry

     total magnetization       =    60.76 Bohr mag/cell
     absolute magnetization    =    68.31 Bohr mag/cell

     iteration # 29     ecut=    40.00 Ry     beta= 0.70
     Davidson diagonalization with overlap
     ethr =  6.17E-08,  avg # of iterations =  2.3

     negative rho (up, down):  3.021E-03 1.991E-03

     total cpu time spent up to now is      566.7 secs

     total energy              =   -6056.50177912 Ry
     estimated scf accuracy    <       0.00017505 Ry

     total magnetization       =    60.76 Bohr mag/cell
     absolute magnetization    =    68.31 Bohr mag/cell

     iteration # 30     ecut=    40.00 Ry     beta= 0.70
     Davidson diagonalization with overlap
     ethr =  5.23E-08,  avg # of iterations =  1.5

     negative rho (up, down):  2.989E-03 1.920E-03

     total cpu time spent up to now is      578.6 secs

     total energy              =   -6056.50180052 Ry
     estimated scf accuracy    <       0.00006110 Ry

     total magnetization       =    60.76 Bohr mag/cell
     absolute magnetization    =    68.31 Bohr mag/cell

     iteration # 31     ecut=    40.00 Ry     beta= 0.70
     Davidson diagonalization with overlap
     ethr =  1.82E-08,  avg # of iterations =  5.7

     negative rho (up, down):  2.919E-03 1.820E-03

     total cpu time spent up to now is      604.2 secs

     total energy              =   -6056.50181208 Ry
     estimated scf accuracy    <       0.00001488 Ry

     total magnetization       =    60.76 Bohr mag/cell
     absolute magnetization    =    68.30 Bohr mag/cell

     iteration # 32     ecut=    40.00 Ry     beta= 0.70
     Davidson diagonalization with overlap
     ethr =  4.44E-09,  avg # of iterations =  5.8

     negative rho (up, down):  2.762E-03 1.644E-03

     total cpu time spent up to now is      629.9 secs

     total energy              =   -6056.50181077 Ry
     estimated scf accuracy    <       0.00003377 Ry

     total magnetization       =    60.76 Bohr mag/cell
     absolute magnetization    =    68.30 Bohr mag/cell

     iteration # 33     ecut=    40.00 Ry     beta= 0.70
     Davidson diagonalization with overlap
     ethr =  4.44E-09,  avg # of iterations =  1.9

     negative rho (up, down):  2.648E-03 1.528E-03

     total cpu time spent up to now is      642.4 secs

     total energy              =   -6056.50181495 Ry
     estimated scf accuracy    <       0.00002769 Ry

     total magnetization       =    60.76 Bohr mag/cell
     absolute magnetization    =    68.30 Bohr mag/cell

     iteration # 34     ecut=    40.00 Ry     beta= 0.70
     Davidson diagonalization with overlap
     ethr =  4.44E-09,  avg # of iterations =  1.6

     negative rho (up, down):  2.670E-03 1.573E-03

     total cpu time spent up to now is      664.3 secs

     total energy              =   -6056.50181808 Ry
     estimated scf accuracy    <       0.00001380 Ry

     total magnetization       =    60.76 Bohr mag/cell
     absolute magnetization    =    68.30 Bohr mag/cell

     iteration # 35     ecut=    40.00 Ry     beta= 0.70
     Davidson diagonalization with overlap
     ethr =  4.12E-09,  avg # of iterations =  1.9

     negative rho (up, down):  2.639E-03 1.554E-03

     total cpu time spent up to now is      685.9 secs

     total energy              =   -6056.50181881 Ry
     estimated scf accuracy    <       0.00000874 Ry

     total magnetization       =    60.76 Bohr mag/cell
     absolute magnetization    =    68.30 Bohr mag/cell

     iteration # 36     ecut=    40.00 Ry     beta= 0.70
     Davidson diagonalization with overlap
     ethr =  2.61E-09,  avg # of iterations =  1.6

     negative rho (up, down):  2.596E-03 1.517E-03

     total cpu time spent up to now is      697.9 secs

     total energy              =   -6056.50181912 Ry
     estimated scf accuracy    <       0.00000458 Ry

     total magnetization       =    60.76 Bohr mag/cell
     absolute magnetization    =    68.30 Bohr mag/cell

     iteration # 37     ecut=    40.00 Ry     beta= 0.70
     Davidson diagonalization with overlap
     ethr =  1.37E-09,  avg # of iterations =  3.1

     negative rho (up, down):  2.492E-03 1.399E-03

     total cpu time spent up to now is      720.1 secs

     total energy              =   -6056.50181919 Ry
     estimated scf accuracy    <       0.00000247 Ry

     total magnetization       =    60.76 Bohr mag/cell
     absolute magnetization    =    68.30 Bohr mag/cell

     iteration # 38     ecut=    40.00 Ry     beta= 0.70
     Davidson diagonalization with overlap
     ethr =  7.36E-10,  avg # of iterations =  3.4

     negative rho (up, down):  2.495E-03 1.403E-03

     total cpu time spent up to now is      734.7 secs

     total energy              =   -6056.50181913 Ry
     estimated scf accuracy    <       0.00000200 Ry

     total magnetization       =    60.76 Bohr mag/cell
     absolute magnetization    =    68.29 Bohr mag/cell

     iteration # 39     ecut=    40.00 Ry     beta= 0.70
     Davidson diagonalization with overlap
     ethr =  5.96E-10,  avg # of iterations =  2.3

     negative rho (up, down):  2.472E-03 1.385E-03

     total cpu time spent up to now is      756.5 secs

     total energy              =   -6056.50181907 Ry
     estimated scf accuracy    <       0.00000785 Ry

     total magnetization       =    60.76 Bohr mag/cell
     absolute magnetization    =    68.29 Bohr mag/cell

     iteration # 40     ecut=    40.00 Ry     beta= 0.70
     Davidson diagonalization with overlap
     ethr =  5.96E-10,  avg # of iterations =  1.3

     negative rho (up, down):  2.256E-03 1.163E-03

     Magnetic moment per site  (integrated on atomic sphere of radius R)
     atom   1 (R=0.095)  charge=  5.8753  magn=  1.6974
     atom   2 (R=0.095)  charge=  5.8759  magn=  1.6924
     atom   3 (R=0.095)  charge=  5.8751  magn=  1.7023
     atom   4 (R=0.095)  charge=  5.8752  magn=  1.7078
     atom   5 (R=0.095)  charge=  5.8754  magn=  1.7003
     atom   6 (R=0.095)  charge=  5.8753  magn=  1.7003
     atom   7 (R=0.095)  charge=  5.8748  magn=  1.7010
     atom   8 (R=0.095)  charge=  5.8761  magn=  1.6927
     atom   9 (R=0.095)  charge=  5.8753  magn=  1.6981
     atom  10 (R=0.095)  charge=  5.8731  magn=  1.6318
     atom  11 (R=0.095)  charge=  5.8741  magn=  1.6300
     atom  12 (R=0.095)  charge=  5.8740  magn=  1.6380
     atom  13 (R=0.095)  charge=  5.8732  magn=  1.6410
     atom  14 (R=0.095)  charge=  5.8746  magn=  1.6355
     atom  15 (R=0.095)  charge=  5.8739  magn=  1.6378
     atom  16 (R=0.095)  charge=  5.8734  magn=  1.6318
     atom  17 (R=0.095)  charge=  5.8738  magn=  1.6374
     atom  18 (R=0.095)  charge=  5.8743  magn=  1.6324
     atom  19 (R=0.095)  charge=  5.8730  magn=  1.6177
     atom  20 (R=0.095)  charge=  5.8743  magn=  1.6328
     atom  21 (R=0.095)  charge=  5.8726  magn=  1.6582
     atom  22 (R=0.095)  charge=  5.8734  magn=  1.6318
     atom  23 (R=0.095)  charge=  5.8731  magn=  1.6086
     atom  24 (R=0.095)  charge=  5.8736  magn=  1.6243
     atom  25 (R=0.095)  charge=  5.8718  magn=  1.5986
     atom  26 (R=0.095)  charge=  5.8712  magn=  1.6581
     atom  27 (R=0.095)  charge=  5.8741  magn=  1.6318
     atom  28 (R=0.095)  charge=  5.8886  magn=  1.3389
     atom  29 (R=0.095)  charge=  5.8942  magn=  1.1541
     atom  30 (R=0.095)  charge=  5.8749  magn=  1.6029
     atom  31 (R=0.095)  charge=  5.8763  magn=  1.7413
     atom  32 (R=0.095)  charge=  5.8757  magn=  1.6206
     atom  33 (R=0.095)  charge=  5.8729  magn=  1.7319
     atom  34 (R=0.095)  charge=  5.8724  magn=  1.7386
     atom  35 (R=0.095)  charge=  5.8815  magn=  1.6094
     atom  36 (R=0.095)  charge=  5.8734  magn=  1.7492
     atom  37 (R=0.065)  charge=  1.0438  magn= -0.0204
     atom  38 (R=0.065)  charge=  2.9150  magn= -0.0423
     atom  39 (R=0.095)  charge=  0.9374  magn= -0.0150

     total cpu time spent up to now is      776.6 secs

     End of self-consistent calculation

 ------ SPIN UP ------------


          k = 0.0000 0.0000 0.0000 ( 36693 PWs)   bands (ev):

   -21.9776  -9.1690  -7.6811  -6.5757  -5.8297  -5.6798  -5.3856  -5.2322
    -4.8427  -4.8346  -4.8304  -4.8140  -4.8013  -4.7878  -4.6503  -4.3898
    -4.2981  -4.2973  -4.2703  -4.2632  -4.2407  -4.1013  -3.7788  -3.7780
    -3.7683  -3.7560  -3.7285  -3.6946  -3.6426  -3.6406  -3.6376  -3.6309
    -3.6078  -3.5636  -3.5625  -3.4725  -3.2620  -3.2534  -3.2513  -3.2491
    -3.1923  -3.1886  -3.1860  -3.1824  -3.1773  -3.1719  -3.1603  -3.1033
    -3.0263  -3.0221  -2.9555  -2.9492  -2.9469  -2.9410  -2.9311  -2.9183
    -2.9143  -2.9106  -2.8881  -2.8656  -2.8168  -2.8089  -2.8074  -2.8011
    -2.7394  -2.6035  -2.3156  -2.2800  -2.2755  -2.2750  -2.2707  -2.1653
    -2.1463  -2.1341  -2.1325  -2.1178  -2.1054  -2.1011  -2.0897  -2.0855
    -2.0487  -2.0426  -2.0207  -2.0020  -1.9918  -1.9879  -1.9734  -1.9644
    -1.9599  -1.9532  -1.9484  -1.9397  -1.9317  -1.9195  -1.9156  -1.9033
    -1.9026  -1.8986  -1.8973  -1.8950  -1.8938  -1.8910  -1.8877  -1.8772
    -1.8662  -1.8571  -1.8381  -1.8291  -1.8250  -1.7444  -1.7417  -1.6600
    -1.5366  -1.4557  -1.4516  -1.4478  -1.4473  -1.4359  -1.4208  -1.4077
    -1.4040  -1.4016  -1.3931  -1.3629  -1.3582  -1.2288  -1.2211  -1.2099
    -1.1985  -1.1466  -1.0834  -1.0595  -1.0436  -1.0198  -0.9950  -0.9726
    -0.9720  -0.9622  -0.9553  -0.9409  -0.9054  -0.8813  -0.8413  -0.8244
    -0.7511  -0.7088  -0.7056  -0.7036  -0.6862  -0.6663  -0.6543  -0.6436
    -0.6403  -0.6361  -0.6342  -0.6277  -0.6255  -0.6237  -0.6160  -0.6064
    -0.6030  -0.5969  -0.5863  -0.5738  -0.5714  -0.5637  -0.5545  -0.5479
    -0.5368  -0.5318  -0.5244  -0.5121  -0.5097  -0.5017  -0.4956  -0.4892
    -0.4862  -0.4803  -0.4672  -0.4551  -0.4349  -0.4103  -0.4056  -0.3974
    -0.3958  -0.3888  -0.3838  -0.3791  -0.3731  -0.3402  -0.3201  -0.3101
    -0.3078  -0.3042  -0.2469  -0.2429  -0.2383  -0.2307  -0.2181  -0.2032
     0.5083   0.7021

          k = 0.0000 0.2309 0.0000 ( 36641 PWs)   bands (ev):

   -21.9776  -9.1585  -7.5405  -6.4835  -5.8626  -5.6987  -5.5314  -5.3596
    -5.2152  -5.0548  -5.0298  -4.6499  -4.5078  -4.4866  -4.4743  -4.4175
    -4.3323  -4.3027  -4.2350  -4.1792  -4.1554  -4.0881  -3.8839  -3.7811
    -3.7737  -3.7032  -3.6636  -3.6465  -3.6446  -3.6338  -3.6321  -3.6080
    -3.5914  -3.5369  -3.5165  -3.4996  -3.4961  -3.4365  -3.2768  -3.2709
    -3.2595  -3.2158  -3.2116  -3.2042  -3.1712  -3.1083  -3.0808  -3.0627
    -3.0467  -3.0432  -3.0267  -3.0036  -2.9589  -2.9060  -2.9006  -2.8723
    -2.8403  -2.8292  -2.8038  -2.7985  -2.7750  -2.7388  -2.7323  -2.7210
    -2.6956  -2.6027  -2.3980  -2.3869  -2.3671  -2.3426  -2.3317  -2.2448
    -2.2376  -2.2221  -2.2155  -2.2076  -2.2008  -2.1893  -2.1678  -2.1131
    -2.1059  -2.0892  -2.0725  -2.0369  -2.0276  -2.0240  -2.0149  -2.0060
    -1.9937  -1.9902  -1.9845  -1.9803  -1.9724  -1.9657  -1.9412  -1.8905
    -1.8783  -1.8683  -1.8137  -1.8030  -1.7940  -1.7914  -1.7841  -1.7818
    -1.7699  -1.7624  -1.7546  -1.7476  -1.7445  -1.7204  -1.7105  -1.6905
    -1.6823  -1.6754  -1.6314  -1.5872  -1.5774  -1.4840  -1.4763  -1.4718
    -1.4647  -1.4440  -1.4381  -1.4307  -1.4078  -1.3961  -1.3649  -1.2764
    -1.2540  -1.1960  -1.1877  -1.1677  -1.1574  -1.1019  -1.0868  -1.0805
    -1.0534  -0.9908  -0.9769  -0.9656  -0.9436  -0.9360  -0.9022  -0.8986
    -0.8715  -0.8615  -0.8538  -0.8336  -0.8186  -0.7950  -0.7890  -0.7859
    -0.7212  -0.7129  -0.7066  -0.7006  -0.6873  -0.6584  -0.6440  -0.6315
    -0.6276  -0.6234  -0.6167  -0.6051  -0.5930  -0.5802  -0.5706  -0.5578
    -0.5182  -0.5042  -0.4930  -0.4713  -0.4456  -0.4365  -0.4125  -0.3843
    -0.3804  -0.3655  -0.3623  -0.3519  -0.3322  -0.3258  -0.3184  -0.2854
    -0.2543  -0.2447  -0.2307  -0.2126  -0.2042  -0.1896  -0.1800  -0.1676
    -0.1131  -0.0394   0.0982   0.1408   0.1827   0.2720   0.3933   0.4101
     0.4529   0.7576

          k = 0.0000 0.4619 0.0000 ( 36606 PWs)   bands (ev):

   -21.9776  -9.1419  -7.1271  -6.4997  -6.2042  -5.8454  -5.5864  -5.3786
    -5.2519  -5.1480  -5.1371  -4.9384  -4.3382  -4.3164  -4.2981  -4.2433
    -4.2111  -4.1260  -4.1241  -4.0442  -3.9900  -3.9842  -3.9752  -3.8279
    -3.8075  -3.8045  -3.7955  -3.7934  -3.7288  -3.6913  -3.6857  -3.5683
    -3.5220  -3.5139  -3.4952  -3.4801  -3.4701  -3.4403  -3.3665  -3.3608
    -3.3454  -3.3390  -3.2788  -3.2127  -3.1413  -3.0993  -3.0488  -3.0297
    -3.0062  -2.9795  -2.9609  -2.9440  -2.9374  -2.9259  -2.9112  -2.8584
    -2.8476  -2.8257  -2.7938  -2.7674  -2.6565  -2.6443  -2.6231  -2.6103
    -2.5535  -2.5309  -2.5063  -2.4950  -2.4815  -2.4141  -2.3648  -2.3619
    -2.3570  -2.3458  -2.3431  -2.3188  -2.3085  -2.2891  -2.2754  -2.2547
    -2.2342  -2.2013  -2.1813  -2.1585  -2.1374  -2.1096  -2.0664  -2.0462
    -2.0289  -2.0128  -1.9982  -1.9790  -1.9654  -1.9327  -1.9213  -1.9136
    -1.9010  -1.8888  -1.8716  -1.8512  -1.8478  -1.8394  -1.8362  -1.8104
    -1.7927  -1.7600  -1.7425  -1.7301  -1.6629  -1.6434  -1.6265  -1.6215
    -1.6061  -1.5756  -1.5452  -1.5235  -1.5154  -1.4953  -1.4890  -1.4832
    -1.4799  -1.4698  -1.4588  -1.4500  -1.4466  -1.4378  -1.4262  -1.4152
    -1.4120  -1.3564  -1.2953  -1.2872  -1.2651  -1.2585  -1.2267  -1.2198
    -1.1918  -1.1354  -1.1177  -1.1081  -1.0676  -1.0534  -1.0164  -0.9808
    -0.9745  -0.9636  -0.9289  -0.9150  -0.8984  -0.8836  -0.8586  -0.7838
    -0.7469  -0.7416  -0.7219  -0.7074  -0.7022  -0.6946  -0.6885  -0.6770
    -0.6712  -0.6399  -0.5611  -0.5566  -0.5430  -0.5326  -0.5243  -0.5177
    -0.5090  -0.4889  -0.4721  -0.4627  -0.4611  -0.4316  -0.3767  -0.3582
    -0.3512  -0.3329  -0.3158  -0.2577  -0.2522  -0.2266  -0.2187  -0.1770
    -0.1526  -0.1383  -0.1333  -0.1197  -0.1082  -0.1034  -0.0989  -0.0604
    -0.0065   0.0085   0.4556   0.5872   0.8851   1.0923   1.1253   1.2869
     1.4679   1.4885

          k = 0.2000-0.1155 0.0000 ( 36641 PWs)   bands (ev):

   -21.9776  -9.1572  -7.5415  -6.4847  -5.8773  -5.7005  -5.5272  -5.3474
    -5.2038  -5.0630  -5.0336  -4.6313  -4.5201  -4.4862  -4.4767  -4.4170
    -4.3445  -4.2963  -4.2286  -4.1921  -4.1522  -4.0750  -3.8903  -3.7803
    -3.7707  -3.7020  -3.6654  -3.6490  -3.6443  -3.6386  -3.6287  -3.6054
    -3.5888  -3.5411  -3.5168  -3.5017  -3.4945  -3.4376  -3.2823  -3.2725
    -3.2628  -3.2173  -3.2121  -3.1963  -3.1734  -3.1147  -3.0791  -3.0616
    -3.0466  -3.0396  -3.0323  -2.9979  -2.9575  -2.9086  -2.8991  -2.8755
    -2.8359  -2.8295  -2.8016  -2.7978  -2.7730  -2.7366  -2.7315  -2.7256
    -2.6901  -2.6037  -2.4000  -2.3853  -2.3608  -2.3436  -2.3319  -2.2449
    -2.2392  -2.2251  -2.2188  -2.2057  -2.2012  -2.1858  -2.1670  -2.1109
    -2.1077  -2.0879  -2.0745  -2.0366  -2.0330  -2.0252  -2.0120  -2.0035
    -1.9939  -1.9928  -1.9877  -1.9830  -1.9694  -1.9646  -1.9304  -1.8867
    -1.8807  -1.8632  -1.8162  -1.8075  -1.7989  -1.7888  -1.7823  -1.7801
    -1.7711  -1.7640  -1.7621  -1.7470  -1.7455  -1.7228  -1.7091  -1.6921
    -1.6825  -1.6696  -1.6380  -1.5951  -1.5756  -1.4930  -1.4733  -1.4696
    -1.4557  -1.4507  -1.4399  -1.4343  -1.4174  -1.3867  -1.3323  -1.2846
    -1.2462  -1.1996  -1.1889  -1.1693  -1.1469  -1.1177  -1.0930  -1.0792
    -1.0368  -1.0012  -0.9902  -0.9712  -0.9452  -0.9412  -0.9071  -0.8972
    -0.8765  -0.8579  -0.8432  -0.8243  -0.8148  -0.7989  -0.7915  -0.7789
    -0.7188  -0.7099  -0.7038  -0.7000  -0.6776  -0.6562  -0.6409  -0.6350
    -0.6298  -0.6242  -0.6192  -0.6088  -0.5957  -0.5806  -0.5709  -0.5515
    -0.5116  -0.4973  -0.4885  -0.4738  -0.4519  -0.4414  -0.4053  -0.3854
    -0.3771  -0.3688  -0.3585  -0.3531  -0.3339  -0.3251  -0.3183  -0.2797
    -0.2574  -0.2427  -0.2321  -0.2124  -0.2033  -0.1925  -0.1822  -0.1628
    -0.1129  -0.0486   0.0887   0.1400   0.1749   0.2646   0.3799   0.4124
     0.4474   0.7992

          k = 0.2000 0.1155 0.0000 ( 36641 PWs)   bands (ev):

   -21.9776  -9.1563  -7.5428  -6.4874  -5.9139  -5.6800  -5.4682  -5.3954
    -5.1876  -5.0630  -5.0488  -4.6009  -4.5182  -4.4835  -4.4793  -4.4157
    -4.3446  -4.3197  -4.2299  -4.1933  -4.1583  -4.0580  -3.8919  -3.7863
    -3.7616  -3.6922  -3.6588  -3.6511  -3.6450  -3.6422  -3.6323  -3.6195
    -3.5616  -3.5488  -3.5290  -3.5010  -3.4956  -3.4391  -3.2879  -3.2692
    -3.2666  -3.2162  -3.2153  -3.2012  -3.1669  -3.1144  -3.0835  -3.0564
    -3.0450  -3.0403  -3.0348  -3.0073  -2.9522  -2.9070  -2.8987  -2.8773
    -2.8420  -2.8185  -2.8038  -2.7977  -2.7851  -2.7354  -2.7330  -2.7202
    -2.6720  -2.6084  -2.3984  -2.3824  -2.3605  -2.3456  -2.3335  -2.2448
    -2.2381  -2.2321  -2.2183  -2.2094  -2.2000  -2.1885  -2.1488  -2.1111
    -2.1073  -2.0892  -2.0740  -2.0345  -2.0300  -2.0281  -2.0230  -2.0015
    -1.9961  -1.9923  -1.9872  -1.9837  -1.9708  -1.9599  -1.9377  -1.8895
    -1.8731  -1.8637  -1.8168  -1.8098  -1.8007  -1.7921  -1.7848  -1.7794
    -1.7729  -1.7665  -1.7602  -1.7465  -1.7443  -1.7387  -1.6996  -1.6948
    -1.6812  -1.6750  -1.6382  -1.5988  -1.5808  -1.5048  -1.4764  -1.4681
    -1.4546  -1.4500  -1.4413  -1.4335  -1.4193  -1.3815  -1.3023  -1.2862
    -1.2442  -1.1953  -1.1892  -1.1703  -1.1464  -1.1316  -1.0905  -1.0835
    -1.0359  -0.9951  -0.9883  -0.9651  -0.9443  -0.9424  -0.9080  -0.9004
    -0.8750  -0.8593  -0.8461  -0.8246  -0.8167  -0.7997  -0.7953  -0.7787
    -0.7184  -0.7087  -0.7036  -0.6953  -0.6873  -0.6564  -0.6420  -0.6334
    -0.6322  -0.6243  -0.6168  -0.5975  -0.5936  -0.5813  -0.5711  -0.5604
    -0.5119  -0.4920  -0.4844  -0.4741  -0.4559  -0.4409  -0.4044  -0.3860
    -0.3772  -0.3693  -0.3593  -0.3515  -0.3335  -0.3242  -0.3189  -0.2801
    -0.2513  -0.2444  -0.2312  -0.2116  -0.2045  -0.1897  -0.1669  -0.1573
    -0.1120  -0.0775   0.1084   0.1390   0.1771   0.2550   0.3867   0.4092
     0.4428   0.7360

          k = 0.2000 0.3464 0.0000 ( 36608 PWs)   bands (ev):

   -21.9776  -9.1426  -7.2665  -6.3535  -6.0647  -5.9339  -5.6994  -5.4834
    -5.3595  -5.1733  -4.7595  -4.6415  -4.4974  -4.4818  -4.3387  -4.2699
    -4.2656  -4.1685  -4.1607  -4.0795  -4.0402  -3.9897  -3.8946  -3.8740
    -3.8223  -3.7781  -3.6839  -3.6720  -3.6417  -3.6395  -3.6296  -3.6184
    -3.5877  -3.5781  -3.5377  -3.5172  -3.4782  -3.4439  -3.4330  -3.3906
    -3.2949  -3.2445  -3.2117  -3.1874  -3.1667  -3.1527  -3.0982  -3.0505
    -3.0121  -2.9815  -2.9747  -2.9586  -2.9425  -2.9146  -2.9004  -2.8852
    -2.8732  -2.8438  -2.7556  -2.7167  -2.6860  -2.6653  -2.6526  -2.6340
    -2.6056  -2.5623  -2.4981  -2.4320  -2.4159  -2.3860  -2.3748  -2.3406
    -2.3279  -2.3197  -2.3121  -2.2906  -2.2746  -2.2601  -2.2509  -2.2452
    -2.2340  -2.1827  -2.1575  -2.1238  -2.0658  -2.0607  -2.0377  -2.0236
    -2.0179  -1.9947  -1.9640  -1.9574  -1.9411  -1.9240  -1.9058  -1.9011
    -1.8947  -1.8863  -1.8828  -1.8593  -1.8517  -1.8438  -1.8303  -1.8178
    -1.8012  -1.7874  -1.7597  -1.7224  -1.7135  -1.6770  -1.6723  -1.6646
    -1.6510  -1.6453  -1.6122  -1.5770  -1.5615  -1.5546  -1.5353  -1.5029
    -1.4996  -1.4901  -1.4746  -1.4589  -1.4392  -1.4275  -1.4195  -1.3650
    -1.3567  -1.3295  -1.3130  -1.2359  -1.2152  -1.1901  -1.1712  -1.0946
    -1.0744  -1.0555  -1.0433  -1.0409  -1.0328  -1.0270  -0.9982  -0.9909
    -0.9744  -0.9586  -0.9374  -0.8978  -0.8903  -0.8670  -0.8599  -0.8443
    -0.8154  -0.8004  -0.7883  -0.7731  -0.7640  -0.7448  -0.6247  -0.6048
    -0.5972  -0.5835  -0.5656  -0.5544  -0.5404  -0.5324  -0.5164  -0.5076
    -0.4929  -0.4690  -0.4431  -0.4314  -0.4056  -0.3961  -0.3568  -0.3384
    -0.3279  -0.3269  -0.3208  -0.2977  -0.2888  -0.2824  -0.2759  -0.2632
    -0.2476  -0.1729  -0.1617  -0.1572  -0.1157  -0.1067  -0.0960   0.0387
     0.1471   0.2331   0.2542   0.4138   0.5134   0.6356   0.9776   1.1231
     1.2238   1.4452

          k = 0.2000-0.5774 0.0000 ( 36660 PWs)   bands (ev):

   -21.9776  -9.1354  -6.7755  -6.6911  -6.1981  -6.0413  -5.7696  -5.5095
    -5.2643  -5.2138  -4.9842  -4.7066  -4.4765  -4.2334  -4.1837  -4.0759
    -4.0549  -4.0456  -4.0222  -4.0177  -3.9696  -3.9513  -3.9443  -3.9422
    -3.9185  -3.8531  -3.7940  -3.7869  -3.7638  -3.7611  -3.7110  -3.6196
    -3.6077  -3.6018  -3.5763  -3.5327  -3.4852  -3.4484  -3.3730  -3.3131
    -3.3060  -3.2645  -3.2249  -3.2074  -3.1798  -3.1248  -3.0938  -3.0854
    -3.0544  -3.0247  -2.9932  -2.9316  -2.9015  -2.8718  -2.8548  -2.8203
    -2.8011  -2.7317  -2.7277  -2.7150  -2.7039  -2.6939  -2.6699  -2.6300
    -2.5658  -2.5162  -2.5022  -2.4928  -2.4629  -2.4320  -2.4106  -2.3688
    -2.3635  -2.3257  -2.3146  -2.3077  -2.2979  -2.2790  -2.2560  -2.2539
    -2.2334  -2.2251  -2.2103  -2.1810  -2.1782  -2.1469  -2.1030  -2.0866
    -2.0703  -2.0466  -2.0149  -1.9852  -1.9633  -1.9410  -1.9273  -1.9193
    -1.9004  -1.8925  -1.8876  -1.8761  -1.8642  -1.8384  -1.8348  -1.7803
    -1.7654  -1.7460  -1.7365  -1.7292  -1.7091  -1.7051  -1.6989  -1.6878
    -1.6791  -1.6697  -1.6528  -1.6254  -1.5924  -1.5781  -1.5521  -1.5321
    -1.4870  -1.4819  -1.4606  -1.4357  -1.4237  -1.4087  -1.3998  -1.3808
    -1.3394  -1.3309  -1.3110  -1.2689  -1.2100  -1.1895  -1.1806  -1.1623
    -1.1448  -1.1293  -1.1260  -1.0962  -1.0768  -1.0641  -1.0461  -1.0284
    -0.9835  -0.9746  -0.9516  -0.9461  -0.9300  -0.8813  -0.8736  -0.8588
    -0.8508  -0.8343  -0.8286  -0.8116  -0.7834  -0.7580  -0.7358  -0.5883
    -0.5725  -0.5662  -0.5534  -0.5444  -0.5347  -0.5270  -0.5163  -0.4830
    -0.4725  -0.4591  -0.4522  -0.4416  -0.3989  -0.3468  -0.3310  -0.3252
    -0.3120  -0.2971  -0.2837  -0.2739  -0.2351  -0.2278  -0.2213  -0.2121
    -0.2076  -0.1452  -0.1302  -0.1226  -0.1104  -0.1015  -0.0804  -0.0548
     0.1186   0.2531   0.4862   0.8803   1.0472   1.1711   1.2580   1.5259
     1.6555   1.7144

          k = 0.2000-0.3464 0.0000 ( 36608 PWs)   bands (ev):

   -21.9776  -9.1441  -7.2628  -6.3536  -6.0231  -5.9447  -5.7035  -5.5411
    -5.3386  -5.1615  -4.7210  -4.7096  -4.4904  -4.4803  -4.3350  -4.2713
    -4.2650  -4.1686  -4.1636  -4.0694  -4.0272  -4.0165  -3.8989  -3.8746
    -3.8227  -3.7798  -3.6830  -3.6673  -3.6609  -3.6389  -3.6284  -3.6018
    -3.5883  -3.5819  -3.5379  -3.5182  -3.4813  -3.4340  -3.4240  -3.3995
    -3.2979  -3.2406  -3.2118  -3.1848  -3.1696  -3.1453  -3.0802  -3.0510
    -3.0036  -2.9896  -2.9680  -2.9565  -2.9528  -2.9185  -2.8932  -2.8880
    -2.8658  -2.8453  -2.7549  -2.7242  -2.6902  -2.6734  -2.6498  -2.6279
    -2.6110  -2.5625  -2.4968  -2.4343  -2.4026  -2.3862  -2.3751  -2.3406
    -2.3358  -2.3194  -2.3127  -2.2846  -2.2754  -2.2591  -2.2515  -2.2411
    -2.2318  -2.1926  -2.1544  -2.1377  -2.0676  -2.0615  -2.0359  -2.0224
    -2.0152  -1.9904  -1.9706  -1.9570  -1.9387  -1.9204  -1.9060  -1.9014
    -1.8949  -1.8871  -1.8783  -1.8603  -1.8507  -1.8446  -1.8239  -1.8070
    -1.8046  -1.7949  -1.7687  -1.7192  -1.7150  -1.6795  -1.6683  -1.6615
    -1.6575  -1.6442  -1.5928  -1.5855  -1.5641  -1.5386  -1.5227  -1.5021
    -1.5001  -1.4899  -1.4851  -1.4605  -1.4409  -1.4291  -1.4226  -1.3666
    -1.3558  -1.3222  -1.3083  -1.2476  -1.2129  -1.1842  -1.1569  -1.1038
    -1.0796  -1.0565  -1.0490  -1.0421  -1.0362  -1.0272  -0.9977  -0.9870
    -0.9737  -0.9626  -0.9431  -0.8995  -0.8881  -0.8743  -0.8570  -0.8415
    -0.8172  -0.8073  -0.7813  -0.7701  -0.7608  -0.7439  -0.6257  -0.6125
    -0.5889  -0.5818  -0.5653  -0.5528  -0.5477  -0.5269  -0.5240  -0.5037
    -0.4968  -0.4727  -0.4428  -0.4246  -0.4061  -0.3977  -0.3586  -0.3386
    -0.3287  -0.3248  -0.3220  -0.2990  -0.2897  -0.2818  -0.2743  -0.2629
    -0.2480  -0.1732  -0.1624  -0.1585  -0.1117  -0.1085  -0.1037   0.0543
     0.1180   0.2332   0.2460   0.4521   0.5130   0.6234   0.9922   1.1200
     1.2267   1.3772

          k = 0.4000-0.2309 0.0000 ( 36606 PWs)   bands (ev):

   -21.9776  -9.1385  -7.1318  -6.5046  -6.2072  -5.8772  -5.5542  -5.3814
    -5.2226  -5.1610  -5.1334  -4.9441  -4.3515  -4.3184  -4.2857  -4.2455
    -4.2067  -4.1285  -4.1234  -4.0317  -3.9932  -3.9848  -3.9644  -3.8311
    -3.8074  -3.8009  -3.7952  -3.7941  -3.7240  -3.6942  -3.6851  -3.5996
    -3.5238  -3.5130  -3.4969  -3.4798  -3.4714  -3.4300  -3.3673  -3.3608
    -3.3474  -3.3357  -3.3013  -3.2172  -3.1320  -3.1048  -3.0410  -3.0267
    -3.0032  -2.9812  -2.9615  -2.9480  -2.9351  -2.9264  -2.9121  -2.8622
    -2.8470  -2.8276  -2.7856  -2.7631  -2.6555  -2.6414  -2.6194  -2.5976
    -2.5600  -2.5306  -2.5106  -2.4948  -2.4841  -2.4183  -2.3654  -2.3612
    -2.3587  -2.3472  -2.3384  -2.3181  -2.3059  -2.2966  -2.2687  -2.2483
    -2.2342  -2.2026  -2.1828  -2.1583  -2.1344  -2.1202  -2.0626  -2.0465
    -2.0276  -2.0141  -1.9983  -1.9759  -1.9676  -1.9283  -1.9194  -1.9109
    -1.9009  -1.8866  -1.8754  -1.8537  -1.8488  -1.8428  -1.8360  -1.8071
    -1.7931  -1.7574  -1.7433  -1.7277  -1.6622  -1.6468  -1.6213  -1.6127
    -1.5966  -1.5749  -1.5572  -1.5195  -1.5139  -1.4990  -1.4925  -1.4870
    -1.4776  -1.4699  -1.4632  -1.4532  -1.4488  -1.4383  -1.4217  -1.4104
    -1.3909  -1.3677  -1.3052  -1.2794  -1.2651  -1.2592  -1.2324  -1.2130
    -1.1931  -1.1407  -1.1190  -1.1054  -1.0757  -1.0654  -1.0269  -1.0028
    -0.9836  -0.9557  -0.9296  -0.9214  -0.8958  -0.8695  -0.8419  -0.7937
    -0.7487  -0.7276  -0.7156  -0.7041  -0.7011  -0.6954  -0.6871  -0.6788
    -0.6627  -0.6387  -0.5588  -0.5528  -0.5440  -0.5315  -0.5241  -0.5082
    -0.5011  -0.4854  -0.4756  -0.4678  -0.4586  -0.4352  -0.3677  -0.3554
    -0.3444  -0.3368  -0.3084  -0.2587  -0.2529  -0.2234  -0.2179  -0.1781
    -0.1539  -0.1381  -0.1320  -0.1131  -0.1094  -0.1068  -0.0989  -0.0623
    -0.0058   0.0087   0.3886   0.6052   0.9107   1.0813   1.1201   1.2667
     1.4554   1.5002

          k = 0.4000 0.0000 0.0000 ( 36608 PWs)   bands (ev):

   -21.9776  -9.1405  -7.2692  -6.3535  -6.0824  -5.9317  -5.6994  -5.4701
    -5.3651  -5.1605  -4.7722  -4.6214  -4.4963  -4.4912  -4.3401  -4.2716
    -4.2628  -4.1683  -4.1627  -4.0909  -4.0410  -3.9655  -3.8969  -3.8736
    -3.8180  -3.7798  -3.6864  -3.6755  -3.6486  -3.6384  -3.6327  -3.6118
    -3.5880  -3.5774  -3.5451  -3.5196  -3.4779  -3.4479  -3.4364  -3.3897
    -3.3027  -3.2482  -3.2118  -3.1855  -3.1629  -3.1529  -3.0899  -3.0490
    -3.0173  -2.9787  -2.9730  -2.9634  -2.9406  -2.9127  -2.9001  -2.8848
    -2.8752  -2.8475  -2.7626  -2.7032  -2.6871  -2.6676  -2.6432  -2.6270
    -2.6084  -2.5577  -2.5021  -2.4302  -2.4145  -2.3853  -2.3750  -2.3423
    -2.3314  -2.3211  -2.3137  -2.2956  -2.2732  -2.2618  -2.2563  -2.2441
    -2.2218  -2.1882  -2.1616  -2.1164  -2.0661  -2.0570  -2.0428  -2.0261
    -2.0114  -1.9920  -1.9692  -1.9548  -1.9417  -1.9244  -1.9007  -1.8973
    -1.8933  -1.8884  -1.8826  -1.8616  -1.8571  -1.8426  -1.8241  -1.8162
    -1.8015  -1.7760  -1.7484  -1.7203  -1.7124  -1.6827  -1.6706  -1.6629
    -1.6524  -1.6461  -1.6172  -1.5827  -1.5651  -1.5523  -1.5316  -1.5138
    -1.5010  -1.4916  -1.4781  -1.4700  -1.4485  -1.4341  -1.4142  -1.3653
    -1.3556  -1.3300  -1.3168  -1.2249  -1.2081  -1.1915  -1.1750  -1.0978
    -1.0672  -1.0613  -1.0529  -1.0394  -1.0328  -1.0264  -0.9979  -0.9948
    -0.9778  -0.9540  -0.9368  -0.8957  -0.8798  -0.8634  -0.8618  -0.8421
    -0.8127  -0.8003  -0.7929  -0.7716  -0.7658  -0.7449  -0.6213  -0.6088
    -0.5867  -0.5763  -0.5671  -0.5554  -0.5452  -0.5252  -0.5218  -0.5111
    -0.4945  -0.4710  -0.4428  -0.4295  -0.4074  -0.3916  -0.3495  -0.3347
    -0.3296  -0.3254  -0.3198  -0.2968  -0.2902  -0.2796  -0.2776  -0.2617
    -0.2490  -0.1710  -0.1631  -0.1590  -0.1164  -0.1121  -0.0886   0.0377
     0.1865   0.2296   0.2595   0.3742   0.5149   0.6181   0.9397   1.1235
     1.2150   1.5278

          k = 0.4000 0.2309 0.0000 ( 36606 PWs)   bands (ev):

   -21.9776  -9.1361  -7.1382  -6.5118  -6.2182  -5.9103  -5.4498  -5.4155
    -5.2273  -5.1610  -5.1400  -4.9338  -4.3516  -4.3177  -4.3058  -4.2409
    -4.2027  -4.1288  -4.1243  -4.0133  -3.9915  -3.9859  -3.9243  -3.8408
    -3.8067  -3.7983  -3.7957  -3.7928  -3.7078  -3.6902  -3.6687  -3.6500
    -3.5266  -3.5227  -3.5078  -3.4805  -3.4760  -3.4268  -3.3666  -3.3609
    -3.3450  -3.3379  -3.3020  -3.2194  -3.1379  -3.0948  -3.0452  -3.0212
    -3.0103  -2.9749  -2.9613  -2.9562  -2.9454  -2.9188  -2.9039  -2.8640
    -2.8510  -2.8285  -2.7963  -2.7492  -2.6503  -2.6409  -2.6302  -2.5935
    -2.5646  -2.5281  -2.5065  -2.5025  -2.4881  -2.4178  -2.3645  -2.3617
    -2.3573  -2.3519  -2.3352  -2.3188  -2.3059  -2.2994  -2.2708  -2.2384
    -2.2238  -2.2058  -2.1894  -2.1702  -2.1293  -2.1147  -2.0579  -2.0489
    -2.0254  -2.0160  -1.9989  -1.9909  -1.9622  -1.9261  -1.9204  -1.9125
    -1.9038  -1.8886  -1.8720  -1.8631  -1.8487  -1.8418  -1.8369  -1.8098
    -1.7912  -1.7800  -1.7384  -1.7277  -1.6666  -1.6481  -1.6228  -1.6121
    -1.5887  -1.5754  -1.5488  -1.5181  -1.5154  -1.4991  -1.4953  -1.4897
    -1.4822  -1.4711  -1.4619  -1.4528  -1.4492  -1.4353  -1.4098  -1.4033
    -1.3852  -1.3729  -1.3235  -1.2807  -1.2634  -1.2512  -1.2283  -1.2189
    -1.1887  -1.1392  -1.1205  -1.1029  -1.0789  -1.0567  -1.0386  -0.9976
    -0.9815  -0.9577  -0.9309  -0.9204  -0.8926  -0.8693  -0.8456  -0.8091
    -0.7329  -0.7219  -0.7143  -0.7049  -0.7023  -0.6887  -0.6830  -0.6726
    -0.6658  -0.6583  -0.5590  -0.5527  -0.5450  -0.5321  -0.5237  -0.5059
    -0.4925  -0.4900  -0.4760  -0.4645  -0.4493  -0.4389  -0.3682  -0.3543
    -0.3443  -0.3375  -0.3055  -0.2583  -0.2534  -0.2203  -0.2183  -0.1776
    -0.1651  -0.1355  -0.1333  -0.1115  -0.1099  -0.1022  -0.0837  -0.0703
    -0.0054   0.0095   0.3921   0.6550   0.8530   1.0323   1.1258   1.2022
     1.4625   1.5616

          k = 0.4000-0.6928 0.0000 ( 36660 PWs)   bands (ev):

   -21.9776  -9.1317  -6.8056  -6.6791  -6.2058  -5.9495  -5.9287  -5.4087
    -5.2228  -5.2032  -5.0481  -4.7092  -4.4782  -4.2334  -4.1822  -4.0582
    -4.0533  -4.0287  -4.0226  -3.9997  -3.9656  -3.9494  -3.9455  -3.9412
    -3.9255  -3.8154  -3.7992  -3.7869  -3.7718  -3.7572  -3.7311  -3.6359
    -3.6094  -3.6023  -3.5844  -3.5628  -3.5002  -3.4437  -3.3494  -3.3119
    -3.3100  -3.2832  -3.2164  -3.2057  -3.1782  -3.1324  -3.0938  -3.0918
    -3.0589  -3.0112  -2.9969  -2.9284  -2.9043  -2.8760  -2.8597  -2.8136
    -2.7924  -2.7334  -2.7265  -2.7199  -2.7064  -2.6999  -2.6519  -2.6384
    -2.5591  -2.5101  -2.5054  -2.4882  -2.4794  -2.4397  -2.4196  -2.3657
    -2.3555  -2.3242  -2.3214  -2.3044  -2.2967  -2.2711  -2.2589  -2.2490
    -2.2292  -2.2173  -2.1935  -2.1883  -2.1765  -2.1604  -2.1090  -2.0948
    -2.0818  -2.0444  -2.0135  -1.9770  -1.9623  -1.9422  -1.9261  -1.9160
    -1.9041  -1.8952  -1.8910  -1.8679  -1.8555  -1.8476  -1.8330  -1.7699
    -1.7581  -1.7470  -1.7364  -1.7216  -1.7097  -1.7053  -1.6938  -1.6892
    -1.6857  -1.6664  -1.6527  -1.6451  -1.5917  -1.5752  -1.5667  -1.5225
    -1.5086  -1.4875  -1.4593  -1.4323  -1.4197  -1.4100  -1.3966  -1.3841
    -1.3358  -1.3310  -1.3025  -1.2630  -1.2094  -1.1957  -1.1821  -1.1625
    -1.1420  -1.1288  -1.1218  -1.0944  -1.0884  -1.0686  -1.0508  -1.0211
    -0.9878  -0.9788  -0.9568  -0.9367  -0.9256  -0.8858  -0.8742  -0.8683
    -0.8508  -0.8352  -0.8203  -0.8058  -0.7735  -0.7645  -0.7397  -0.5765
    -0.5693  -0.5631  -0.5556  -0.5457  -0.5388  -0.5241  -0.5199  -0.4798
    -0.4722  -0.4635  -0.4568  -0.4339  -0.3929  -0.3406  -0.3271  -0.3192
    -0.3066  -0.2972  -0.2818  -0.2433  -0.2390  -0.2313  -0.2210  -0.2149
    -0.2057  -0.1964  -0.1298  -0.1247  -0.1097  -0.1039  -0.0784  -0.0519
     0.1448   0.2659   0.5566   0.7297   1.0501   1.1735   1.2215   1.5691
     1.6757   1.7124

          k = 0.4000-0.4619 0.0000 ( 36660 PWs)   bands (ev):

   -21.9776  -9.1332  -6.7891  -6.6844  -6.2024  -6.0252  -5.8116  -5.4756
    -5.2604  -5.1987  -5.0061  -4.7032  -4.4765  -4.2318  -4.1858  -4.0656
    -4.0535  -4.0457  -4.0226  -4.0150  -3.9708  -3.9483  -3.9451  -3.9407
    -3.9218  -3.8458  -3.7941  -3.7894  -3.7666  -3.7614  -3.7101  -3.6226
    -3.6089  -3.6016  -3.5776  -3.5441  -3.5004  -3.4480  -3.3566  -3.3114
    -3.3046  -3.2885  -3.2226  -3.2046  -3.1784  -3.1255  -3.0932  -3.0886
    -3.0474  -3.0231  -2.9932  -2.9279  -2.9042  -2.8776  -2.8558  -2.8183
    -2.7926  -2.7320  -2.7284  -2.7168  -2.7056  -2.6954  -2.6674  -2.6204
    -2.5635  -2.5115  -2.5018  -2.4950  -2.4690  -2.4297  -2.4243  -2.3685
    -2.3585  -2.3256  -2.3148  -2.3046  -2.2992  -2.2771  -2.2570  -2.2515
    -2.2319  -2.2225  -2.2073  -2.1820  -2.1757  -2.1397  -2.1017  -2.0970
    -2.0817  -2.0538  -2.0099  -1.9803  -1.9609  -1.9391  -1.9257  -1.9209
    -1.9008  -1.8921  -1.8850  -1.8774  -1.8590  -1.8382  -1.8308  -1.7737
    -1.7656  -1.7427  -1.7367  -1.7299  -1.7112  -1.7056  -1.7002  -1.6868
    -1.6804  -1.6735  -1.6511  -1.6340  -1.5905  -1.5777  -1.5626  -1.5177
    -1.4962  -1.4910  -1.4666  -1.4319  -1.4189  -1.4067  -1.3992  -1.3809
    -1.3352  -1.3329  -1.3088  -1.2596  -1.2075  -1.1988  -1.1731  -1.1633
    -1.1414  -1.1288  -1.1213  -1.1092  -1.0798  -1.0661  -1.0538  -1.0265
    -0.9853  -0.9830  -0.9567  -0.9389  -0.9233  -0.8857  -0.8735  -0.8605
    -0.8509  -0.8341  -0.8311  -0.8046  -0.7753  -0.7597  -0.7414  -0.5856
    -0.5684  -0.5601  -0.5512  -0.5446  -0.5317  -0.5291  -0.5185  -0.4782
    -0.4750  -0.4674  -0.4531  -0.4371  -0.3930  -0.3432  -0.3286  -0.3221
    -0.3023  -0.2970  -0.2884  -0.2711  -0.2396  -0.2274  -0.2209  -0.2077
    -0.2017  -0.1696  -0.1287  -0.1249  -0.1111  -0.1021  -0.0789  -0.0534
     0.1260   0.2590   0.5023   0.8675   1.0035   1.1741   1.2351   1.5309
     1.6468   1.7233

 ------ SPIN DOWN ----------


          k = 0.0000 0.0000 0.0000 ( 36693 PWs)   bands (ev):

   -22.0695  -9.2498  -7.8051  -6.6316  -5.8151  -5.6553  -5.4269  -5.1634
    -4.6429  -4.6318  -4.6289  -4.6041  -4.5989  -4.5702  -4.2471  -3.7612
    -3.7571  -3.7377  -3.7301  -3.7174  -3.6490  -3.3367  -2.8182  -2.8111
    -2.7980  -2.7974  -2.7119  -2.5958  -2.3521  -2.3413  -2.3338  -2.3316
    -2.3044  -2.2190  -2.1416  -2.1364  -2.0695  -2.0534  -2.0418  -2.0417
    -1.9593  -1.9530  -1.9077  -1.9038  -1.8380  -1.8181  -1.8005  -1.7927
    -1.7554  -1.7148  -1.5548  -1.5456  -1.5350  -1.5246  -1.5221  -1.5189
    -1.5044  -1.5030  -1.4729  -1.4576  -1.4320  -1.4293  -1.4254  -1.4239
    -1.3528  -1.2558  -0.9059  -0.8732  -0.8455  -0.8441  -0.7924  -0.7264
    -0.6500  -0.6399  -0.5433  -0.5368  -0.5245  -0.5180  -0.5067  -0.4857
    -0.4726  -0.4584  -0.4459  -0.4365  -0.4284  -0.4273  -0.3884  -0.3665
    -0.3554  -0.3256  -0.3169  -0.2989  -0.2904  -0.2868  -0.2695  -0.2670
    -0.2593  -0.2513  -0.2411  -0.2379  -0.2366  -0.2298  -0.2074  -0.1473
    -0.1361  -0.1212  -0.1032  -0.0510  -0.0355  -0.0235  -0.0099  -0.0087
    -0.0045  -0.0029   0.0041   0.0698   0.0718   0.0733   0.1179   0.1460
     0.1547   0.1622   0.1719   0.2101   0.2621   0.3818   0.3923   0.4420
     0.4547   0.4629   0.4723   0.4803   0.6281   0.6782   0.7641   0.8008
     0.8162   0.8600   0.9788   1.0225   1.0256   1.0398   1.0429   1.0484
     1.0831   1.1682   1.1883   1.2025   1.2168   1.2209   1.2290   1.2542
     1.2605   1.2718   1.2818   1.2950   1.3136   1.3277   1.3293   1.3555
     1.3620   1.3708   1.3748   1.3864   1.4067   1.4286   1.4352   1.4428
     1.4553   1.4602   1.4750   1.4860   1.4928   1.5020   1.5051   1.5413
     1.5494   1.5643   1.5666   1.5713   1.5786   1.5851   1.5907   1.6299
     1.6345   1.6376   1.6391   1.6448   1.6469   1.6605   1.6651   1.6731
     1.6750   1.7216   1.7232   1.8637   1.8714   1.8729   1.8775   1.8795
     1.8807   2.0711

          k = 0.0000 0.2309 0.0000 ( 36641 PWs)   bands (ev):

   -22.0695  -9.2393  -7.6637  -6.5314  -5.8726  -5.6902  -5.5482  -5.3891
    -5.1574  -4.9886  -4.9230  -4.4562  -4.1436  -4.0796  -4.0583  -3.9541
    -3.8468  -3.7776  -3.4592  -3.4027  -3.3599  -3.2616  -2.9420  -2.8096
    -2.7679  -2.7251  -2.6747  -2.6112  -2.4408  -2.3733  -2.3706  -2.3565
    -2.3279  -2.2851  -2.2836  -2.2761  -2.2307  -2.1963  -2.1055  -2.0995
    -2.0142  -2.0112  -1.9480  -1.8704  -1.8309  -1.8202  -1.8004  -1.7030
    -1.6778  -1.6462  -1.6045  -1.5773  -1.5512  -1.5346  -1.5263  -1.5182
    -1.5088  -1.4946  -1.4117  -1.3995  -1.3863  -1.3659  -1.3297  -1.2847
    -1.2428  -1.1536  -0.9655  -0.9161  -0.8968  -0.8935  -0.8310  -0.7917
    -0.7365  -0.7107  -0.6805  -0.6418  -0.6231  -0.5760  -0.5556  -0.5419
    -0.5088  -0.4995  -0.4856  -0.4772  -0.4712  -0.4457  -0.4117  -0.3886
    -0.3444  -0.3171  -0.3129  -0.3028  -0.2907  -0.2710  -0.2504  -0.2446
    -0.2365  -0.2342  -0.2257  -0.2201  -0.2147  -0.2125  -0.1768  -0.1587
    -0.1451  -0.1330  -0.1160  -0.1065  -0.0854  -0.0732  -0.0540  -0.0317
    -0.0255  -0.0001   0.0250   0.0552   0.0991   0.1077   0.1313   0.1387
     0.2334   0.2587   0.2900   0.3402   0.3552   0.3637   0.4208   0.4267
     0.4377   0.4455   0.4476   0.4568   0.5945   0.7015   0.7768   0.7823
     0.7893   0.7962   0.8129   0.8227   0.8671   0.8853   0.9389   0.9649
     1.0098   1.0345   1.0594   1.0725   1.0971   1.1192   1.1415   1.1966
     1.2166   1.2287   1.2517   1.2554   1.2774   1.2845   1.3255   1.3336
     1.3493   1.3693   1.4129   1.4234   1.4389   1.4453   1.4709   1.4799
     1.5184   1.5257   1.5309   1.5354   1.5626   1.6135   1.6188   1.6281
     1.6308   1.6585   1.6625   1.6903   1.6981   1.7039   1.7111   1.7173
     1.7395   1.7806   1.7847   1.7976   1.8018   1.8112   1.8222   1.8409
     1.8615   1.8653   1.8683   1.9052   1.9604   1.9717   1.9739   2.0298
     2.0533   2.1152

          k = 0.0000 0.4619 0.0000 ( 36606 PWs)   bands (ev):

   -22.0695  -9.2229  -7.2439  -6.5840  -6.2426  -5.8437  -5.6273  -5.4127
    -5.2649  -5.1598  -5.1036  -4.8072  -4.1147  -4.0327  -3.8408  -3.4657
    -3.4592  -3.3983  -3.3345  -3.1617  -3.0701  -3.0152  -2.9873  -2.8612
    -2.8566  -2.7975  -2.7480  -2.6918  -2.6438  -2.6168  -2.6040  -2.5575
    -2.5395  -2.4092  -2.3328  -2.3137  -2.2432  -2.2187  -2.1270  -2.1175
    -2.1031  -2.0893  -2.0350  -1.8424  -1.8215  -1.7951  -1.7747  -1.7204
    -1.5999  -1.5974  -1.5815  -1.5709  -1.5545  -1.5341  -1.5275  -1.5060
    -1.4795  -1.4200  -1.4084  -1.3934  -1.3673  -1.3507  -1.2099  -1.1769
    -1.0745  -1.0400  -0.9445  -0.9235  -0.9052  -0.8744  -0.8650  -0.8536
    -0.8393  -0.8166  -0.7872  -0.7720  -0.7173  -0.6906  -0.6712  -0.6394
    -0.6207  -0.5947  -0.5799  -0.5700  -0.5374  -0.5006  -0.4605  -0.4053
    -0.3888  -0.3691  -0.3469  -0.3271  -0.2933  -0.2821  -0.2595  -0.2348
    -0.2086  -0.2012  -0.1893  -0.1777  -0.1667  -0.1604  -0.1180  -0.1093
    -0.0996  -0.0829  -0.0718  -0.0606  -0.0528  -0.0401  -0.0277  -0.0032
     0.0057   0.0214   0.0619   0.1025   0.1465   0.1503   0.1678   0.2079
     0.2146   0.2226   0.2554   0.2711   0.3161   0.3224   0.3363   0.3507
     0.3884   0.4082   0.4186   0.4227   0.4645   0.5339   0.5852   0.5990
     0.6654   0.6713   0.7560   0.7714   0.8310   0.8532   0.8745   0.8923
     0.9171   0.9204   0.9419   0.9833   0.9936   1.0600   1.1740   1.1873
     1.1904   1.2142   1.2413   1.2458   1.2873   1.3039   1.3361   1.3445
     1.3727   1.3834   1.4007   1.4672   1.4746   1.4880   1.5371   1.5429
     1.5536   1.5560   1.5749   1.5903   1.6118   1.6270   1.6375   1.6626
     1.6741   1.7084   1.7464   1.7791   1.7902   1.8045   1.8138   1.8270
     1.8343   1.8639   1.8672   1.8806   1.8958   1.9028   1.9124   1.9148
     1.9600   2.0187   2.0608   2.1228   2.1269   2.2020   2.5509   2.6298
     2.6543   2.7071

          k = 0.2000-0.1155 0.0000 ( 36641 PWs)   bands (ev):

   -22.0695  -9.2382  -7.6646  -6.5329  -5.8900  -5.6893  -5.5324  -5.3887
    -5.1495  -4.9909  -4.9310  -4.4293  -4.1861  -4.0766  -4.0624  -3.9302
    -3.8476  -3.7794  -3.4691  -3.3943  -3.3412  -3.2645  -2.9660  -2.7947
    -2.7726  -2.7344  -2.6748  -2.5982  -2.4489  -2.3719  -2.3688  -2.3586
    -2.3242  -2.2919  -2.2838  -2.2791  -2.2295  -2.1916  -2.1032  -2.1000
    -2.0157  -2.0123  -1.9599  -1.8475  -1.8314  -1.8185  -1.7993  -1.7077
    -1.6744  -1.6452  -1.6072  -1.5724  -1.5554  -1.5342  -1.5243  -1.5238
    -1.5019  -1.4950  -1.4160  -1.3978  -1.3839  -1.3640  -1.3322  -1.2921
    -1.2356  -1.1579  -0.9633  -0.9131  -0.9014  -0.8905  -0.8328  -0.7794
    -0.7588  -0.7168  -0.6793  -0.6436  -0.6191  -0.5822  -0.5534  -0.5408
    -0.5093  -0.5002  -0.4808  -0.4731  -0.4664  -0.4542  -0.4190  -0.3874
    -0.3443  -0.3205  -0.3153  -0.3109  -0.3017  -0.2623  -0.2522  -0.2451
    -0.2391  -0.2288  -0.2248  -0.2184  -0.2136  -0.2111  -0.1802  -0.1614
    -0.1360  -0.1339  -0.1101  -0.1063  -0.0976  -0.0772  -0.0572  -0.0330
    -0.0245  -0.0047   0.0324   0.0705   0.0946   0.1102   0.1219   0.1382
     0.2421   0.2605   0.2963   0.3458   0.3618   0.3709   0.4090   0.4298
     0.4351   0.4452   0.4500   0.4591   0.5951   0.7102   0.7614   0.7806
     0.7939   0.8029   0.8147   0.8314   0.8687   0.8894   0.9376   0.9681
     1.0083   1.0421   1.0631   1.0837   1.0996   1.1208   1.1404   1.1467
     1.2142   1.2375   1.2556   1.2601   1.2763   1.2865   1.3254   1.3330
     1.3466   1.3671   1.4096   1.4265   1.4396   1.4486   1.4703   1.5004
     1.5164   1.5266   1.5313   1.5360   1.5576   1.6069   1.6167   1.6241
     1.6287   1.6538   1.6627   1.6918   1.7010   1.7049   1.7118   1.7194
     1.7371   1.7810   1.7856   1.8001   1.8017   1.8112   1.8179   1.8404
     1.8558   1.8642   1.8685   1.8946   1.9597   1.9699   1.9746   2.0358
     2.0500   2.1088

          k = 0.2000 0.1155 0.0000 ( 36641 PWs)   bands (ev):

   -22.0695  -9.2374  -7.6658  -6.5354  -5.9253  -5.6675  -5.4790  -5.4282
    -5.1292  -4.9900  -4.9593  -4.3640  -4.2147  -4.0815  -4.0611  -3.9747
    -3.8323  -3.7769  -3.4736  -3.4082  -3.3116  -3.2453  -2.9756  -2.8247
    -2.7723  -2.7182  -2.6981  -2.5687  -2.4548  -2.3743  -2.3673  -2.3485
    -2.3338  -2.2982  -2.2853  -2.2820  -2.2454  -2.1691  -2.1015  -2.0996
    -2.0148  -2.0127  -1.9605  -1.8632  -1.8241  -1.8158  -1.7920  -1.6992
    -1.6817  -1.6531  -1.5970  -1.5867  -1.5505  -1.5380  -1.5237  -1.5173
    -1.5161  -1.4694  -1.4361  -1.3925  -1.3836  -1.3641  -1.3317  -1.2892
    -1.2299  -1.1660  -0.9664  -0.9158  -0.9019  -0.8894  -0.8291  -0.8088
    -0.7754  -0.6882  -0.6649  -0.6451  -0.6275  -0.5775  -0.5626  -0.5345
    -0.5150  -0.5006  -0.4814  -0.4726  -0.4648  -0.4462  -0.4383  -0.3682
    -0.3345  -0.3198  -0.3159  -0.3102  -0.2991  -0.2607  -0.2516  -0.2468
    -0.2396  -0.2295  -0.2232  -0.2188  -0.2145  -0.2122  -0.1803  -0.1642
    -0.1433  -0.1312  -0.1128  -0.1068  -0.1021  -0.0785  -0.0520  -0.0438
    -0.0191   0.0025   0.0401   0.0777   0.0895   0.1090   0.1220   0.1378
     0.2094   0.2854   0.3039   0.3411   0.3570   0.3798   0.4105   0.4256
     0.4351   0.4429   0.4538   0.4594   0.6176   0.6915   0.7608   0.7792
     0.7977   0.8066   0.8171   0.8271   0.8658   0.8870   0.9406   0.9695
     0.9876   1.0486   1.0684   1.0826   1.0989   1.1293   1.1414   1.1488
     1.2034   1.2364   1.2506   1.2651   1.2823   1.2875   1.3229   1.3315
     1.3458   1.3721   1.4139   1.4270   1.4391   1.4474   1.4666   1.4997
     1.5139   1.5276   1.5339   1.5447   1.5500   1.6014   1.6113   1.6223
     1.6326   1.6559   1.6604   1.6908   1.7003   1.7068   1.7115   1.7201
     1.7386   1.7820   1.7858   1.7988   1.8022   1.8112   1.8218   1.8394
     1.8552   1.8620   1.8694   1.8838   1.9594   1.9692   1.9772   2.0314
     2.0564   2.1029

          k = 0.2000 0.3464 0.0000 ( 36608 PWs)   bands (ev):

   -22.0695  -9.2238  -7.3858  -6.3833  -6.1209  -6.0068  -5.7012  -5.5071
    -5.3964  -5.1142  -4.6822  -4.4917  -4.2695  -4.2536  -3.9194  -3.4417
    -3.4291  -3.4243  -3.4135  -3.2800  -3.1572  -3.1259  -3.1057  -2.9173
    -2.7600  -2.6833  -2.6737  -2.6514  -2.5855  -2.5605  -2.5568  -2.4756
    -2.4659  -2.4583  -2.4235  -2.3149  -2.3020  -2.2382  -2.0841  -2.0794
    -2.0589  -1.9970  -1.9610  -1.9464  -1.9163  -1.7938  -1.7377  -1.7322
    -1.6262  -1.6052  -1.5638  -1.5611  -1.5501  -1.5383  -1.5228  -1.5009
    -1.4867  -1.4756  -1.4244  -1.3747  -1.3430  -1.2982  -1.1917  -1.1616
    -1.1028  -1.0698  -0.9882  -0.9362  -0.8933  -0.8638  -0.8427  -0.8273
    -0.8106  -0.7722  -0.7489  -0.7189  -0.6994  -0.6792  -0.6608  -0.6448
    -0.6324  -0.6143  -0.5954  -0.5650  -0.5342  -0.4522  -0.4325  -0.4164
    -0.4070  -0.3739  -0.3435  -0.3268  -0.3142  -0.2918  -0.2831  -0.2735
    -0.2581  -0.2415  -0.2275  -0.2073  -0.1955  -0.1802  -0.1606  -0.1300
    -0.1130  -0.1058  -0.1023  -0.0831  -0.0742  -0.0644  -0.0510  -0.0399
     0.0387   0.0477   0.0552   0.0757   0.1662   0.1684   0.2073   0.2319
     0.2506   0.2793   0.3008   0.3154   0.3451   0.3618   0.3796   0.3847
     0.3905   0.4244   0.4381   0.4815   0.5268   0.5959   0.6722   0.6971
     0.7457   0.7798   0.8018   0.8306   0.8420   0.8507   0.8695   0.8881
     0.8988   0.9082   0.9272   0.9429   0.9845   1.0385   1.0824   1.0993
     1.1212   1.1494   1.1566   1.1830   1.2032   1.2530   1.2676   1.3140
     1.3383   1.3900   1.4608   1.4920   1.5100   1.5186   1.5352   1.5482
     1.5706   1.5758   1.5941   1.6011   1.6618   1.6716   1.6814   1.6846
     1.6994   1.7259   1.7411   1.7528   1.7616   1.7753   1.7820   1.8059
     1.8194   1.8234   1.8334   1.8465   1.8578   1.8702   1.9125   1.9409
     1.9505   1.9925   2.0477   2.0802   2.1843   2.2177   2.3378   2.4899
     2.5337   2.5518

          k = 0.2000-0.5774 0.0000 ( 36660 PWs)   bands (ev):

   -22.0695  -9.2166  -6.8717  -6.8035  -6.2475  -6.0790  -5.7798  -5.5580
    -5.2967  -5.2496  -4.9000  -4.5708  -4.3109  -3.7713  -3.4905  -3.4609
    -3.4581  -3.3766  -3.2105  -3.1326  -3.0497  -3.0387  -3.0353  -2.9054
    -2.9006  -2.8857  -2.8658  -2.8612  -2.7421  -2.6235  -2.5217  -2.5084
    -2.4901  -2.4585  -2.4355  -2.4183  -2.3728  -2.3110  -2.2100  -2.0499
    -1.9749  -1.9627  -1.9535  -1.9169  -1.8752  -1.7942  -1.7315  -1.7177
    -1.6789  -1.6674  -1.6607  -1.5610  -1.5199  -1.5046  -1.4938  -1.4709
    -1.4375  -1.3831  -1.3389  -1.3267  -1.2829  -1.2631  -1.2404  -1.1387
    -1.0922  -0.9929  -0.9565  -0.9451  -0.9340  -0.8719  -0.8656  -0.8172
    -0.8072  -0.7939  -0.7643  -0.7453  -0.7373  -0.6864  -0.6762  -0.6593
    -0.6392  -0.6219  -0.6039  -0.5922  -0.5832  -0.5714  -0.5352  -0.5147
    -0.5054  -0.4699  -0.4381  -0.4247  -0.3739  -0.3506  -0.3309  -0.2770
    -0.2504  -0.2280  -0.2127  -0.1956  -0.1750  -0.1690  -0.1544  -0.1302
    -0.0898  -0.0763  -0.0552  -0.0362  -0.0168  -0.0126   0.0329   0.0783
     0.1024   0.1220   0.1343   0.1400   0.1529   0.1775   0.2281   0.2420
     0.2520   0.2609   0.3018   0.3158   0.3317   0.3477   0.3820   0.4073
     0.4154   0.4339   0.4502   0.4737   0.4817   0.5000   0.5192   0.5626
     0.5989   0.6664   0.7210   0.7706   0.7888   0.8049   0.8249   0.8316
     0.8629   0.8783   0.8918   0.9475   1.0071   1.0303   1.0375   1.0726
     1.0965   1.1026   1.1546   1.1830   1.1995   1.2172   1.2524   1.3089
     1.3765   1.4028   1.4518   1.4612   1.5216   1.5495   1.5833   1.5897
     1.5980   1.6108   1.6204   1.6382   1.6634   1.6814   1.6900   1.6999
     1.7361   1.7671   1.7685   1.7817   1.7903   1.7953   1.7988   1.8057
     1.8208   1.8557   1.8632   1.8935   1.9007   1.9155   1.9234   1.9422
     2.0047   2.0784   2.2175   2.3422   2.4835   2.6549   2.7173   2.7934
     2.8137   2.8819

          k = 0.2000-0.3464 0.0000 ( 36608 PWs)   bands (ev):

   -22.0695  -9.2252  -7.3825  -6.3838  -6.0810  -6.0215  -5.6936  -5.5623
    -5.3840  -5.1104  -4.6278  -4.5801  -4.2602  -4.2405  -3.9151  -3.4366
    -3.4315  -3.4253  -3.4072  -3.2988  -3.1475  -3.1348  -3.1029  -2.9053
    -2.7593  -2.6904  -2.6764  -2.6242  -2.5960  -2.5634  -2.5548  -2.4755
    -2.4709  -2.4585  -2.4212  -2.3186  -2.2936  -2.2359  -2.0897  -2.0836
    -2.0543  -2.0055  -1.9502  -1.9390  -1.9117  -1.7940  -1.7407  -1.7196
    -1.6602  -1.5911  -1.5664  -1.5615  -1.5466  -1.5389  -1.5283  -1.5064
    -1.4849  -1.4738  -1.4234  -1.3870  -1.3430  -1.2871  -1.1943  -1.1530
    -1.0926  -1.0772  -0.9886  -0.9149  -0.8909  -0.8632  -0.8450  -0.8232
    -0.8015  -0.7788  -0.7356  -0.7100  -0.7009  -0.6875  -0.6672  -0.6412
    -0.6368  -0.6269  -0.5993  -0.5872  -0.4989  -0.4644  -0.4244  -0.4189
    -0.4117  -0.3840  -0.3548  -0.3264  -0.3132  -0.2949  -0.2900  -0.2702
    -0.2554  -0.2507  -0.2259  -0.2058  -0.1941  -0.1750  -0.1476  -0.1313
    -0.1182  -0.1132  -0.1074  -0.0786  -0.0684  -0.0609  -0.0540  -0.0379
     0.0366   0.0502   0.0549   0.0931   0.1408   0.1643   0.2100   0.2330
     0.2516   0.2679   0.3016   0.3469   0.3550   0.3652   0.3745   0.3820
     0.3875   0.4121   0.4509   0.4789   0.5067   0.5847   0.6850   0.6991
     0.7488   0.7720   0.8134   0.8259   0.8399   0.8550   0.8732   0.8831
     0.8984   0.9154   0.9218   0.9434   0.9753   1.0392   1.0792   1.0918
     1.1252   1.1491   1.1597   1.1906   1.2047   1.2491   1.2669   1.3163
     1.3313   1.3908   1.4700   1.4908   1.5065   1.5217   1.5358   1.5518
     1.5628   1.5735   1.5952   1.6033   1.6645   1.6703   1.6796   1.6871
     1.7088   1.7286   1.7366   1.7534   1.7638   1.7716   1.7814   1.8056
     1.8206   1.8256   1.8318   1.8437   1.8593   1.8636   1.9133   1.9416
     1.9476   2.0064   2.0539   2.0742   2.1743   2.2158   2.3719   2.4385
     2.5303   2.5521

          k = 0.4000-0.2309 0.0000 ( 36606 PWs)   bands (ev):

   -22.0695  -9.2199  -7.2480  -6.5892  -6.2455  -5.8794  -5.5833  -5.4148
    -5.2513  -5.1663  -5.1058  -4.8061  -4.1260  -4.0370  -3.8136  -3.4665
    -3.4563  -3.3996  -3.3346  -3.1542  -3.0986  -3.0121  -2.9826  -2.8599
    -2.8559  -2.7892  -2.7463  -2.7068  -2.6460  -2.6160  -2.6001  -2.5575
    -2.5337  -2.4328  -2.3297  -2.3157  -2.2412  -2.2160  -2.1239  -2.1196
    -2.1110  -2.0845  -2.0413  -1.8260  -1.8076  -1.7991  -1.7553  -1.7238
    -1.6068  -1.5967  -1.5826  -1.5701  -1.5595  -1.5300  -1.5261  -1.4937
    -1.4867  -1.4175  -1.4120  -1.3886  -1.3673  -1.3489  -1.2105  -1.1792
    -1.0745  -1.0533  -0.9513  -0.9298  -0.9152  -0.8832  -0.8707  -0.8590
    -0.8387  -0.8082  -0.7810  -0.7645  -0.7212  -0.6943  -0.6809  -0.6311
    -0.6193  -0.5954  -0.5788  -0.5646  -0.5332  -0.4883  -0.4562  -0.4154
    -0.3985  -0.3876  -0.3687  -0.3298  -0.2896  -0.2721  -0.2577  -0.2336
    -0.2083  -0.2021  -0.1843  -0.1703  -0.1667  -0.1590  -0.1315  -0.1252
    -0.0995  -0.0882  -0.0750  -0.0558  -0.0484  -0.0466  -0.0340  -0.0078
     0.0056   0.0271   0.0839   0.1329   0.1516   0.1559   0.1651   0.2039
     0.2170   0.2215   0.2510   0.2843   0.3142   0.3180   0.3339   0.3571
     0.3937   0.3996   0.4164   0.4243   0.4652   0.5639   0.5762   0.6005
     0.6504   0.6794   0.7368   0.7980   0.8253   0.8513   0.8733   0.8902
     0.9126   0.9379   0.9531   0.9739   1.0005   1.1035   1.1241   1.1747
     1.1861   1.2180   1.2459   1.2511   1.2840   1.3012   1.3267   1.3462
     1.3715   1.3887   1.3970   1.4589   1.4891   1.5057   1.5313   1.5393
     1.5491   1.5548   1.5735   1.5901   1.6168   1.6235   1.6367   1.6654
     1.6722   1.7068   1.7693   1.7749   1.7925   1.7979   1.8113   1.8262
     1.8339   1.8661   1.8703   1.8819   1.8968   1.9038   1.9123   1.9150
     1.9609   2.0123   2.0617   2.1214   2.1387   2.2198   2.5432   2.6079
     2.6525   2.6949

          k = 0.4000 0.0000 0.0000 ( 36608 PWs)   bands (ev):

   -22.0695  -9.2219  -7.3882  -6.3840  -6.1370  -6.0037  -5.7028  -5.4815
    -5.4124  -5.1005  -4.7095  -4.4570  -4.2695  -4.2645  -3.9256  -3.4428
    -3.4298  -3.4241  -3.4088  -3.2611  -3.1512  -3.1252  -3.1194  -2.9256
    -2.7611  -2.6790  -2.6748  -2.6651  -2.5899  -2.5616  -2.5368  -2.4751
    -2.4666  -2.4587  -2.4308  -2.3234  -2.3073  -2.2435  -2.0845  -2.0741
[...]
     atom    9 type  1   force =     0.00099999   -0.00127098   -0.10528914
     atom   10 type  1   force =    -0.00106305    0.00172608   -0.01160239
     atom   11 type  1   force =     0.00137904    0.00051479   -0.00694913
     atom   12 type  1   force =    -0.00009716    0.00005114   -0.01010545
     atom   13 type  1   force =     0.00153735   -0.00117886   -0.01247811
     atom   14 type  1   force =    -0.00138932   -0.00039441   -0.01048431
     atom   15 type  1   force =    -0.00060071   -0.00046126   -0.01408282
     atom   16 type  1   force =    -0.00099237    0.00002776   -0.01707519
     atom   17 type  1   force =     0.00206312   -0.00138117   -0.01091297
     atom   18 type  1   force =    -0.00134414    0.00247549   -0.01435481
     atom   19 type  1   force =     0.00229832    0.00539302    0.00756448
     atom   20 type  1   force =    -0.00361898    0.00895913   -0.00081900
     atom   21 type  1   force =     0.00103919    0.00056977    0.01407390
     atom   22 type  1   force =     0.00066171    0.00024284    0.02088861
     atom   23 type  1   force =    -0.00170040    0.00083415    0.00476692
     atom   24 type  1   force =     0.00070301    0.00092925    0.01271902
     atom   25 type  1   force =    -0.00261785   -0.00496206   -0.00252505
     atom   26 type  1   force =    -0.00122528   -0.00544719    0.00152942
     atom   27 type  1   force =     0.00422133   -0.00651456    0.00046327
     atom   28 type  1   force =     0.05364547   -0.01430539    0.08510367
     atom   29 type  1   force =    -0.05189649   -0.01460340    0.06462849
     atom   30 type  1   force =    -0.00112279    0.00395111    0.08273265
     atom   31 type  1   force =     0.00592066   -0.02394577    0.13634153
     atom   32 type  1   force =    -0.00031727   -0.00429617    0.08663175
     atom   33 type  1   force =    -0.00535542   -0.00181485    0.11096782
     atom   34 type  1   force =     0.00086180   -0.00216746    0.11598747
     atom   35 type  1   force =     0.00350314    0.05118426    0.13593311
     atom   36 type  1   force =    -0.00355143    0.00542200    0.11876897
     atom   37 type  2   force =    -0.00795189   -0.07865876    0.42968756
     atom   38 type  3   force =     0.03966389    0.18043617   -2.70568960
     atom   39 type  4   force =    -0.00003503   -0.00043179   -0.02182059
     The ionic contribution  to forces
     atom    1 type  1   force =    -0.00515067    0.00783462 -111.13954980
     atom    2 type  1   force =     0.00314365    0.00861427 -111.14353308
     atom    3 type  1   force =     0.00200702    0.00224488 -111.13332359
     atom    4 type  1   force =    -0.00032983    0.00118564 -111.12947621
     atom    5 type  1   force =    -0.00292029   -0.00433287 -111.13591029
     atom    6 type  1   force =     0.00325012   -0.00641770 -111.13523497
     atom    7 type  1   force =    -0.00642312   -0.00214764 -111.13781452
     atom    8 type  1   force =    -0.00164212   -0.00346240 -111.15405319
     atom    9 type  1   force =     0.00806524   -0.00351882 -111.14112414
     atom   10 type  1   force =    -0.05829079    0.01595782  -40.16953275
     atom   11 type  1   force =     0.04350968    0.01042824  -40.19805934
     atom   12 type  1   force =     0.01478077   -0.00141572  -40.08369086
     atom   13 type  1   force =    -0.01108593    0.06595776  -40.09478983
     atom   14 type  1   force =     0.01810719    0.02246328  -40.08080731
     atom   15 type  1   force =    -0.00702083    0.01181391  -40.05789726
     atom   16 type  1   force =    -0.03448142   -0.02196953  -40.06521321
     atom   17 type  1   force =    -0.00258768   -0.06695348  -40.14057095
     atom   18 type  1   force =     0.03706897   -0.03628029  -40.07067240
     atom   19 type  1   force =    -0.25859413    0.38951381   31.35117760
     atom   20 type  1   force =     0.14316370    0.44405649   31.15960522
     atom   21 type  1   force =     0.11531089    0.11176066   31.60577569
     atom   22 type  1   force =    -0.01177698    0.05145703   31.79051711
     atom   23 type  1   force =    -0.14150496   -0.21487312   31.53033946
     atom   24 type  1   force =     0.15329777   -0.30396058   31.55696875
     atom   25 type  1   force =    -0.32253648   -0.09742746   31.44194524
     atom   26 type  1   force =    -0.07250251   -0.19305772   30.52031196
     atom   27 type  1   force =     0.39502536   -0.19053360   31.27554078
     atom   28 type  1   force =    -4.36882961    1.33151461   99.46153405
     atom   29 type  1   force =     3.24580864    0.74419851   98.60716879
     atom   30 type  1   force =     1.11941968   -0.44544983  103.67164223
     atom   31 type  1   force =    -0.28215444    2.45580736  103.54391975
     atom   32 type  1   force =     0.50817391    1.45456383  103.73027458
     atom   33 type  1   force =    -0.22058566    0.36196774  104.43346038
     atom   34 type  1   force =    -1.15701551   -0.76418966  104.19854206
     atom   35 type  1   force =    -0.04692010   -3.79321342  101.52895564
     atom   36 type  1   force =     1.20216070   -1.12054978  104.14311283
     atom   37 type  2   force =    -0.07176015    0.32837898   51.04842469
     atom   38 type  3   force =    -0.29922283   -0.73891240   89.60945741
     atom   39 type  4   force =     0.37104275    0.18894659   15.00257944
     The local contribution  to forces
     atom    1 type  1   force =     0.00349219   -0.00728247  111.24437985
     atom    2 type  1   force =    -0.00110395   -0.01078225  111.25095880
     atom    3 type  1   force =    -0.00215688   -0.00184836  111.23434604
     atom    4 type  1   force =    -0.00144484   -0.00197054  111.23286787
     atom    5 type  1   force =     0.00261518    0.00517446  111.24043002
     atom    6 type  1   force =    -0.00142525    0.00338750  111.24146439
     atom    7 type  1   force =     0.00994028    0.00211054  111.24288612
     atom    8 type  1   force =    -0.00111417    0.00503053  111.25897546
     atom    9 type  1   force =    -0.00905415    0.00601959  111.24935300
     atom   10 type  1   force =     0.05756372   -0.01879769   40.16085910
     atom   11 type  1   force =    -0.04318312   -0.01102549   40.18457107
     atom   12 type  1   force =    -0.01424441    0.00151858   40.07318104
     atom   13 type  1   force =     0.00892419   -0.06351268   40.08990786
     atom   14 type  1   force =    -0.01714614   -0.02131714   40.07073393
     atom   15 type  1   force =     0.00843645   -0.01053334   40.05024811
     atom   16 type  1   force =     0.03539794    0.02332565   40.06278811
     atom   17 type  1   force =    -0.00016751    0.06747416   40.13337088
     atom   18 type  1   force =    -0.03517435    0.03405420   40.06563466
     atom   19 type  1   force =     0.25788962   -0.39159952  -31.34214118
     atom   20 type  1   force =    -0.14231357   -0.45019636  -31.14533336
     atom   21 type  1   force =    -0.11515907   -0.11243476  -31.59804441
     atom   22 type  1   force =     0.01004702   -0.05273218  -31.78536327
     atom   23 type  1   force =     0.14175432    0.21282367  -31.51320817
     atom   24 type  1   force =    -0.15160779    0.30226075  -31.54861553
     atom   25 type  1   force =     0.32446173    0.10126217  -31.42388711
     atom   26 type  1   force =     0.07472668    0.19916979  -30.50474324
     atom   27 type  1   force =    -0.39996103    0.19443894  -31.26290212
     atom   28 type  1   force =     4.29703885   -1.31559057  -99.54215279
     atom   29 type  1   force =    -3.18815212   -0.73284638  -98.65926827
     atom   30 type  1   force =    -1.10459510    0.43601558 -103.76113349
     atom   31 type  1   force =     0.27102583   -2.41988920 -103.68910613
     atom   32 type  1   force =    -0.50617761   -1.43641972 -103.82409927
     atom   33 type  1   force =     0.22933715   -0.35858497 -104.55373524
     atom   34 type  1   force =     1.15377190    0.76505799 -104.32212796
     atom   35 type  1   force =     0.04236848    3.73315260 -101.66766138
     atom   36 type  1   force =    -1.19478442    1.10737034 -104.27082924
     atom   37 type  2   force =     0.08007585   -0.25308097  -51.47558062
     atom   38 type  3   force =     0.25947694    0.55816009  -86.92311655
     atom   39 type  4   force =    -0.37111728   -0.18884179  -14.98127693
     The core correction contribution to forces
     atom    1 type  1   force =    -0.00020035   -0.00015854    0.01001199
     atom    2 type  1   force =    -0.00001844   -0.00028198    0.01020391
     atom    3 type  1   force =     0.00019228   -0.00000280    0.01003380
     atom    4 type  1   force =     0.00007960   -0.00012328    0.01021900
     atom    5 type  1   force =     0.00015126    0.00005752    0.01015830
     atom    6 type  1   force =    -0.00016722   -0.00011705    0.00999158
     atom    7 type  1   force =     0.00008669   -0.00002532    0.01021132
     atom    8 type  1   force =    -0.00000684    0.00038235    0.00962704
     atom    9 type  1   force =    -0.00013115   -0.00004467    0.01031185
     atom   10 type  1   force =    -0.00000292   -0.00003531   -0.00197635
     atom   11 type  1   force =     0.00005560    0.00014450   -0.00180013
     atom   12 type  1   force =    -0.00004843    0.00024116   -0.00184798
     atom   13 type  1   force =    -0.00036375    0.00029179   -0.00166723
     atom   14 type  1   force =     0.00020503   -0.00013196   -0.00193621
     atom   15 type  1   force =     0.00018365    0.00003148   -0.00165356
     atom   16 type  1   force =    -0.00006200    0.00005593   -0.00183948
     atom   17 type  1   force =    -0.00017004    0.00012602   -0.00192887
     atom   18 type  1   force =     0.00013649   -0.00036305   -0.00168646
     atom   19 type  1   force =    -0.00009652    0.00085505    0.00080073
     atom   20 type  1   force =    -0.00019341    0.00089529    0.00041532
     atom   21 type  1   force =     0.00047498    0.00010250    0.00203397
     atom   22 type  1   force =    -0.00007528    0.00014133    0.00194383
     atom   23 type  1   force =    -0.00032952    0.00061421    0.00144178
     atom   24 type  1   force =     0.00050019   -0.00052965    0.00144004
     atom   25 type  1   force =     0.00036060   -0.00052337    0.00143757
     atom   26 type  1   force =    -0.00100114   -0.00094707    0.00121412
     atom   27 type  1   force =     0.00067291   -0.00048516    0.00105447
     atom   28 type  1   force =     0.01028375   -0.00310648   -0.00533379
     atom   29 type  1   force =    -0.00217444    0.00289446    0.00013965
     atom   30 type  1   force =    -0.00933112    0.00525240   -0.00591314
     atom   31 type  1   force =     0.00114329   -0.00503097   -0.00775019
     atom   32 type  1   force =     0.00002446   -0.01096109   -0.00548641
     atom   33 type  1   force =    -0.00090948   -0.00147220   -0.00992674
     atom   34 type  1   force =     0.00132530    0.00139993   -0.00949168
     atom   35 type  1   force =    -0.00038105    0.00797676   -0.00577144
     atom   36 type  1   force =    -0.00125533    0.00294910   -0.00856140
     atom   37 type  2   force =    -0.00000901    0.00160290   -0.00233206
     atom   38 type  3   force =    -0.00028321   -0.00129763    0.01968184
     atom   39 type  4   force =     0.00000000    0.00000000    0.00000000
     The Hubbard contrib.    to forces
     atom    1 type  1   force =     0.00000000    0.00000000    0.00000000
     atom    2 type  1   force =     0.00000000    0.00000000    0.00000000
     atom    3 type  1   force =     0.00000000    0.00000000    0.00000000
     atom    4 type  1   force =     0.00000000    0.00000000    0.00000000
     atom    5 type  1   force =     0.00000000    0.00000000    0.00000000
     atom    6 type  1   force =     0.00000000    0.00000000    0.00000000
     atom    7 type  1   force =     0.00000000    0.00000000    0.00000000
     atom    8 type  1   force =     0.00000000    0.00000000    0.00000000
     atom    9 type  1   force =     0.00000000    0.00000000    0.00000000
     atom   10 type  1   force =     0.00000000    0.00000000    0.00000000
     atom   11 type  1   force =     0.00000000    0.00000000    0.00000000
     atom   12 type  1   force =     0.00000000    0.00000000    0.00000000
     atom   13 type  1   force =     0.00000000    0.00000000    0.00000000
     atom   14 type  1   force =     0.00000000    0.00000000    0.00000000
     atom   15 type  1   force =     0.00000000    0.00000000    0.00000000
     atom   16 type  1   force =     0.00000000    0.00000000    0.00000000
     atom   17 type  1   force =     0.00000000    0.00000000    0.00000000
     atom   18 type  1   force =     0.00000000    0.00000000    0.00000000
     atom   19 type  1   force =     0.00000000    0.00000000    0.00000000
     atom   20 type  1   force =     0.00000000    0.00000000    0.00000000
     atom   21 type  1   force =     0.00000000    0.00000000    0.00000000
     atom   22 type  1   force =     0.00000000    0.00000000    0.00000000
     atom   23 type  1   force =     0.00000000    0.00000000    0.00000000
     atom   24 type  1   force =     0.00000000    0.00000000    0.00000000
     atom   25 type  1   force =     0.00000000    0.00000000    0.00000000
     atom   26 type  1   force =     0.00000000    0.00000000    0.00000000
     atom   27 type  1   force =     0.00000000    0.00000000    0.00000000
     atom   28 type  1   force =     0.00000000    0.00000000    0.00000000
     atom   29 type  1   force =     0.00000000    0.00000000    0.00000000
     atom   30 type  1   force =     0.00000000    0.00000000    0.00000000
     atom   31 type  1   force =     0.00000000    0.00000000    0.00000000
     atom   32 type  1   force =     0.00000000    0.00000000    0.00000000
     atom   33 type  1   force =     0.00000000    0.00000000    0.00000000
     atom   34 type  1   force =     0.00000000    0.00000000    0.00000000
     atom   35 type  1   force =     0.00000000    0.00000000    0.00000000
     atom   36 type  1   force =     0.00000000    0.00000000    0.00000000
     atom   37 type  2   force =     0.00000000    0.00000000    0.00000000
     atom   38 type  3   force =     0.00000000    0.00000000    0.00000000
     atom   39 type  4   force =     0.00000000    0.00000000    0.00000000
     The SCF correction term to forces
     atom    1 type  1   force =     0.00000000    0.00000000    0.00000000
     atom    2 type  1   force =    -0.00000000   -0.00000000    0.00000000
     atom    3 type  1   force =    -0.00000000   -0.00000000    0.00000000
     atom    4 type  1   force =     0.00000000    0.00000000    0.00000000
     atom    5 type  1   force =    -0.00000000    0.00000000    0.00000000
     atom    6 type  1   force =     0.00000000    0.00000000    0.00000000
     atom    7 type  1   force =    -0.00000000   -0.00000000    0.00000000
     atom    8 type  1   force =     0.00000000   -0.00000000    0.00000000
     atom    9 type  1   force =     0.00000000   -0.00000000    0.00000000
     atom   10 type  1   force =    -0.00000000   -0.00000000   -0.00000000
     atom   11 type  1   force =     0.00000000   -0.00000000   -0.00000000
     atom   12 type  1   force =     0.00000000   -0.00000000   -0.00000000
     atom   13 type  1   force =     0.00000000    0.00000000   -0.00000000
     atom   14 type  1   force =    -0.00000000    0.00000000   -0.00000000
     atom   15 type  1   force =     0.00000000    0.00000000   -0.00000000
     atom   16 type  1   force =    -0.00000000    0.00000000   -0.00000000
     atom   17 type  1   force =     0.00000000   -0.00000000   -0.00000000
     atom   18 type  1   force =     0.00000000   -0.00000000   -0.00000000
     atom   19 type  1   force =    -0.00000000    0.00000000   -0.00000000
     atom   20 type  1   force =     0.00000000    0.00000000   -0.00000000
     atom   21 type  1   force =     0.00000000    0.00000000   -0.00000000
     atom   22 type  1   force =     0.00000000    0.00000000   -0.00000000
     atom   23 type  1   force =    -0.00000000    0.00000000   -0.00000000
     atom   24 type  1   force =     0.00000000   -0.00000000   -0.00000000
     atom   25 type  1   force =    -0.00000000   -0.00000000   -0.00000000
     atom   26 type  1   force =    -0.00000000   -0.00000000   -0.00000000
     atom   27 type  1   force =     0.00000000   -0.00000000   -0.00000000
     atom   28 type  1   force =    -0.00000000    0.00000000   -0.00000000
     atom   29 type  1   force =     0.00000000    0.00000000   -0.00000000
     atom   30 type  1   force =     0.00000000    0.00000000   -0.00000000
     atom   31 type  1   force =    -0.00000000   -0.00000000   -0.00000000
     atom   32 type  1   force =     0.00000000   -0.00000000   -0.00000000
     atom   33 type  1   force =    -0.00000000   -0.00000000   -0.00000000
     atom   34 type  1   force =     0.00000000    0.00000000   -0.00000000
     atom   35 type  1   force =    -0.00000000   -0.00000000   -0.00000000
     atom   36 type  1   force =    -0.00000000    0.00000000   -0.00000000
     atom   37 type  2   force =    -0.00003368    0.00004511   -0.00012714
     atom   38 type  3   force =    -0.00002284    0.00003285   -0.00036646
     atom   39 type  4   force =     0.00000922    0.00000511   -0.00005643

     Total force =     0.002478     Total SCF correction =     0.000398
     SCF correction compared to forces is large: reduce conv_thr to get better values

     Writing all to output data dir ./pwscf.save/

     init_run     :     10.67s CPU     11.09s WALL (       1 calls)
     electrons    :    737.07s CPU    765.34s WALL (       1 calls)
     forces       :      3.04s CPU      3.10s WALL (       1 calls)

     Called by init_run:
     wfcinit      :      7.40s CPU      7.70s WALL (       1 calls)
     potinit      :      2.17s CPU      2.26s WALL (       1 calls)
     hinit0       :      0.85s CPU      0.86s WALL (       1 calls)

     Called by electrons:
     c_bands      :    623.04s CPU    645.98s WALL (      40 calls)
     sum_band     :     81.45s CPU     82.48s WALL (      40 calls)
     v_of_rho     :      9.07s CPU     11.99s WALL (      41 calls)
     newd         :      2.21s CPU      2.25s WALL (      41 calls)
     PAW_pot      :     10.25s CPU     10.38s WALL (      41 calls)
     mix_rho      :     12.44s CPU     13.52s WALL (      40 calls)
     vdW_kernel   :      1.12s CPU      1.12s WALL (       1 calls)

     Called by c_bands:
     init_us_2    :      5.27s CPU      5.41s WALL (    2132 calls)
     init_us_2:cp :      5.25s CPU      5.40s WALL (    2132 calls)
     cegterg      :    604.10s CPU    626.46s WALL (    1041 calls)

     Called by *egterg:
     cdiaghg      :    165.66s CPU    168.38s WALL (    3838 calls)
     h_psi        :    300.25s CPU    315.12s WALL (    3864 calls)
     s_psi        :     22.84s CPU     24.67s WALL (    3864 calls)
     g_psi        :      0.46s CPU      0.46s WALL (    2797 calls)

     Called by h_psi:
     h_psi:calbec :     45.59s CPU     48.20s WALL (    3864 calls)
     vloc_psi     :    229.51s CPU    239.76s WALL (    3864 calls)
     add_vuspsi   :     23.98s CPU     25.81s WALL (    3864 calls)

     General routines
     calbec       :     65.49s CPU     68.34s WALL (    5008 calls)
     fft          :      6.38s CPU      8.14s WALL (    3726 calls)
     ffts         :      7.01s CPU      7.64s WALL (   14419 calls)
     fftw         :    269.12s CPU    278.70s WALL ( 1085510 calls)
     interpolate  :      0.51s CPU      0.52s WALL (      82 calls)

     Parallel routines

     PWSCF        :  12m36.98s CPU  13m 9.80s WALL


   This run was terminated on:  14:30:33   6Dec2025            

=------------------------------------------------------------------------------=
   JOB DONE.
=------------------------------------------------------------------------------=
