
     Program PWSCF v.7.1 starts on  7Dec2025 at 21:28:30 
        Git branch: heads/qe-7.1
        Last git commit: 48ba0178f8fede6d020eb786884699a9f063f55d-dirty
        Last git commit date: Fri Jan 27 14:22:33 2023 +0000
        Last git commit subject: Merge branch 'fix_hubbard' into 'develop'

     This program is part of the open-source Quantum ESPRESSO suite
     for quantum simulation of materials; please cite
         "P. Giannozzi et al., J. Phys.:Condens. Matter 21 395502 (2009);
         "P. Giannozzi et al., J. Phys.:Condens. Matter 29 465901 (2017);
         "P. Giannozzi et al., J. Chem. Phys. 152 154105 (2020);
          URL http://www.quantum-espresso.org", 
     in publications or presentations arising from this work. More details at
     http://www.quantum-espresso.org/quote

     Parallel version (MPI), running on    96 processors

     MPI processes distributed on     2 nodes
     119600 MiB available memory on the printing compute node when the environment starts

     Reading input from espresso.pwi
Warning: card &CELL ignored
Warning: card / ignored
Warning: card &FCP ignored
Warning: card / ignored
Warning: card &RISM ignored
Warning: card / ignored

     Current dimensions of program PWSCF are:
     Max number of different atomic species (ntypx) = 10
     Max number of k-points (npk) =  40000
     Max angular momentum in pseudopotentials (lmaxx) =  4
     file Co.pbe-n-kjpaw_psl.1.0.0.UPF: wavefunction(s)  4S 3D renormalized
     file C.pbe-n-kjpaw_psl.1.0.0.UPF: wavefunction(s)  2S 2P renormalized
     file O.pbe-nl-kjpaw_psl.1.0.0.UPF: wavefunction(s)  2S 2P renormalized
     file H.pbe-kjpaw_psl.1.0.0.UPF: wavefunction(s)  1S renormalized

     **************************************************************************
     Initializing libbeef V0.1.2 with the BEEF-vdW functional.
     Citation: Wellendorff et al., PRB 85, 235149 (2012).
     **************************************************************************


     IMPORTANT: XC functional enforced from input :
     Exchange-correlation= BEEF-VDW
                           (   1   4  43  14   2   0   0)
     Any further DFT definition will be discarded
     Please, verify this is what you really want


     R & G space division:  proc/nbgrp/npool/nimage =      96
     Subspace diagonalization in iterative solution of the eigenvalue problem:
     one sub-group per band group will be used
     custom distributed-memory algorithm (size of sub-group:  2*  2 procs)


     Parallelization info
     --------------------
     sticks:   dense  smooth     PW     G-vecs:    dense   smooth      PW
     Min          43      28      7                 7829     4248     595
     Max          44      29      8                 7845     4281     630
     Sum        4153    2773    757               752179   409445   59217

     Using Slab Decomposition



     bravais-lattice index     =            0
     lattice parameter (alat)  =      14.1729  a.u.
     unit-cell volume          =    8574.3059 (a.u.)^3
     number of atoms/cell      =           39
     number of atomic types    =            4
     number of electrons       =       335.00
     number of Kohn-Sham states=          202
     kinetic-energy cutoff     =      50.0000  Ry
     charge density cutoff     =     300.0000  Ry
     scf convergence threshold =      1.0E-08
     mixing beta               =       0.7000
     number of iterations used =            8  local-TF  mixing
     Exchange-correlation= BEEF-VDW
                           (   1   4  43  14   2   0   0)

     celldm(1)=  14.172946  celldm(2)=   0.000000  celldm(3)=   0.000000
     celldm(4)=   0.000000  celldm(5)=   0.000000  celldm(6)=   0.000000

     crystal axes: (cart. coord. in units of alat)
               a(1) = (   1.000000   0.000000   0.000000 )  
               a(2) = (   0.500000   0.866025   0.000000 )  
               a(3) = (   0.000000   0.000000   3.477667 )  

     reciprocal axes: (cart. coord. in units 2 pi/alat)
               b(1) = (  1.000000 -0.577350  0.000000 )  
               b(2) = (  0.000000  1.154701  0.000000 )  
               b(3) = (  0.000000  0.000000  0.287549 )  


     PseudoPot. # 1 for Co read from file:
     /users/kbadger1/espresso/pseudo/pslibrary.1.0.0/pbe/PSEUDOPOTENTIALS/Co.pbe-n-kjpaw_psl.1.0.0.UPF
     MD5 check sum: 88af6ec42553d4236c267fdfcb472151
     Pseudo is Projector augmented-wave + core cor, Zval =  9.0
     Generated using 'atomic' code by A. Dal Corso  v.7.0
     Shape of augmentation charge: PSQ
     Using radial grid of 1193 points,  6 beta functions with: 
                l(1) =   0
                l(2) =   0
                l(3) =   1
                l(4) =   1
                l(5) =   2
                l(6) =   2
     Q(r) pseudized with 0 coefficients 


     PseudoPot. # 2 for C  read from file:
     /users/kbadger1/espresso/pseudo/pslibrary.1.0.0/pbe/PSEUDOPOTENTIALS/C.pbe-n-kjpaw_psl.1.0.0.UPF
     MD5 check sum: 6408e75cdba28732cea38a4db8498ce4
     Pseudo is Projector augmented-wave + core cor, Zval =  4.0
     Generated using 'atomic' code by A. Dal Corso  v.7.0
     Shape of augmentation charge: PSQ
     Using radial grid of 1073 points,  4 beta functions with: 
                l(1) =   0
                l(2) =   0
                l(3) =   1
                l(4) =   1
     Q(r) pseudized with 0 coefficients 


     PseudoPot. # 3 for O  read from file:
     /users/kbadger1/espresso/pseudo/pslibrary.1.0.0/pbe/PSEUDOPOTENTIALS/O.pbe-nl-kjpaw_psl.1.0.0.UPF
     MD5 check sum: f0439fab3598ca4e468f064226030408
     Pseudo is Projector augmented-wave + core cor, Zval =  6.0
     Generated using 'atomic' code by A. Dal Corso  v.7.0
     Shape of augmentation charge: PSQ
     Using radial grid of 1095 points,  4 beta functions with: 
                l(1) =   0
                l(2) =   0
                l(3) =   1
                l(4) =   1
     Q(r) pseudized with 0 coefficients 


     PseudoPot. # 4 for H  read from file:
     /users/kbadger1/espresso/pseudo/pslibrary.1.0.0/pbe/PSEUDOPOTENTIALS/H.pbe-kjpaw_psl.1.0.0.UPF
     MD5 check sum: fe4c6fa958fa6d3815bf5d2419cbf1df
     Pseudo is Projector augmented-wave, Zval =  1.0
     Generated using 'atomic' code by A. Dal Corso  v.7.0
     Shape of augmentation charge: PSQ
     Using radial grid of  929 points,  2 beta functions with: 
                l(1) =   0
                l(2) =   0
     Q(r) pseudized with 0 coefficients 


     atomic species   valence    mass     pseudopotential
        Co             9.00    58.93319     Co( 1.00)
        C              4.00    12.00000     C ( 1.00)
        O              6.00    15.99491     O ( 1.00)
        H              1.00     1.00783     H ( 1.00)

     Starting magnetic structure 
     atomic species   magnetization
        Co           1.000
        C            1.000
        O            0.000
        H            0.000

     No symmetry found



   Cartesian axes

     site n.     atom                  positions (alat units)
         1           Co  tau(   1) = (   0.0000000   0.1924501   1.3333333  )
         2           Co  tau(   2) = (   0.3333333   0.1924501   1.3333333  )
         3           Co  tau(   3) = (   0.6666667   0.1924501   1.3333333  )
         4           Co  tau(   4) = (   0.1666667   0.4811252   1.3333333  )
         5           Co  tau(   5) = (   0.5000000   0.4811252   1.3333333  )
         6           Co  tau(   6) = (   0.8333333   0.4811252   1.3333333  )
         7           Co  tau(   7) = (   0.3333333   0.7698004   1.3333333  )
         8           Co  tau(   8) = (   0.6666667   0.7698004   1.3333333  )
         9           Co  tau(   9) = (   1.0000000   0.7698004   1.3333333  )
        10           Co  tau(  10) = (   0.0000000   0.0000000   1.6036667  )
        11           Co  tau(  11) = (   0.3333333   0.0000000   1.6036667  )
        12           Co  tau(  12) = (   0.6666667   0.0000000   1.6036667  )
        13           Co  tau(  13) = (   0.1666667   0.2886751   1.6036667  )
        14           Co  tau(  14) = (   0.5000000   0.2886751   1.6036667  )
        15           Co  tau(  15) = (   0.8333333   0.2886751   1.6036667  )
        16           Co  tau(  16) = (   0.3333333   0.5773503   1.6036667  )
        17           Co  tau(  17) = (   0.6666667   0.5773503   1.6036667  )
        18           Co  tau(  18) = (   1.0000000   0.5773503   1.6036667  )
        19           Co  tau(  19) = (   0.0000000   0.1924501   1.8740000  )
        20           Co  tau(  20) = (   0.3333333   0.1924501   1.8740000  )
        21           Co  tau(  21) = (   0.6666667   0.1924501   1.8740000  )
        22           Co  tau(  22) = (   0.1666667   0.4811252   1.8740000  )
        23           Co  tau(  23) = (   0.5000000   0.4811252   1.8740000  )
        24           Co  tau(  24) = (   0.8333333   0.4811252   1.8740000  )
        25           Co  tau(  25) = (   0.3333333   0.7698004   1.8740000  )
        26           Co  tau(  26) = (   0.6666667   0.7698004   1.8740000  )
        27           Co  tau(  27) = (   1.0000000   0.7698004   1.8740000  )
        28           Co  tau(  28) = (   0.0000000   0.0000000   2.1443333  )
        29           Co  tau(  29) = (   0.3333333   0.0000000   2.1443333  )
        30           Co  tau(  30) = (   0.6666667   0.0000000   2.1443333  )
        31           Co  tau(  31) = (   0.1666667   0.2886751   2.1443333  )
        32           Co  tau(  32) = (   0.5000000   0.2886751   2.1443333  )
        33           Co  tau(  33) = (   0.8333333   0.2886751   2.1443333  )
        34           Co  tau(  34) = (   0.3333333   0.5773503   2.1443333  )
        35           Co  tau(  35) = (   0.6666667   0.5773503   2.1443333  )
        36           Co  tau(  36) = (   1.0000000   0.5773503   2.1443333  )
        37           C   tau(  37) = (   0.3596880   0.2036378   2.3385630  )
        38           O   tau(  38) = (   0.2179721   0.1364115   2.4053227  )
        39           H   tau(  39) = (   0.4616526   0.2555682   2.4330267  )

     number of k points=    13  Marzari-Vanderbilt smearing, width (Ry)=  0.0010
                       cart. coord. in units 2pi/alat
        k(    1) = (   0.0000000   0.0000000   0.0000000), wk =   0.0400000
        k(    2) = (   0.0000000   0.2309401   0.0000000), wk =   0.0800000
        k(    3) = (   0.0000000   0.4618802   0.0000000), wk =   0.0800000
        k(    4) = (   0.2000000  -0.1154701   0.0000000), wk =   0.0800000
        k(    5) = (   0.2000000   0.1154701   0.0000000), wk =   0.0800000
        k(    6) = (   0.2000000   0.3464102   0.0000000), wk =   0.0800000
        k(    7) = (   0.2000000  -0.5773503   0.0000000), wk =   0.0800000
        k(    8) = (   0.2000000  -0.3464102   0.0000000), wk =   0.0800000
        k(    9) = (   0.4000000  -0.2309401   0.0000000), wk =   0.0800000
        k(   10) = (   0.4000000   0.0000000   0.0000000), wk =   0.0800000
        k(   11) = (   0.4000000   0.2309401   0.0000000), wk =   0.0800000
        k(   12) = (   0.4000000  -0.6928203   0.0000000), wk =   0.0800000
        k(   13) = (   0.4000000  -0.4618802   0.0000000), wk =   0.0800000

     Dense  grid:   752179 G-vectors     FFT dimensions: (  80,  80, 288)

     Smooth grid:   409445 G-vectors     FFT dimensions: (  64,  64, 225)

     Estimated max dynamical RAM per process >      99.02 MB

     Estimated total dynamical RAM >       9.28 GB
     Generating pointlists ...
     new r_m :   0.1049 (alat units)  1.4864 (a.u.) for type    1
     new r_m :   0.0612 (alat units)  0.8675 (a.u.) for type    2
     new r_m :   0.0703 (alat units)  0.9966 (a.u.) for type    3
     new r_m :   0.0612 (alat units)  0.8675 (a.u.) for type    4

     Initial potential from superposition of free atoms

     starting charge     334.9897, renormalised to     335.0000

     negative rho (up, down):  3.044E-03 4.717E-04


     %%%%%%%%%%%%%%%%%%%%%%%%%%%%%%%%%%%%%%%%%%%%%%%%%%%%%%%%%%%%%%%%%%%%%%%%
     %                                                                      %
     % You are using vdW-DF, which was implemented by the Thonhauser group. %
     % Please cite the following two papers that made this development      %
     % possible and the two reviews that describe the various versions:     %
     %                                                                      %
     %   T. Thonhauser et al., PRL 115, 136402 (2015).                      %
     %   T. Thonhauser et al., PRB 76, 125112 (2007).                       %
     %   K. Berland et al., Rep. Prog. Phys. 78, 066501 (2015).             %
     %   D.C. Langreth et al., J. Phys.: Condens. Matter 21, 084203 (2009). %
     %                                                                      %
     % If you are calculating stress with vdW-DF, please also cite:         %
     %                                                                      %
     %   R. Sabatini et al., J. Phys.: Condens. Matter 24, 424209 (2012).   %
     %   C.M. Frostenson et al., Electr. Struct. 4, 014001 (2022).          %
     %                                                                      %
     %%%%%%%%%%%%%%%%%%%%%%%%%%%%%%%%%%%%%%%%%%%%%%%%%%%%%%%%%%%%%%%%%%%%%%%%

     %%%%%%%%%%%%%%%%%%%%%%%%%%%%%%%%%%%%%%%%%%%%%%%%%%%%%%%%%%%%%%%%%%%%%%%%
     %                                                                      %
     %  vdW-DF NEWS:                                                        %
     %                                                                      %
     %  * vdW-DF3 is now available. DOI: 10.1021/acs.jctc.0c00471           %
     %    use with input_dft = 'vdW-DF3-opt1' or 'vdW-DF3-opt2'             %
     %                                                                      %
     %  * Unscreened and range-separated hybrid vdW-DF-cx functionals       %
     %    DOI: 10.1063/1.4986522 and 10.1088/1361-648X/ac2ad2               %
     %    use with input_dft = 'vdW-DF-cx0'    and 'vdW-DF-ahcx'            %
     %  * Unscreened and range-separated hybrid vdW-DF2-b86r functionals    %
     %    DOI: 10.1063/1.4986522 and DOI: 10.1103/PhysRevX.12.041003        %
     %    use with input_dft = 'vdW-DF2-br0' and 'vdW-DF2-ahbr'             %
     %                                                                      %
     %%%%%%%%%%%%%%%%%%%%%%%%%%%%%%%%%%%%%%%%%%%%%%%%%%%%%%%%%%%%%%%%%%%%%%%%


     Starting wfcs are  333 randomized atomic wfcs
     Checking if some PAW data can be deallocated... 

     total cpu time spent up to now is       15.8 secs

     per-process dynamical memory:   231.0 Mb

     Self-consistent Calculation

     iteration #  1     ecut=    50.00 Ry     beta= 0.70
     Davidson diagonalization with overlap
     ethr =  1.00E-02,  avg # of iterations =  2.0

     negative rho (up, down):  2.400E-05 5.272E-08

     total cpu time spent up to now is       41.2 secs

     total energy              =   -6053.09418342 Ry
     estimated scf accuracy    <      39.51269943 Ry

     total magnetization       =    69.00 Bohr mag/cell
     absolute magnetization    =    81.21 Bohr mag/cell

     iteration #  2     ecut=    50.00 Ry     beta= 0.70
     Davidson diagonalization with overlap
     ethr =  1.00E-02,  avg # of iterations =  1.0

     negative rho (up, down):  2.598E-06 7.191E-09

     total cpu time spent up to now is       55.2 secs

     total energy              =   -6052.58612225 Ry
     estimated scf accuracy    <      24.14287722 Ry

     total magnetization       =    68.84 Bohr mag/cell
     absolute magnetization    =    76.79 Bohr mag/cell

     iteration #  3     ecut=    50.00 Ry     beta= 0.70
     Davidson diagonalization with overlap
     ethr =  7.21E-03,  avg # of iterations =  1.0

     total cpu time spent up to now is       75.3 secs

     total energy              =   -6055.15046723 Ry
     estimated scf accuracy    <      85.94884013 Ry

     total magnetization       =    66.14 Bohr mag/cell
     absolute magnetization    =    73.21 Bohr mag/cell

     iteration #  4     ecut=    50.00 Ry     beta= 0.70
     Davidson diagonalization with overlap
     ethr =  7.21E-03,  avg # of iterations =  1.0

     total cpu time spent up to now is       88.9 secs

     total energy              =   -6056.33899610 Ry
     estimated scf accuracy    <       5.88403303 Ry

     total magnetization       =    60.69 Bohr mag/cell
     absolute magnetization    =    70.44 Bohr mag/cell

     iteration #  5     ecut=    50.00 Ry     beta= 0.70
     Davidson diagonalization with overlap
     ethr =  1.76E-03,  avg # of iterations =  1.2

     total cpu time spent up to now is      106.8 secs

     total energy              =   -6056.34973394 Ry
     estimated scf accuracy    <       1.99054720 Ry

     total magnetization       =    60.69 Bohr mag/cell
     absolute magnetization    =    69.87 Bohr mag/cell

     iteration #  6     ecut=    50.00 Ry     beta= 0.70
     Davidson diagonalization with overlap
     ethr =  5.94E-04,  avg # of iterations =  1.7

     total cpu time spent up to now is      121.1 secs

     total energy              =   -6056.46187690 Ry
     estimated scf accuracy    <       0.73653915 Ry

     total magnetization       =    60.21 Bohr mag/cell
     absolute magnetization    =    69.34 Bohr mag/cell

     iteration #  7     ecut=    50.00 Ry     beta= 0.70
     Davidson diagonalization with overlap
     ethr =  2.20E-04,  avg # of iterations =  3.1

     total cpu time spent up to now is      144.1 secs

     total energy              =   -6056.49749830 Ry
     estimated scf accuracy    <       0.66590957 Ry

     total magnetization       =    60.20 Bohr mag/cell
     absolute magnetization    =    69.07 Bohr mag/cell

     iteration #  8     ecut=    50.00 Ry     beta= 0.70
     Davidson diagonalization with overlap
     ethr =  1.99E-04,  avg # of iterations =  2.3

     total cpu time spent up to now is      162.1 secs

     total energy              =   -6056.50825188 Ry
     estimated scf accuracy    <       0.13337065 Ry

     total magnetization       =    60.54 Bohr mag/cell
     absolute magnetization    =    69.20 Bohr mag/cell

     iteration #  9     ecut=    50.00 Ry     beta= 0.70
     Davidson diagonalization with overlap
     ethr =  3.98E-05,  avg # of iterations = 11.3

     total cpu time spent up to now is      200.6 secs

     total energy              =   -6056.53656922 Ry
     estimated scf accuracy    <       0.29065655 Ry

     total magnetization       =    61.24 Bohr mag/cell
     absolute magnetization    =    69.08 Bohr mag/cell

     iteration # 10     ecut=    50.00 Ry     beta= 0.70
     Davidson diagonalization with overlap
     ethr =  3.98E-05,  avg # of iterations =  1.6

     total cpu time spent up to now is      221.0 secs

     total energy              =   -6056.54241002 Ry
     estimated scf accuracy    <       0.15019801 Ry

     total magnetization       =    61.24 Bohr mag/cell
     absolute magnetization    =    69.01 Bohr mag/cell

     iteration # 11     ecut=    50.00 Ry     beta= 0.70
     Davidson diagonalization with overlap
     ethr =  3.98E-05,  avg # of iterations =  1.0

     total cpu time spent up to now is      234.8 secs

     total energy              =   -6056.52780013 Ry
     estimated scf accuracy    <       0.08643299 Ry

     total magnetization       =    61.24 Bohr mag/cell
     absolute magnetization    =    68.95 Bohr mag/cell

     iteration # 12     ecut=    50.00 Ry     beta= 0.70
     Davidson diagonalization with overlap
     ethr =  2.58E-05,  avg # of iterations =  2.0

     negative rho (up, down):  2.654E-06 0.000E+00

     total cpu time spent up to now is      256.1 secs

     total energy              =   -6056.53092651 Ry
     estimated scf accuracy    <       0.09102645 Ry

     total magnetization       =    61.26 Bohr mag/cell
     absolute magnetization    =    68.73 Bohr mag/cell

     iteration # 13     ecut=    50.00 Ry     beta= 0.70
     Davidson diagonalization with overlap
     ethr =  2.58E-05,  avg # of iterations =  1.3

     negative rho (up, down):  3.918E-08 0.000E+00

     total cpu time spent up to now is      269.7 secs

     total energy              =   -6056.52950767 Ry
     estimated scf accuracy    <       0.09837907 Ry

     total magnetization       =    61.25 Bohr mag/cell
     absolute magnetization    =    68.68 Bohr mag/cell

     iteration # 14     ecut=    50.00 Ry     beta= 0.70
     Davidson diagonalization with overlap
     ethr =  2.58E-05,  avg # of iterations =  1.1

     total cpu time spent up to now is      290.1 secs

     total energy              =   -6056.52890422 Ry
     estimated scf accuracy    <       0.06316656 Ry

     total magnetization       =    61.24 Bohr mag/cell
     absolute magnetization    =    68.70 Bohr mag/cell

     iteration # 15     ecut=    50.00 Ry     beta= 0.70
     Davidson diagonalization with overlap
     ethr =  1.89E-05,  avg # of iterations =  1.2

     negative rho (up, down):  2.627E-05 9.230E-08

     total cpu time spent up to now is      304.2 secs

     total energy              =   -6056.52318829 Ry
     estimated scf accuracy    <       0.11203587 Ry

     total magnetization       =    61.25 Bohr mag/cell
     absolute magnetization    =    68.73 Bohr mag/cell

     iteration # 16     ecut=    50.00 Ry     beta= 0.70
     Davidson diagonalization with overlap
     ethr =  1.89E-05,  avg # of iterations =  1.1

     negative rho (up, down):  8.093E-05 3.035E-06

     total cpu time spent up to now is      322.0 secs

     total energy              =   -6056.52204269 Ry
     estimated scf accuracy    <       0.09619701 Ry

     total magnetization       =    61.24 Bohr mag/cell
     absolute magnetization    =    68.72 Bohr mag/cell

     iteration # 17     ecut=    50.00 Ry     beta= 0.70
     Davidson diagonalization with overlap
     ethr =  1.89E-05,  avg # of iterations =  1.0

     negative rho (up, down):  1.933E-02 1.751E-02

     total cpu time spent up to now is      335.0 secs

     total energy              =   -6056.51703788 Ry
     estimated scf accuracy    <       0.07968716 Ry

     total magnetization       =    61.24 Bohr mag/cell
     absolute magnetization    =    68.72 Bohr mag/cell

     iteration # 18     ecut=    50.00 Ry     beta= 0.70
     Davidson diagonalization with overlap
     ethr =  1.89E-05,  avg # of iterations =  1.5

     negative rho (up, down):  8.979E-03 7.740E-03

     total cpu time spent up to now is      356.4 secs

     total energy              =   -6056.51934130 Ry
     estimated scf accuracy    <       0.04224695 Ry

     total magnetization       =    61.24 Bohr mag/cell
     absolute magnetization    =    68.69 Bohr mag/cell

     iteration # 19     ecut=    50.00 Ry     beta= 0.70
     Davidson diagonalization with overlap
     ethr =  1.26E-05,  avg # of iterations =  1.0

     negative rho (up, down):  1.904E-02 1.768E-02

     total cpu time spent up to now is      373.3 secs

     total energy              =   -6056.51706669 Ry
     estimated scf accuracy    <       0.02111525 Ry

     total magnetization       =    61.24 Bohr mag/cell
     absolute magnetization    =    68.70 Bohr mag/cell

     iteration # 20     ecut=    50.00 Ry     beta= 0.70
     Davidson diagonalization with overlap
     ethr =  6.30E-06,  avg # of iterations =  1.2

     negative rho (up, down):  1.208E-02 1.098E-02

     total cpu time spent up to now is      389.6 secs

     total energy              =   -6056.51662464 Ry
     estimated scf accuracy    <       0.02632239 Ry

     total magnetization       =    61.24 Bohr mag/cell
     absolute magnetization    =    68.70 Bohr mag/cell

     iteration # 21     ecut=    50.00 Ry     beta= 0.70
     Davidson diagonalization with overlap
     ethr =  6.30E-06,  avg # of iterations =  1.0

     negative rho (up, down):  1.654E-02 1.543E-02

     total cpu time spent up to now is      406.3 secs

     total energy              =   -6056.51601099 Ry
     estimated scf accuracy    <       0.02393331 Ry

     total magnetization       =    61.24 Bohr mag/cell
     absolute magnetization    =    68.71 Bohr mag/cell

     iteration # 22     ecut=    50.00 Ry     beta= 0.70
     Davidson diagonalization with overlap
     ethr =  6.30E-06,  avg # of iterations =  1.1

     negative rho (up, down):  2.623E-02 2.531E-02

     total cpu time spent up to now is      423.1 secs

     total energy              =   -6056.51496581 Ry
     estimated scf accuracy    <       0.00702373 Ry

     total magnetization       =    61.24 Bohr mag/cell
     absolute magnetization    =    68.72 Bohr mag/cell

     iteration # 23     ecut=    50.00 Ry     beta= 0.70
     Davidson diagonalization with overlap
     c_bands:  2 eigenvalues not converged
     ethr =  2.10E-06,  avg # of iterations =  3.2

     negative rho (up, down):  1.994E-02 1.922E-02

     total cpu time spent up to now is      442.7 secs

     total energy              =   -6056.51428415 Ry
     estimated scf accuracy    <       0.01531238 Ry

     total magnetization       =    61.24 Bohr mag/cell
     absolute magnetization    =    68.73 Bohr mag/cell

     iteration # 24     ecut=    50.00 Ry     beta= 0.70
     Davidson diagonalization with overlap
     ethr =  2.10E-06,  avg # of iterations =  1.2

     negative rho (up, down):  1.139E-02 1.076E-02

     total cpu time spent up to now is      462.6 secs

     total energy              =   -6056.51443663 Ry
     estimated scf accuracy    <       0.00156775 Ry

     total magnetization       =    61.24 Bohr mag/cell
     absolute magnetization    =    68.74 Bohr mag/cell

     iteration # 25     ecut=    50.00 Ry     beta= 0.70
     Davidson diagonalization with overlap
     ethr =  4.68E-07,  avg # of iterations =  2.8

     negative rho (up, down):  1.085E-02 1.027E-02

     total cpu time spent up to now is      478.8 secs

     total energy              =   -6056.51461901 Ry
     estimated scf accuracy    <       0.00483046 Ry

     total magnetization       =    61.24 Bohr mag/cell
     absolute magnetization    =    68.75 Bohr mag/cell

     iteration # 26     ecut=    50.00 Ry     beta= 0.70
     Davidson diagonalization with overlap
     ethr =  4.68E-07,  avg # of iterations =  1.8

     negative rho (up, down):  1.006E-02 9.489E-03

     total cpu time spent up to now is      498.7 secs

     total energy              =   -6056.51479605 Ry
     estimated scf accuracy    <       0.00084279 Ry

     total magnetization       =    61.24 Bohr mag/cell
     absolute magnetization    =    68.75 Bohr mag/cell

     iteration # 27     ecut=    50.00 Ry     beta= 0.70
     Davidson diagonalization with overlap
     ethr =  2.52E-07,  avg # of iterations =  1.7

     negative rho (up, down):  7.514E-03 6.895E-03

     total cpu time spent up to now is      512.8 secs

     total energy              =   -6056.51477906 Ry
     estimated scf accuracy    <       0.00042128 Ry

     total magnetization       =    61.24 Bohr mag/cell
     absolute magnetization    =    68.76 Bohr mag/cell

     iteration # 28     ecut=    50.00 Ry     beta= 0.70
     Davidson diagonalization with overlap
     ethr =  1.26E-07,  avg # of iterations =  3.3

     negative rho (up, down):  6.399E-03 5.725E-03

     total cpu time spent up to now is      535.0 secs

     total energy              =   -6056.51479608 Ry
     estimated scf accuracy    <       0.00031063 Ry

     total magnetization       =    61.24 Bohr mag/cell
     absolute magnetization    =    68.76 Bohr mag/cell

     iteration # 29     ecut=    50.00 Ry     beta= 0.70
     Davidson diagonalization with overlap
     ethr =  9.27E-08,  avg # of iterations =  1.8

     negative rho (up, down):  2.613E-03 1.621E-03

     total cpu time spent up to now is      553.1 secs

     total energy              =   -6056.51476075 Ry
     estimated scf accuracy    <       0.00028316 Ry

     total magnetization       =    61.24 Bohr mag/cell
     absolute magnetization    =    68.76 Bohr mag/cell

     iteration # 30     ecut=    50.00 Ry     beta= 0.70
     Davidson diagonalization with overlap
     ethr =  8.45E-08,  avg # of iterations =  1.8

     negative rho (up, down):  2.919E-03 1.934E-03

     total cpu time spent up to now is      570.8 secs

     total energy              =   -6056.51477175 Ry
     estimated scf accuracy    <       0.00028024 Ry

     total magnetization       =    61.24 Bohr mag/cell
     absolute magnetization    =    68.76 Bohr mag/cell

     iteration # 31     ecut=    50.00 Ry     beta= 0.70
     Davidson diagonalization with overlap
     ethr =  8.37E-08,  avg # of iterations =  1.1

     negative rho (up, down):  2.416E-03 1.386E-03

     total cpu time spent up to now is      587.5 secs

     total energy              =   -6056.51477214 Ry
     estimated scf accuracy    <       0.00014755 Ry

     total magnetization       =    61.24 Bohr mag/cell
     absolute magnetization    =    68.76 Bohr mag/cell

     iteration # 32     ecut=    50.00 Ry     beta= 0.70
     Davidson diagonalization with overlap
     ethr =  4.40E-08,  avg # of iterations =  1.9

     negative rho (up, down):  3.202E-03 2.348E-03

     total cpu time spent up to now is      606.1 secs

     total energy              =   -6056.51473132 Ry
     estimated scf accuracy    <       0.00015511 Ry

     total magnetization       =    61.24 Bohr mag/cell
     absolute magnetization    =    68.76 Bohr mag/cell

     iteration # 33     ecut=    50.00 Ry     beta= 0.70
     Davidson diagonalization with overlap
     ethr =  4.40E-08,  avg # of iterations =  1.5

     negative rho (up, down):  2.159E-03 1.074E-03

     total cpu time spent up to now is      623.6 secs

     total energy              =   -6056.51478792 Ry
     estimated scf accuracy    <       0.00018308 Ry

     total magnetization       =    61.24 Bohr mag/cell
     absolute magnetization    =    68.76 Bohr mag/cell

     iteration # 34     ecut=    50.00 Ry     beta= 0.70
     Davidson diagonalization with overlap
     ethr =  4.40E-08,  avg # of iterations =  1.9

     negative rho (up, down):  2.081E-03 1.027E-03

     total cpu time spent up to now is      644.5 secs

     total energy              =   -6056.51479523 Ry
     estimated scf accuracy    <       0.00005498 Ry

     total magnetization       =    61.24 Bohr mag/cell
     absolute magnetization    =    68.76 Bohr mag/cell

     iteration # 35     ecut=    50.00 Ry     beta= 0.70
     Davidson diagonalization with overlap
     ethr =  1.64E-08,  avg # of iterations =  1.9

     negative rho (up, down):  2.294E-03 1.187E-03

     total cpu time spent up to now is      659.9 secs

     total energy              =   -6056.51479780 Ry
     estimated scf accuracy    <       0.00001564 Ry

     total magnetization       =    61.24 Bohr mag/cell
     absolute magnetization    =    68.76 Bohr mag/cell

     iteration # 36     ecut=    50.00 Ry     beta= 0.70
     Davidson diagonalization with overlap
     ethr =  4.67E-09,  avg # of iterations =  6.0

     negative rho (up, down):  2.153E-03 1.101E-03

     total cpu time spent up to now is      685.1 secs

     total energy              =   -6056.51479510 Ry
     estimated scf accuracy    <       0.00006904 Ry

     total magnetization       =    61.24 Bohr mag/cell
     absolute magnetization    =    68.76 Bohr mag/cell

     iteration # 37     ecut=    50.00 Ry     beta= 0.70
     Davidson diagonalization with overlap
     ethr =  4.67E-09,  avg # of iterations =  2.0

     negative rho (up, down):  2.162E-03 1.093E-03

     total cpu time spent up to now is      703.6 secs

     total energy              =   -6056.51479893 Ry
     estimated scf accuracy    <       0.00000967 Ry

     total magnetization       =    61.24 Bohr mag/cell
     absolute magnetization    =    68.76 Bohr mag/cell

     iteration # 38     ecut=    50.00 Ry     beta= 0.70
     Davidson diagonalization with overlap
     ethr =  2.89E-09,  avg # of iterations =  1.5

     negative rho (up, down):  2.186E-03 1.098E-03

     total cpu time spent up to now is      718.0 secs

     total energy              =   -6056.51479981 Ry
     estimated scf accuracy    <       0.00000455 Ry

     total magnetization       =    61.24 Bohr mag/cell
     absolute magnetization    =    68.76 Bohr mag/cell

     iteration # 39     ecut=    50.00 Ry     beta= 0.70
     Davidson diagonalization with overlap
     ethr =  1.36E-09,  avg # of iterations =  3.0

     negative rho (up, down):  2.186E-03 1.103E-03

     total cpu time spent up to now is      741.1 secs

     total energy              =   -6056.51479989 Ry
     estimated scf accuracy    <       0.00000236 Ry

     total magnetization       =    61.24 Bohr mag/cell
     absolute magnetization    =    68.76 Bohr mag/cell

     iteration # 40     ecut=    50.00 Ry     beta= 0.70
     Davidson diagonalization with overlap
     ethr =  7.04E-10,  avg # of iterations =  3.9

     negative rho (up, down):  2.200E-03 1.114E-03

     total cpu time spent up to now is      760.9 secs

     total energy              =   -6056.51480004 Ry
     estimated scf accuracy    <       0.00000091 Ry

     total magnetization       =    61.24 Bohr mag/cell
     absolute magnetization    =    68.76 Bohr mag/cell

     iteration # 41     ecut=    50.00 Ry     beta= 0.70
     Davidson diagonalization with overlap
     ethr =  2.72E-10,  avg # of iterations =  4.8

     negative rho (up, down):  2.220E-03 1.127E-03

     total cpu time spent up to now is      781.6 secs

     total energy              =   -6056.51480021 Ry
     estimated scf accuracy    <       0.00000046 Ry

     total magnetization       =    61.24 Bohr mag/cell
     absolute magnetization    =    68.76 Bohr mag/cell

     iteration # 42     ecut=    50.00 Ry     beta= 0.70
     Davidson diagonalization with overlap
     ethr =  1.38E-10,  avg # of iterations =  5.3

     negative rho (up, down):  2.212E-03 1.118E-03

     total cpu time spent up to now is      806.5 secs

     total energy              =   -6056.51480023 Ry
     estimated scf accuracy    <       0.00000070 Ry

     total magnetization       =    61.24 Bohr mag/cell
     absolute magnetization    =    68.76 Bohr mag/cell

     iteration # 43     ecut=    50.00 Ry     beta= 0.70
     Davidson diagonalization with overlap
     ethr =  1.38E-10,  avg # of iterations =  1.8

     negative rho (up, down):  2.221E-03 1.123E-03

     total cpu time spent up to now is      824.7 secs

     total energy              =   -6056.51480028 Ry
     estimated scf accuracy    <       0.00000013 Ry

     total magnetization       =    61.24 Bohr mag/cell
     absolute magnetization    =    68.76 Bohr mag/cell

     iteration # 44     ecut=    50.00 Ry     beta= 0.70
     Davidson diagonalization with overlap
     ethr =  3.83E-11,  avg # of iterations =  5.5

     negative rho (up, down):  2.226E-03 1.126E-03

     total cpu time spent up to now is      846.2 secs

     total energy              =   -6056.51480029 Ry
     estimated scf accuracy    <       0.00000013 Ry

     total magnetization       =    61.24 Bohr mag/cell
     absolute magnetization    =    68.76 Bohr mag/cell

     iteration # 45     ecut=    50.00 Ry     beta= 0.70
     Davidson diagonalization with overlap
     ethr =  3.83E-11,  avg # of iterations =  1.9

     negative rho (up, down):  2.226E-03 1.126E-03

     total cpu time spent up to now is      864.8 secs

     total energy              =   -6056.51480029 Ry
     estimated scf accuracy    <       0.00000003 Ry

     total magnetization       =    61.24 Bohr mag/cell
     absolute magnetization    =    68.76 Bohr mag/cell

     iteration # 46     ecut=    50.00 Ry     beta= 0.70
     Davidson diagonalization with overlap
     ethr =  8.89E-12,  avg # of iterations =  8.7

     negative rho (up, down):  2.226E-03 1.126E-03

     total cpu time spent up to now is      895.0 secs

     total energy              =   -6056.51480030 Ry
     estimated scf accuracy    <       0.00000014 Ry

     total magnetization       =    61.24 Bohr mag/cell
     absolute magnetization    =    68.76 Bohr mag/cell

     iteration # 47     ecut=    50.00 Ry     beta= 0.70
     Davidson diagonalization with overlap
     ethr =  8.89E-12,  avg # of iterations =  1.7

     negative rho (up, down):  2.227E-03 1.127E-03

     total cpu time spent up to now is      915.1 secs

     total energy              =   -6056.51480030 Ry
     estimated scf accuracy    <       0.00000001 Ry

     total magnetization       =    61.24 Bohr mag/cell
     absolute magnetization    =    68.76 Bohr mag/cell

     iteration # 48     ecut=    50.00 Ry     beta= 0.70
     Davidson diagonalization with overlap
     ethr =  3.44E-12,  avg # of iterations =  2.1

     negative rho (up, down):  2.235E-03 1.135E-03

     Magnetic moment per site  (integrated on atomic sphere of radius R)
     atom   1 (R=0.105)  charge=  6.3232  magn=  1.7781
     atom   2 (R=0.105)  charge=  6.3248  magn=  1.7696
     atom   3 (R=0.105)  charge=  6.3241  magn=  1.7764
     atom   4 (R=0.105)  charge=  6.3238  magn=  1.7775
     atom   5 (R=0.105)  charge=  6.3240  magn=  1.7772
     atom   6 (R=0.105)  charge=  6.3237  magn=  1.7825
     atom   7 (R=0.105)  charge=  6.3234  magn=  1.7845
     atom   8 (R=0.105)  charge=  6.3233  magn=  1.7773
     atom   9 (R=0.105)  charge=  6.3238  magn=  1.7782
     atom  10 (R=0.105)  charge=  6.3321  magn=  1.7020
     atom  11 (R=0.105)  charge=  6.3324  magn=  1.7044
     atom  12 (R=0.105)  charge=  6.3319  magn=  1.7043
     atom  13 (R=0.105)  charge=  6.3324  magn=  1.7054
     atom  14 (R=0.105)  charge=  6.3324  magn=  1.6963
     atom  15 (R=0.105)  charge=  6.3324  magn=  1.7094
     atom  16 (R=0.105)  charge=  6.3319  magn=  1.7038
     atom  17 (R=0.105)  charge=  6.3324  magn=  1.7080
     atom  18 (R=0.105)  charge=  6.3314  magn=  1.7038
     atom  19 (R=0.105)  charge=  6.3294  magn=  1.7107
     atom  20 (R=0.105)  charge=  6.3283  magn=  1.7425
     atom  21 (R=0.105)  charge=  6.3309  magn=  1.7042
     atom  22 (R=0.105)  charge=  6.3321  magn=  1.6988
     atom  23 (R=0.105)  charge=  6.3306  magn=  1.7049
     atom  24 (R=0.105)  charge=  6.3305  magn=  1.7117
     atom  25 (R=0.105)  charge=  6.3317  magn=  1.7072
     atom  26 (R=0.105)  charge=  6.3294  magn=  1.7096
     atom  27 (R=0.105)  charge=  6.3322  magn=  1.7020
     atom  28 (R=0.105)  charge=  6.3281  magn=  1.7996
     atom  29 (R=0.105)  charge=  6.3464  magn=  1.5905
     atom  30 (R=0.105)  charge=  6.3249  magn=  1.7866
     atom  31 (R=0.105)  charge=  6.3435  magn=  1.6229
     atom  32 (R=0.105)  charge=  6.3575  magn=  1.2999
     atom  33 (R=0.105)  charge=  6.3266  magn=  1.7653
     atom  34 (R=0.105)  charge=  6.3243  magn=  1.7902
     atom  35 (R=0.105)  charge=  6.3259  magn=  1.7637
     atom  36 (R=0.105)  charge=  6.3206  magn=  1.8064
     atom  37 (R=0.061)  charge=  0.8643  magn= -0.0223
     atom  38 (R=0.070)  charge=  3.2571  magn=  0.0431
     atom  39 (R=0.061)  charge=  0.5028  magn=  0.0090

     total cpu time spent up to now is      929.9 secs

     End of self-consistent calculation

 ------ SPIN UP ------------


          k = 0.0000 0.0000 0.0000 ( 51087 PWs)   bands (ev):

   -21.5518 -10.6164  -7.5151  -7.0498  -6.3250  -5.7008  -5.5285  -4.5850
    -4.5673  -4.5661  -4.5649  -4.5546  -4.5262  -4.5019  -4.1932  -4.0451
    -4.0343  -4.0314  -4.0185  -3.9804  -3.9753  -3.5533  -3.5170  -3.5134
    -3.5056  -3.4881  -3.4662  -3.4046  -3.3928  -3.3872  -3.3845  -3.3735
    -3.3645  -3.3133  -3.3063  -3.0463  -3.0035  -2.9960  -2.9941  -2.9934
    -2.9661  -2.9354  -2.9291  -2.9257  -2.9211  -2.9154  -2.9121  -2.7724
    -2.7662  -2.7603  -2.7308  -2.6967  -2.6922  -2.6909  -2.6762  -2.6614
    -2.6546  -2.6522  -2.6504  -2.5695  -2.5596  -2.5556  -2.5531  -2.5446
    -2.4895  -2.3085  -2.0458  -2.0220  -2.0190  -2.0162  -2.0129  -1.9874
    -1.9116  -1.8800  -1.8782  -1.8674  -1.8543  -1.8479  -1.8388  -1.8378
    -1.8329  -1.7833  -1.7820  -1.7342  -1.7306  -1.7290  -1.7125  -1.7048
    -1.6974  -1.6928  -1.6906  -1.6882  -1.6711  -1.6630  -1.6587  -1.6528
    -1.6516  -1.6468  -1.6444  -1.6401  -1.6400  -1.6363  -1.6342  -1.6289
    -1.6274  -1.5895  -1.5762  -1.5686  -1.5626  -1.4875  -1.4845  -1.4455
    -1.2718  -1.2480  -1.1932  -1.1869  -1.1835  -1.1775  -1.1738  -1.1700
    -1.1526  -1.1489  -1.1201  -1.1070  -1.1001  -0.9768  -0.9753  -0.9722
    -0.9475  -0.9235  -0.8355  -0.8034  -0.7761  -0.7709  -0.7620  -0.7418
    -0.7031  -0.6963  -0.6951  -0.6908  -0.6864  -0.6695  -0.5808  -0.5762
    -0.4632  -0.4516  -0.4475  -0.4469  -0.4192  -0.4168  -0.3897  -0.3875
    -0.3808  -0.3784  -0.3740  -0.3730  -0.3687  -0.3670  -0.3608  -0.3535
    -0.3518  -0.3505  -0.3372  -0.3335  -0.3122  -0.3048  -0.3039  -0.2928
    -0.2871  -0.2808  -0.2628  -0.2554  -0.2533  -0.2338  -0.2303  -0.2253
    -0.2249  -0.2123  -0.2026  -0.1914  -0.1645  -0.1583  -0.1531  -0.1459
    -0.1419  -0.1405  -0.1358  -0.1283  -0.1200  -0.1045  -0.0682  -0.0662
    -0.0519  -0.0505   0.0086   0.0112   0.0162   0.0204   0.0235   0.0341
     0.4389   1.1264

          k = 0.0000 0.2309 0.0000 ( 51134 PWs)   bands (ev):

   -21.5518 -10.6161  -7.3911  -7.0168  -6.2612  -5.6965  -5.5051  -5.2579
    -4.8125  -4.8043  -4.4300  -4.2978  -4.2253  -4.2232  -4.1585  -4.1021
    -4.0714  -4.0295  -3.9580  -3.9055  -3.8934  -3.6483  -3.5322  -3.5209
    -3.4648  -3.4310  -3.3987  -3.3947  -3.3916  -3.3798  -3.3722  -3.3531
    -3.3261  -3.2850  -3.2743  -3.2415  -3.2383  -3.0857  -3.0310  -3.0149
    -2.9939  -2.9594  -2.9542  -2.9458  -2.8935  -2.8604  -2.8257  -2.8049
    -2.7910  -2.7836  -2.7699  -2.7481  -2.6554  -2.6527  -2.6342  -2.6086
    -2.5825  -2.5726  -2.5481  -2.5388  -2.5271  -2.4957  -2.4805  -2.4695
    -2.4160  -2.3193  -2.1663  -2.1251  -2.1141  -2.0887  -2.0559  -2.0139
    -1.9843  -1.9793  -1.9718  -1.9637  -1.9451  -1.9363  -1.9157  -1.8837
    -1.8488  -1.8398  -1.8247  -1.7912  -1.7776  -1.7729  -1.7646  -1.7493
    -1.7433  -1.7339  -1.7301  -1.7283  -1.7171  -1.7036  -1.6794  -1.6530
    -1.6345  -1.6155  -1.5797  -1.5541  -1.5459  -1.5400  -1.5313  -1.5218
    -1.5100  -1.5061  -1.4990  -1.4875  -1.4850  -1.4620  -1.4463  -1.4347
    -1.4251  -1.4179  -1.3708  -1.3365  -1.3294  -1.2542  -1.2188  -1.2136
    -1.2052  -1.1929  -1.1834  -1.1826  -1.1797  -1.1608  -1.0789  -1.0411
    -1.0085  -0.9971  -0.9315  -0.9220  -0.9009  -0.8564  -0.8325  -0.8282
    -0.7831  -0.7509  -0.7232  -0.7041  -0.6862  -0.6807  -0.6490  -0.6402
    -0.6226  -0.6106  -0.5913  -0.5619  -0.5528  -0.5385  -0.5323  -0.5259
    -0.4705  -0.4563  -0.4476  -0.4414  -0.4266  -0.3989  -0.3837  -0.3807
    -0.3761  -0.3680  -0.3602  -0.3491  -0.3278  -0.3229  -0.3070  -0.2804
    -0.2648  -0.2489  -0.2382  -0.2218  -0.2004  -0.1925  -0.1554  -0.1355
    -0.1279  -0.1232  -0.1104  -0.1066  -0.0846  -0.0815  -0.0711  -0.0661
    -0.0327   0.0058   0.0096   0.0211   0.0453   0.0476   0.0800   0.0871
     0.1008   0.1405   0.3686   0.3918   0.4834   0.5606   0.6356   0.6484
     0.7647   0.8812

          k = 0.0000 0.4619 0.0000 ( 51204 PWs)   bands (ev):

   -21.5518 -10.6154  -7.1776  -6.7959  -6.2504  -6.0410  -5.5944  -5.2976
    -4.9529  -4.9408  -4.8142  -4.1103  -4.0733  -4.0599  -4.0177  -3.9813
    -3.8702  -3.8661  -3.8223  -3.7479  -3.7332  -3.7218  -3.6158  -3.5555
    -3.5509  -3.5431  -3.5377  -3.4869  -3.4744  -3.4290  -3.4237  -3.2832
    -3.2674  -3.2627  -3.2489  -3.2257  -3.2172  -3.1473  -3.1165  -3.1056
    -3.0913  -3.0896  -2.9811  -2.9510  -2.8805  -2.8250  -2.7861  -2.7686
    -2.7482  -2.7170  -2.7056  -2.7004  -2.6977  -2.6662  -2.6296  -2.6052
    -2.5805  -2.5556  -2.5336  -2.4674  -2.4019  -2.3911  -2.3722  -2.3339
    -2.2856  -2.2683  -2.2605  -2.2438  -2.2208  -2.1647  -2.1496  -2.1073
    -2.1061  -2.1006  -2.0883  -2.0752  -2.0609  -2.0533  -2.0117  -2.0008
    -1.9767  -1.9599  -1.9305  -1.9212  -1.8871  -1.8677  -1.8209  -1.7972
    -1.7775  -1.7710  -1.7486  -1.7272  -1.7011  -1.6807  -1.6681  -1.6595
    -1.6518  -1.6423  -1.6237  -1.6043  -1.5996  -1.5822  -1.5711  -1.5509
    -1.5400  -1.5237  -1.4789  -1.4604  -1.4316  -1.3943  -1.3785  -1.3687
    -1.3592  -1.3392  -1.3021  -1.2631  -1.2602  -1.2443  -1.2344  -1.2273
    -1.2184  -1.2124  -1.2006  -1.1972  -1.1907  -1.1802  -1.1719  -1.1605
    -1.1474  -1.1213  -1.0517  -1.0262  -1.0077  -0.9954  -0.9751  -0.9573
    -0.9438  -0.8775  -0.8763  -0.8526  -0.8373  -0.7936  -0.7805  -0.7294
    -0.7198  -0.6868  -0.6670  -0.6507  -0.6412  -0.6249  -0.5948  -0.5407
    -0.4978  -0.4718  -0.4540  -0.4477  -0.4451  -0.4373  -0.4325  -0.4214
    -0.4006  -0.3819  -0.3235  -0.3015  -0.2861  -0.2830  -0.2750  -0.2653
    -0.2596  -0.2396  -0.2300  -0.2217  -0.2126  -0.1862  -0.1186  -0.1008
    -0.0941  -0.0916  -0.0646  -0.0095   0.0014   0.0067   0.0366   0.0577
     0.0722   0.1174   0.1189   0.1415   0.1445   0.1480   0.1585   0.1728
     0.2477   0.2625   0.3598   0.9457   1.1634   1.2937   1.3776   1.4180
     1.5770   1.7425

          k = 0.2000-0.1155 0.0000 ( 51134 PWs)   bands (ev):

   -21.5518 -10.6162  -7.3910  -7.0167  -6.2596  -5.6900  -5.5089  -5.2632
    -4.8122  -4.8012  -4.4329  -4.3007  -4.2252  -4.2227  -4.1592  -4.1018
    -4.0681  -4.0288  -3.9605  -3.9049  -3.8914  -3.6514  -3.5296  -3.5208
    -3.4700  -3.4306  -3.3983  -3.3943  -3.3927  -3.3800  -3.3686  -3.3536
    -3.3256  -3.2848  -3.2737  -3.2417  -3.2381  -3.0876  -3.0337  -3.0141
    -2.9932  -2.9589  -2.9547  -2.9461  -2.8946  -2.8612  -2.8255  -2.8040
    -2.7901  -2.7837  -2.7685  -2.7493  -2.6590  -2.6527  -2.6353  -2.6039
    -2.5839  -2.5722  -2.5471  -2.5376  -2.5244  -2.4953  -2.4790  -2.4684
    -2.4183  -2.3206  -2.1659  -2.1261  -2.1150  -2.0886  -2.0573  -2.0133
    -1.9846  -1.9783  -1.9708  -1.9632  -1.9456  -1.9382  -1.9172  -1.8813
    -1.8477  -1.8386  -1.8236  -1.7900  -1.7767  -1.7714  -1.7640  -1.7502
    -1.7441  -1.7342  -1.7314  -1.7286  -1.7163  -1.7046  -1.6787  -1.6555
    -1.6349  -1.6171  -1.5775  -1.5534  -1.5459  -1.5397  -1.5322  -1.5219
    -1.5112  -1.5049  -1.4980  -1.4875  -1.4849  -1.4626  -1.4470  -1.4340
    -1.4249  -1.4176  -1.3729  -1.3391  -1.3275  -1.2510  -1.2174  -1.2139
    -1.2051  -1.1929  -1.1838  -1.1813  -1.1795  -1.1621  -1.0846  -1.0369
    -1.0045  -0.9935  -0.9318  -0.9228  -0.9016  -0.8577  -0.8320  -0.8278
    -0.7846  -0.7538  -0.7268  -0.7050  -0.6860  -0.6816  -0.6448  -0.6393
    -0.6242  -0.6119  -0.5894  -0.5625  -0.5545  -0.5370  -0.5326  -0.5256
    -0.4707  -0.4553  -0.4480  -0.4405  -0.4290  -0.4024  -0.3831  -0.3798
    -0.3747  -0.3679  -0.3598  -0.3500  -0.3288  -0.3209  -0.3075  -0.2802
    -0.2657  -0.2476  -0.2384  -0.2210  -0.2015  -0.1919  -0.1558  -0.1343
    -0.1281  -0.1223  -0.1105  -0.1081  -0.0865  -0.0814  -0.0705  -0.0660
    -0.0321   0.0062   0.0097   0.0212   0.0456   0.0471   0.0801   0.0881
     0.1009   0.1411   0.3713   0.3925   0.4793   0.5651   0.6298   0.6521
     0.7560   0.8754

          k = 0.2000 0.1155 0.0000 ( 51134 PWs)   bands (ev):

   -21.5518 -10.6167  -7.3912  -7.0161  -6.2515  -5.6522  -5.5329  -5.2989
    -4.8073  -4.7890  -4.4376  -4.3221  -4.2296  -4.2186  -4.1594  -4.1103
    -4.0468  -4.0215  -3.9640  -3.9051  -3.8891  -3.6404  -3.5487  -3.5220
    -3.4439  -3.4207  -3.4015  -3.3979  -3.3918  -3.3907  -3.3629  -3.3585
    -3.3211  -3.2845  -3.2783  -3.2410  -3.2377  -3.0755  -3.0254  -3.0193
    -3.0025  -2.9754  -2.9549  -2.9515  -2.8890  -2.8579  -2.8448  -2.8047
    -2.7903  -2.7858  -2.7681  -2.7602  -2.6627  -2.6538  -2.6483  -2.6126
    -2.5889  -2.5582  -2.5489  -2.5294  -2.5136  -2.4863  -2.4756  -2.4724
    -2.4255  -2.3084  -2.1792  -2.1317  -2.1191  -2.0841  -2.0451  -2.0046
    -1.9876  -1.9798  -1.9686  -1.9617  -1.9512  -1.9309  -1.9036  -1.8847
    -1.8561  -1.8327  -1.8133  -1.7965  -1.7741  -1.7720  -1.7641  -1.7437
    -1.7421  -1.7360  -1.7352  -1.7254  -1.7111  -1.6987  -1.6837  -1.6671
    -1.6272  -1.6039  -1.5698  -1.5470  -1.5449  -1.5370  -1.5338  -1.5203
    -1.5108  -1.5083  -1.5023  -1.4868  -1.4852  -1.4671  -1.4496  -1.4373
    -1.4245  -1.4165  -1.3883  -1.3478  -1.3296  -1.2361  -1.2155  -1.2117
    -1.2096  -1.1984  -1.1915  -1.1840  -1.1792  -1.1775  -1.0575  -1.0293
    -0.9970  -0.9902  -0.9268  -0.9219  -0.8983  -0.8607  -0.8345  -0.8307
    -0.7700  -0.7437  -0.7280  -0.7137  -0.6920  -0.6848  -0.6499  -0.6463
    -0.6190  -0.6105  -0.5933  -0.5588  -0.5468  -0.5368  -0.5326  -0.5228
    -0.4772  -0.4564  -0.4495  -0.4396  -0.4320  -0.3934  -0.3900  -0.3786
    -0.3736  -0.3643  -0.3622  -0.3413  -0.3273  -0.3260  -0.3056  -0.2818
    -0.2552  -0.2474  -0.2251  -0.2201  -0.2099  -0.1951  -0.1515  -0.1363
    -0.1290  -0.1258  -0.1206  -0.1059  -0.0821  -0.0799  -0.0691  -0.0670
    -0.0314   0.0053   0.0112   0.0206   0.0470   0.0479   0.0773   0.0979
     0.1093   0.1364   0.3520   0.3845   0.4329   0.5583   0.6154   0.6510
     0.7332   0.8735

          k = 0.2000 0.3464 0.0000 ( 51202 PWs)   bands (ev):

   -21.5518 -10.6163  -7.2195  -6.8888  -6.1722  -5.7316  -5.6418  -5.4584
    -5.4069  -4.5350  -4.4727  -4.2328  -4.2215  -4.1673  -4.0164  -4.0082
    -3.9180  -3.9127  -3.8959  -3.7801  -3.7597  -3.6471  -3.6344  -3.5700
    -3.5241  -3.4394  -3.4312  -3.4162  -3.3962  -3.3764  -3.3649  -3.3445
    -3.3274  -3.3093  -3.3016  -3.2629  -3.2185  -3.1946  -3.1751  -3.0881
    -3.0557  -2.9899  -2.9539  -2.9228  -2.9107  -2.8990  -2.8326  -2.7979
    -2.7515  -2.7259  -2.7182  -2.7137  -2.6733  -2.6545  -2.6372  -2.6336
    -2.6172  -2.5459  -2.4923  -2.4435  -2.4360  -2.4143  -2.4051  -2.3767
    -2.3594  -2.2633  -2.2280  -2.1856  -2.1707  -2.1294  -2.1130  -2.0951
    -2.0788  -2.0711  -2.0589  -2.0478  -2.0251  -2.0096  -2.0063  -1.9971
    -1.9795  -1.9342  -1.8954  -1.8813  -1.8132  -1.8125  -1.8028  -1.7730
    -1.7648  -1.7379  -1.7251  -1.6999  -1.6859  -1.6716  -1.6565  -1.6494
    -1.6386  -1.6291  -1.6178  -1.6081  -1.5978  -1.5880  -1.5720  -1.5543
    -1.5461  -1.5326  -1.4933  -1.4776  -1.4594  -1.4302  -1.4147  -1.4135
    -1.3951  -1.3852  -1.3610  -1.3325  -1.3103  -1.3055  -1.2829  -1.2493
    -1.2419  -1.2347  -1.2301  -1.2109  -1.1971  -1.1786  -1.1682  -1.1288
    -1.0906  -1.0663  -1.0578  -1.0146  -0.9439  -0.9359  -0.9167  -0.8405
    -0.8125  -0.8047  -0.7961  -0.7852  -0.7752  -0.7668  -0.7484  -0.7398
    -0.7138  -0.6967  -0.6725  -0.6426  -0.6281  -0.6162  -0.6043  -0.5899
    -0.5647  -0.5550  -0.5257  -0.5118  -0.5055  -0.4586  -0.4001  -0.3558
    -0.3427  -0.3199  -0.3106  -0.2912  -0.2820  -0.2722  -0.2709  -0.2630
    -0.2526  -0.2404  -0.1836  -0.1666  -0.1576  -0.1440  -0.1054  -0.0919
    -0.0769  -0.0728  -0.0667  -0.0483  -0.0418  -0.0318  -0.0228  -0.0125
     0.0048   0.0093   0.0854   0.0900   0.0971   0.1433   0.1454   0.1532
     0.4645   0.4870   0.5549   0.6248   0.7929   0.8232   1.0644   1.3067
     1.3970   1.5337

          k = 0.2000-0.5774 0.0000 ( 51262 PWs)   bands (ev):

   -21.5518 -10.6157  -7.1442  -6.4577  -6.4241  -6.0505  -5.7399  -5.5564
    -5.0773  -4.9661  -4.5626  -4.2149  -3.9775  -3.9318  -3.8353  -3.8010
    -3.7966  -3.7733  -3.7652  -3.7323  -3.6993  -3.6866  -3.6809  -3.6765
    -3.6010  -3.5689  -3.5351  -3.5281  -3.5097  -3.5026  -3.4148  -3.3757
    -3.3496  -3.3380  -3.3200  -3.2877  -3.2241  -3.1847  -3.0936  -3.0622
    -3.0542  -3.0095  -2.9753  -2.9524  -2.9260  -2.8564  -2.8429  -2.8336
    -2.7697  -2.7609  -2.7143  -2.6721  -2.6424  -2.6168  -2.5843  -2.5588
    -2.5169  -2.4754  -2.4647  -2.4582  -2.4477  -2.4302  -2.4075  -2.3449
    -2.2985  -2.2635  -2.2520  -2.2386  -2.2284  -2.1775  -2.1574  -2.1415
    -2.1072  -2.0832  -2.0694  -2.0582  -2.0443  -2.0281  -1.9991  -1.9926
    -1.9773  -1.9672  -1.9564  -1.9266  -1.9230  -1.9176  -1.8525  -1.8468
    -1.8240  -1.7874  -1.7602  -1.7453  -1.7112  -1.6971  -1.6823  -1.6576
    -1.6543  -1.6361  -1.6321  -1.6231  -1.6095  -1.5951  -1.5770  -1.5507
    -1.5059  -1.4950  -1.4786  -1.4742  -1.4581  -1.4503  -1.4467  -1.4378
    -1.4301  -1.4176  -1.4037  -1.3804  -1.3498  -1.3258  -1.3147  -1.2867
    -1.2359  -1.2193  -1.2032  -1.1814  -1.1719  -1.1544  -1.1460  -1.1076
    -1.0798  -1.0725  -1.0603  -1.0073  -0.9687  -0.9378  -0.9286  -0.9020
    -0.8917  -0.8806  -0.8666  -0.8436  -0.8189  -0.8111  -0.7863  -0.7538
    -0.7351  -0.7210  -0.7049  -0.6843  -0.6690  -0.6367  -0.6192  -0.6101
    -0.5903  -0.5766  -0.5718  -0.5573  -0.5178  -0.4847  -0.4703  -0.3689
    -0.3112  -0.3055  -0.2984  -0.2910  -0.2842  -0.2754  -0.2701  -0.2420
    -0.2198  -0.2118  -0.2034  -0.1892  -0.1686  -0.1447  -0.0787  -0.0747
    -0.0611  -0.0492  -0.0317  -0.0248   0.0165   0.0279   0.0314   0.0433
     0.0508   0.1208   0.1263   0.1393   0.1475   0.1523   0.1740   0.1987
     0.2828   0.4976   0.5737   0.8327   1.3134   1.4227   1.5468   1.6989
     1.9073   1.9685

          k = 0.2000-0.3464 0.0000 ( 51202 PWs)   bands (ev):

   -21.5518 -10.6156  -7.2161  -6.8973  -6.1801  -5.7613  -5.6450  -5.4610
    -5.3497  -4.5575  -4.4503  -4.2322  -4.2226  -4.1619  -4.0157  -4.0093
    -3.9237  -3.9045  -3.8881  -3.7799  -3.7666  -3.6522  -3.6343  -3.5708
    -3.5284  -3.4714  -3.4317  -3.4197  -3.3823  -3.3754  -3.3674  -3.3589
    -3.3294  -3.3123  -3.3042  -3.2618  -3.2175  -3.1809  -3.1722  -3.0848
    -3.0666  -2.9543  -2.9424  -2.9389  -2.9162  -2.8956  -2.7986  -2.7527
    -2.7457  -2.7410  -2.7222  -2.7096  -2.6725  -2.6591  -2.6461  -2.6292
    -2.6127  -2.5136  -2.4892  -2.4852  -2.4365  -2.4144  -2.3930  -2.3800
    -2.3525  -2.2966  -2.2456  -2.1851  -2.1569  -2.1382  -2.1281  -2.0990
    -2.0821  -2.0714  -2.0575  -2.0451  -2.0248  -2.0144  -2.0041  -1.9973
    -1.9805  -1.9340  -1.8945  -1.8748  -1.8274  -1.8056  -1.7919  -1.7773
    -1.7664  -1.7375  -1.7213  -1.7030  -1.6984  -1.6721  -1.6538  -1.6506
    -1.6352  -1.6317  -1.6259  -1.6068  -1.5990  -1.5915  -1.5679  -1.5608
    -1.5447  -1.5392  -1.5133  -1.4673  -1.4590  -1.4349  -1.4154  -1.4142
    -1.3886  -1.3851  -1.3767  -1.3237  -1.3109  -1.3075  -1.2842  -1.2700
    -1.2348  -1.2319  -1.2299  -1.2096  -1.1982  -1.1796  -1.1679  -1.1240
    -1.0964  -1.0674  -1.0627  -1.0095  -0.9622  -0.9383  -0.9156  -0.8212
    -0.8113  -0.8000  -0.7916  -0.7875  -0.7769  -0.7696  -0.7473  -0.7286
    -0.7115  -0.6889  -0.6773  -0.6442  -0.6402  -0.6124  -0.6060  -0.5942
    -0.5629  -0.5403  -0.5282  -0.5126  -0.5075  -0.4675  -0.3873  -0.3544
    -0.3380  -0.3163  -0.3128  -0.3034  -0.2929  -0.2764  -0.2679  -0.2639
    -0.2516  -0.2395  -0.1750  -0.1639  -0.1517  -0.1420  -0.1066  -0.0856
    -0.0807  -0.0748  -0.0697  -0.0453  -0.0397  -0.0358  -0.0236  -0.0150
     0.0098   0.0239   0.0843   0.0888   0.0977   0.1415   0.1453   0.1595
     0.4367   0.4883   0.5328   0.6549   0.7334   0.8317   1.1975   1.3507
     1.3575   1.5791

          k = 0.4000-0.2309 0.0000 ( 51204 PWs)   bands (ev):

   -21.5518 -10.6159  -7.1782  -6.7941  -6.2450  -6.0395  -5.5891  -5.3097
    -4.9533  -4.9369  -4.8198  -4.1117  -4.0699  -4.0580  -4.0187  -3.9836
    -3.8696  -3.8664  -3.8233  -3.7485  -3.7332  -3.7222  -3.6182  -3.5553
    -3.5484  -3.5446  -3.5376  -3.4909  -3.4766  -3.4296  -3.4234  -3.2785
    -3.2668  -3.2608  -3.2479  -3.2254  -3.2172  -3.1501  -3.1198  -3.1053
    -3.0914  -3.0902  -2.9836  -2.9476  -2.8823  -2.8248  -2.7873  -2.7693
    -2.7485  -2.7186  -2.7058  -2.6998  -2.6964  -2.6683  -2.6251  -2.6050
    -2.5804  -2.5531  -2.5348  -2.4665  -2.4006  -2.3920  -2.3707  -2.3362
    -2.2866  -2.2690  -2.2606  -2.2435  -2.2180  -2.1620  -2.1412  -2.1079
    -2.1055  -2.1004  -2.0887  -2.0759  -2.0598  -2.0537  -2.0134  -2.0008
    -1.9778  -1.9579  -1.9301  -1.9205  -1.8876  -1.8650  -1.8207  -1.7940
    -1.7774  -1.7714  -1.7492  -1.7282  -1.7017  -1.6840  -1.6680  -1.6599
    -1.6532  -1.6432  -1.6244  -1.6051  -1.5996  -1.5821  -1.5719  -1.5507
    -1.5404  -1.5241  -1.4784  -1.4598  -1.4330  -1.3934  -1.3812  -1.3706
    -1.3564  -1.3391  -1.2989  -1.2631  -1.2600  -1.2419  -1.2351  -1.2273
    -1.2175  -1.2099  -1.2022  -1.1973  -1.1904  -1.1828  -1.1717  -1.1604
    -1.1482  -1.1221  -1.0536  -1.0264  -1.0071  -0.9949  -0.9748  -0.9602
    -0.9416  -0.8771  -0.8728  -0.8521  -0.8387  -0.7942  -0.7801  -0.7273
    -0.7191  -0.6904  -0.6666  -0.6513  -0.6431  -0.6254  -0.5969  -0.5422
    -0.4956  -0.4733  -0.4541  -0.4477  -0.4448  -0.4370  -0.4314  -0.4207
    -0.3973  -0.3801  -0.3252  -0.3027  -0.2853  -0.2822  -0.2747  -0.2659
    -0.2579  -0.2410  -0.2298  -0.2215  -0.2122  -0.1892  -0.1189  -0.1003
    -0.0946  -0.0903  -0.0640  -0.0133   0.0025   0.0062   0.0371   0.0541
     0.0723   0.1174   0.1197   0.1416   0.1440   0.1481   0.1604   0.1724
     0.2481   0.2627   0.3506   0.9654   1.1346   1.2960   1.3772   1.4152
     1.5729   1.7465

          k = 0.4000 0.0000 0.0000 ( 51202 PWs)   bands (ev):

   -21.5518 -10.6166  -7.2198  -6.8877  -6.1697  -5.7225  -5.6438  -5.4605
    -5.4141  -4.5321  -4.4781  -4.2323  -4.2191  -4.1687  -4.0164  -4.0089
    -3.9188  -3.9142  -3.8967  -3.7790  -3.7564  -3.6487  -3.6355  -3.5687
    -3.5241  -3.4394  -3.4307  -3.4212  -3.3962  -3.3758  -3.3658  -3.3430
    -3.3274  -3.3098  -3.2982  -3.2631  -3.2179  -3.1957  -3.1749  -3.0928
    -3.0542  -2.9893  -2.9534  -2.9221  -2.9111  -2.8991  -2.8391  -2.7969
    -2.7514  -2.7247  -2.7174  -2.7138  -2.6730  -2.6546  -2.6361  -2.6329
    -2.6178  -2.5439  -2.4925  -2.4415  -2.4338  -2.4149  -2.4025  -2.3755
    -2.3613  -2.2607  -2.2332  -2.1870  -2.1721  -2.1295  -2.1092  -2.0979
    -2.0790  -2.0700  -2.0584  -2.0472  -2.0242  -2.0113  -2.0061  -1.9975
    -1.9787  -1.9333  -1.8951  -1.8835  -1.8128  -1.8076  -1.8023  -1.7731
    -1.7663  -1.7402  -1.7247  -1.7016  -1.6885  -1.6708  -1.6563  -1.6494
    -1.6386  -1.6294  -1.6168  -1.6074  -1.5992  -1.5877  -1.5725  -1.5546
    -1.5463  -1.5324  -1.4913  -1.4771  -1.4591  -1.4300  -1.4146  -1.4134
    -1.3944  -1.3842  -1.3562  -1.3338  -1.3092  -1.3067  -1.2834  -1.2468
    -1.2411  -1.2339  -1.2304  -1.2116  -1.1972  -1.1787  -1.1677  -1.1296
    -1.0905  -1.0650  -1.0577  -1.0120  -0.9475  -0.9378  -0.9153  -0.8397
    -0.8153  -0.8057  -0.7960  -0.7869  -0.7739  -0.7662  -0.7519  -0.7418
    -0.7121  -0.6981  -0.6720  -0.6419  -0.6289  -0.6177  -0.6055  -0.5897
    -0.5649  -0.5546  -0.5251  -0.5120  -0.5032  -0.4572  -0.4008  -0.3561
    -0.3441  -0.3193  -0.3104  -0.2923  -0.2791  -0.2737  -0.2696  -0.2635
    -0.2511  -0.2414  -0.1823  -0.1675  -0.1574  -0.1438  -0.1054  -0.0922
    -0.0769  -0.0728  -0.0682  -0.0490  -0.0424  -0.0318  -0.0243  -0.0101
    -0.0006   0.0129   0.0860   0.0901   0.0964   0.1441   0.1450   0.1523
     0.4637   0.4871   0.5624   0.6077   0.7985   0.8224   1.0713   1.3073
     1.3910   1.5407

          k = 0.4000 0.2309 0.0000 ( 51204 PWs)   bands (ev):

   -21.5518 -10.6171  -7.1849  -6.7823  -6.2046  -6.0476  -5.5429  -5.4094
    -4.9507  -4.9135  -4.8574  -4.1278  -4.0560  -4.0400  -4.0082  -3.9875
    -3.8712  -3.8621  -3.8259  -3.7368  -3.7340  -3.7261  -3.6344  -3.5543
    -3.5526  -3.5385  -3.5346  -3.4897  -3.4535  -3.4265  -3.4167  -3.2999
    -3.2708  -3.2454  -3.2412  -3.2176  -3.2156  -3.1534  -3.1063  -3.1039
    -3.0928  -3.0909  -3.0074  -2.9608  -2.9140  -2.8326  -2.8096  -2.7653
    -2.7570  -2.7158  -2.7101  -2.6993  -2.6970  -2.6797  -2.6174  -2.6105
    -2.5819  -2.5724  -2.5399  -2.4502  -2.3992  -2.3916  -2.3820  -2.3260
    -2.2807  -2.2738  -2.2609  -2.2453  -2.1885  -2.1847  -2.1414  -2.1107
    -2.1018  -2.0968  -2.0880  -2.0727  -2.0571  -2.0554  -2.0226  -1.9844
    -1.9776  -1.9507  -1.9280  -1.9016  -1.8858  -1.8581  -1.8126  -1.8060
    -1.7789  -1.7741  -1.7519  -1.7353  -1.6934  -1.6732  -1.6714  -1.6622
    -1.6469  -1.6276  -1.6217  -1.5984  -1.5965  -1.5861  -1.5601  -1.5426
    -1.5352  -1.5258  -1.4801  -1.4381  -1.4253  -1.3991  -1.3853  -1.3673
    -1.3387  -1.3374  -1.2976  -1.2637  -1.2503  -1.2429  -1.2339  -1.2261
    -1.2181  -1.2148  -1.2060  -1.1998  -1.1966  -1.1913  -1.1711  -1.1571
    -1.1379  -1.1066  -1.0641  -1.0295  -1.0073  -0.9863  -0.9702  -0.9384
    -0.9304  -0.9038  -0.8788  -0.8493  -0.8437  -0.7935  -0.7827  -0.7487
    -0.7257  -0.6883  -0.6643  -0.6466  -0.6360  -0.6207  -0.5849  -0.5739
    -0.4918  -0.4854  -0.4572  -0.4485  -0.4452  -0.4318  -0.4285  -0.4192
    -0.4090  -0.3620  -0.3391  -0.2967  -0.2947  -0.2755  -0.2731  -0.2662
    -0.2622  -0.2267  -0.2260  -0.2188  -0.2116  -0.1947  -0.1169  -0.0999
    -0.0980  -0.0909  -0.0623  -0.0261   0.0020   0.0031   0.0403   0.0453
     0.0718   0.1181   0.1204   0.1428   0.1452   0.1475   0.1763   0.1880
     0.2411   0.2606   0.3169   0.9469   1.1396   1.2351   1.3640   1.3898
     1.6237   1.7591

          k = 0.4000-0.6928 0.0000 ( 51262 PWs)   bands (ev):

   -21.5518 -10.6167  -7.1494  -6.4311  -6.4026  -6.0862  -5.7552  -5.4759
    -5.1724  -4.9880  -4.5188  -4.2101  -3.9795  -3.9348  -3.8549  -3.8015
    -3.7954  -3.7788  -3.7616  -3.7405  -3.6902  -3.6867  -3.6814  -3.6680
    -3.6069  -3.5686  -3.5369  -3.5231  -3.5138  -3.5040  -3.3813  -3.3518
    -3.3463  -3.3351  -3.3093  -3.2923  -3.2594  -3.1800  -3.1100  -3.0563
    -3.0544  -3.0157  -2.9804  -2.9559  -2.9244  -2.8564  -2.8504  -2.8331
    -2.7918  -2.7675  -2.7236  -2.6707  -2.6455  -2.6269  -2.5867  -2.5568
    -2.5168  -2.4760  -2.4711  -2.4584  -2.4481  -2.4344  -2.4119  -2.3330
    -2.2705  -2.2606  -2.2517  -2.2425  -2.2227  -2.1817  -2.1696  -2.1398
    -2.1057  -2.0838  -2.0673  -2.0575  -2.0440  -2.0191  -2.0008  -1.9898
    -1.9871  -1.9640  -1.9598  -1.9260  -1.9244  -1.8701  -1.8558  -1.8449
    -1.8397  -1.8031  -1.7591  -1.7392  -1.7161  -1.6867  -1.6652  -1.6617
    -1.6435  -1.6398  -1.6313  -1.6222  -1.6082  -1.5835  -1.5751  -1.5319
    -1.4946  -1.4903  -1.4801  -1.4610  -1.4575  -1.4507  -1.4451  -1.4367
    -1.4236  -1.4160  -1.4027  -1.3815  -1.3548  -1.3319  -1.3121  -1.3037
    -1.2435  -1.2272  -1.1985  -1.1789  -1.1714  -1.1586  -1.1495  -1.1225
    -1.0841  -1.0724  -1.0622  -0.9930  -0.9575  -0.9403  -0.9225  -0.9108
    -0.8915  -0.8728  -0.8625  -0.8458  -0.8231  -0.8103  -0.7745  -0.7613
    -0.7399  -0.7130  -0.6977  -0.6938  -0.6758  -0.6254  -0.6161  -0.6033
    -0.5955  -0.5856  -0.5697  -0.5640  -0.5145  -0.4908  -0.4688  -0.3726
    -0.3181  -0.3036  -0.2976  -0.2931  -0.2846  -0.2728  -0.2612  -0.2552
    -0.2159  -0.2131  -0.2050  -0.1890  -0.1688  -0.1425  -0.0791  -0.0747
    -0.0716  -0.0486  -0.0270  -0.0208   0.0148   0.0251   0.0351   0.0420
     0.0509   0.1190   0.1252   0.1270   0.1456   0.1512   0.1691   0.1962
     0.2500   0.5219   0.5990   0.8737   1.2373   1.4228   1.5050   1.7583
     1.8311   1.9164

          k = 0.4000-0.4619 0.0000 ( 51262 PWs)   bands (ev):

   -21.5518 -10.6160  -7.1446  -6.4548  -6.4214  -6.0525  -5.7444  -5.5442
    -5.0928  -4.9649  -4.5576  -4.2140  -3.9775  -3.9339  -3.8395  -3.8018
    -3.7964  -3.7732  -3.7636  -3.7327  -3.6988  -3.6866  -3.6816  -3.6762
    -3.6012  -3.5691  -3.5357  -3.5265  -3.5096  -3.5031  -3.4185  -3.3744
    -3.3499  -3.3385  -3.3195  -3.2861  -3.2185  -3.1852  -3.1000  -3.0634
    -3.0544  -3.0071  -2.9748  -2.9531  -2.9262  -2.8571  -2.8433  -2.8328
    -2.7696  -2.7607  -2.7170  -2.6714  -2.6407  -2.6184  -2.5809  -2.5596
    -2.5173  -2.4747  -2.4654  -2.4577  -2.4476  -2.4311  -2.4067  -2.3464
    -2.2960  -2.2646  -2.2519  -2.2390  -2.2276  -2.1772  -2.1563  -2.1361
    -2.1052  -2.0859  -2.0694  -2.0581  -2.0462  -2.0275  -1.9990  -1.9933
    -1.9766  -1.9675  -1.9559  -1.9242  -1.9229  -1.9134  -1.8523  -1.8471
    -1.8228  -1.7894  -1.7608  -1.7478  -1.7135  -1.6978  -1.6817  -1.6590
    -1.6524  -1.6364  -1.6320  -1.6233  -1.6109  -1.5974  -1.5763  -1.5476
    -1.5060  -1.4941  -1.4790  -1.4739  -1.4584  -1.4505  -1.4465  -1.4379
    -1.4300  -1.4180  -1.4050  -1.3794  -1.3505  -1.3263  -1.3148  -1.2849
    -1.2357  -1.2194  -1.2049  -1.1802  -1.1714  -1.1543  -1.1451  -1.1097
    -1.0807  -1.0723  -1.0611  -1.0060  -0.9724  -0.9373  -0.9234  -0.9010
    -0.8912  -0.8807  -0.8675  -0.8438  -0.8192  -0.8114  -0.7876  -0.7552
    -0.7346  -0.7200  -0.7045  -0.6853  -0.6695  -0.6361  -0.6188  -0.6097
    -0.5897  -0.5793  -0.5722  -0.5569  -0.5173  -0.4847  -0.4689  -0.3697
    -0.3109  -0.3024  -0.2990  -0.2892  -0.2864  -0.2756  -0.2679  -0.2451
    -0.2189  -0.2118  -0.2042  -0.1907  -0.1668  -0.1448  -0.0795  -0.0735
    -0.0630  -0.0487  -0.0314  -0.0243   0.0164   0.0275   0.0322   0.0429
     0.0515   0.1198   0.1262   0.1374   0.1479   0.1518   0.1736   0.1986
     0.2738   0.5001   0.5792   0.8261   1.3180   1.4238   1.5400   1.7191
     1.8884   1.9672

 ------ SPIN DOWN ----------


          k = 0.0000 0.0000 0.0000 ( 51087 PWs)   bands (ev):

   -21.4764 -10.6478  -7.6247  -6.9809  -6.3415  -5.6798  -5.4983  -4.3935
    -4.3728  -4.3700  -4.3666  -4.3576  -4.3236  -4.2190  -3.5146  -3.4977
    -3.4951  -3.4818  -3.4642  -3.4276  -3.3162  -2.6338  -2.5483  -2.5474
    -2.5397  -2.5163  -2.4659  -2.2264  -2.0923  -2.0820  -2.0768  -2.0736
    -2.0573  -1.9007  -1.8827  -1.8626  -1.7992  -1.7850  -1.7840  -1.7825
    -1.7009  -1.6966  -1.6504  -1.6448  -1.6350  -1.5528  -1.5330  -1.5316
    -1.4969  -1.4424  -1.3578  -1.2787  -1.2691  -1.2662  -1.2504  -1.2444
    -1.2419  -1.2344  -1.2155  -1.1992  -1.1895  -1.1688  -1.1645  -1.1571
    -1.1288  -1.0429  -0.8498  -0.6087  -0.6044  -0.5863  -0.5840  -0.4455
    -0.3850  -0.3051  -0.2832  -0.2655  -0.2596  -0.2587  -0.2427  -0.2255
    -0.2029  -0.1941  -0.1749  -0.1725  -0.1660  -0.1650  -0.1044  -0.1020
    -0.0936  -0.0637  -0.0591  -0.0417  -0.0239  -0.0146  -0.0133  -0.0052
    -0.0024  -0.0015   0.0169   0.0231   0.0243   0.0259   0.0742   0.0983
     0.1571   0.1822   0.1838   0.2308   0.2357   0.2444   0.2492   0.2531
     0.2563   0.2621   0.2626   0.3093   0.3324   0.3332   0.3954   0.4004
     0.4232   0.4342   0.4429   0.4578   0.6324   0.6359   0.6783   0.6842
     0.7179   0.7329   0.7388   0.7398   0.8490   1.0151   1.0220   1.0721
     1.0751   1.2324   1.2497   1.2753   1.2982   1.3013   1.3071   1.3284
     1.4027   1.4523   1.4614   1.4642   1.4775   1.4800   1.4922   1.5064
     1.5302   1.5309   1.5612   1.5641   1.5850   1.6002   1.6067   1.6228
     1.6239   1.6295   1.6345   1.6547   1.6565   1.6968   1.7093   1.7207
     1.7276   1.7423   1.7466   1.7495   1.7569   1.7589   1.7668   1.7950
     1.8093   1.8295   1.8322   1.8332   1.8460   1.8473   1.8547   1.8823
     1.8882   1.8944   1.9014   1.9035   1.9077   1.9141   1.9190   1.9201
     1.9318   1.9368   1.9814   1.9825   2.1267   2.1300   2.1351   2.1385
     2.1420   2.1422

          k = 0.0000 0.2309 0.0000 ( 51134 PWs)   bands (ev):

   -21.4764 -10.6474  -7.4851  -6.9586  -6.2658  -5.7020  -5.4830  -5.2728
    -4.7527  -4.7407  -4.2187  -4.0721  -3.8218  -3.8158  -3.7316  -3.6855
    -3.5280  -3.2625  -3.1494  -3.1322  -3.0408  -2.7724  -2.6064  -2.5350
    -2.5113  -2.4522  -2.4244  -2.2689  -2.1518  -2.1160  -2.1103  -2.1031
    -2.0663  -2.0308  -2.0232  -2.0115  -1.9801  -1.8917  -1.8442  -1.8254
    -1.7583  -1.7500  -1.7113  -1.5895  -1.5658  -1.5577  -1.5408  -1.4724
    -1.4064  -1.3863  -1.3520  -1.3160  -1.2991  -1.2798  -1.2599  -1.2512
    -1.2414  -1.2318  -1.1764  -1.1319  -1.1251  -1.0996  -1.0821  -1.0476
    -1.0028  -0.9347  -0.8490  -0.6526  -0.6396  -0.6262  -0.6058  -0.5455
    -0.4849  -0.4695  -0.4319  -0.4122  -0.3075  -0.3024  -0.2805  -0.2622
    -0.2435  -0.2349  -0.2211  -0.2124  -0.2004  -0.1881  -0.1545  -0.1007
    -0.0844  -0.0571  -0.0524  -0.0495  -0.0237   0.0021   0.0069   0.0161
     0.0246   0.0335   0.0412   0.0482   0.0494   0.0517   0.0875   0.1033
     0.1292   0.1361   0.1486   0.1515   0.1760   0.1958   0.2051   0.2245
     0.2532   0.2572   0.3080   0.3319   0.3532   0.3691   0.3727   0.3991
     0.5144   0.5316   0.5940   0.6075   0.6235   0.6555   0.6646   0.6897
     0.6979   0.7130   0.7160   0.7197   0.9444   0.9876   1.0197   1.0390
     1.0502   1.0628   1.0877   1.0921   1.1356   1.1803   1.2149   1.2366
     1.2760   1.3116   1.3245   1.3470   1.3690   1.3804   1.4118   1.4599
     1.4860   1.4995   1.5179   1.5314   1.5444   1.5564   1.5850   1.5932
     1.6176   1.6424   1.6702   1.6752   1.7072   1.7200   1.7332   1.7531
     1.7762   1.7824   1.7956   1.7989   1.8189   1.8305   1.8761   1.8813
     1.8909   1.8989   1.9279   1.9356   1.9485   1.9655   1.9777   1.9843
     1.9991   2.0336   2.0393   2.0427   2.0674   2.0722   2.0772   2.0959
     2.1026   2.1276   2.1289   2.1377   2.2159   2.2312   2.2341   2.2735
     2.3094   2.3341

          k = 0.0000 0.4619 0.0000 ( 51204 PWs)   bands (ev):

   -21.4764 -10.6467  -7.1486  -6.8526  -6.3069  -6.0573  -5.6041  -5.3099
    -4.9670  -4.9486  -4.8000  -3.8837  -3.8577  -3.7372  -3.2458  -3.2013
    -3.1995  -3.0850  -2.9238  -2.8859  -2.7584  -2.7510  -2.6222  -2.6009
    -2.5919  -2.5289  -2.4951  -2.4463  -2.3757  -2.3541  -2.3364  -2.2829
    -2.2750  -2.1076  -2.0682  -2.0340  -1.9810  -1.9393  -1.8772  -1.8617
    -1.8499  -1.8262  -1.7507  -1.5883  -1.5525  -1.5260  -1.5022  -1.4692
    -1.3502  -1.3330  -1.3153  -1.3034  -1.2965  -1.2714  -1.2637  -1.2442
    -1.2157  -1.1681  -1.1460  -1.1348  -1.1115  -1.0833  -0.9861  -0.9131
    -0.8776  -0.7987  -0.7771  -0.6793  -0.6641  -0.6364  -0.6046  -0.5927
    -0.5725  -0.5616  -0.5237  -0.4973  -0.4720  -0.4343  -0.4033  -0.3810
    -0.3615  -0.3296  -0.3121  -0.3036  -0.2690  -0.2628  -0.2029  -0.1524
    -0.1189  -0.1170  -0.0884  -0.0491  -0.0313  -0.0112   0.0022   0.0270
     0.0552   0.0664   0.0830   0.0919   0.1011   0.1062   0.1263   0.1502
     0.1608   0.1874   0.1947   0.2071   0.2120   0.2195   0.2334   0.2633
     0.2651   0.2879   0.3388   0.4031   0.4110   0.4172   0.4511   0.4684
     0.4722   0.4927   0.5095   0.5647   0.5750   0.5829   0.6020   0.6291
     0.6488   0.6663   0.6824   0.6996   0.7241   0.8168   0.8554   0.8916
     0.9065   0.9422   0.9970   1.0658   1.1021   1.1292   1.1487   1.1556
     1.1759   1.2089   1.2255   1.2512   1.2564   1.3529   1.4136   1.4293
     1.4473   1.4818   1.4991   1.5261   1.5501   1.5652   1.5900   1.6062
     1.6323   1.6477   1.6785   1.7192   1.7468   1.7584   1.7718   1.8006
     1.8051   1.8160   1.8422   1.8633   1.8716   1.8900   1.9031   1.9305
     1.9413   1.9809   2.0040   2.0290   2.0509   2.0679   2.0763   2.0892
     2.0944   2.1128   2.1275   2.1319   2.1380   2.1628   2.1663   2.1703
     2.1772   2.2185   2.2991   2.3832   2.4204   2.4997   2.5760   2.8335
     2.8639   2.9321

          k = 0.2000-0.1155 0.0000 ( 51134 PWs)   bands (ev):

   -21.4764 -10.6476  -7.4849  -6.9586  -6.2640  -5.6950  -5.4871  -5.2790
    -4.7515  -4.7380  -4.2235  -4.0745  -3.8217  -3.8153  -3.7280  -3.6825
    -3.5294  -3.2622  -3.1481  -3.1303  -3.0455  -2.7797  -2.6004  -2.5339
    -2.5158  -2.4485  -2.4235  -2.2738  -2.1491  -2.1157  -2.1121  -2.1017
    -2.0667  -2.0293  -2.0239  -2.0115  -1.9784  -1.8939  -1.8466  -1.8265
    -1.7567  -1.7519  -1.7081  -1.5923  -1.5668  -1.5570  -1.5380  -1.4752
    -1.4051  -1.3853  -1.3528  -1.3158  -1.2974  -1.2789  -1.2593  -1.2525
    -1.2425  -1.2283  -1.1711  -1.1291  -1.1233  -1.1038  -1.0819  -1.0471
    -1.0046  -0.9397  -0.8453  -0.6520  -0.6400  -0.6269  -0.6044  -0.5456
    -0.4858  -0.4680  -0.4326  -0.4123  -0.3073  -0.3012  -0.2805  -0.2619
    -0.2432  -0.2356  -0.2220  -0.2131  -0.2006  -0.1870  -0.1536  -0.1010
    -0.0862  -0.0570  -0.0531  -0.0478  -0.0236   0.0030   0.0065   0.0162
     0.0232   0.0335   0.0413   0.0481   0.0488   0.0523   0.0876   0.1036
     0.1292   0.1364   0.1473   0.1515   0.1776   0.1949   0.2055   0.2255
     0.2546   0.2577   0.3079   0.3358   0.3528   0.3685   0.3737   0.3991
     0.5151   0.5328   0.5836   0.6082   0.6177   0.6563   0.6668   0.6890
     0.6974   0.7121   0.7166   0.7194   0.9459   0.9820   1.0242   1.0355
     1.0497   1.0630   1.0886   1.0923   1.1310   1.1832   1.2137   1.2366
     1.2744   1.3106   1.3250   1.3493   1.3654   1.3816   1.4120   1.4632
     1.4776   1.5047   1.5188   1.5311   1.5433   1.5584   1.5870   1.5936
     1.6198   1.6506   1.6648   1.6781   1.7086   1.7187   1.7329   1.7510
     1.7729   1.7828   1.7966   1.7998   1.8150   1.8340   1.8762   1.8818
     1.8906   1.8973   1.9283   1.9355   1.9480   1.9655   1.9764   1.9839
     1.9985   2.0343   2.0390   2.0427   2.0668   2.0725   2.0758   2.0950
     2.1012   2.1278   2.1309   2.1377   2.2177   2.2312   2.2340   2.2674
     2.3119   2.3352

          k = 0.2000 0.1155 0.0000 ( 51134 PWs)   bands (ev):

   -21.4764 -10.6481  -7.4844  -6.9593  -6.2549  -5.6562  -5.5071  -5.3240
    -4.7386  -4.7271  -4.2317  -4.1065  -3.8242  -3.8185  -3.6946  -3.6717
    -3.5308  -3.2611  -3.1527  -3.1314  -3.0438  -2.7846  -2.5843  -2.5512
    -2.4937  -2.4478  -2.4387  -2.2341  -2.1949  -2.1144  -2.1118  -2.0960
    -2.0776  -2.0291  -2.0232  -2.0034  -1.9884  -1.8858  -1.8427  -1.8363
    -1.7560  -1.7465  -1.6998  -1.6640  -1.5613  -1.5588  -1.4988  -1.4471
    -1.4299  -1.3762  -1.3643  -1.3346  -1.2932  -1.2676  -1.2657  -1.2525
    -1.2463  -1.1895  -1.1825  -1.1343  -1.1226  -1.0933  -1.0801  -1.0543
    -0.9930  -0.9089  -0.8808  -0.6461  -0.6446  -0.6086  -0.6030  -0.5484
    -0.5099  -0.4525  -0.4431  -0.4114  -0.3176  -0.2901  -0.2826  -0.2611
    -0.2377  -0.2372  -0.2238  -0.2067  -0.2014  -0.1869  -0.1514  -0.1121
    -0.0717  -0.0562  -0.0493  -0.0479  -0.0269   0.0029   0.0068   0.0203
     0.0298   0.0326   0.0342   0.0431   0.0468   0.0540   0.0941   0.0955
     0.1327   0.1351   0.1528   0.1550   0.1716   0.2032   0.2069   0.2224
     0.2479   0.2616   0.3150   0.3456   0.3530   0.3661   0.3699   0.3999
     0.5382   0.5410   0.5602   0.6028   0.6104   0.6625   0.6702   0.6807
     0.6875   0.7039   0.7181   0.7219   0.9154   0.9969   1.0073   1.0385
     1.0500   1.0550   1.0822   1.0980   1.1146   1.1921   1.2076   1.2426
     1.2749   1.3147   1.3192   1.3639   1.3741   1.3869   1.4129   1.4291
     1.4709   1.5137   1.5262   1.5332   1.5562   1.5690   1.5886   1.5958
     1.6230   1.6501   1.6611   1.6907   1.6961   1.7261   1.7395   1.7625
     1.7732   1.7783   1.7918   1.8022   1.8165   1.8229   1.8691   1.8775
     1.8896   1.8907   1.9312   1.9328   1.9506   1.9694   1.9735   1.9844
     2.0000   2.0391   2.0410   2.0435   2.0655   2.0678   2.0734   2.0981
     2.0999   2.1294   2.1301   2.1387   2.2205   2.2244   2.2369   2.2732
     2.3087   2.3228

          k = 0.2000 0.3464 0.0000 ( 51202 PWs)   bands (ev):

   -21.4764 -10.6477  -7.2375  -6.9012  -6.1488  -5.7937  -5.7225  -5.4709
    -5.4080  -4.4863  -4.3896  -4.0182  -3.9990  -3.8765  -3.1905  -3.1741
    -3.1704  -3.1585  -3.0551  -2.9725  -2.8724  -2.8601  -2.8226  -2.5024
    -2.4969  -2.4221  -2.4121  -2.3600  -2.3209  -2.3062  -2.2566  -2.2134
    -2.2029  -2.1945  -2.1687  -2.0634  -2.0461  -1.9604  -1.8267  -1.8205
    -1.7853  -1.7633  -1.7030  -1.6855  -1.6301  -1.5350  -1.5012  -1.4715
    -1.3588  -1.3389  -1.3028  -1.2986  -1.2933  -1.2754  -1.2588  -1.2347
    -1.2246  -1.1988  -1.1696  -1.1153  -1.0741  -1.0091  -0.9637  -0.9120
    -0.8754  -0.8313  -0.8150  -0.7180  -0.6230  -0.6059  -0.5876  -0.5568
    -0.5402  -0.5109  -0.5047  -0.4830  -0.4382  -0.4182  -0.4018  -0.3788
    -0.3696  -0.3455  -0.3319  -0.3107  -0.2539  -0.2160  -0.1601  -0.1435
    -0.1338  -0.1113  -0.0853  -0.0585  -0.0424  -0.0268  -0.0196  -0.0090
     0.0065   0.0363   0.0415   0.0582   0.0674   0.0844   0.1134   0.1358
     0.1441   0.1503   0.1692   0.1775   0.1899   0.1951   0.2137   0.2224
     0.2823   0.3113   0.3163   0.3379   0.4366   0.4531   0.4711   0.4893
     0.5100   0.5310   0.5577   0.5820   0.6116   0.6303   0.6463   0.6537
     0.6586   0.6756   0.7276   0.7545   0.7940   0.8552   0.9423   0.9601
     1.0310   1.0440   1.0776   1.1049   1.1083   1.1200   1.1344   1.1467
     1.1686   1.1828   1.1962   1.2141   1.2495   1.3297   1.3447   1.3611
     1.3884   1.4067   1.4352   1.4460   1.4738   1.5089   1.5394   1.5533
     1.6062   1.6665   1.7417   1.7550   1.7667   1.7913   1.7997   1.8108
     1.8196   1.8339   1.8512   1.8588   1.8744   1.9253   1.9383   1.9465
     1.9558   1.9815   1.9942   2.0026   2.0198   2.0391   2.0490   2.0724
     2.0760   2.0884   2.0948   2.1110   2.1200   2.1543   2.1701   2.1955
     2.2100   2.2209   2.3180   2.3428   2.3600   2.4556   2.4922   2.5993
     2.7606   2.8096

          k = 0.2000-0.5774 0.0000 ( 51262 PWs)   bands (ev):

   -21.4764 -10.6470  -7.0635  -6.5573  -6.5175  -6.0380  -5.8147  -5.5649
    -5.1111  -4.9761  -4.5255  -4.0690  -3.5400  -3.3818  -3.2065  -3.1978
    -3.1785  -2.9843  -2.9460  -2.8031  -2.7901  -2.7837  -2.6625  -2.6447
    -2.6337  -2.6132  -2.6012  -2.5738  -2.4752  -2.3416  -2.2637  -2.2439
    -2.2249  -2.2052  -2.1712  -2.1629  -2.0956  -2.0425  -1.8771  -1.8374
    -1.7288  -1.7054  -1.7005  -1.6323  -1.6049  -1.5401  -1.4698  -1.4548
    -1.4221  -1.4108  -1.3989  -1.2947  -1.2417  -1.2403  -1.2264  -1.2080
    -1.1693  -1.1150  -1.0765  -1.0647  -1.0098  -0.9857  -0.9804  -0.9246
    -0.8792  -0.8143  -0.7200  -0.6828  -0.6796  -0.6362  -0.6106  -0.6015
    -0.5564  -0.5391  -0.5154  -0.4861  -0.4415  -0.4341  -0.3969  -0.3839
    -0.3643  -0.3477  -0.3335  -0.3207  -0.3134  -0.3049  -0.2770  -0.2528
    -0.2424  -0.2130  -0.1852  -0.1666  -0.1179  -0.0958  -0.0654  -0.0162
    -0.0008   0.0160   0.0492   0.0665   0.0789   0.0991   0.1106   0.1322
     0.1654   0.1946   0.2092   0.2258   0.2410   0.2581   0.3168   0.3412
     0.3663   0.3843   0.3897   0.4034   0.4107   0.4532   0.4776   0.5003
     0.5085   0.5307   0.5698   0.5953   0.6160   0.6251   0.6526   0.6689
     0.6854   0.6923   0.7158   0.7400   0.7545   0.7676   0.7725   0.8172
     0.8846   0.9435   1.0161   1.0322   1.0581   1.0669   1.0966   1.1121
     1.1212   1.1445   1.1562   1.2499   1.2685   1.2885   1.3158   1.3317
     1.3649   1.3664   1.3963   1.4462   1.4609   1.4890   1.5174   1.5705
     1.5933   1.6878   1.7250   1.7542   1.7883   1.8046   1.8327   1.8523
     1.8608   1.8666   1.8839   1.9062   1.9277   1.9422   1.9572   1.9685
     1.9846   2.0124   2.0376   2.0440   2.0503   2.0555   2.0585   2.0677
     2.0714   2.1204   2.1303   2.1523   2.1580   2.1688   2.1767   2.1907
     2.2083   2.2675   2.3517   2.5123   2.6861   2.7788   2.9556   3.0443
     3.0726   3.1020

          k = 0.2000-0.3464 0.0000 ( 51202 PWs)   bands (ev):

   -21.4764 -10.6469  -7.2367  -6.9054  -6.1599  -5.8184  -5.7260  -5.4771
    -5.3479  -4.5119  -4.3644  -4.0136  -4.0042  -3.8678  -3.1892  -3.1752
    -3.1693  -3.1627  -3.0499  -3.0026  -2.8871  -2.8511  -2.8160  -2.5237
    -2.4907  -2.4246  -2.4105  -2.3445  -2.3180  -2.2991  -2.2853  -2.2138
    -2.2084  -2.1956  -2.1703  -2.0540  -2.0174  -1.9162  -1.8300  -1.8190
    -1.7896  -1.7735  -1.7104  -1.6899  -1.6191  -1.5245  -1.5087  -1.4509
    -1.3721  -1.3400  -1.3034  -1.3019  -1.2940  -1.2754  -1.2669  -1.2360
    -1.2278  -1.1940  -1.1561  -1.1274  -1.0905  -1.0434  -0.9670  -0.9299
    -0.8772  -0.8268  -0.7909  -0.7136  -0.6292  -0.6053  -0.5906  -0.5595
    -0.5409  -0.5184  -0.4849  -0.4644  -0.4457  -0.4074  -0.3954  -0.3855
    -0.3697  -0.3442  -0.3283  -0.3023  -0.2647  -0.2156  -0.1897  -0.1567
    -0.1390  -0.1220  -0.0794  -0.0633  -0.0454  -0.0360  -0.0127  -0.0063
     0.0078   0.0295   0.0418   0.0575   0.0759   0.0931   0.1057   0.1278
     0.1412   0.1464   0.1616   0.1850   0.1890   0.2077   0.2094   0.2196
     0.2773   0.3125   0.3255   0.3311   0.4425   0.4602   0.4646   0.4997
     0.5069   0.5565   0.5846   0.6054   0.6222   0.6262   0.6410   0.6524
     0.6543   0.6619   0.6930   0.7695   0.7912   0.8880   0.9321   0.9646
     1.0020   1.0321   1.0997   1.1067   1.1123   1.1273   1.1426   1.1530
[...]
     atom    8 type  1   force =    -0.00020862   -0.00439272   -0.10237045
     atom    9 type  1   force =     0.00060227    0.00224256   -0.10697474
     atom   10 type  1   force =     0.00175670    0.00093348   -0.01047932
     atom   11 type  1   force =    -0.00058761   -0.00088490   -0.00903144
     atom   12 type  1   force =    -0.00129418    0.00203219   -0.01131713
     atom   13 type  1   force =    -0.00073235   -0.00014932   -0.00854516
     atom   14 type  1   force =     0.00103557    0.00033241   -0.00960914
     atom   15 type  1   force =    -0.00059876   -0.00009639   -0.01013961
     atom   16 type  1   force =     0.00106757   -0.00189953   -0.01164443
     atom   17 type  1   force =     0.00009859   -0.00008537   -0.01001352
     atom   18 type  1   force =    -0.00043490   -0.00004672   -0.01385216
     atom   19 type  1   force =    -0.00574370   -0.00192121    0.00398202
     atom   20 type  1   force =     0.00169220   -0.00011512    0.00598644
     atom   21 type  1   force =     0.00349521   -0.00468154    0.01070195
     atom   22 type  1   force =     0.00259170    0.00541511    0.00712388
     atom   23 type  1   force =    -0.00258932    0.00470308    0.01142749
     atom   24 type  1   force =    -0.00018219   -0.00060983    0.01958524
     atom   25 type  1   force =     0.00149269    0.00083119    0.01875746
     atom   26 type  1   force =    -0.00407274   -0.00340459    0.00457277
     atom   27 type  1   force =     0.00484568    0.00059577    0.00984193
     atom   28 type  1   force =     0.05032571    0.03172708    0.16267835
     atom   29 type  1   force =    -0.05959822    0.06441234    0.17810442
     atom   30 type  1   force =    -0.01097705    0.00571743    0.11664136
     atom   31 type  1   force =     0.03532541   -0.07681881    0.18025048
     atom   32 type  1   force =     0.00406900   -0.00625743    0.14146149
     atom   33 type  1   force =     0.00239976   -0.00362396    0.12157860
     atom   34 type  1   force =    -0.00209641   -0.00990632    0.11496096
     atom   35 type  1   force =    -0.00055509    0.00356988    0.11831306
     atom   36 type  1   force =     0.00144724    0.00021537    0.10264279
     atom   37 type  2   force =    -0.30797471   -0.14465488    0.18259251
     atom   38 type  3   force =     1.88958195    0.91174036   -1.37921780
     atom   39 type  4   force =    -0.05065338   -0.02572956   -0.04762194
     The ionic contribution  to forces
     atom    1 type  1   force =    -0.01034485    0.00113635 -111.26782618
     atom    2 type  1   force =     0.00213267    0.00109566 -111.28435748
     atom    3 type  1   force =     0.00821216    0.00019671 -111.26357547
     atom    4 type  1   force =    -0.00413562    0.00948249 -111.26389669
     atom    5 type  1   force =     0.00439161    0.00719443 -111.26337824
     atom    6 type  1   force =    -0.00025597    0.00010179 -111.25519074
     atom    7 type  1   force =    -0.00185692   -0.00118645 -111.25561210
     atom    8 type  1   force =    -0.00406892   -0.00970771 -111.26739123
     atom    9 type  1   force =     0.00592584   -0.00831327 -111.26366339
     atom   10 type  1   force =    -0.05975742   -0.03614100  -40.22783641
     atom   11 type  1   force =     0.01608371   -0.07556121  -40.31682319
     atom   12 type  1   force =     0.04367321   -0.03106527  -40.19624370
     atom   13 type  1   force =    -0.05591724    0.05114856  -40.31937361
     atom   14 type  1   force =     0.06766680    0.03931507  -40.29563563
     atom   15 type  1   force =    -0.01174419    0.01825429  -40.18579927
     atom   16 type  1   force =    -0.00368428    0.05390630  -40.19580633
     atom   17 type  1   force =     0.00978005   -0.01774914  -40.18304896
     atom   18 type  1   force =    -0.00609761   -0.00210534  -40.17554552
     atom   19 type  1   force =    -0.52206120    0.06220138   31.11589119
     atom   20 type  1   force =     0.11427450    0.05921722   30.17407613
     atom   21 type  1   force =     0.40677742    0.00475467   31.32907481
     atom   22 type  1   force =    -0.20085601    0.46013840   31.31881828
     atom   23 type  1   force =     0.21152492    0.35745317   31.33872897
     atom   24 type  1   force =    -0.01027248    0.00589110   31.68360802
     atom   25 type  1   force =    -0.08672904   -0.05542869   31.66489278
     atom   26 type  1   force =    -0.19939188   -0.49034685   31.14022247
     atom   27 type  1   force =     0.28589998   -0.40416390   31.32956660
     atom   28 type  1   force =    -2.56437392   -1.56678391  102.84944220
     atom   29 type  1   force =     1.18478459   -5.07573317   98.92458189
     atom   30 type  1   force =     1.47312001   -1.03626381  104.12773880
     atom   31 type  1   force =    -3.66441048    3.63262493   98.64292405
     atom   32 type  1   force =     4.36923891    2.58740163   99.48615346
     atom   33 type  1   force =    -0.43594723    0.52729489  104.31880849
     atom   34 type  1   force =    -0.11192341    1.79102181  104.14829684
     atom   35 type  1   force =     0.24148462   -0.56481658  104.38723161
     atom   36 type  1   force =    -0.13732017   -0.02268391  104.56943971
     atom   37 type  2   force =     5.12470897    2.37248191   55.96649636
     atom   38 type  3   force =    -7.31040408   -3.55661220   89.58408090
     atom   39 type  4   force =     1.83187298    0.91234967   15.38093056
     The local contribution  to forces
     atom    1 type  1   force =     0.01501260   -0.00236991  111.37183509
     atom    2 type  1   force =    -0.00503224   -0.00235856  111.38902790
     atom    3 type  1   force =    -0.01003140    0.00124439  111.37241574
     atom    4 type  1   force =     0.00190668   -0.00946705  111.37248145
     atom    5 type  1   force =    -0.00415101   -0.00905123  111.37192715
     atom    6 type  1   force =     0.00221817    0.00113104  111.36030010
     atom    7 type  1   force =     0.00132148    0.00064376  111.36210258
     atom    8 type  1   force =     0.00504921    0.01410732  111.37248192
     atom    9 type  1   force =    -0.00708621    0.00620151  111.37266620
     atom   10 type  1   force =     0.05810149    0.03530844   40.21924448
     atom   11 type  1   force =    -0.01621281    0.07672826   40.30596386
     atom   12 type  1   force =    -0.04215011    0.02912630   40.18902111
     atom   13 type  1   force =     0.05647680   -0.05174063   40.30847817
     atom   14 type  1   force =    -0.06802490   -0.03934005   40.28385450
     atom   15 type  1   force =     0.01227813   -0.01863159   40.17567410
     atom   16 type  1   force =     0.00276348   -0.05175456   40.18882826
     atom   17 type  1   force =    -0.01030327    0.01797264   40.17314568
     atom   18 type  1   force =     0.00692614    0.00226983   40.16900436
     atom   19 type  1   force =     0.52621956   -0.05927637  -31.09912729
     atom   20 type  1   force =    -0.11649627   -0.05921736  -30.16296620
     atom   21 type  1   force =    -0.40675058   -0.00202468  -31.31947837
     atom   22 type  1   force =     0.19729788   -0.46573098  -31.30604937
     atom   23 type  1   force =    -0.20891146   -0.35919301  -31.32893441
     atom   24 type  1   force =     0.01178620   -0.00451229  -31.67949286
     atom   25 type  1   force =     0.08565024    0.05503321  -31.65830920
     atom   26 type  1   force =     0.20245043    0.49177568  -31.12485390
     atom   27 type  1   force =    -0.29115902    0.40293816  -31.31885077
     atom   28 type  1   force =     2.50305120    1.52872658 -103.02185417
     atom   29 type  1   force =    -1.11451219    4.98468517  -99.10851120
     atom   30 type  1   force =    -1.45305617    1.02233887 -104.25432468
     atom   31 type  1   force =     3.60960608   -3.53450744  -98.82981138
     atom   32 type  1   force =    -4.35758499   -2.56980161  -99.63724060
     atom   33 type  1   force =     0.43216303   -0.52003444 -104.45513391
     atom   34 type  1   force =     0.11268261   -1.77006898 -104.27262791
     atom   35 type  1   force =    -0.23859475    0.55855874 -104.51949289
     atom   36 type  1   force =     0.13288918    0.02121009 -104.68185300
     atom   37 type  2   force =    -4.82050198   -2.22879484  -56.14812517
     atom   38 type  3   force =     5.43539175    2.65141626  -88.21995884
     atom   39 type  4   force =    -1.77830821   -0.88504611  -15.32712734
     The core correction contribution to forces
     atom    1 type  1   force =     0.00042264   -0.00004218    0.01005492
     atom    2 type  1   force =    -0.00041396   -0.00019719    0.00976954
     atom    3 type  1   force =    -0.00000293    0.00009068    0.01018405
     atom    4 type  1   force =    -0.00020176    0.00004326    0.01014750
     atom    5 type  1   force =     0.00004744   -0.00006595    0.01026138
     atom    6 type  1   force =    -0.00000548    0.00001293    0.00978911
     atom    7 type  1   force =    -0.00005269   -0.00004105    0.01032546
     atom    8 type  1   force =     0.00013303    0.00033189    0.01003306
     atom    9 type  1   force =    -0.00009082   -0.00016141    0.01005852
     atom   10 type  1   force =    -0.00019267   -0.00014213   -0.00206436
     atom   11 type  1   force =    -0.00006706    0.00010787   -0.00173911
     atom   12 type  1   force =     0.00034991   -0.00008129   -0.00202398
     atom   13 type  1   force =     0.00000869   -0.00018491   -0.00168015
     atom   14 type  1   force =     0.00023716    0.00015682   -0.00200894
     atom   15 type  1   force =     0.00000189    0.00005990   -0.00172479
     atom   16 type  1   force =     0.00010226    0.00036927   -0.00204900
     atom   17 type  1   force =     0.00001078   -0.00007791   -0.00167209
     atom   18 type  1   force =    -0.00015489   -0.00007002   -0.00172350
     atom   19 type  1   force =    -0.00057972   -0.00045116    0.00135307
     atom   20 type  1   force =     0.00003061    0.00016545    0.00229594
     atom   21 type  1   force =     0.00017006   -0.00003483    0.00126545
     atom   22 type  1   force =    -0.00028747    0.00008037    0.00119590
     atom   23 type  1   force =     0.00004716    0.00022044    0.00144009
     atom   24 type  1   force =    -0.00002867   -0.00004255    0.00216140
     atom   25 type  1   force =     0.00040380    0.00020370    0.00191470
     atom   26 type  1   force =    -0.00072359   -0.00022404    0.00142398
     atom   27 type  1   force =    -0.00014416   -0.00030300    0.00130485
     atom   28 type  1   force =     0.00387172    0.00211166   -0.00619069
     atom   29 type  1   force =    -0.00194104    0.01456496    0.00294555
     atom   30 type  1   force =    -0.00339549    0.00317317   -0.00882223
     atom   31 type  1   force =     0.01202404   -0.00976871    0.00417625
     atom   32 type  1   force =    -0.01334183   -0.00881528    0.00923186
     atom   33 type  1   force =    -0.00031032   -0.00037075   -0.00901288
     atom   34 type  1   force =     0.00110394   -0.00417593   -0.00896212
     atom   35 type  1   force =    -0.00071759   -0.00021401   -0.00911157
     atom   36 type  1   force =    -0.00019043   -0.00000880   -0.01059482
     atom   37 type  2   force =     0.00378068    0.00153460   -0.00140979
     atom   38 type  3   force =    -0.01595193   -0.00769221    0.01251142
     atom   39 type  4   force =     0.00000000    0.00000000    0.00000000
     The Hubbard contrib.    to forces
     atom    1 type  1   force =     0.00000000    0.00000000    0.00000000
     atom    2 type  1   force =     0.00000000    0.00000000    0.00000000
     atom    3 type  1   force =     0.00000000    0.00000000    0.00000000
     atom    4 type  1   force =     0.00000000    0.00000000    0.00000000
     atom    5 type  1   force =     0.00000000    0.00000000    0.00000000
     atom    6 type  1   force =     0.00000000    0.00000000    0.00000000
     atom    7 type  1   force =     0.00000000    0.00000000    0.00000000
     atom    8 type  1   force =     0.00000000    0.00000000    0.00000000
     atom    9 type  1   force =     0.00000000    0.00000000    0.00000000
     atom   10 type  1   force =     0.00000000    0.00000000    0.00000000
     atom   11 type  1   force =     0.00000000    0.00000000    0.00000000
     atom   12 type  1   force =     0.00000000    0.00000000    0.00000000
     atom   13 type  1   force =     0.00000000    0.00000000    0.00000000
     atom   14 type  1   force =     0.00000000    0.00000000    0.00000000
     atom   15 type  1   force =     0.00000000    0.00000000    0.00000000
     atom   16 type  1   force =     0.00000000    0.00000000    0.00000000
     atom   17 type  1   force =     0.00000000    0.00000000    0.00000000
     atom   18 type  1   force =     0.00000000    0.00000000    0.00000000
     atom   19 type  1   force =     0.00000000    0.00000000    0.00000000
     atom   20 type  1   force =     0.00000000    0.00000000    0.00000000
     atom   21 type  1   force =     0.00000000    0.00000000    0.00000000
     atom   22 type  1   force =     0.00000000    0.00000000    0.00000000
     atom   23 type  1   force =     0.00000000    0.00000000    0.00000000
     atom   24 type  1   force =     0.00000000    0.00000000    0.00000000
     atom   25 type  1   force =     0.00000000    0.00000000    0.00000000
     atom   26 type  1   force =     0.00000000    0.00000000    0.00000000
     atom   27 type  1   force =     0.00000000    0.00000000    0.00000000
     atom   28 type  1   force =     0.00000000    0.00000000    0.00000000
     atom   29 type  1   force =     0.00000000    0.00000000    0.00000000
     atom   30 type  1   force =     0.00000000    0.00000000    0.00000000
     atom   31 type  1   force =     0.00000000    0.00000000    0.00000000
     atom   32 type  1   force =     0.00000000    0.00000000    0.00000000
     atom   33 type  1   force =     0.00000000    0.00000000    0.00000000
     atom   34 type  1   force =     0.00000000    0.00000000    0.00000000
     atom   35 type  1   force =     0.00000000    0.00000000    0.00000000
     atom   36 type  1   force =     0.00000000    0.00000000    0.00000000
     atom   37 type  2   force =     0.00000000    0.00000000    0.00000000
     atom   38 type  3   force =     0.00000000    0.00000000    0.00000000
     atom   39 type  4   force =     0.00000000    0.00000000    0.00000000
     The SCF correction term to forces
     atom    1 type  1   force =    -0.00000000    0.00000000   -0.00000000
     atom    2 type  1   force =     0.00000000    0.00000000   -0.00000000
     atom    3 type  1   force =     0.00000000    0.00000000   -0.00000000
     atom    4 type  1   force =    -0.00000000    0.00000000   -0.00000000
     atom    5 type  1   force =     0.00000000    0.00000000   -0.00000000
     atom    6 type  1   force =    -0.00000000   -0.00000000   -0.00000000
     atom    7 type  1   force =    -0.00000000   -0.00000000   -0.00000000
     atom    8 type  1   force =     0.00000000   -0.00000000   -0.00000000
     atom    9 type  1   force =     0.00000000   -0.00000000   -0.00000000
     atom   10 type  1   force =    -0.00000000   -0.00000000   -0.00000000
     atom   11 type  1   force =    -0.00000000   -0.00000000   -0.00000000
     atom   12 type  1   force =     0.00000000   -0.00000000   -0.00000000
     atom   13 type  1   force =    -0.00000000    0.00000000   -0.00000000
     atom   14 type  1   force =     0.00000000    0.00000000   -0.00000000
     atom   15 type  1   force =     0.00000000    0.00000000   -0.00000000
     atom   16 type  1   force =    -0.00000000    0.00000000   -0.00000000
     atom   17 type  1   force =     0.00000000    0.00000000   -0.00000000
     atom   18 type  1   force =     0.00000000   -0.00000000   -0.00000000
     atom   19 type  1   force =    -0.00000000    0.00000000    0.00000000
     atom   20 type  1   force =     0.00000000    0.00000000    0.00000000
     atom   21 type  1   force =     0.00000000    0.00000000    0.00000000
     atom   22 type  1   force =     0.00000000    0.00000000    0.00000000
     atom   23 type  1   force =    -0.00000000    0.00000000    0.00000000
     atom   24 type  1   force =     0.00000000    0.00000000    0.00000000
     atom   25 type  1   force =    -0.00000000   -0.00000000    0.00000000
     atom   26 type  1   force =    -0.00000000   -0.00000000    0.00000000
     atom   27 type  1   force =     0.00000000   -0.00000000    0.00000000
     atom   28 type  1   force =    -0.00000000   -0.00000000    0.00000000
     atom   29 type  1   force =     0.00000000    0.00000000    0.00000000
     atom   30 type  1   force =    -0.00000000   -0.00000000    0.00000000
     atom   31 type  1   force =     0.00000000    0.00000000    0.00000000
     atom   32 type  1   force =    -0.00000000    0.00000000    0.00000000
     atom   33 type  1   force =    -0.00000000    0.00000000    0.00000000
     atom   34 type  1   force =    -0.00000000   -0.00000000    0.00000000
     atom   35 type  1   force =    -0.00000000   -0.00000000    0.00000000
     atom   36 type  1   force =     0.00000000    0.00000000    0.00000000
     atom   37 type  2   force =     0.00000590    0.00000836    0.00001807
     atom   38 type  3   force =     0.00000439    0.00000666    0.00004712
     atom   39 type  4   force =    -0.00000046    0.00000055    0.00000451

     Total force =     0.007699     Total SCF correction =     0.000052

     Writing all to output data dir ./pwscf.save/

     init_run     :     14.93s CPU     15.47s WALL (       1 calls)
     electrons    :    897.88s CPU    914.29s WALL (       1 calls)
     forces       :      3.42s CPU      3.47s WALL (       1 calls)

     Called by init_run:
     wfcinit      :     11.84s CPU     12.25s WALL (       1 calls)
     potinit      :      1.97s CPU      2.07s WALL (       1 calls)
     hinit0       :      0.87s CPU      0.88s WALL (       1 calls)

     Called by electrons:
     c_bands      :    763.00s CPU    777.29s WALL (      48 calls)
     sum_band     :     90.89s CPU     92.19s WALL (      48 calls)
     v_of_rho     :      7.62s CPU      7.80s WALL (      49 calls)
     newd         :      2.58s CPU      2.63s WALL (      49 calls)
     PAW_pot      :     12.37s CPU     12.51s WALL (      49 calls)
     mix_rho      :     22.61s CPU     22.94s WALL (      48 calls)
     vdW_kernel   :      1.09s CPU      1.10s WALL (       1 calls)

     Called by c_bands:
     init_us_2    :      8.58s CPU      8.75s WALL (    2548 calls)
     init_us_2:cp :      8.56s CPU      8.74s WALL (    2548 calls)
     cegterg      :    736.60s CPU    749.60s WALL (    1248 calls)

     Called by *egterg:
     cdiaghg      :    191.81s CPU    193.42s WALL (    4239 calls)
     h_psi        :    364.86s CPU    373.91s WALL (    4265 calls)
     s_psi        :     35.97s CPU     36.41s WALL (    4265 calls)
     g_psi        :      0.90s CPU      0.92s WALL (    2991 calls)

     Called by h_psi:
     h_psi:calbec :     55.70s CPU     56.80s WALL (    4265 calls)
     vloc_psi     :    270.09s CPU    277.48s WALL (    4265 calls)
     add_vuspsi   :     36.74s CPU     37.25s WALL (    4265 calls)

     General routines
     calbec       :     80.31s CPU     81.69s WALL (    5617 calls)
     fft          :      8.96s CPU      9.14s WALL (    4438 calls)
     ffts         :     12.11s CPU     12.31s WALL (   19969 calls)
     fftw         :    302.32s CPU    309.72s WALL ( 1299842 calls)
     interpolate  :      0.34s CPU      0.34s WALL (      98 calls)

     Parallel routines

     PWSCF        :  15m27.93s CPU  15m50.35s WALL


   This run was terminated on:  21:44:20   7Dec2025            

=------------------------------------------------------------------------------=
   JOB DONE.
=------------------------------------------------------------------------------=
