
     Program PWSCF v.7.1 starts on 14Dec2025 at  8:33:48 
        Git branch: heads/qe-7.1
        Last git commit: 48ba0178f8fede6d020eb786884699a9f063f55d-dirty
        Last git commit date: Fri Jan 27 14:22:33 2023 +0000
        Last git commit subject: Merge branch 'fix_hubbard' into 'develop'

     This program is part of the open-source Quantum ESPRESSO suite
     for quantum simulation of materials; please cite
         "P. Giannozzi et al., J. Phys.:Condens. Matter 21 395502 (2009);
         "P. Giannozzi et al., J. Phys.:Condens. Matter 29 465901 (2017);
         "P. Giannozzi et al., J. Chem. Phys. 152 154105 (2020);
          URL http://www.quantum-espresso.org", 
     in publications or presentations arising from this work. More details at
     http://www.quantum-espresso.org/quote

     Parallel version (MPI), running on    96 processors

     MPI processes distributed on     2 nodes
     72561 MiB available memory on the printing compute node when the environment starts

     Reading input from espresso.pwi
Warning: card &CELL ignored
Warning: card / ignored
Warning: card &FCP ignored
Warning: card / ignored
Warning: card &RISM ignored
Warning: card / ignored

     Current dimensions of program PWSCF are:
     Max number of different atomic species (ntypx) = 10
     Max number of k-points (npk) =  40000
     Max angular momentum in pseudopotentials (lmaxx) =  4
     file Co.pbe-n-kjpaw_psl.1.0.0.UPF: wavefunction(s)  4S 3D renormalized
     file C.pbe-n-kjpaw_psl.1.0.0.UPF: wavefunction(s)  2S 2P renormalized
     file O.pbe-nl-kjpaw_psl.1.0.0.UPF: wavefunction(s)  2S 2P renormalized
     file H.pbe-kjpaw_psl.1.0.0.UPF: wavefunction(s)  1S renormalized

     **************************************************************************
     Initializing libbeef V0.1.2 with the BEEF-vdW functional.
     Citation: Wellendorff et al., PRB 85, 235149 (2012).
     **************************************************************************


     IMPORTANT: XC functional enforced from input :
     Exchange-correlation= BEEF-VDW
                           (   1   4  43  14   2   0   0)
     Any further DFT definition will be discarded
     Please, verify this is what you really want


     R & G space division:  proc/nbgrp/npool/nimage =      96
     Subspace diagonalization in iterative solution of the eigenvalue problem:
     one sub-group per band group will be used
     custom distributed-memory algorithm (size of sub-group:  2*  2 procs)


     Parallelization info
     --------------------
     sticks:   dense  smooth     PW     G-vecs:    dense   smooth      PW
     Min          43      28      7                 7829     4248     595
     Max          44      29      8                 7845     4281     630
     Sum        4153    2773    757               752179   409445   59217

     Using Slab Decomposition



     bravais-lattice index     =            0
     lattice parameter (alat)  =      14.1729  a.u.
     unit-cell volume          =    8574.3059 (a.u.)^3
     number of atoms/cell      =           39
     number of atomic types    =            4
     number of electrons       =       335.00
     number of Kohn-Sham states=          202
     kinetic-energy cutoff     =      50.0000  Ry
     charge density cutoff     =     300.0000  Ry
     scf convergence threshold =      1.0E-08
     mixing beta               =       0.7000
     number of iterations used =            8  local-TF  mixing
     Exchange-correlation= BEEF-VDW
                           (   1   4  43  14   2   0   0)

     celldm(1)=  14.172946  celldm(2)=   0.000000  celldm(3)=   0.000000
     celldm(4)=   0.000000  celldm(5)=   0.000000  celldm(6)=   0.000000

     crystal axes: (cart. coord. in units of alat)
               a(1) = (   1.000000   0.000000   0.000000 )  
               a(2) = (   0.500000   0.866025   0.000000 )  
               a(3) = (   0.000000   0.000000   3.477667 )  

     reciprocal axes: (cart. coord. in units 2 pi/alat)
               b(1) = (  1.000000 -0.577350  0.000000 )  
               b(2) = (  0.000000  1.154701  0.000000 )  
               b(3) = (  0.000000  0.000000  0.287549 )  


     PseudoPot. # 1 for Co read from file:
     /users/kbadger1/espresso/pseudo/pslibrary.1.0.0/pbe/PSEUDOPOTENTIALS/Co.pbe-n-kjpaw_psl.1.0.0.UPF
     MD5 check sum: 88af6ec42553d4236c267fdfcb472151
     Pseudo is Projector augmented-wave + core cor, Zval =  9.0
     Generated using 'atomic' code by A. Dal Corso  v.7.0
     Shape of augmentation charge: PSQ
     Using radial grid of 1193 points,  6 beta functions with: 
                l(1) =   0
                l(2) =   0
                l(3) =   1
                l(4) =   1
                l(5) =   2
                l(6) =   2
     Q(r) pseudized with 0 coefficients 


     PseudoPot. # 2 for C  read from file:
     /users/kbadger1/espresso/pseudo/pslibrary.1.0.0/pbe/PSEUDOPOTENTIALS/C.pbe-n-kjpaw_psl.1.0.0.UPF
     MD5 check sum: 6408e75cdba28732cea38a4db8498ce4
     Pseudo is Projector augmented-wave + core cor, Zval =  4.0
     Generated using 'atomic' code by A. Dal Corso  v.7.0
     Shape of augmentation charge: PSQ
     Using radial grid of 1073 points,  4 beta functions with: 
                l(1) =   0
                l(2) =   0
                l(3) =   1
                l(4) =   1
     Q(r) pseudized with 0 coefficients 


     PseudoPot. # 3 for O  read from file:
     /users/kbadger1/espresso/pseudo/pslibrary.1.0.0/pbe/PSEUDOPOTENTIALS/O.pbe-nl-kjpaw_psl.1.0.0.UPF
     MD5 check sum: f0439fab3598ca4e468f064226030408
     Pseudo is Projector augmented-wave + core cor, Zval =  6.0
     Generated using 'atomic' code by A. Dal Corso  v.7.0
     Shape of augmentation charge: PSQ
     Using radial grid of 1095 points,  4 beta functions with: 
                l(1) =   0
                l(2) =   0
                l(3) =   1
                l(4) =   1
     Q(r) pseudized with 0 coefficients 


     PseudoPot. # 4 for H  read from file:
     /users/kbadger1/espresso/pseudo/pslibrary.1.0.0/pbe/PSEUDOPOTENTIALS/H.pbe-kjpaw_psl.1.0.0.UPF
     MD5 check sum: fe4c6fa958fa6d3815bf5d2419cbf1df
     Pseudo is Projector augmented-wave, Zval =  1.0
     Generated using 'atomic' code by A. Dal Corso  v.7.0
     Shape of augmentation charge: PSQ
     Using radial grid of  929 points,  2 beta functions with: 
                l(1) =   0
                l(2) =   0
     Q(r) pseudized with 0 coefficients 


     atomic species   valence    mass     pseudopotential
        Co             9.00    58.93319     Co( 1.00)
        C              4.00    12.00000     C ( 1.00)
        O              6.00    15.99491     O ( 1.00)
        H              1.00     1.00783     H ( 1.00)

     Starting magnetic structure 
     atomic species   magnetization
        Co           1.000
        C            1.000
        O            0.000
        H            0.000

     No symmetry found



   Cartesian axes

     site n.     atom                  positions (alat units)
         1           Co  tau(   1) = (   0.0000000   0.1924501   1.3333333  )
         2           Co  tau(   2) = (   0.3333333   0.1924501   1.3333333  )
         3           Co  tau(   3) = (   0.6666667   0.1924501   1.3333333  )
         4           Co  tau(   4) = (   0.1666667   0.4811252   1.3333333  )
         5           Co  tau(   5) = (   0.5000000   0.4811252   1.3333333  )
         6           Co  tau(   6) = (   0.8333333   0.4811252   1.3333333  )
         7           Co  tau(   7) = (   0.3333333   0.7698004   1.3333333  )
         8           Co  tau(   8) = (   0.6666667   0.7698004   1.3333333  )
         9           Co  tau(   9) = (   1.0000000   0.7698004   1.3333333  )
        10           Co  tau(  10) = (   0.0000000   0.0000000   1.6036667  )
        11           Co  tau(  11) = (   0.3333333   0.0000000   1.6036667  )
        12           Co  tau(  12) = (   0.6666667   0.0000000   1.6036667  )
        13           Co  tau(  13) = (   0.1666667   0.2886751   1.6036667  )
        14           Co  tau(  14) = (   0.5000000   0.2886751   1.6036667  )
        15           Co  tau(  15) = (   0.8333333   0.2886751   1.6036667  )
        16           Co  tau(  16) = (   0.3333333   0.5773503   1.6036667  )
        17           Co  tau(  17) = (   0.6666667   0.5773503   1.6036667  )
        18           Co  tau(  18) = (   1.0000000   0.5773503   1.6036667  )
        19           Co  tau(  19) = (   0.0000000   0.1924501   1.8740000  )
        20           Co  tau(  20) = (   0.3333333   0.1924501   1.8740000  )
        21           Co  tau(  21) = (   0.6666667   0.1924501   1.8740000  )
        22           Co  tau(  22) = (   0.1666667   0.4811252   1.8740000  )
        23           Co  tau(  23) = (   0.5000000   0.4811252   1.8740000  )
        24           Co  tau(  24) = (   0.8333333   0.4811252   1.8740000  )
        25           Co  tau(  25) = (   0.3333333   0.7698004   1.8740000  )
        26           Co  tau(  26) = (   0.6666667   0.7698004   1.8740000  )
        27           Co  tau(  27) = (   1.0000000   0.7698004   1.8740000  )
        28           Co  tau(  28) = (   0.0000000   0.0000000   2.1443333  )
        29           Co  tau(  29) = (   0.3333333   0.0000000   2.1443333  )
        30           Co  tau(  30) = (   0.6666667   0.0000000   2.1443333  )
        31           Co  tau(  31) = (   0.1666667   0.2886751   2.1443333  )
        32           Co  tau(  32) = (   0.5000000   0.2886751   2.1443333  )
        33           Co  tau(  33) = (   0.8333333   0.2886751   2.1443333  )
        34           Co  tau(  34) = (   0.3333333   0.5773503   2.1443333  )
        35           Co  tau(  35) = (   0.6666667   0.5773503   2.1443333  )
        36           Co  tau(  36) = (   1.0000000   0.5773503   2.1443333  )
        37           C   tau(  37) = (   0.3592330   0.2073750   2.3391764  )
        38           O   tau(  38) = (   0.2274096   0.1394287   2.4195402  )
        39           H   tau(  39) = (   0.4699793   0.2674364   2.4220963  )

     number of k points=    13  Marzari-Vanderbilt smearing, width (Ry)=  0.0010
                       cart. coord. in units 2pi/alat
        k(    1) = (   0.0000000   0.0000000   0.0000000), wk =   0.0400000
        k(    2) = (   0.0000000   0.2309401   0.0000000), wk =   0.0800000
        k(    3) = (   0.0000000   0.4618802   0.0000000), wk =   0.0800000
        k(    4) = (   0.2000000  -0.1154701   0.0000000), wk =   0.0800000
        k(    5) = (   0.2000000   0.1154701   0.0000000), wk =   0.0800000
        k(    6) = (   0.2000000   0.3464102   0.0000000), wk =   0.0800000
        k(    7) = (   0.2000000  -0.5773503   0.0000000), wk =   0.0800000
        k(    8) = (   0.2000000  -0.3464102   0.0000000), wk =   0.0800000
        k(    9) = (   0.4000000  -0.2309401   0.0000000), wk =   0.0800000
        k(   10) = (   0.4000000   0.0000000   0.0000000), wk =   0.0800000
        k(   11) = (   0.4000000   0.2309401   0.0000000), wk =   0.0800000
        k(   12) = (   0.4000000  -0.6928203   0.0000000), wk =   0.0800000
        k(   13) = (   0.4000000  -0.4618802   0.0000000), wk =   0.0800000

     Dense  grid:   752179 G-vectors     FFT dimensions: (  80,  80, 288)

     Smooth grid:   409445 G-vectors     FFT dimensions: (  64,  64, 225)

     Estimated max dynamical RAM per process >      99.02 MB

     Estimated total dynamical RAM >       9.28 GB
     Generating pointlists ...
     new r_m :   0.1047 (alat units)  1.4835 (a.u.) for type    1
     new r_m :   0.0622 (alat units)  0.8818 (a.u.) for type    2
     new r_m :   0.0696 (alat units)  0.9862 (a.u.) for type    3
     new r_m :   0.0622 (alat units)  0.8818 (a.u.) for type    4

     Initial potential from superposition of free atoms

     starting charge     334.9897, renormalised to     335.0000

     negative rho (up, down):  3.043E-03 4.723E-04


     %%%%%%%%%%%%%%%%%%%%%%%%%%%%%%%%%%%%%%%%%%%%%%%%%%%%%%%%%%%%%%%%%%%%%%%%
     %                                                                      %
     % You are using vdW-DF, which was implemented by the Thonhauser group. %
     % Please cite the following two papers that made this development      %
     % possible and the two reviews that describe the various versions:     %
     %                                                                      %
     %   T. Thonhauser et al., PRL 115, 136402 (2015).                      %
     %   T. Thonhauser et al., PRB 76, 125112 (2007).                       %
     %   K. Berland et al., Rep. Prog. Phys. 78, 066501 (2015).             %
     %   D.C. Langreth et al., J. Phys.: Condens. Matter 21, 084203 (2009). %
     %                                                                      %
     % If you are calculating stress with vdW-DF, please also cite:         %
     %                                                                      %
     %   R. Sabatini et al., J. Phys.: Condens. Matter 24, 424209 (2012).   %
     %   C.M. Frostenson et al., Electr. Struct. 4, 014001 (2022).          %
     %                                                                      %
     %%%%%%%%%%%%%%%%%%%%%%%%%%%%%%%%%%%%%%%%%%%%%%%%%%%%%%%%%%%%%%%%%%%%%%%%

     %%%%%%%%%%%%%%%%%%%%%%%%%%%%%%%%%%%%%%%%%%%%%%%%%%%%%%%%%%%%%%%%%%%%%%%%
     %                                                                      %
     %  vdW-DF NEWS:                                                        %
     %                                                                      %
     %  * vdW-DF3 is now available. DOI: 10.1021/acs.jctc.0c00471           %
     %    use with input_dft = 'vdW-DF3-opt1' or 'vdW-DF3-opt2'             %
     %                                                                      %
     %  * Unscreened and range-separated hybrid vdW-DF-cx functionals       %
     %    DOI: 10.1063/1.4986522 and 10.1088/1361-648X/ac2ad2               %
     %    use with input_dft = 'vdW-DF-cx0'    and 'vdW-DF-ahcx'            %
     %  * Unscreened and range-separated hybrid vdW-DF2-b86r functionals    %
     %    DOI: 10.1063/1.4986522 and DOI: 10.1103/PhysRevX.12.041003        %
     %    use with input_dft = 'vdW-DF2-br0' and 'vdW-DF2-ahbr'             %
     %                                                                      %
     %%%%%%%%%%%%%%%%%%%%%%%%%%%%%%%%%%%%%%%%%%%%%%%%%%%%%%%%%%%%%%%%%%%%%%%%


     Starting wfcs are  333 randomized atomic wfcs
     Checking if some PAW data can be deallocated... 

     total cpu time spent up to now is       17.0 secs

     per-process dynamical memory:   231.9 Mb

     Self-consistent Calculation

     iteration #  1     ecut=    50.00 Ry     beta= 0.70
     Davidson diagonalization with overlap
     ethr =  1.00E-02,  avg # of iterations =  2.0

     negative rho (up, down):  2.429E-05 4.932E-08

     total cpu time spent up to now is       34.6 secs

     total energy              =   -6053.08785240 Ry
     estimated scf accuracy    <      39.54789965 Ry

     total magnetization       =    69.00 Bohr mag/cell
     absolute magnetization    =    81.26 Bohr mag/cell

     iteration #  2     ecut=    50.00 Ry     beta= 0.70
     Davidson diagonalization with overlap
     ethr =  1.00E-02,  avg # of iterations =  1.0

     negative rho (up, down):  2.752E-06 8.901E-09

     total cpu time spent up to now is       53.6 secs

     total energy              =   -6052.58191622 Ry
     estimated scf accuracy    <      24.17578724 Ry

     total magnetization       =    68.62 Bohr mag/cell
     absolute magnetization    =    76.72 Bohr mag/cell

     iteration #  3     ecut=    50.00 Ry     beta= 0.70
     Davidson diagonalization with overlap
     ethr =  7.22E-03,  avg # of iterations =  1.0

     total cpu time spent up to now is       67.4 secs

     total energy              =   -6055.13632090 Ry
     estimated scf accuracy    <      86.59519783 Ry

     total magnetization       =    65.83 Bohr mag/cell
     absolute magnetization    =    73.06 Bohr mag/cell

     iteration #  4     ecut=    50.00 Ry     beta= 0.70
     Davidson diagonalization with overlap
     ethr =  7.22E-03,  avg # of iterations =  1.0

     total cpu time spent up to now is       86.5 secs

     total energy              =   -6056.32400315 Ry
     estimated scf accuracy    <       5.78266778 Ry

     total magnetization       =    60.67 Bohr mag/cell
     absolute magnetization    =    70.50 Bohr mag/cell

     iteration #  5     ecut=    50.00 Ry     beta= 0.70
     Davidson diagonalization with overlap
     ethr =  1.73E-03,  avg # of iterations =  1.4

     total cpu time spent up to now is      100.1 secs

     total energy              =   -6056.34791594 Ry
     estimated scf accuracy    <       2.09409384 Ry

     total magnetization       =    60.53 Bohr mag/cell
     absolute magnetization    =    69.82 Bohr mag/cell

     iteration #  6     ecut=    50.00 Ry     beta= 0.70
     Davidson diagonalization with overlap
     ethr =  6.25E-04,  avg # of iterations =  1.6

     total cpu time spent up to now is      117.5 secs

     total energy              =   -6056.46319643 Ry
     estimated scf accuracy    <       0.65828296 Ry

     total magnetization       =    60.20 Bohr mag/cell
     absolute magnetization    =    69.43 Bohr mag/cell

     iteration #  7     ecut=    50.00 Ry     beta= 0.70
     Davidson diagonalization with overlap
     ethr =  1.97E-04,  avg # of iterations =  4.5

     total cpu time spent up to now is      140.8 secs

     total energy              =   -6056.49887254 Ry
     estimated scf accuracy    <       0.74118218 Ry

     total magnetization       =    60.20 Bohr mag/cell
     absolute magnetization    =    69.15 Bohr mag/cell

     iteration #  8     ecut=    50.00 Ry     beta= 0.70
     Davidson diagonalization with overlap
     ethr =  1.97E-04,  avg # of iterations =  1.6

     total cpu time spent up to now is      156.5 secs

     total energy              =   -6056.50750723 Ry
     estimated scf accuracy    <       0.14020782 Ry

     total magnetization       =    60.37 Bohr mag/cell
     absolute magnetization    =    69.13 Bohr mag/cell

     iteration #  9     ecut=    50.00 Ry     beta= 0.70
     Davidson diagonalization with overlap
     ethr =  4.19E-05,  avg # of iterations = 12.3

     total cpu time spent up to now is      197.8 secs

     total energy              =   -6056.53514237 Ry
     estimated scf accuracy    <       0.28742562 Ry

     total magnetization       =    61.25 Bohr mag/cell
     absolute magnetization    =    69.12 Bohr mag/cell

     iteration # 10     ecut=    50.00 Ry     beta= 0.70
     Davidson diagonalization with overlap
     ethr =  4.19E-05,  avg # of iterations =  1.7

     total cpu time spent up to now is      211.6 secs

     total energy              =   -6056.54126981 Ry
     estimated scf accuracy    <       0.18326065 Ry

     total magnetization       =    61.24 Bohr mag/cell
     absolute magnetization    =    69.02 Bohr mag/cell

     iteration # 11     ecut=    50.00 Ry     beta= 0.70
     Davidson diagonalization with overlap
     ethr =  4.19E-05,  avg # of iterations =  1.0

     total cpu time spent up to now is      229.1 secs

     total energy              =   -6056.52527316 Ry
     estimated scf accuracy    <       0.09247468 Ry

     total magnetization       =    61.24 Bohr mag/cell
     absolute magnetization    =    68.96 Bohr mag/cell

     iteration # 12     ecut=    50.00 Ry     beta= 0.70
     Davidson diagonalization with overlap
     ethr =  2.76E-05,  avg # of iterations =  2.0

     negative rho (up, down):  5.269E-07 0.000E+00

     total cpu time spent up to now is      245.1 secs

     total energy              =   -6056.53055314 Ry
     estimated scf accuracy    <       0.12292416 Ry

     total magnetization       =    61.18 Bohr mag/cell
     absolute magnetization    =    68.68 Bohr mag/cell

     iteration # 13     ecut=    50.00 Ry     beta= 0.70
     Davidson diagonalization with overlap
     ethr =  2.76E-05,  avg # of iterations =  1.2

     total cpu time spent up to now is      263.0 secs

     total energy              =   -6056.52784269 Ry
     estimated scf accuracy    <       0.10169607 Ry

     total magnetization       =    61.27 Bohr mag/cell
     absolute magnetization    =    68.69 Bohr mag/cell

     iteration # 14     ecut=    50.00 Ry     beta= 0.70
     Davidson diagonalization with overlap
     ethr =  2.76E-05,  avg # of iterations =  1.3

     total cpu time spent up to now is      276.3 secs

     total energy              =   -6056.52671544 Ry
     estimated scf accuracy    <       0.07396285 Ry

     total magnetization       =    61.24 Bohr mag/cell
     absolute magnetization    =    68.71 Bohr mag/cell

     iteration # 15     ecut=    50.00 Ry     beta= 0.70
     Davidson diagonalization with overlap
     ethr =  2.21E-05,  avg # of iterations =  1.0

     negative rho (up, down):  2.151E-05 2.245E-07

     total cpu time spent up to now is      296.0 secs

     total energy              =   -6056.52378386 Ry
     estimated scf accuracy    <       0.10881737 Ry

     total magnetization       =    61.27 Bohr mag/cell
     absolute magnetization    =    68.72 Bohr mag/cell

     iteration # 16     ecut=    50.00 Ry     beta= 0.70
     Davidson diagonalization with overlap
     ethr =  2.21E-05,  avg # of iterations =  1.1

     negative rho (up, down):  1.466E-04 2.229E-05

     total cpu time spent up to now is      309.5 secs

     total energy              =   -6056.52158377 Ry
     estimated scf accuracy    <       0.08477325 Ry

     total magnetization       =    61.25 Bohr mag/cell
     absolute magnetization    =    68.71 Bohr mag/cell

     iteration # 17     ecut=    50.00 Ry     beta= 0.70
     Davidson diagonalization with overlap
     ethr =  2.21E-05,  avg # of iterations =  1.0

     negative rho (up, down):  1.993E-02 1.838E-02

     total cpu time spent up to now is      328.0 secs

     total energy              =   -6056.51631686 Ry
     estimated scf accuracy    <       0.07373731 Ry

     total magnetization       =    61.24 Bohr mag/cell
     absolute magnetization    =    68.72 Bohr mag/cell

     iteration # 18     ecut=    50.00 Ry     beta= 0.70
     Davidson diagonalization with overlap
     ethr =  2.20E-05,  avg # of iterations =  1.3

     negative rho (up, down):  6.408E-03 5.421E-03

     total cpu time spent up to now is      341.5 secs

     total energy              =   -6056.51839880 Ry
     estimated scf accuracy    <       0.05015683 Ry

     total magnetization       =    61.24 Bohr mag/cell
     absolute magnetization    =    68.67 Bohr mag/cell

     iteration # 19     ecut=    50.00 Ry     beta= 0.70
     Davidson diagonalization with overlap
     ethr =  1.50E-05,  avg # of iterations =  1.0

     negative rho (up, down):  9.143E-03 8.084E-03

     total cpu time spent up to now is      361.3 secs

     total energy              =   -6056.51697826 Ry
     estimated scf accuracy    <       0.02579905 Ry

     total magnetization       =    61.24 Bohr mag/cell
     absolute magnetization    =    68.69 Bohr mag/cell

     iteration # 20     ecut=    50.00 Ry     beta= 0.70
     Davidson diagonalization with overlap
     c_bands:  4 eigenvalues not converged
     ethr =  7.70E-06,  avg # of iterations =  1.8

     negative rho (up, down):  9.487E-03 8.456E-03

     total cpu time spent up to now is      378.8 secs

     total energy              =   -6056.51622070 Ry
     estimated scf accuracy    <       0.03719292 Ry

     total magnetization       =    61.24 Bohr mag/cell
     absolute magnetization    =    68.69 Bohr mag/cell

     iteration # 21     ecut=    50.00 Ry     beta= 0.70
     Davidson diagonalization with overlap
     ethr =  7.70E-06,  avg # of iterations =  1.4

     negative rho (up, down):  1.337E-02 1.235E-02

     total cpu time spent up to now is      393.6 secs

     total energy              =   -6056.51576922 Ry
     estimated scf accuracy    <       0.01480068 Ry

     total magnetization       =    61.24 Bohr mag/cell
     absolute magnetization    =    68.70 Bohr mag/cell

     iteration # 22     ecut=    50.00 Ry     beta= 0.70
     Davidson diagonalization with overlap
     ethr =  4.42E-06,  avg # of iterations =  1.3

     negative rho (up, down):  2.340E-02 2.262E-02

     total cpu time spent up to now is      411.1 secs

     total energy              =   -6056.51424064 Ry
     estimated scf accuracy    <       0.00803260 Ry

     total magnetization       =    61.24 Bohr mag/cell
     absolute magnetization    =    68.71 Bohr mag/cell

     iteration # 23     ecut=    50.00 Ry     beta= 0.70
     Davidson diagonalization with overlap
     ethr =  2.40E-06,  avg # of iterations =  2.2

     negative rho (up, down):  1.487E-02 1.432E-02

     total cpu time spent up to now is      429.0 secs

     total energy              =   -6056.51369306 Ry
     estimated scf accuracy    <       0.00783085 Ry

     total magnetization       =    61.24 Bohr mag/cell
     absolute magnetization    =    68.72 Bohr mag/cell

     iteration # 24     ecut=    50.00 Ry     beta= 0.70
     Davidson diagonalization with overlap
     ethr =  2.34E-06,  avg # of iterations =  1.2

     negative rho (up, down):  1.288E-02 1.233E-02

     total cpu time spent up to now is      446.0 secs

     total energy              =   -6056.51389762 Ry
     estimated scf accuracy    <       0.00363806 Ry

     total magnetization       =    61.24 Bohr mag/cell
     absolute magnetization    =    68.74 Bohr mag/cell

     iteration # 25     ecut=    50.00 Ry     beta= 0.70
     Davidson diagonalization with overlap
     ethr =  1.09E-06,  avg # of iterations =  1.4

     negative rho (up, down):  7.998E-03 7.450E-03

     total cpu time spent up to now is      459.7 secs

     total energy              =   -6056.51378685 Ry
     estimated scf accuracy    <       0.00244001 Ry

     total magnetization       =    61.24 Bohr mag/cell
     absolute magnetization    =    68.74 Bohr mag/cell

     iteration # 26     ecut=    50.00 Ry     beta= 0.70
     Davidson diagonalization with overlap
     ethr =  7.28E-07,  avg # of iterations =  1.4

     negative rho (up, down):  7.691E-03 7.152E-03

     total cpu time spent up to now is      479.1 secs

     total energy              =   -6056.51405007 Ry
     estimated scf accuracy    <       0.00372495 Ry

     total magnetization       =    61.24 Bohr mag/cell
     absolute magnetization    =    68.73 Bohr mag/cell

     iteration # 27     ecut=    50.00 Ry     beta= 0.70
     Davidson diagonalization with overlap
     ethr =  7.28E-07,  avg # of iterations =  1.6

     negative rho (up, down):  5.827E-03 5.205E-03

     total cpu time spent up to now is      498.4 secs

     total energy              =   -6056.51411704 Ry
     estimated scf accuracy    <       0.00052879 Ry

     total magnetization       =    61.24 Bohr mag/cell
     absolute magnetization    =    68.74 Bohr mag/cell

     iteration # 28     ecut=    50.00 Ry     beta= 0.70
     Davidson diagonalization with overlap
     ethr =  1.58E-07,  avg # of iterations =  3.7

     negative rho (up, down):  4.691E-03 3.905E-03

     total cpu time spent up to now is      514.6 secs

     total energy              =   -6056.51415887 Ry
     estimated scf accuracy    <       0.00099761 Ry

     total magnetization       =    61.24 Bohr mag/cell
     absolute magnetization    =    68.74 Bohr mag/cell

     iteration # 29     ecut=    50.00 Ry     beta= 0.70
     Davidson diagonalization with overlap
     ethr =  1.58E-07,  avg # of iterations =  1.4

     negative rho (up, down):  3.270E-03 2.285E-03

     total cpu time spent up to now is      533.7 secs

     total energy              =   -6056.51418409 Ry
     estimated scf accuracy    <       0.00017576 Ry

     total magnetization       =    61.24 Bohr mag/cell
     absolute magnetization    =    68.74 Bohr mag/cell

     iteration # 30     ecut=    50.00 Ry     beta= 0.70
     Davidson diagonalization with overlap
     ethr =  5.25E-08,  avg # of iterations =  2.5

     negative rho (up, down):  3.295E-03 2.324E-03

     total cpu time spent up to now is      549.9 secs

     total energy              =   -6056.51418550 Ry
     estimated scf accuracy    <       0.00015176 Ry

     total magnetization       =    61.24 Bohr mag/cell
     absolute magnetization    =    68.74 Bohr mag/cell

     iteration # 31     ecut=    50.00 Ry     beta= 0.70
     Davidson diagonalization with overlap
     ethr =  4.53E-08,  avg # of iterations =  1.8

     negative rho (up, down):  3.358E-03 2.374E-03

     total cpu time spent up to now is      569.7 secs

     total energy              =   -6056.51419402 Ry
     estimated scf accuracy    <       0.00014243 Ry

     total magnetization       =    61.24 Bohr mag/cell
     absolute magnetization    =    68.74 Bohr mag/cell

     iteration # 32     ecut=    50.00 Ry     beta= 0.70
     Davidson diagonalization with overlap
     ethr =  4.25E-08,  avg # of iterations =  1.3

     negative rho (up, down):  2.991E-03 2.001E-03

     total cpu time spent up to now is      587.3 secs

     total energy              =   -6056.51418629 Ry
     estimated scf accuracy    <       0.00008636 Ry

     total magnetization       =    61.24 Bohr mag/cell
     absolute magnetization    =    68.74 Bohr mag/cell

     iteration # 33     ecut=    50.00 Ry     beta= 0.70
     Davidson diagonalization with overlap
     ethr =  2.58E-08,  avg # of iterations =  1.7

     negative rho (up, down):  3.042E-03 1.967E-03

     total cpu time spent up to now is      604.4 secs

     total energy              =   -6056.51420380 Ry
     estimated scf accuracy    <       0.00002877 Ry

     total magnetization       =    61.24 Bohr mag/cell
     absolute magnetization    =    68.74 Bohr mag/cell

     iteration # 34     ecut=    50.00 Ry     beta= 0.70
     Davidson diagonalization with overlap
     ethr =  8.59E-09,  avg # of iterations =  5.5

     negative rho (up, down):  2.880E-03 1.785E-03

     total cpu time spent up to now is      625.7 secs

     total energy              =   -6056.51420547 Ry
     estimated scf accuracy    <       0.00002940 Ry

     total magnetization       =    61.24 Bohr mag/cell
     absolute magnetization    =    68.74 Bohr mag/cell

     iteration # 35     ecut=    50.00 Ry     beta= 0.70
     Davidson diagonalization with overlap
     ethr =  8.59E-09,  avg # of iterations =  1.9

     negative rho (up, down):  2.848E-03 1.746E-03

     total cpu time spent up to now is      645.6 secs

     total energy              =   -6056.51420540 Ry
     estimated scf accuracy    <       0.00001700 Ry

     total magnetization       =    61.24 Bohr mag/cell
     absolute magnetization    =    68.74 Bohr mag/cell

     iteration # 36     ecut=    50.00 Ry     beta= 0.70
     Davidson diagonalization with overlap
     ethr =  5.08E-09,  avg # of iterations =  2.0

     negative rho (up, down):  2.837E-03 1.779E-03

     total cpu time spent up to now is      660.8 secs

     total energy              =   -6056.51420657 Ry
     estimated scf accuracy    <       0.00003565 Ry

     total magnetization       =    61.24 Bohr mag/cell
     absolute magnetization    =    68.74 Bohr mag/cell

     iteration # 37     ecut=    50.00 Ry     beta= 0.70
     Davidson diagonalization with overlap
     ethr =  5.08E-09,  avg # of iterations =  2.0

     negative rho (up, down):  2.788E-03 1.710E-03

     total cpu time spent up to now is      682.0 secs

     total energy              =   -6056.51420716 Ry
     estimated scf accuracy    <       0.00001023 Ry

     total magnetization       =    61.24 Bohr mag/cell
     absolute magnetization    =    68.74 Bohr mag/cell

     iteration # 38     ecut=    50.00 Ry     beta= 0.70
     Davidson diagonalization with overlap
     ethr =  3.05E-09,  avg # of iterations =  1.7

     negative rho (up, down):  2.733E-03 1.663E-03

     total cpu time spent up to now is      696.4 secs

     total energy              =   -6056.51420749 Ry
     estimated scf accuracy    <       0.00000421 Ry

     total magnetization       =    61.24 Bohr mag/cell
     absolute magnetization    =    68.74 Bohr mag/cell

     iteration # 39     ecut=    50.00 Ry     beta= 0.70
     Davidson diagonalization with overlap
     ethr =  1.26E-09,  avg # of iterations =  3.9

     negative rho (up, down):  2.651E-03 1.566E-03

     total cpu time spent up to now is      717.2 secs

     total energy              =   -6056.51420726 Ry
     estimated scf accuracy    <       0.00000459 Ry

     total magnetization       =    61.24 Bohr mag/cell
     absolute magnetization    =    68.74 Bohr mag/cell

     iteration # 40     ecut=    50.00 Ry     beta= 0.70
     Davidson diagonalization with overlap
     ethr =  1.26E-09,  avg # of iterations =  1.8

     negative rho (up, down):  2.463E-03 1.359E-03

     total cpu time spent up to now is      738.0 secs

     total energy              =   -6056.51420713 Ry
     estimated scf accuracy    <       0.00000339 Ry

     total magnetization       =    61.24 Bohr mag/cell
     absolute magnetization    =    68.74 Bohr mag/cell

     iteration # 41     ecut=    50.00 Ry     beta= 0.70
     Davidson diagonalization with overlap
     ethr =  1.01E-09,  avg # of iterations =  1.9

     negative rho (up, down):  2.294E-03 1.185E-03

     total cpu time spent up to now is      752.8 secs

     total energy              =   -6056.51420680 Ry
     estimated scf accuracy    <       0.00000711 Ry

     total magnetization       =    61.24 Bohr mag/cell
     absolute magnetization    =    68.74 Bohr mag/cell

     iteration # 42     ecut=    50.00 Ry     beta= 0.70
     Davidson diagonalization with overlap
     ethr =  1.01E-09,  avg # of iterations =  1.3

     negative rho (up, down):  2.350E-03 1.253E-03

     total cpu time spent up to now is      772.0 secs

     total energy              =   -6056.51420713 Ry
     estimated scf accuracy    <       0.00000149 Ry

     total magnetization       =    61.24 Bohr mag/cell
     absolute magnetization    =    68.74 Bohr mag/cell

     iteration # 43     ecut=    50.00 Ry     beta= 0.70
     Davidson diagonalization with overlap
     ethr =  4.45E-10,  avg # of iterations =  3.6

     negative rho (up, down):  2.293E-03 1.191E-03

     total cpu time spent up to now is      789.1 secs

     total energy              =   -6056.51420716 Ry
     estimated scf accuracy    <       0.00000184 Ry

     total magnetization       =    61.24 Bohr mag/cell
     absolute magnetization    =    68.74 Bohr mag/cell

     iteration # 44     ecut=    50.00 Ry     beta= 0.70
     Davidson diagonalization with overlap
     ethr =  4.45E-10,  avg # of iterations =  1.9

     negative rho (up, down):  2.255E-03 1.152E-03

     total cpu time spent up to now is      808.9 secs

     total energy              =   -6056.51420706 Ry
     estimated scf accuracy    <       0.00000287 Ry

     total magnetization       =    61.24 Bohr mag/cell
     absolute magnetization    =    68.74 Bohr mag/cell

     iteration # 45     ecut=    50.00 Ry     beta= 0.70
     Davidson diagonalization with overlap
     ethr =  4.45E-10,  avg # of iterations =  1.1

     negative rho (up, down):  2.256E-03 1.154E-03

     total cpu time spent up to now is      826.3 secs

     total energy              =   -6056.51420719 Ry
     estimated scf accuracy    <       0.00000050 Ry

     total magnetization       =    61.24 Bohr mag/cell
     absolute magnetization    =    68.74 Bohr mag/cell

     iteration # 46     ecut=    50.00 Ry     beta= 0.70
     Davidson diagonalization with overlap
     c_bands:  1 eigenvalues not converged
     ethr =  1.48E-10,  avg # of iterations =  3.2

     negative rho (up, down):  2.247E-03 1.146E-03

     total cpu time spent up to now is      844.2 secs

     total energy              =   -6056.51420719 Ry
     estimated scf accuracy    <       0.00000037 Ry

     total magnetization       =    61.24 Bohr mag/cell
     absolute magnetization    =    68.74 Bohr mag/cell

     iteration # 47     ecut=    50.00 Ry     beta= 0.70
     Davidson diagonalization with overlap
     ethr =  1.09E-10,  avg # of iterations =  2.8

     negative rho (up, down):  2.232E-03 1.132E-03

     total cpu time spent up to now is      863.8 secs

     total energy              =   -6056.51420716 Ry
     estimated scf accuracy    <       0.00000089 Ry

     total magnetization       =    61.24 Bohr mag/cell
     absolute magnetization    =    68.74 Bohr mag/cell

     iteration # 48     ecut=    50.00 Ry     beta= 0.70
     Davidson diagonalization with overlap
     ethr =  1.09E-10,  avg # of iterations =  1.4

     negative rho (up, down):  2.238E-03 1.138E-03

     total cpu time spent up to now is      879.7 secs

     total energy              =   -6056.51420721 Ry
     estimated scf accuracy    <       0.00000013 Ry

     total magnetization       =    61.24 Bohr mag/cell
     absolute magnetization    =    68.74 Bohr mag/cell

     iteration # 49     ecut=    50.00 Ry     beta= 0.70
     Davidson diagonalization with overlap
     ethr =  3.91E-11,  avg # of iterations =  4.5

     negative rho (up, down):  2.233E-03 1.133E-03

     total cpu time spent up to now is      899.8 secs

     total energy              =   -6056.51420721 Ry
     estimated scf accuracy    <       0.00000010 Ry

     total magnetization       =    61.24 Bohr mag/cell
     absolute magnetization    =    68.74 Bohr mag/cell

     iteration # 50     ecut=    50.00 Ry     beta= 0.70
     Davidson diagonalization with overlap
     ethr =  2.90E-11,  avg # of iterations =  1.5

     negative rho (up, down):  2.231E-03 1.132E-03

     total cpu time spent up to now is      920.2 secs

     total energy              =   -6056.51420721 Ry
     estimated scf accuracy    <       0.00000006 Ry

     total magnetization       =    61.24 Bohr mag/cell
     absolute magnetization    =    68.74 Bohr mag/cell

     iteration # 51     ecut=    50.00 Ry     beta= 0.70
     Davidson diagonalization with overlap
     ethr =  1.84E-11,  avg # of iterations =  3.0

     negative rho (up, down):  2.229E-03 1.130E-03

     total cpu time spent up to now is      935.6 secs

     total energy              =   -6056.51420721 Ry
     estimated scf accuracy    <       0.00000008 Ry

     total magnetization       =    61.24 Bohr mag/cell
     absolute magnetization    =    68.74 Bohr mag/cell

     iteration # 52     ecut=    50.00 Ry     beta= 0.70
     Davidson diagonalization with overlap
     ethr =  1.84E-11,  avg # of iterations =  1.5

     negative rho (up, down):  2.233E-03 1.133E-03

     total cpu time spent up to now is      953.9 secs

     total energy              =   -6056.51420722 Ry
     estimated scf accuracy    <       0.00000004 Ry

     total magnetization       =    61.24 Bohr mag/cell
     absolute magnetization    =    68.74 Bohr mag/cell

     iteration # 53     ecut=    50.00 Ry     beta= 0.70
     Davidson diagonalization with overlap
     ethr =  1.31E-11,  avg # of iterations =  1.6

     negative rho (up, down):  2.227E-03 1.128E-03

     total cpu time spent up to now is      969.1 secs

     total energy              =   -6056.51420721 Ry
     estimated scf accuracy    <       0.00000003 Ry

     total magnetization       =    61.24 Bohr mag/cell
     absolute magnetization    =    68.74 Bohr mag/cell

     iteration # 54     ecut=    50.00 Ry     beta= 0.70
     Davidson diagonalization with overlap
     ethr =  8.64E-12,  avg # of iterations =  2.7

     negative rho (up, down):  2.229E-03 1.130E-03

     total cpu time spent up to now is      989.5 secs

     total energy              =   -6056.51420721 Ry
     estimated scf accuracy    <       0.00000001 Ry

     total magnetization       =    61.24 Bohr mag/cell
     absolute magnetization    =    68.74 Bohr mag/cell

     iteration # 55     ecut=    50.00 Ry     beta= 0.70
     Davidson diagonalization with overlap
     ethr =  4.27E-12,  avg # of iterations =  3.4

     negative rho (up, down):  2.227E-03 1.128E-03

     total cpu time spent up to now is     1009.1 secs

     total energy              =   -6056.51420721 Ry
     estimated scf accuracy    <       0.00000002 Ry

     total magnetization       =    61.24 Bohr mag/cell
     absolute magnetization    =    68.74 Bohr mag/cell

     iteration # 56     ecut=    50.00 Ry     beta= 0.70
     Davidson diagonalization with overlap
     ethr =  4.27E-12,  avg # of iterations =  1.7

     negative rho (up, down):  2.227E-03 1.128E-03

     total cpu time spent up to now is     1025.7 secs

     total energy              =   -6056.51420721 Ry
     estimated scf accuracy    <       0.00000002 Ry

     total magnetization       =    61.24 Bohr mag/cell
     absolute magnetization    =    68.74 Bohr mag/cell

     iteration # 57     ecut=    50.00 Ry     beta= 0.70
     Davidson diagonalization with overlap
     ethr =  4.27E-12,  avg # of iterations =  1.2

     negative rho (up, down):  2.233E-03 1.134E-03

     Magnetic moment per site  (integrated on atomic sphere of radius R)
     atom   1 (R=0.105)  charge=  6.3148  magn=  1.7762
     atom   2 (R=0.105)  charge=  6.3161  magn=  1.7698
     atom   3 (R=0.105)  charge=  6.3154  magn=  1.7751
     atom   4 (R=0.105)  charge=  6.3152  magn=  1.7762
     atom   5 (R=0.105)  charge=  6.3154  magn=  1.7756
     atom   6 (R=0.105)  charge=  6.3150  magn=  1.7817
     atom   7 (R=0.105)  charge=  6.3149  magn=  1.7836
     atom   8 (R=0.105)  charge=  6.3149  magn=  1.7759
     atom   9 (R=0.105)  charge=  6.3152  magn=  1.7764
     atom  10 (R=0.105)  charge=  6.3233  magn=  1.6993
     atom  11 (R=0.105)  charge=  6.3236  magn=  1.7016
     atom  12 (R=0.105)  charge=  6.3232  magn=  1.7017
     atom  13 (R=0.105)  charge=  6.3236  magn=  1.7022
     atom  14 (R=0.105)  charge=  6.3238  magn=  1.6965
     atom  15 (R=0.105)  charge=  6.3235  magn=  1.7071
     atom  16 (R=0.105)  charge=  6.3232  magn=  1.7015
     atom  17 (R=0.105)  charge=  6.3235  magn=  1.7066
     atom  18 (R=0.105)  charge=  6.3227  magn=  1.7032
     atom  19 (R=0.105)  charge=  6.3206  magn=  1.7102
     atom  20 (R=0.105)  charge=  6.3193  magn=  1.7389
     atom  21 (R=0.105)  charge=  6.3217  magn=  1.7043
     atom  22 (R=0.105)  charge=  6.3230  magn=  1.7040
     atom  23 (R=0.105)  charge=  6.3216  magn=  1.7047
     atom  24 (R=0.105)  charge=  6.3217  magn=  1.7097
     atom  25 (R=0.105)  charge=  6.3228  magn=  1.7083
     atom  26 (R=0.105)  charge=  6.3206  magn=  1.7098
     atom  27 (R=0.105)  charge=  6.3231  magn=  1.7059
     atom  28 (R=0.105)  charge=  6.3191  magn=  1.7951
     atom  29 (R=0.105)  charge=  6.3358  magn=  1.6005
     atom  30 (R=0.105)  charge=  6.3167  magn=  1.7845
     atom  31 (R=0.105)  charge=  6.3351  magn=  1.6093
     atom  32 (R=0.105)  charge=  6.3495  magn=  1.3009
     atom  33 (R=0.105)  charge=  6.3179  magn=  1.7612
     atom  34 (R=0.105)  charge=  6.3165  magn=  1.7860
     atom  35 (R=0.105)  charge=  6.3176  magn=  1.7607
     atom  36 (R=0.105)  charge=  6.3125  magn=  1.7986
     atom  37 (R=0.062)  charge=  0.9045  magn= -0.0207
     atom  38 (R=0.070)  charge=  3.2065  magn=  0.0372
     atom  39 (R=0.062)  charge=  0.5066  magn=  0.0103

     total cpu time spent up to now is     1043.5 secs

     End of self-consistent calculation

 ------ SPIN UP ------------


          k = 0.0000 0.0000 0.0000 ( 51087 PWs)   bands (ev):

   -21.5663 -10.6525  -7.5205  -7.0169  -6.3028  -5.7127  -5.4775  -4.6146
    -4.5935  -4.5925  -4.5917  -4.5809  -4.5548  -4.5320  -4.2242  -4.0665
    -4.0605  -4.0581  -4.0432  -4.0072  -4.0047  -3.5648  -3.5428  -3.5402
    -3.5333  -3.5172  -3.4913  -3.4231  -3.4186  -3.4134  -3.4108  -3.4011
    -3.3892  -3.3399  -3.3358  -3.0580  -3.0262  -3.0228  -3.0217  -3.0172
    -2.9889  -2.9609  -2.9544  -2.9522  -2.9477  -2.9413  -2.9404  -2.7944
    -2.7927  -2.7822  -2.7535  -2.7226  -2.7188  -2.7179  -2.7022  -2.6909
    -2.6812  -2.6803  -2.6784  -2.5905  -2.5863  -2.5829  -2.5792  -2.5725
    -2.5193  -2.3166  -2.0660  -2.0467  -2.0445  -2.0418  -2.0343  -1.9804
    -1.9386  -1.9067  -1.9012  -1.8905  -1.8795  -1.8751  -1.8664  -1.8653
    -1.8591  -1.8095  -1.8077  -1.7594  -1.7575  -1.7562  -1.7407  -1.7305
    -1.7238  -1.7178  -1.7173  -1.7159  -1.6979  -1.6899  -1.6856  -1.6797
    -1.6779  -1.6731  -1.6718  -1.6683  -1.6680  -1.6629  -1.6610  -1.6583
    -1.6557  -1.6107  -1.6094  -1.5936  -1.5872  -1.5133  -1.5100  -1.4765
    -1.2917  -1.2655  -1.2170  -1.2121  -1.2094  -1.2030  -1.2008  -1.2004
    -1.1790  -1.1764  -1.1464  -1.1348  -1.1275  -1.0200  -1.0034  -0.9997
    -0.9722  -0.9597  -0.8653  -0.8279  -0.8037  -0.7991  -0.7895  -0.7764
    -0.7265  -0.7213  -0.7211  -0.7156  -0.7151  -0.6959  -0.6060  -0.6020
    -0.4870  -0.4840  -0.4736  -0.4729  -0.4457  -0.4422  -0.4166  -0.4130
    -0.4071  -0.4055  -0.3980  -0.3977  -0.3948  -0.3934  -0.3876  -0.3821
    -0.3786  -0.3781  -0.3600  -0.3588  -0.3376  -0.3304  -0.3287  -0.3187
    -0.3158  -0.3071  -0.2872  -0.2830  -0.2789  -0.2549  -0.2523  -0.2502
    -0.2454  -0.2371  -0.2304  -0.2185  -0.2035  -0.1831  -0.1793  -0.1741
    -0.1683  -0.1668  -0.1645  -0.1593  -0.1516  -0.1460  -0.0966  -0.0953
    -0.0791  -0.0779  -0.0170  -0.0150  -0.0101  -0.0061  -0.0031   0.0061
     0.3978   1.1329

          k = 0.0000 0.2309 0.0000 ( 51134 PWs)   bands (ev):

   -21.5663 -10.6519  -7.3887  -6.9912  -6.2337  -5.6985  -5.4788  -5.2779
    -4.8390  -4.8300  -4.4614  -4.3261  -4.2523  -4.2496  -4.1847  -4.1314
    -4.0944  -4.0589  -3.9836  -3.9317  -3.9203  -3.6713  -3.5546  -3.5471
    -3.4814  -3.4540  -3.4258  -3.4216  -3.4188  -3.4064  -3.3973  -3.3798
    -3.3516  -3.3098  -3.3004  -3.2682  -3.2653  -3.1056  -3.0515  -3.0404
    -3.0153  -2.9854  -2.9807  -2.9726  -2.9188  -2.8835  -2.8522  -2.8307
    -2.8170  -2.8104  -2.7940  -2.7752  -2.6816  -2.6795  -2.6569  -2.6311
    -2.6095  -2.5958  -2.5748  -2.5636  -2.5535  -2.5239  -2.5075  -2.4979
    -2.4434  -2.3284  -2.1833  -2.1524  -2.1401  -2.1174  -2.0789  -2.0315
    -2.0092  -2.0022  -1.9980  -1.9890  -1.9715  -1.9625  -1.9402  -1.9074
    -1.8746  -1.8666  -1.8501  -1.8124  -1.8040  -1.8000  -1.7892  -1.7760
    -1.7697  -1.7604  -1.7567  -1.7546  -1.7443  -1.7332  -1.6974  -1.6789
    -1.6606  -1.6433  -1.6033  -1.5800  -1.5718  -1.5673  -1.5566  -1.5481
    -1.5368  -1.5304  -1.5245  -1.5146  -1.5118  -1.4887  -1.4717  -1.4627
    -1.4512  -1.4442  -1.3999  -1.3654  -1.3556  -1.2882  -1.2433  -1.2393
    -1.2313  -1.2205  -1.2116  -1.2090  -1.2062  -1.1944  -1.1093  -1.0683
    -1.0394  -1.0253  -0.9559  -0.9488  -0.9277  -0.8831  -0.8585  -0.8541
    -0.8075  -0.7766  -0.7510  -0.7294  -0.7123  -0.7100  -0.6733  -0.6657
    -0.6489  -0.6358  -0.6176  -0.5866  -0.5799  -0.5637  -0.5575  -0.5504
    -0.5004  -0.4822  -0.4739  -0.4678  -0.4528  -0.4252  -0.4110  -0.4073
    -0.4025  -0.3947  -0.3873  -0.3763  -0.3532  -0.3497  -0.3323  -0.3167
    -0.2890  -0.2743  -0.2634  -0.2474  -0.2254  -0.2194  -0.1816  -0.1677
    -0.1544  -0.1504  -0.1414  -0.1330  -0.1247  -0.1088  -0.0983  -0.0947
    -0.0591  -0.0188  -0.0160  -0.0056   0.0186   0.0199   0.0541   0.0603
     0.0727   0.1151   0.3413   0.3649   0.4530   0.5409   0.6093   0.6312
     0.7255   0.8480

          k = 0.0000 0.4619 0.0000 ( 51204 PWs)   bands (ev):

   -21.5663 -10.6509  -7.1347  -6.8092  -6.2447  -6.0336  -5.5712  -5.3066
    -4.9794  -4.9658  -4.8423  -4.1391  -4.0953  -4.0854  -4.0467  -4.0087
    -3.8959  -3.8927  -3.8505  -3.7704  -3.7607  -3.7504  -3.6458  -3.5831
    -3.5762  -3.5686  -3.5642  -3.5126  -3.4879  -3.4560  -3.4508  -3.3007
    -3.2944  -3.2875  -3.2756  -3.2506  -3.2439  -3.1698  -3.1397  -3.1314
    -3.1194  -3.1173  -3.0080  -2.9619  -2.9064  -2.8472  -2.8115  -2.7944
    -2.7754  -2.7437  -2.7315  -2.7275  -2.7245  -2.6930  -2.6526  -2.6321
    -2.6083  -2.5777  -2.5610  -2.4833  -2.4255  -2.4173  -2.3992  -2.3620
    -2.3115  -2.2946  -2.2857  -2.2709  -2.2389  -2.1844  -2.1659  -2.1340
    -2.1322  -2.1280  -2.1137  -2.0993  -2.0883  -2.0798  -2.0377  -2.0286
    -2.0010  -1.9846  -1.9577  -1.9470  -1.9136  -1.8954  -1.8498  -1.8226
    -1.8048  -1.7987  -1.7743  -1.7564  -1.7267  -1.7049  -1.6957  -1.6870
    -1.6789  -1.6655  -1.6510  -1.6299  -1.6272  -1.6084  -1.5969  -1.5782
    -1.5642  -1.5525  -1.5058  -1.4829  -1.4540  -1.4214  -1.4044  -1.3959
    -1.3828  -1.3643  -1.3297  -1.2892  -1.2859  -1.2692  -1.2590  -1.2533
    -1.2453  -1.2377  -1.2269  -1.2232  -1.2174  -1.2112  -1.1998  -1.1871
    -1.1750  -1.1515  -1.0805  -1.0525  -1.0326  -1.0209  -0.9991  -0.9842
    -0.9680  -0.9067  -0.9014  -0.8776  -0.8660  -0.8198  -0.8052  -0.7547
    -0.7457  -0.7147  -0.6946  -0.6707  -0.6654  -0.6503  -0.6197  -0.5683
    -0.5265  -0.4964  -0.4791  -0.4737  -0.4726  -0.4645  -0.4591  -0.4488
    -0.4264  -0.4084  -0.3679  -0.3266  -0.3124  -0.3092  -0.3003  -0.2978
    -0.2860  -0.2653  -0.2548  -0.2485  -0.2403  -0.2213  -0.1447  -0.1272
    -0.1213  -0.1177  -0.0911  -0.0463  -0.0243  -0.0216   0.0135   0.0232
     0.0445   0.0910   0.0927   0.1146   0.1171   0.1213   0.1297   0.1465
     0.2238   0.2371   0.3202   0.9333   1.1353   1.2611   1.3517   1.3873
     1.5467   1.7184

          k = 0.2000-0.1155 0.0000 ( 51134 PWs)   bands (ev):

   -21.5663 -10.6519  -7.3887  -6.9912  -6.2328  -5.6957  -5.4802  -5.2804
    -4.8389  -4.8285  -4.4626  -4.3277  -4.2523  -4.2493  -4.1850  -4.1313
    -4.0933  -4.0580  -3.9849  -3.9316  -3.9191  -3.6724  -3.5540  -3.5469
    -3.4830  -3.4541  -3.4255  -3.4215  -3.4193  -3.4068  -3.3958  -3.3800
    -3.3511  -3.3101  -3.3000  -3.2683  -3.2650  -3.1048  -3.0538  -3.0403
    -3.0166  -2.9851  -2.9809  -2.9726  -2.9182  -2.8854  -2.8519  -2.8301
    -2.8166  -2.8103  -2.7937  -2.7757  -2.6828  -2.6801  -2.6582  -2.6291
    -2.6101  -2.5953  -2.5742  -2.5627  -2.5519  -2.5234  -2.5067  -2.4975
    -2.4444  -2.3293  -2.1827  -2.1530  -2.1400  -2.1170  -2.0792  -2.0317
    -2.0095  -2.0014  -1.9976  -1.9885  -1.9715  -1.9632  -1.9410  -1.9066
    -1.8740  -1.8661  -1.8496  -1.8115  -1.8036  -1.7991  -1.7891  -1.7762
    -1.7702  -1.7603  -1.7574  -1.7550  -1.7443  -1.7335  -1.6979  -1.6789
    -1.6609  -1.6446  -1.6023  -1.5799  -1.5716  -1.5671  -1.5567  -1.5482
    -1.5378  -1.5298  -1.5237  -1.5146  -1.5117  -1.4891  -1.4718  -1.4621
    -1.4512  -1.4441  -1.4007  -1.3674  -1.3549  -1.2867  -1.2425  -1.2397
    -1.2311  -1.2210  -1.2117  -1.2086  -1.2061  -1.1949  -1.1111  -1.0660
    -1.0370  -1.0246  -0.9560  -0.9491  -0.9280  -0.8838  -0.8583  -0.8540
    -0.8073  -0.7782  -0.7530  -0.7300  -0.7127  -0.7100  -0.6714  -0.6655
    -0.6492  -0.6363  -0.6168  -0.5870  -0.5806  -0.5630  -0.5576  -0.5504
    -0.5008  -0.4815  -0.4740  -0.4676  -0.4536  -0.4261  -0.4105  -0.4069
    -0.4018  -0.3945  -0.3874  -0.3769  -0.3540  -0.3481  -0.3302  -0.3202
    -0.2898  -0.2737  -0.2630  -0.2471  -0.2258  -0.2191  -0.1821  -0.1666
    -0.1546  -0.1498  -0.1425  -0.1338  -0.1244  -0.1088  -0.0981  -0.0947
    -0.0588  -0.0188  -0.0162  -0.0056   0.0187   0.0196   0.0547   0.0609
     0.0726   0.1154   0.3421   0.3652   0.4503   0.5424   0.6072   0.6338
     0.7229   0.8423

          k = 0.2000 0.1155 0.0000 ( 51134 PWs)   bands (ev):

   -21.5663 -10.6523  -7.3893  -6.9911  -6.2248  -5.6684  -5.4829  -5.3249
    -4.8338  -4.8163  -4.4678  -4.3489  -4.2552  -4.2456  -4.1860  -4.1380
    -4.0747  -4.0500  -3.9911  -3.9278  -3.9181  -3.6674  -3.5635  -3.5492
    -3.4698  -3.4464  -3.4245  -3.4229  -3.4181  -3.4161  -3.3902  -3.3843
    -3.3475  -3.3075  -3.3050  -3.2674  -3.2643  -3.0918  -3.0491  -3.0441
    -3.0248  -2.9982  -2.9816  -2.9780  -2.9124  -2.8830  -2.8687  -2.8301
    -2.8154  -2.8126  -2.7930  -2.7855  -2.6895  -2.6812  -2.6728  -2.6355
    -2.6142  -2.5838  -2.5764  -2.5561  -2.5391  -2.5111  -2.5040  -2.5023
    -2.4523  -2.3213  -2.1951  -2.1590  -2.1445  -2.1111  -2.0688  -2.0207
    -2.0138  -2.0067  -1.9941  -1.9869  -1.9788  -1.9563  -1.9283  -1.9069
    -1.8827  -1.8601  -1.8388  -1.8175  -1.8016  -1.7994  -1.7901  -1.7697
    -1.7689  -1.7642  -1.7608  -1.7525  -1.7394  -1.7214  -1.7046  -1.6906
    -1.6556  -1.6298  -1.5933  -1.5722  -1.5713  -1.5643  -1.5570  -1.5451
    -1.5366  -1.5340  -1.5284  -1.5131  -1.5119  -1.4955  -1.4749  -1.4644
    -1.4507  -1.4434  -1.4122  -1.3764  -1.3553  -1.2824  -1.2385  -1.2376
    -1.2359  -1.2255  -1.2184  -1.2109  -1.2061  -1.2051  -1.0824  -1.0561
    -1.0302  -1.0231  -0.9521  -0.9510  -0.9247  -0.8878  -0.8586  -0.8573
    -0.7963  -0.7690  -0.7546  -0.7362  -0.7215  -0.7111  -0.6751  -0.6715
    -0.6449  -0.6355  -0.6190  -0.5842  -0.5733  -0.5642  -0.5598  -0.5493
    -0.5054  -0.4825  -0.4752  -0.4661  -0.4570  -0.4177  -0.4154  -0.4052
    -0.4022  -0.3901  -0.3874  -0.3683  -0.3545  -0.3533  -0.3313  -0.3206
    -0.2822  -0.2726  -0.2474  -0.2459  -0.2348  -0.2208  -0.1792  -0.1739
    -0.1555  -0.1546  -0.1479  -0.1329  -0.1154  -0.1093  -0.0969  -0.0966
    -0.0583  -0.0209  -0.0159  -0.0062   0.0194   0.0204   0.0533   0.0699
     0.0794   0.1110   0.3246   0.3589   0.4076   0.5343   0.5923   0.6324
     0.7197   0.8215

          k = 0.2000 0.3464 0.0000 ( 51202 PWs)   bands (ev):

   -21.5663 -10.6516  -7.1894  -6.8917  -6.1384  -5.7340  -5.6677  -5.4683
    -5.3964  -4.5603  -4.4998  -4.2593  -4.2486  -4.1983  -4.0424  -4.0351
    -3.9441  -3.9423  -3.9240  -3.8060  -3.7842  -3.6712  -3.6608  -3.5972
    -3.5501  -3.4617  -3.4583  -3.4345  -3.4196  -3.4026  -3.3916  -3.3718
    -3.3546  -3.3368  -3.3260  -3.2886  -3.2437  -3.2178  -3.2018  -3.1072
    -3.0787  -3.0050  -2.9800  -2.9484  -2.9372  -2.9256  -2.8514  -2.8243
    -2.7774  -2.7531  -2.7453  -2.7409  -2.6981  -2.6818  -2.6637  -2.6578
    -2.6430  -2.5647  -2.5181  -2.4665  -2.4615  -2.4403  -2.4307  -2.4029
    -2.3881  -2.2866  -2.2532  -2.2090  -2.1939  -2.1544  -2.1353  -2.1183
    -2.1053  -2.0948  -2.0849  -2.0729  -2.0513  -2.0346  -2.0318  -2.0220
    -2.0054  -1.9642  -1.9226  -1.9046  -1.8397  -1.8336  -1.8297  -1.7998
    -1.7893  -1.7634  -1.7527  -1.7264  -1.7129  -1.6961  -1.6824  -1.6769
    -1.6643  -1.6559  -1.6432  -1.6338  -1.6244  -1.6141  -1.5984  -1.5803
    -1.5729  -1.5580  -1.5178  -1.5043  -1.4863  -1.4592  -1.4417  -1.4393
    -1.4197  -1.4108  -1.3905  -1.3608  -1.3372  -1.3352  -1.3096  -1.2744
    -1.2662  -1.2606  -1.2577  -1.2365  -1.2230  -1.2102  -1.1965  -1.1578
    -1.1158  -1.0926  -1.0843  -1.0424  -0.9693  -0.9620  -0.9429  -0.8648
    -0.8356  -0.8284  -0.8213  -0.8115  -0.8006  -0.7930  -0.7742  -0.7668
    -0.7403  -0.7227  -0.6973  -0.6665  -0.6558  -0.6443  -0.6305  -0.6176
    -0.5910  -0.5804  -0.5501  -0.5378  -0.5313  -0.4883  -0.4349  -0.3831
    -0.3718  -0.3457  -0.3367  -0.3200  -0.3086  -0.2998  -0.2940  -0.2905
    -0.2807  -0.2749  -0.2089  -0.1939  -0.1830  -0.1719  -0.1323  -0.1201
    -0.1029  -0.0981  -0.0958  -0.0782  -0.0702  -0.0602  -0.0532  -0.0402
    -0.0299  -0.0188   0.0584   0.0640   0.0693   0.1173   0.1194   0.1264
     0.4404   0.4595   0.5359   0.5885   0.7556   0.7953   1.0474   1.2789
     1.3655   1.5083

          k = 0.2000-0.5774 0.0000 ( 51262 PWs)   bands (ev):

   -21.5663 -10.6508  -7.0943  -6.4697  -6.4424  -6.0317  -5.7590  -5.5233
    -5.0976  -4.9942  -4.5871  -4.2416  -4.0037  -3.9595  -3.8603  -3.8264
    -3.8239  -3.8005  -3.7938  -3.7619  -3.7238  -3.7123  -3.7077  -3.7028
    -3.6274  -3.5974  -3.5617  -3.5546  -3.5338  -3.5288  -3.4251  -3.4005
    -3.3757  -3.3660  -3.3482  -3.3133  -3.2404  -3.2115  -3.1179  -3.0874
    -3.0809  -3.0277  -3.0003  -2.9800  -2.9530  -2.8829  -2.8692  -2.8605
    -2.7959  -2.7884  -2.7337  -2.6931  -2.6664  -2.6434  -2.6098  -2.5856
    -2.5402  -2.5017  -2.4907  -2.4829  -2.4742  -2.4526  -2.4337  -2.3672
    -2.3183  -2.2899  -2.2770  -2.2651  -2.2511  -2.2036  -2.1800  -2.1605
    -2.1313  -2.1082  -2.0958  -2.0855  -2.0727  -2.0526  -2.0257  -2.0174
    -2.0052  -1.9939  -1.9825  -1.9534  -1.9498  -1.9403  -1.8785  -1.8724
    -1.8496  -1.8156  -1.7882  -1.7736  -1.7345  -1.7234  -1.7108  -1.6845
    -1.6780  -1.6613  -1.6585  -1.6499  -1.6374  -1.6222  -1.6032  -1.5810
    -1.5320  -1.5194  -1.5050  -1.5016  -1.4851  -1.4777  -1.4747  -1.4637
    -1.4563  -1.4458  -1.4312  -1.4055  -1.3795  -1.3521  -1.3435  -1.3147
    -1.2627  -1.2473  -1.2240  -1.2081  -1.1995  -1.1824  -1.1731  -1.1286
    -1.1052  -1.0968  -1.0864  -1.0292  -0.9952  -0.9631  -0.9518  -0.9274
    -0.9182  -0.9061  -0.8918  -0.8715  -0.8443  -0.8359  -0.8106  -0.7785
    -0.7613  -0.7474  -0.7311  -0.7102  -0.6959  -0.6644  -0.6441  -0.6339
    -0.6159  -0.6030  -0.5989  -0.5818  -0.5436  -0.5123  -0.5016  -0.4093
    -0.3373  -0.3309  -0.3252  -0.3173  -0.3097  -0.3021  -0.2959  -0.2794
    -0.2473  -0.2396  -0.2304  -0.2202  -0.2018  -0.1722  -0.1057  -0.1012
    -0.0895  -0.0764  -0.0585  -0.0516  -0.0108   0.0012   0.0051   0.0164
     0.0242   0.0944   0.0993   0.1097   0.1203   0.1233   0.1474   0.1732
     0.2511   0.4725   0.5371   0.8014   1.2932   1.3948   1.5269   1.6828
     1.8785   1.9487

          k = 0.2000-0.3464 0.0000 ( 51202 PWs)   bands (ev):

   -21.5663 -10.6510  -7.1841  -6.9001  -6.1470  -5.7625  -5.6706  -5.4734
    -5.3415  -4.5806  -4.4781  -4.2590  -4.2498  -4.1938  -4.0417  -4.0357
    -3.9495  -3.9333  -3.9163  -3.8066  -3.7928  -3.6723  -3.6610  -3.5993
    -3.5522  -3.4812  -3.4590  -3.4409  -3.4070  -3.4035  -3.3943  -3.3834
    -3.3562  -3.3390  -3.3315  -3.2876  -3.2440  -3.2071  -3.1993  -3.1042
    -3.0897  -2.9810  -2.9702  -2.9612  -2.9408  -2.9227  -2.8268  -2.7784
    -2.7702  -2.7663  -2.7477  -2.7377  -2.6925  -2.6861  -2.6678  -2.6565
    -2.6402  -2.5315  -2.5145  -2.5082  -2.4636  -2.4415  -2.4185  -2.4057
    -2.3820  -2.3125  -2.2714  -2.2095  -2.1819  -2.1586  -2.1486  -2.1216
    -2.1085  -2.0960  -2.0834  -2.0704  -2.0508  -2.0398  -2.0296  -2.0227
    -2.0084  -1.9645  -1.9211  -1.9005  -1.8478  -1.8339  -1.8115  -1.8054
    -1.7937  -1.7630  -1.7509  -1.7281  -1.7238  -1.6974  -1.6799  -1.6772
    -1.6608  -1.6584  -1.6519  -1.6335  -1.6239  -1.6182  -1.5916  -1.5870
    -1.5696  -1.5657  -1.5398  -1.4972  -1.4870  -1.4655  -1.4422  -1.4411
    -1.4190  -1.4105  -1.4048  -1.3533  -1.3391  -1.3332  -1.3108  -1.2935
    -1.2609  -1.2585  -1.2563  -1.2373  -1.2254  -1.2089  -1.1948  -1.1515
    -1.1221  -1.0923  -1.0888  -1.0384  -0.9843  -0.9630  -0.9433  -0.8459
    -0.8346  -0.8253  -0.8175  -0.8122  -0.8014  -0.7960  -0.7742  -0.7534
    -0.7369  -0.7149  -0.7020  -0.6685  -0.6669  -0.6398  -0.6330  -0.6204
    -0.5915  -0.5632  -0.5573  -0.5373  -0.5334  -0.4946  -0.4208  -0.3835
    -0.3667  -0.3434  -0.3386  -0.3286  -0.3193  -0.3029  -0.2942  -0.2918
    -0.2786  -0.2750  -0.2007  -0.1927  -0.1760  -0.1697  -0.1335  -0.1127
    -0.1065  -0.1008  -0.0989  -0.0743  -0.0684  -0.0627  -0.0522  -0.0389
    -0.0260  -0.0123   0.0569   0.0635   0.0704   0.1168   0.1191   0.1326
     0.4147   0.4608   0.5231   0.6074   0.7027   0.8029   1.1731   1.3204
     1.3320   1.5531

          k = 0.4000-0.2309 0.0000 ( 51204 PWs)   bands (ev):

   -21.5663 -10.6511  -7.1349  -6.8084  -6.2420  -6.0330  -5.5677  -5.3129
    -4.9797  -4.9638  -4.8453  -4.1401  -4.0943  -4.0844  -4.0465  -4.0100
    -3.8957  -3.8928  -3.8509  -3.7704  -3.7606  -3.7505  -3.6471  -3.5829
    -3.5754  -3.5688  -3.5642  -3.5131  -3.4895  -3.4562  -3.4507  -3.3001
    -3.2940  -3.2861  -3.2750  -3.2504  -3.2438  -3.1700  -3.1417  -3.1312
    -3.1196  -3.1177  -3.0089  -2.9635  -2.9070  -2.8480  -2.8120  -2.7951
    -2.7753  -2.7450  -2.7315  -2.7271  -2.7237  -2.6942  -2.6502  -2.6320
    -2.6083  -2.5769  -2.5616  -2.4820  -2.4252  -2.4177  -2.3986  -2.3625
    -2.3117  -2.2940  -2.2862  -2.2709  -2.2374  -2.1842  -2.1602  -2.1346
    -2.1320  -2.1276  -2.1133  -2.0993  -2.0880  -2.0799  -2.0385  -2.0282
    -2.0018  -1.9834  -1.9572  -1.9466  -1.9140  -1.8944  -1.8497  -1.8211
    -1.8045  -1.7984  -1.7750  -1.7568  -1.7264  -1.7066  -1.6957  -1.6870
    -1.6794  -1.6658  -1.6515  -1.6306  -1.6272  -1.6084  -1.5969  -1.5781
    -1.5649  -1.5526  -1.5055  -1.4816  -1.4552  -1.4214  -1.4050  -1.3968
    -1.3817  -1.3644  -1.3280  -1.2892  -1.2857  -1.2681  -1.2594  -1.2532
    -1.2447  -1.2364  -1.2276  -1.2233  -1.2175  -1.2122  -1.1996  -1.1871
    -1.1754  -1.1516  -1.0817  -1.0525  -1.0325  -1.0203  -0.9992  -0.9854
    -0.9672  -0.9047  -0.9012  -0.8774  -0.8663  -0.8202  -0.8051  -0.7537
    -0.7456  -0.7165  -0.6939  -0.6710  -0.6665  -0.6506  -0.6209  -0.5694
    -0.5256  -0.4970  -0.4789  -0.4738  -0.4721  -0.4640  -0.4585  -0.4484
    -0.4235  -0.4104  -0.3684  -0.3272  -0.3125  -0.3086  -0.3006  -0.2979
    -0.2850  -0.2656  -0.2550  -0.2486  -0.2401  -0.2220  -0.1448  -0.1269
    -0.1215  -0.1172  -0.0909  -0.0482  -0.0243  -0.0216   0.0132   0.0228
     0.0446   0.0911   0.0928   0.1147   0.1168   0.1214   0.1316   0.1461
     0.2239   0.2371   0.3148   0.9425   1.1200   1.2614   1.3515   1.3864
     1.5448   1.7205

          k = 0.4000 0.0000 0.0000 ( 51202 PWs)   bands (ev):

   -21.5663 -10.6518  -7.1895  -6.8912  -6.1371  -5.7300  -5.6686  -5.4687
    -5.4002  -4.5586  -4.5025  -4.2591  -4.2479  -4.1989  -4.0424  -4.0354
    -3.9443  -3.9428  -3.9248  -3.8057  -3.7826  -3.6715  -3.6614  -3.5965
    -3.5501  -3.4618  -3.4578  -3.4360  -3.4197  -3.4025  -3.3924  -3.3707
    -3.3544  -3.3371  -3.3237  -3.2891  -3.2436  -3.2194  -3.2018  -3.1081
    -3.0784  -3.0060  -2.9798  -2.9481  -2.9369  -2.9257  -2.8566  -2.8241
    -2.7773  -2.7522  -2.7448  -2.7410  -2.6981  -2.6816  -2.6628  -2.6579
    -2.6433  -2.5642  -2.5182  -2.4661  -2.4592  -2.4406  -2.4296  -2.4021
    -2.3889  -2.2842  -2.2544  -2.2096  -2.1949  -2.1548  -2.1340  -2.1198
    -2.1051  -2.0941  -2.0844  -2.0727  -2.0511  -2.0355  -2.0320  -2.0220
    -2.0044  -1.9636  -1.9226  -1.9055  -1.8394  -1.8319  -1.8291  -1.8000
    -1.7901  -1.7644  -1.7523  -1.7274  -1.7141  -1.6957  -1.6822  -1.6769
    -1.6643  -1.6561  -1.6428  -1.6334  -1.6250  -1.6138  -1.5989  -1.5804
    -1.5729  -1.5576  -1.5169  -1.5037  -1.4860  -1.4592  -1.4417  -1.4394
    -1.4191  -1.4100  -1.3880  -1.3619  -1.3368  -1.3352  -1.3097  -1.2731
    -1.2661  -1.2605  -1.2577  -1.2370  -1.2228  -1.2101  -1.1963  -1.1584
    -1.1157  -1.0920  -1.0843  -1.0414  -0.9707  -0.9627  -0.9425  -0.8643
    -0.8374  -0.8285  -0.8213  -0.8123  -0.8003  -0.7923  -0.7758  -0.7682
    -0.7393  -0.7231  -0.6971  -0.6666  -0.6558  -0.6449  -0.6310  -0.6175
    -0.5913  -0.5804  -0.5499  -0.5378  -0.5301  -0.4883  -0.4360  -0.3829
    -0.3723  -0.3456  -0.3367  -0.3214  -0.3054  -0.2997  -0.2951  -0.2905
    -0.2801  -0.2751  -0.2086  -0.1942  -0.1827  -0.1715  -0.1324  -0.1204
    -0.1029  -0.0984  -0.0965  -0.0794  -0.0704  -0.0601  -0.0541  -0.0387
    -0.0302  -0.0185   0.0586   0.0640   0.0690   0.1174   0.1192   0.1260
     0.4406   0.4595   0.5375   0.5832   0.7590   0.7941   1.0484   1.2796
     1.3625   1.5110

          k = 0.4000 0.2309 0.0000 ( 51204 PWs)   bands (ev):

   -21.5663 -10.6521  -7.1450  -6.7968  -6.2057  -6.0370  -5.4934  -5.4333
    -4.9778  -4.9397  -4.8833  -4.1546  -4.0833  -4.0685  -4.0361  -4.0155
    -3.8972  -3.8889  -3.8538  -3.7620  -3.7605  -3.7543  -3.6608  -3.5819
    -3.5783  -3.5654  -3.5611  -3.5161  -3.4720  -3.4533  -3.4443  -3.3132
    -3.2970  -3.2715  -3.2678  -3.2427  -3.2418  -3.1704  -3.1318  -3.1305
    -3.1211  -3.1185  -3.0245  -2.9792  -2.9339  -2.8545  -2.8315  -2.7913
    -2.7830  -2.7440  -2.7367  -2.7256  -2.7252  -2.7067  -2.6407  -2.6361
    -2.6093  -2.5945  -2.5662  -2.4707  -2.4226  -2.4165  -2.4095  -2.3539
    -2.3079  -2.2963  -2.2874  -2.2727  -2.2126  -2.2045  -2.1637  -2.1381
    -2.1282  -2.1243  -2.1117  -2.0971  -2.0840  -2.0816  -2.0508  -2.0103
    -2.0021  -1.9763  -1.9551  -1.9285  -1.9105  -1.8839  -1.8418  -1.8319
    -1.8074  -1.8019  -1.7781  -1.7599  -1.7202  -1.6987  -1.6954  -1.6894
    -1.6737  -1.6545  -1.6476  -1.6258  -1.6222  -1.6120  -1.5867  -1.5677
    -1.5618  -1.5549  -1.5066  -1.4608  -1.4439  -1.4266  -1.4112  -1.3942
    -1.3659  -1.3635  -1.3249  -1.2893  -1.2766  -1.2693  -1.2577  -1.2550
    -1.2450  -1.2405  -1.2311  -1.2253  -1.2238  -1.2188  -1.1990  -1.1838
    -1.1633  -1.1342  -1.0957  -1.0544  -1.0326  -1.0110  -0.9995  -0.9636
    -0.9547  -0.9285  -0.9040  -0.8747  -0.8734  -0.8167  -0.8121  -0.7728
    -0.7504  -0.7141  -0.6907  -0.6732  -0.6631  -0.6465  -0.6125  -0.5924
    -0.5233  -0.5108  -0.4842  -0.4744  -0.4710  -0.4578  -0.4556  -0.4458
    -0.4285  -0.4027  -0.3826  -0.3225  -0.3212  -0.3035  -0.3020  -0.2947
    -0.2863  -0.2537  -0.2518  -0.2461  -0.2412  -0.2228  -0.1439  -0.1253
    -0.1246  -0.1181  -0.0893  -0.0583  -0.0256  -0.0237   0.0119   0.0182
     0.0443   0.0913   0.0935   0.1158   0.1179   0.1204   0.1471   0.1609
     0.2185   0.2345   0.2750   0.9371   1.1029   1.2035   1.3392   1.3633
     1.5857   1.7279

          k = 0.4000-0.6928 0.0000 ( 51262 PWs)   bands (ev):

   -21.5663 -10.6516  -7.1016  -6.4549  -6.4165  -6.0616  -5.7660  -5.4423
    -5.1952  -5.0139  -4.5482  -4.2375  -4.0056  -3.9630  -3.8778  -3.8274
    -3.8218  -3.8055  -3.7899  -3.7685  -3.7165  -3.7133  -3.7085  -3.6962
    -3.6328  -3.5973  -3.5617  -3.5499  -3.5368  -3.5308  -3.4056  -3.3777
    -3.3735  -3.3634  -3.3379  -3.3066  -3.2715  -3.2059  -3.1302  -3.0834
    -3.0814  -3.0368  -3.0039  -2.9830  -2.9517  -2.8794  -2.8771  -2.8604
    -2.8100  -2.7940  -2.7495  -2.6951  -2.6702  -2.6517  -2.6103  -2.5834
    -2.5367  -2.5035  -2.4964  -2.4839  -2.4751  -2.4564  -2.4377  -2.3596
    -2.2963  -2.2871  -2.2786  -2.2687  -2.2402  -2.2081  -2.1909  -2.1602
    -2.1322  -2.1070  -2.0935  -2.0855  -2.0709  -2.0464  -2.0268  -2.0147
    -2.0113  -1.9915  -1.9871  -1.9533  -1.9514  -1.8971  -1.8806  -1.8687
    -1.8650  -1.8340  -1.7843  -1.7675  -1.7403  -1.7126  -1.6920  -1.6879
    -1.6693  -1.6657  -1.6564  -1.6480  -1.6346  -1.6085  -1.6025  -1.5637
    -1.5202  -1.5172  -1.5065  -1.4885  -1.4841  -1.4784  -1.4738  -1.4633
    -1.4522  -1.4460  -1.4298  -1.4071  -1.3850  -1.3568  -1.3411  -1.3292
    -1.2672  -1.2523  -1.2214  -1.2033  -1.1999  -1.1848  -1.1763  -1.1415
    -1.1101  -1.0970  -1.0907  -1.0186  -0.9834  -0.9658  -0.9468  -0.9358
    -0.9166  -0.8950  -0.8893  -0.8735  -0.8490  -0.8367  -0.7968  -0.7870
    -0.7626  -0.7402  -0.7228  -0.7192  -0.7019  -0.6554  -0.6407  -0.6317
    -0.6232  -0.6108  -0.5962  -0.5888  -0.5412  -0.5191  -0.4987  -0.4161
    -0.3439  -0.3300  -0.3213  -0.3178  -0.3118  -0.3005  -0.2927  -0.2870
    -0.2453  -0.2391  -0.2308  -0.2224  -0.2009  -0.1699  -0.1058  -0.1019
    -0.0992  -0.0748  -0.0545  -0.0477  -0.0119  -0.0003   0.0079   0.0142
     0.0208   0.0975   0.0983   0.1086   0.1203   0.1246   0.1431   0.1706
     0.2013   0.4960   0.5630   0.8404   1.2150   1.3959   1.4860   1.7504
     1.8062   1.8911

          k = 0.4000-0.4619 0.0000 ( 51262 PWs)   bands (ev):

   -21.5663 -10.6510  -7.0945  -6.4687  -6.4409  -6.0329  -5.7602  -5.5173
    -5.1060  -4.9937  -4.5844  -4.2412  -4.0037  -3.9604  -3.8624  -3.8267
    -3.8238  -3.8005  -3.7934  -3.7620  -3.7234  -3.7122  -3.7079  -3.7028
    -3.6275  -3.5974  -3.5619  -3.5541  -3.5338  -3.5290  -3.4265  -3.3993
    -3.3759  -3.3663  -3.3475  -3.3127  -3.2387  -3.2118  -3.1196  -3.0886
    -3.0810  -3.0281  -2.9999  -2.9802  -2.9531  -2.8838  -2.8693  -2.8602
    -2.7961  -2.7879  -2.7357  -2.6934  -2.6658  -2.6439  -2.6082  -2.5859
    -2.5400  -2.5015  -2.4909  -2.4828  -2.4743  -2.4525  -2.4333  -2.3677
    -2.3166  -2.2906  -2.2776  -2.2653  -2.2505  -2.2035  -2.1789  -2.1576
    -2.1294  -2.1096  -2.0955  -2.0854  -2.0734  -2.0530  -2.0256  -2.0177
    -2.0047  -1.9940  -1.9826  -1.9522  -1.9497  -1.9376  -1.8786  -1.8722
    -1.8491  -1.8165  -1.7882  -1.7753  -1.7352  -1.7236  -1.7104  -1.6850
    -1.6777  -1.6615  -1.6583  -1.6500  -1.6384  -1.6230  -1.6026  -1.5796
    -1.5319  -1.5190  -1.5053  -1.5014  -1.4853  -1.4777  -1.4744  -1.4639
    -1.4562  -1.4457  -1.4320  -1.4053  -1.3798  -1.3522  -1.3434  -1.3141
    -1.2625  -1.2472  -1.2253  -1.2074  -1.1992  -1.1821  -1.1726  -1.1299
    -1.1053  -1.0967  -1.0868  -1.0283  -0.9965  -0.9630  -0.9492  -0.9268
    -0.9180  -0.9065  -0.8924  -0.8715  -0.8446  -0.8358  -0.8110  -0.7789
    -0.7612  -0.7470  -0.7310  -0.7104  -0.6962  -0.6642  -0.6440  -0.6337
    -0.6157  -0.6039  -0.5990  -0.5823  -0.5432  -0.5129  -0.5006  -0.4101
    -0.3368  -0.3300  -0.3251  -0.3168  -0.3104  -0.3021  -0.2949  -0.2814
    -0.2467  -0.2399  -0.2309  -0.2206  -0.2006  -0.1722  -0.1060  -0.1008
    -0.0903  -0.0762  -0.0581  -0.0516  -0.0107   0.0012   0.0055   0.0163
     0.0237   0.0940   0.0992   0.1111   0.1206   0.1239   0.1472   0.1732
     0.2430   0.4745   0.5401   0.7990   1.2944   1.3953   1.5238   1.6913
     1.8704   1.9463

 ------ SPIN DOWN ----------


          k = 0.0000 0.0000 0.0000 ( 51087 PWs)   bands (ev):

   -21.4998 -10.6739  -7.6372  -6.9382  -6.3296  -5.6855  -5.4533  -4.4220
    -4.3996  -4.3955  -4.3942  -4.3840  -4.3540  -4.2521  -3.5329  -3.5241
    -3.5215  -3.5037  -3.4919  -3.4614  -3.3462  -2.6199  -2.5748  -2.5735
    -2.5656  -2.5477  -2.4945  -2.2231  -2.1188  -2.1087  -2.1032  -2.1008
    -2.0881  -1.9204  -1.9093  -1.8775  -1.8277  -1.8119  -1.8116  -1.8021
    -1.7269  -1.7239  -1.6726  -1.6716  -1.6539  -1.5791  -1.5600  -1.5590
    -1.5281  -1.4586  -1.3773  -1.3066  -1.2962  -1.2933  -1.2716  -1.2708
    -1.2685  -1.2639  -1.2476  -1.2266  -1.2153  -1.1937  -1.1913  -1.1862
    -1.1650  -1.0681  -0.8392  -0.6345  -0.6301  -0.6138  -0.6123  -0.4674
    -0.4103  -0.3343  -0.3084  -0.2918  -0.2867  -0.2862  -0.2694  -0.2568
    -0.2290  -0.2202  -0.2002  -0.1975  -0.1925  -0.1917  -0.1319  -0.1294
    -0.1211  -0.0916  -0.0869  -0.0775  -0.0522  -0.0418  -0.0388  -0.0307
    -0.0296  -0.0285  -0.0077  -0.0034  -0.0027  -0.0012   0.0523   0.0763
     0.1321   0.1550   0.1585   0.2016   0.2079   0.2193   0.2234   0.2260
     0.2289   0.2342   0.2349   0.2589   0.3054   0.3060   0.3680   0.3754
     0.3976   0.4074   0.4161   0.4233   0.6045   0.6089   0.6507   0.6559
     0.6883   0.7057   0.7110   0.7131   0.8061   0.9904   0.9941   1.0461
     1.0476   1.2067   1.2221   1.2457   1.2713   1.2737   1.2808   1.2906
     1.4138   1.4282   1.4336   1.4403   1.4503   1.4539   1.4624   1.4807
     1.5050   1.5160   1.5346   1.5468   1.5545   1.5714   1.5812   1.5967
     1.5975   1.6021   1.6068   1.6247   1.6338   1.6742   1.6839   1.6944
     1.7012   1.7161   1.7217   1.7234   1.7305   1.7315   1.7402   1.7656
     1.7794   1.8013   1.8048   1.8063   1.8122   1.8200   1.8230   1.8290
     1.8612   1.8678   1.8735   1.8762   1.8805   1.8813   1.8883   1.8918
     1.9057   1.9084   1.9537   1.9551   2.1000   2.1036   2.1088   2.1113
     2.1138   2.1140

          k = 0.0000 0.2309 0.0000 ( 51134 PWs)   bands (ev):

   -21.4998 -10.6732  -7.4944  -6.9185  -6.2488  -5.7015  -5.4618  -5.2904
    -4.7786  -4.7670  -4.2484  -4.1054  -3.8487  -3.8434  -3.7529  -3.7130
    -3.5555  -3.2922  -3.1720  -3.1588  -3.0672  -2.7948  -2.6065  -2.5632
    -2.5324  -2.4757  -2.4531  -2.2797  -2.1700  -2.1428  -2.1377  -2.1277
    -2.0944  -2.0565  -2.0509  -2.0362  -2.0081  -1.9071  -1.8711  -1.8457
    -1.7844  -1.7768  -1.7283  -1.6172  -1.5947  -1.5843  -1.5616  -1.4945
    -1.4345  -1.4087  -1.3785  -1.3439  -1.3233  -1.3063  -1.2864  -1.2775
    -1.2717  -1.2565  -1.2017  -1.1553  -1.1512  -1.1285  -1.1077  -1.0784
    -1.0262  -0.9594  -0.8540  -0.6799  -0.6676  -0.6556  -0.6293  -0.5679
    -0.5139  -0.4984  -0.4551  -0.4377  -0.3358  -0.3268  -0.3076  -0.2890
    -0.2686  -0.2615  -0.2482  -0.2396  -0.2271  -0.2137  -0.1786  -0.1303
    -0.1116  -0.0850  -0.0801  -0.0778  -0.0526  -0.0273  -0.0203  -0.0094
    -0.0028   0.0070   0.0153   0.0214   0.0236   0.0249   0.0579   0.0726
     0.1034   0.1094   0.1212   0.1238   0.1504   0.1683   0.1786   0.1962
     0.2278   0.2329   0.2814   0.2966   0.3256   0.3406   0.3423   0.3721
     0.4910   0.5068   0.5661   0.5804   0.5962   0.6278   0.6382   0.6583
     0.6696   0.6815   0.6884   0.6924   0.9074   0.9650   0.9944   1.0135
     1.0222   1.0365   1.0602   1.0667   1.1097   1.1533   1.1973   1.2118
     1.2421   1.2847   1.2967   1.3277   1.3412   1.3575   1.3861   1.4342
     1.4433   1.4796   1.4915   1.5061   1.5175   1.5333   1.5602   1.5685
     1.5934   1.6166   1.6386   1.6489   1.6793   1.6910   1.7033   1.7256
     1.7456   1.7559   1.7682   1.7724   1.7835   1.7987   1.8486   1.8541
     1.8621   1.8672   1.9020   1.9091   1.9210   1.9386   1.9504   1.9573
     1.9720   2.0050   2.0116   2.0161   2.0409   2.0456   2.0483   2.0686
     2.0747   2.0995   2.1013   2.1127   2.1909   2.2059   2.2081   2.2423
     2.2826   2.3052

          k = 0.0000 0.4619 0.0000 ( 51204 PWs)   bands (ev):

   -21.4998 -10.6722  -7.1252  -6.8447  -6.3174  -6.0404  -5.5888  -5.3145
    -4.9935  -4.9734  -4.8291  -3.9113  -3.8791  -3.7676  -3.2768  -3.2286
    -3.2260  -3.1123  -2.9537  -2.9094  -2.7800  -2.7779  -2.6321  -2.6275
    -2.5999  -2.5562  -2.5209  -2.4732  -2.3948  -2.3810  -2.3595  -2.3096
    -2.3042  -2.1231  -2.0955  -2.0517  -2.0085  -1.9594  -1.9009  -1.8888
    -1.8764  -1.8561  -1.7589  -1.6123  -1.5794  -1.5537  -1.5298  -1.4931
    -1.3710  -1.3593  -1.3422  -1.3293  -1.3234  -1.2976  -1.2898  -1.2751
    -1.2396  -1.1908  -1.1728  -1.1628  -1.1407  -1.1086  -1.0083  -0.9311
    -0.8966  -0.8213  -0.7995  -0.7073  -0.6925  -0.6632  -0.6318  -0.6201
    -0.6000  -0.5885  -0.5517  -0.5242  -0.5013  -0.4610  -0.4305  -0.4111
    -0.3869  -0.3557  -0.3384  -0.3290  -0.3022  -0.2885  -0.2280  -0.1767
    -0.1445  -0.1431  -0.1117  -0.0784  -0.0578  -0.0358  -0.0260   0.0033
     0.0284   0.0397   0.0560   0.0652   0.0743   0.0793   0.0984   0.1214
     0.1343   0.1615   0.1684   0.1798   0.1856   0.1918   0.2083   0.2361
     0.2386   0.2605   0.3048   0.3785   0.3844   0.3906   0.4240   0.4409
     0.4447   0.4672   0.4785   0.5378   0.5480   0.5558   0.5756   0.6000
     0.6208   0.6372   0.6551   0.6694   0.6971   0.7845   0.8322   0.8675
     0.8800   0.9094   0.9660   1.0495   1.0754   1.1035   1.1229   1.1310
     1.1468   1.1884   1.2018   1.2242   1.2331   1.3217   1.3534   1.4052
     1.4213   1.4630   1.4732   1.5041   1.5227   1.5403   1.5610   1.5815
     1.6051   1.6218   1.6501   1.6920   1.7204   1.7328   1.7415   1.7731
     1.7777   1.7893   1.8166   1.8360   1.8448   1.8624   1.8745   1.9039
     1.9129   1.9455   1.9761   1.9988   2.0211   2.0423   2.0497   2.0574
     2.0676   2.0754   2.0999   2.1035   2.1104   2.1350   2.1393   2.1422
     2.1496   2.1914   2.2763   2.3560   2.3973   2.4769   2.5309   2.8069
     2.8512   2.9160

          k = 0.2000-0.1155 0.0000 ( 51134 PWs)   bands (ev):

   -21.4998 -10.6733  -7.4944  -6.9185  -6.2479  -5.6983  -5.4636  -5.2935
    -4.7781  -4.7656  -4.2503  -4.1073  -3.8488  -3.8431  -3.7519  -3.7108
    -3.5560  -3.2921  -3.1719  -3.1574  -3.0691  -2.7979  -2.6045  -2.5620
    -2.5349  -2.4744  -2.4523  -2.2807  -2.1700  -2.1427  -2.1385  -2.1277
    -2.0947  -2.0554  -2.0513  -2.0364  -2.0073  -1.9068  -1.8719  -1.8468
    -1.7838  -1.7770  -1.7307  -1.6167  -1.5946  -1.5840  -1.5585  -1.4975
    -1.4337  -1.4081  -1.3784  -1.3434  -1.3229  -1.3055  -1.2861  -1.2780
    -1.2720  -1.2537  -1.2007  -1.1544  -1.1498  -1.1301  -1.1082  -1.0781
    -1.0268  -0.9613  -0.8530  -0.6796  -0.6680  -0.6557  -0.6290  -0.5680
    -0.5145  -0.4976  -0.4551  -0.4378  -0.3361  -0.3261  -0.3074  -0.2891
    -0.2680  -0.2619  -0.2487  -0.2399  -0.2269  -0.2133  -0.1786  -0.1301
    -0.1127  -0.0851  -0.0803  -0.0773  -0.0528  -0.0265  -0.0204  -0.0094
    -0.0032   0.0072   0.0155   0.0213   0.0236   0.0252   0.0576   0.0728
     0.1033   0.1096   0.1208   0.1238   0.1508   0.1678   0.1787   0.1967
     0.2285   0.2331   0.2816   0.2986   0.3251   0.3404   0.3426   0.3721
     0.4908   0.5074   0.5625   0.5807   0.5932   0.6286   0.6386   0.6580
     0.6692   0.6809   0.6892   0.6921   0.9084   0.9636   0.9966   1.0114
     1.0221   1.0366   1.0612   1.0663   1.1074   1.1558   1.1960   1.2114
     1.2401   1.2841   1.2975   1.3289   1.3388   1.3589   1.3863   1.4318
     1.4404   1.4804   1.4927   1.5062   1.5169   1.5346   1.5613   1.5702
     1.5946   1.6214   1.6349   1.6511   1.6811   1.6903   1.7032   1.7255
     1.7434   1.7558   1.7692   1.7730   1.7814   1.7996   1.8486   1.8539
     1.8618   1.8668   1.9023   1.9090   1.9207   1.9385   1.9497   1.9574
     1.9716   2.0056   2.0115   2.0163   2.0405   2.0458   2.0481   2.0678
     2.0741   2.0999   2.1022   2.1126   2.1917   2.2058   2.2079   2.2386
     2.2836   2.3060

          k = 0.2000 0.1155 0.0000 ( 51134 PWs)   bands (ev):

   -21.4998 -10.6737  -7.4942  -6.9199  -6.2391  -5.6667  -5.4633  -5.3493
    -4.7655  -4.7551  -4.2584  -4.1368  -3.8494  -3.8463  -3.7252  -3.6984
    -3.5580  -3.2914  -3.1696  -3.1610  -3.0706  -2.8068  -2.5831  -2.5792
    -2.5183  -2.4704  -2.4670  -2.2433  -2.2115  -2.1413  -2.1402  -2.1233
    -2.1044  -2.0547  -2.0504  -2.0277  -2.0153  -1.8983  -1.8695  -1.8614
    -1.7829  -1.7708  -1.7226  -1.6812  -1.5874  -1.5862  -1.5249  -1.4699
    -1.4576  -1.4018  -1.3878  -1.3604  -1.3211  -1.2929  -1.2919  -1.2772
    -1.2744  -1.2171  -1.2075  -1.1615  -1.1489  -1.1250  -1.1069  -1.0818
    -1.0205  -0.9349  -0.8805  -0.6732  -0.6710  -0.6371  -0.6269  -0.5712
    -0.5385  -0.4832  -0.4648  -0.4367  -0.3438  -0.3165  -0.3090  -0.2872
    -0.2635  -0.2624  -0.2499  -0.2329  -0.2300  -0.2122  -0.1780  -0.1446
    -0.1012  -0.0829  -0.0773  -0.0763  -0.0551  -0.0253  -0.0197  -0.0057
     0.0026   0.0056   0.0083   0.0171   0.0202   0.0285   0.0633   0.0678
     0.1062   0.1099   0.1248   0.1273   0.1484   0.1780   0.1782   0.1923
     0.2236   0.2371   0.2899   0.3032   0.3256   0.3315   0.3424   0.3728
     0.5144   0.5188   0.5308   0.5763   0.5817   0.6352   0.6430   0.6521
     0.6555   0.6764   0.6898   0.6949   0.8871   0.9776   0.9812   1.0121
     1.0234   1.0285   1.0559   1.0700   1.0906   1.1632   1.1802   1.2152
     1.2373   1.2890   1.2943   1.3401   1.3450   1.3610   1.3862   1.4124
     1.4434   1.4901   1.5008   1.5065   1.5285   1.5402   1.5644   1.5692
     1.6000   1.6202   1.6282   1.6654   1.6671   1.7004   1.7055   1.7383
     1.7447   1.7500   1.7632   1.7759   1.7807   1.7915   1.8431   1.8498
     1.8598   1.8634   1.9061   1.9069   1.9225   1.9432   1.9464   1.9571
     1.9715   2.0111   2.0131   2.0156   2.0384   2.0419   2.0466   2.0711
     2.0721   2.1021   2.1027   2.1133   2.1936   2.1993   2.2108   2.2408
     2.2826   2.2946

          k = 0.2000 0.3464 0.0000 ( 51202 PWs)   bands (ev):

   -21.4998 -10.6730  -7.2320  -6.8769  -6.1232  -5.8046  -5.7482  -5.4808
    -5.3916  -4.5117  -4.4175  -4.0451  -4.0263  -3.9092  -3.2124  -3.2004
    -3.1969  -3.1857  -3.0812  -2.9979  -2.9016  -2.8858  -2.8489  -2.5278
    -2.4929  -2.4483  -2.4408  -2.3756  -2.3463  -2.3317  -2.2766  -2.2404
    -2.2296  -2.2220  -2.1991  -2.0823  -2.0663  -1.9738  -1.8514  -1.8482
    -1.8098  -1.7890  -1.7270  -1.7118  -1.6489  -1.5607  -1.5245  -1.4977
    -1.3859  -1.3652  -1.3291  -1.3259  -1.3202  -1.3009  -1.2850  -1.2617
    -1.2508  -1.2172  -1.1962  -1.1424  -1.0984  -1.0399  -0.9902  -0.9409
    -0.8887  -0.8541  -0.8364  -0.7421  -0.6503  -0.6328  -0.6135  -0.5846
    -0.5662  -0.5381  -0.5349  -0.5097  -0.4645  -0.4444  -0.4275  -0.4060
    -0.3953  -0.3700  -0.3577  -0.3391  -0.2880  -0.2397  -0.1867  -0.1689
    -0.1598  -0.1400  -0.1087  -0.0871  -0.0694  -0.0556  -0.0473  -0.0361
    -0.0190   0.0082   0.0150   0.0316   0.0407   0.0580   0.0869   0.1073
[...]
     atom    8 type  1   force =    -0.00051322   -0.00359960   -0.10324220
     atom    9 type  1   force =     0.00077302    0.00154060   -0.10704079
     atom   10 type  1   force =     0.00190822    0.00106068   -0.01003587
     atom   11 type  1   force =    -0.00047020   -0.00112079   -0.00939883
     atom   12 type  1   force =    -0.00146802    0.00165606   -0.01082994
     atom   13 type  1   force =    -0.00098578    0.00009555   -0.00912641
     atom   14 type  1   force =     0.00097819    0.00043523   -0.00919127
     atom   15 type  1   force =    -0.00025853   -0.00015674   -0.01004757
     atom   16 type  1   force =     0.00068598   -0.00194742   -0.01108611
     atom   17 type  1   force =    -0.00000601    0.00003866   -0.00994804
     atom   18 type  1   force =    -0.00000270    0.00013845   -0.01252997
     atom   19 type  1   force =    -0.00506774   -0.00209658    0.00532048
     atom   20 type  1   force =     0.00039443   -0.00054435    0.00586562
     atom   21 type  1   force =     0.00392498   -0.00466593    0.00951942
     atom   22 type  1   force =     0.00271905    0.00439138    0.00923806
     atom   23 type  1   force =    -0.00221917    0.00544893    0.00984912
     atom   24 type  1   force =    -0.00064366   -0.00063738    0.01947120
     atom   25 type  1   force =     0.00126342    0.00074061    0.01965626
     atom   26 type  1   force =    -0.00398611   -0.00297417    0.00587221
     atom   27 type  1   force =     0.00442115    0.00079919    0.01093690
     atom   28 type  1   force =     0.03989403    0.02459458    0.15460605
     atom   29 type  1   force =    -0.04918530    0.05747125    0.17647123
     atom   30 type  1   force =    -0.01033018    0.00527624    0.11744217
     atom   31 type  1   force =     0.02931108   -0.06879176    0.17960993
     atom   32 type  1   force =    -0.00389640   -0.00631623    0.16714591
     atom   33 type  1   force =     0.00106322   -0.00284731    0.12165858
     atom   34 type  1   force =    -0.00126483   -0.01085233    0.11710588
     atom   35 type  1   force =    -0.00122469    0.00199724    0.11950610
     atom   36 type  1   force =     0.00153460    0.00060922    0.10283032
     atom   37 type  2   force =    -0.24142079   -0.12312844    0.20903414
     atom   38 type  3   force =     1.83961388    0.95875666   -1.48738617
     atom   39 type  4   force =    -0.05026914   -0.02720505   -0.03993393
     The ionic contribution  to forces
     atom    1 type  1   force =    -0.00982919    0.00080993 -111.23832777
     atom    2 type  1   force =     0.00150331    0.00064789 -111.25508368
     atom    3 type  1   force =     0.00832585   -0.00002852 -111.23532832
     atom    4 type  1   force =    -0.00429460    0.00902683 -111.23540457
     atom    5 type  1   force =     0.00432639    0.00732824 -111.23533900
     atom    6 type  1   force =    -0.00003178    0.00019366 -111.22683204
     atom    7 type  1   force =    -0.00146137   -0.00083867 -111.22706531
     atom    8 type  1   force =    -0.00402280   -0.00901938 -111.23795774
     atom    9 type  1   force =     0.00548417   -0.00811998 -111.23502654
     atom   10 type  1   force =    -0.05589896   -0.03338924  -40.19389204
     atom   11 type  1   force =     0.01214980   -0.07390408  -40.28291791
     atom   12 type  1   force =     0.04374786   -0.03073920  -40.16989860
     atom   13 type  1   force =    -0.05696753    0.04629735  -40.28605487
     atom   14 type  1   force =     0.06485174    0.03679262  -40.27031436
     atom   15 type  1   force =    -0.00787808    0.01629927  -40.15828375
     atom   16 type  1   force =    -0.00380343    0.05445042  -40.17094650
     atom   17 type  1   force =     0.01073349   -0.01353527  -40.15644223
     atom   18 type  1   force =    -0.00693190   -0.00226976  -40.14883675
     atom   19 type  1   force =    -0.49283431    0.04522731   31.18280034
     atom   20 type  1   force =     0.07862525    0.03308111   30.23173854
     atom   21 type  1   force =     0.41301684   -0.00558058   31.33440224
     atom   22 type  1   force =    -0.20894183    0.43965907   31.33489159
     atom   23 type  1   force =     0.21015340    0.36546485   31.33390695
     atom   24 type  1   force =    -0.00078412    0.00928533   31.69540227
     atom   25 type  1   force =    -0.06917680   -0.04004230   31.68494176
     atom   26 type  1   force =    -0.19681488   -0.45298786   31.20250440
     atom   27 type  1   force =     0.26584891   -0.39466679   31.35271787
     atom   28 type  1   force =    -2.32361950   -1.39942801  103.03502236
     atom   29 type  1   force =     0.91104771   -4.86594504   99.16988552
     atom   30 type  1   force =     1.48132362   -1.03873175  104.07313745
     atom   31 type  1   force =    -3.72745365    3.23056476   98.88704711
     atom   32 type  1   force =     4.32614576    2.47375145   99.23643417
     atom   33 type  1   force =    -0.30741516    0.46847029  104.28784010
     atom   34 type  1   force =    -0.12435568    1.84721257  104.05352113
     atom   35 type  1   force =     0.27316455   -0.43676490  104.33334879
     atom   36 type  1   force =    -0.15678480   -0.02804095  104.51667164
     atom   37 type  2   force =     4.81744352    2.43002772   55.34311927
     atom   38 type  3   force =    -7.02350692   -3.67367122   89.40129030
     atom   39 type  4   force =     1.85491510    0.99311283   15.27332819
     The local contribution  to forces
     atom    1 type  1   force =     0.01377209   -0.00126207  111.34365409
     atom    2 type  1   force =    -0.00361963   -0.00163767  111.35870598
     atom    3 type  1   force =    -0.01003539    0.00124769  111.34334889
     atom    4 type  1   force =     0.00249791   -0.00959795  111.34402447
     atom    5 type  1   force =    -0.00418478   -0.00918160  111.34317691
     atom    6 type  1   force =     0.00172616    0.00081882  111.33177267
     atom    7 type  1   force =     0.00081893    0.00029684  111.33393872
     atom    8 type  1   force =     0.00540880    0.01251521  111.34389170
     atom    9 type  1   force =    -0.00687654    0.00673482  111.34404436
     atom   10 type  1   force =     0.05391741    0.03234137   40.18463084
     atom   11 type  1   force =    -0.01221840    0.07553651   40.27227502
     atom   12 type  1   force =    -0.04190378    0.02942776   40.16205320
     atom   13 type  1   force =     0.05815696   -0.04707052   40.27525971
     atom   14 type  1   force =    -0.06558868   -0.03713467   40.25812460
     atom   15 type  1   force =     0.00804967   -0.01669579   40.14849670
     atom   16 type  1   force =     0.00354056   -0.05228405   40.16331705
     atom   17 type  1   force =    -0.01124003    0.01366665   40.14674868
     atom   18 type  1   force =     0.00719127    0.00221794   40.14109246
     atom   19 type  1   force =     0.49591975   -0.04241001  -31.16720372
     atom   20 type  1   force =    -0.07957882   -0.03276940  -30.22065563
     atom   21 type  1   force =    -0.41359117    0.00873451  -31.32309834
     atom   22 type  1   force =     0.20511433   -0.44417988  -31.32317943
     atom   23 type  1   force =    -0.20756537   -0.36773114  -31.32251220
     atom   24 type  1   force =     0.00263990   -0.00792857  -31.69122037
     atom   25 type  1   force =     0.06822016    0.03953871  -31.67904309
     atom   26 type  1   force =     0.19989558    0.45384342  -31.18782976
     atom   27 type  1   force =    -0.27077637    0.39301513  -31.34235849
     atom   28 type  1   force =     2.27364234    1.36888097 -103.19971508
     atom   29 type  1   force =    -0.85341465    4.78486600  -99.35227619
     atom   30 type  1   force =    -1.46204984    1.02460430 -104.20085079
     atom   31 type  1   force =     3.68035150   -3.14317439  -99.07311710
     atom   32 type  1   force =    -4.30509272   -2.45697887  -99.41118164
     atom   33 type  1   force =     0.30692895   -0.46249830 -104.42424532
     atom   34 type  1   force =     0.12309518   -1.82435125 -104.18071440
     atom   35 type  1   force =    -0.26892529    0.43404203 -104.46715280
     atom   36 type  1   force =     0.15255736    0.02625835 -104.62937458
     atom   37 type  2   force =    -4.57772851   -2.30773606  -55.54984219
     atom   38 type  3   force =     5.19998543    2.72317106  -87.92721117
     atom   39 type  4   force =    -1.80587547   -0.96638490  -15.23376634
     The core correction contribution to forces
     atom    1 type  1   force =     0.00036941   -0.00000180    0.01008330
     atom    2 type  1   force =    -0.00035028   -0.00016465    0.00992938
     atom    3 type  1   force =    -0.00002535    0.00008295    0.01020824
     atom    4 type  1   force =    -0.00017980    0.00002426    0.01016024
     atom    5 type  1   force =     0.00004770   -0.00007616    0.01023535
     atom    6 type  1   force =     0.00001930    0.00001620    0.00972779
     atom    7 type  1   force =    -0.00005550   -0.00003629    0.01041329
     atom    8 type  1   force =     0.00017366    0.00029604    0.01006431
     atom    9 type  1   force =    -0.00008015   -0.00015700    0.01011310
     atom   10 type  1   force =    -0.00026032   -0.00016647   -0.00200160
     atom   11 type  1   force =    -0.00004831    0.00009018   -0.00169829
     atom   12 type  1   force =     0.00036610   -0.00010192   -0.00203382
     atom   13 type  1   force =     0.00002970   -0.00012158   -0.00166309
     atom   14 type  1   force =     0.00017594    0.00010746   -0.00195786
     atom   15 type  1   force =     0.00000470    0.00006196   -0.00173249
     atom   16 type  1   force =     0.00009233    0.00038191   -0.00204352
     atom   17 type  1   force =     0.00003975   -0.00004491   -0.00169891
     atom   18 type  1   force =    -0.00017520   -0.00009089   -0.00165891
     atom   19 type  1   force =    -0.00044721   -0.00038111    0.00141082
     atom   20 type  1   force =     0.00021036    0.00022712    0.00240496
     atom   21 type  1   force =     0.00011534    0.00003518    0.00116429
     atom   22 type  1   force =    -0.00029188   -0.00001121    0.00126483
     atom   23 type  1   force =     0.00008901    0.00013711    0.00123803
     atom   24 type  1   force =    -0.00002746   -0.00002355    0.00213867
     atom   25 type  1   force =     0.00043640    0.00023794    0.00202971
     atom   26 type  1   force =    -0.00058412   -0.00018119    0.00146677
     atom   27 type  1   force =    -0.00019935   -0.00024312    0.00133635
     atom   28 type  1   force =     0.00288336    0.00166722   -0.00694610
     atom   29 type  1   force =    -0.00107646    0.01329628    0.00143930
     atom   30 type  1   force =    -0.00311234    0.00323118   -0.00881601
     atom   31 type  1   force =     0.01151056   -0.00811346    0.00243581
     atom   32 type  1   force =    -0.01489540   -0.00894313    0.01184379
     atom   33 type  1   force =    -0.00064232   -0.00034990   -0.00879058
     atom   34 type  1   force =     0.00124200   -0.00424484   -0.00885507
     atom   35 type  1   force =    -0.00073456   -0.00049610   -0.00890394
     atom   36 type  1   force =    -0.00019325   -0.00009915   -0.01064556
     atom   37 type  2   force =     0.00252859    0.00128264   -0.00148264
     atom   38 type  3   force =    -0.01531481   -0.00799797    0.01305814
     atom   39 type  4   force =     0.00000000    0.00000000    0.00000000
     The Hubbard contrib.    to forces
     atom    1 type  1   force =     0.00000000    0.00000000    0.00000000
     atom    2 type  1   force =     0.00000000    0.00000000    0.00000000
     atom    3 type  1   force =     0.00000000    0.00000000    0.00000000
     atom    4 type  1   force =     0.00000000    0.00000000    0.00000000
     atom    5 type  1   force =     0.00000000    0.00000000    0.00000000
     atom    6 type  1   force =     0.00000000    0.00000000    0.00000000
     atom    7 type  1   force =     0.00000000    0.00000000    0.00000000
     atom    8 type  1   force =     0.00000000    0.00000000    0.00000000
     atom    9 type  1   force =     0.00000000    0.00000000    0.00000000
     atom   10 type  1   force =     0.00000000    0.00000000    0.00000000
     atom   11 type  1   force =     0.00000000    0.00000000    0.00000000
     atom   12 type  1   force =     0.00000000    0.00000000    0.00000000
     atom   13 type  1   force =     0.00000000    0.00000000    0.00000000
     atom   14 type  1   force =     0.00000000    0.00000000    0.00000000
     atom   15 type  1   force =     0.00000000    0.00000000    0.00000000
     atom   16 type  1   force =     0.00000000    0.00000000    0.00000000
     atom   17 type  1   force =     0.00000000    0.00000000    0.00000000
     atom   18 type  1   force =     0.00000000    0.00000000    0.00000000
     atom   19 type  1   force =     0.00000000    0.00000000    0.00000000
     atom   20 type  1   force =     0.00000000    0.00000000    0.00000000
     atom   21 type  1   force =     0.00000000    0.00000000    0.00000000
     atom   22 type  1   force =     0.00000000    0.00000000    0.00000000
     atom   23 type  1   force =     0.00000000    0.00000000    0.00000000
     atom   24 type  1   force =     0.00000000    0.00000000    0.00000000
     atom   25 type  1   force =     0.00000000    0.00000000    0.00000000
     atom   26 type  1   force =     0.00000000    0.00000000    0.00000000
     atom   27 type  1   force =     0.00000000    0.00000000    0.00000000
     atom   28 type  1   force =     0.00000000    0.00000000    0.00000000
     atom   29 type  1   force =     0.00000000    0.00000000    0.00000000
     atom   30 type  1   force =     0.00000000    0.00000000    0.00000000
     atom   31 type  1   force =     0.00000000    0.00000000    0.00000000
     atom   32 type  1   force =     0.00000000    0.00000000    0.00000000
     atom   33 type  1   force =     0.00000000    0.00000000    0.00000000
     atom   34 type  1   force =     0.00000000    0.00000000    0.00000000
     atom   35 type  1   force =     0.00000000    0.00000000    0.00000000
     atom   36 type  1   force =     0.00000000    0.00000000    0.00000000
     atom   37 type  2   force =     0.00000000    0.00000000    0.00000000
     atom   38 type  3   force =     0.00000000    0.00000000    0.00000000
     atom   39 type  4   force =     0.00000000    0.00000000    0.00000000
     The SCF correction term to forces
     atom    1 type  1   force =     0.00000000    0.00000000   -0.00000000
     atom    2 type  1   force =    -0.00000000    0.00000000   -0.00000000
     atom    3 type  1   force =    -0.00000000   -0.00000000   -0.00000000
     atom    4 type  1   force =    -0.00000000   -0.00000000   -0.00000000
     atom    5 type  1   force =    -0.00000000   -0.00000000   -0.00000000
     atom    6 type  1   force =     0.00000000    0.00000000   -0.00000000
     atom    7 type  1   force =    -0.00000000   -0.00000000   -0.00000000
     atom    8 type  1   force =     0.00000000    0.00000000   -0.00000000
     atom    9 type  1   force =    -0.00000000   -0.00000000   -0.00000000
     atom   10 type  1   force =     0.00000000    0.00000000    0.00000000
     atom   11 type  1   force =     0.00000000    0.00000000    0.00000000
     atom   12 type  1   force =    -0.00000000   -0.00000000    0.00000000
     atom   13 type  1   force =     0.00000000   -0.00000000    0.00000000
     atom   14 type  1   force =    -0.00000000   -0.00000000    0.00000000
     atom   15 type  1   force =     0.00000000    0.00000000    0.00000000
     atom   16 type  1   force =    -0.00000000   -0.00000000    0.00000000
     atom   17 type  1   force =     0.00000000   -0.00000000    0.00000000
     atom   18 type  1   force =    -0.00000000   -0.00000000    0.00000000
     atom   19 type  1   force =     0.00000000   -0.00000000    0.00000000
     atom   20 type  1   force =    -0.00000000   -0.00000000    0.00000000
     atom   21 type  1   force =    -0.00000000    0.00000000    0.00000000
     atom   22 type  1   force =    -0.00000000   -0.00000000    0.00000000
     atom   23 type  1   force =     0.00000000   -0.00000000    0.00000000
     atom   24 type  1   force =    -0.00000000   -0.00000000    0.00000000
     atom   25 type  1   force =     0.00000000    0.00000000    0.00000000
     atom   26 type  1   force =    -0.00000000    0.00000000    0.00000000
     atom   27 type  1   force =    -0.00000000    0.00000000    0.00000000
     atom   28 type  1   force =     0.00000000    0.00000000    0.00000000
     atom   29 type  1   force =    -0.00000000   -0.00000000    0.00000000
     atom   30 type  1   force =     0.00000000    0.00000000    0.00000000
     atom   31 type  1   force =    -0.00000000   -0.00000000    0.00000000
     atom   32 type  1   force =     0.00000000   -0.00000000    0.00000000
     atom   33 type  1   force =     0.00000000   -0.00000000    0.00000000
     atom   34 type  1   force =     0.00000000    0.00000000    0.00000000
     atom   35 type  1   force =     0.00000000    0.00000000    0.00000000
     atom   36 type  1   force =    -0.00000000    0.00000000    0.00000000
     atom   37 type  2   force =    -0.00000340   -0.00000587    0.00001639
     atom   38 type  3   force =    -0.00000391   -0.00000522    0.00001795
     atom   39 type  4   force =    -0.00000015   -0.00000069    0.00000347

     Total force =     0.002038     Total SCF correction =     0.000026

     Writing all to output data dir ./pwscf.save/

     init_run     :     16.17s CPU     16.67s WALL (       1 calls)
     electrons    :   1010.87s CPU   1026.70s WALL (       1 calls)
     forces       :      5.20s CPU      5.32s WALL (       1 calls)

     Called by init_run:
     wfcinit      :     12.97s CPU     13.36s WALL (       1 calls)
     potinit      :      1.97s CPU      2.06s WALL (       1 calls)
     hinit0       :      0.97s CPU      0.98s WALL (       1 calls)

     Called by electrons:
     c_bands      :    843.51s CPU    856.54s WALL (      57 calls)
     sum_band     :    107.18s CPU    108.66s WALL (      57 calls)
     v_of_rho     :      9.73s CPU     10.21s WALL (      58 calls)
     newd         :      6.36s CPU      6.44s WALL (      58 calls)
     PAW_pot      :     16.22s CPU     16.39s WALL (      58 calls)
     mix_rho      :     28.97s CPU     29.41s WALL (      57 calls)
     vdW_kernel   :      1.10s CPU      1.11s WALL (       1 calls)

     Called by c_bands:
     init_us_2    :     10.18s CPU     10.35s WALL (    3016 calls)
     init_us_2:cp :     10.16s CPU     10.34s WALL (    3016 calls)
     cegterg      :    814.03s CPU    826.07s WALL (    1482 calls)

     Called by *egterg:
     cdiaghg      :    216.24s CPU    219.68s WALL (    4629 calls)
     h_psi        :    397.82s CPU    404.23s WALL (    4655 calls)
     s_psi        :     41.20s CPU     41.69s WALL (    4655 calls)
     g_psi        :      1.06s CPU      1.09s WALL (    3147 calls)

     Called by h_psi:
     h_psi:calbec :     60.39s CPU     61.32s WALL (    4655 calls)
     vloc_psi     :    294.02s CPU    298.92s WALL (    4655 calls)
     add_vuspsi   :     40.75s CPU     41.26s WALL (    4655 calls)

     General routines
     calbec       :     90.85s CPU     92.10s WALL (    6241 calls)
     fft          :      7.36s CPU      7.87s WALL (    5239 calls)
     ffts         :     15.65s CPU     15.87s WALL (   25936 calls)
     fftw         :    337.42s CPU    342.67s WALL ( 1531364 calls)
     interpolate  :      0.58s CPU      0.59s WALL (     116 calls)

     Parallel routines

     PWSCF        :  17m17.85s CPU  17m39.08s WALL


   This run was terminated on:   8:51:27  14Dec2025            

=------------------------------------------------------------------------------=
   JOB DONE.
=------------------------------------------------------------------------------=
