  37  37   0   0
  0.4190497E+02  0.8468310E-09  0.8468310E-09  0.2496566E-08  0.5000000E-15
  1.000000000000000E-004
  CAR 
 unknown system                          
      8.60726421     -9.90255634  301     -0.07591769      1.00000000
     -9.903  0.0000E+00  0.0000E+00
     -9.841  0.0000E+00  0.0000E+00
     -9.779  0.0000E+00  0.0000E+00
     -9.717 -0.4309E-28 -0.2658E-29
     -9.656 -0.6338E-24 -0.3911E-25
     -9.594 -0.4325E-20 -0.2669E-21
     -9.532 -0.1367E-16 -0.8439E-18
     -9.471 -0.1941E-13 -0.1199E-14
     -9.409 -0.1297E-10 -0.8012E-12
     -9.347 -0.3973E-08 -0.2459E-09
     -9.286 -0.5531E-06 -0.3437E-07
     -9.224 -0.3446E-04 -0.2161E-05
     -9.162 -0.9326E-03 -0.5970E-04
     -9.100 -0.1016E-01 -0.6867E-03
     -9.039 -0.3347E-01 -0.2752E-02
     -8.977  0.4915E-01  0.2810E-03
     -8.915  0.3273E+00  0.2047E-01
     -8.854  0.6019E+00  0.5761E-01
     -8.792  0.2022E+01  0.1824E+00
     -8.730  0.3807E+01  0.4173E+00
     -8.669  0.2288E+01  0.5584E+00
     -8.607 -0.4479E-02  0.5581E+00
     -8.545  0.1738E+00  0.5689E+00
     -8.483  0.2537E+01  0.7254E+00
     -8.422  0.3818E+01  0.9609E+00
     -8.360  0.3569E+01  0.1181E+01
     -8.298  0.3751E+01  0.1413E+01
     -8.237  0.1893E+01  0.1529E+01
     -8.175  0.5787E-02  0.1530E+01
     -8.113 -0.3729E+00  0.1507E+01
     -8.052 -0.1861E+00  0.1495E+01
     -7.990  0.2301E+01  0.1637E+01
     -7.928  0.6513E+01  0.2039E+01
     -7.866  0.5821E+01  0.2398E+01
     -7.805  0.1865E+01  0.2513E+01
     -7.743  0.2590E+01  0.2673E+01
     -7.681  0.6595E+01  0.3080E+01
     -7.620  0.5809E+01  0.3438E+01
     -7.558  0.2049E+01  0.3565E+01
     -7.496  0.2342E+01  0.3709E+01
     -7.435  0.4163E+01  0.3966E+01
     -7.373  0.6285E+01  0.4354E+01
     -7.311  0.6891E+01  0.4779E+01
     -7.249  0.6247E+01  0.5165E+01
     -7.188  0.9242E+01  0.5735E+01
     -7.126  0.8829E+01  0.6280E+01
     -7.064  0.5438E+01  0.6615E+01
     -7.003  0.3897E+01  0.6855E+01
     -6.941  0.3274E+01  0.7057E+01
     -6.879  0.5503E+01  0.7397E+01
     -6.818  0.8628E+01  0.7929E+01
     -6.756  0.6822E+01  0.8350E+01
     -6.694  0.3791E+01  0.8584E+01
     -6.632  0.6550E+01  0.8988E+01
     -6.571  0.1361E+02  0.9828E+01
     -6.509  0.1492E+02  0.1075E+02
     -6.447  0.1163E+02  0.1147E+02
     -6.386  0.1091E+02  0.1214E+02
     -6.324  0.8695E+01  0.1268E+02
     -6.262  0.9520E+01  0.1326E+02
     -6.201  0.1860E+02  0.1441E+02
     -6.139  0.3164E+02  0.1636E+02
     -6.077  0.3688E+02  0.1864E+02
     -6.015  0.3107E+02  0.2056E+02
     -5.954  0.2904E+02  0.2235E+02
     -5.892  0.3207E+02  0.2433E+02
     -5.830  0.3635E+02  0.2657E+02
     -5.769  0.3130E+02  0.2850E+02
     -5.707  0.2567E+02  0.3008E+02
     -5.645  0.3194E+02  0.3205E+02
     -5.584  0.3982E+02  0.3451E+02
     -5.522  0.4264E+02  0.3714E+02
     -5.460  0.5017E+02  0.4024E+02
     -5.399  0.6162E+02  0.4404E+02
     -5.337  0.6346E+02  0.4796E+02
     -5.275  0.5713E+02  0.5148E+02
     -5.213  0.4758E+02  0.5442E+02
     -5.152  0.4173E+02  0.5699E+02
     -5.090  0.4767E+02  0.5993E+02
     -5.028  0.6734E+02  0.6409E+02
     -4.967  0.6427E+02  0.6805E+02
     -4.905  0.3540E+02  0.7024E+02
     -4.843  0.2403E+02  0.7172E+02
     -4.782  0.3802E+02  0.7407E+02
     -4.720  0.4014E+02  0.7654E+02
     -4.658  0.2305E+02  0.7796E+02
     -4.596  0.2297E+02  0.7938E+02
     -4.535  0.4194E+02  0.8197E+02
     -4.473  0.5836E+02  0.8557E+02
     -4.411  0.6264E+02  0.8943E+02
     -4.350  0.5515E+02  0.9284E+02
     -4.288  0.4690E+02  0.9573E+02
     -4.226  0.4437E+02  0.9847E+02
     -4.165  0.4588E+02  0.1013E+03
     -4.103  0.5560E+02  0.1047E+03
     -4.041  0.5877E+02  0.1084E+03
     -3.979  0.4843E+02  0.1113E+03
     -3.918  0.4220E+02  0.1139E+03
     -3.856  0.3974E+02  0.1164E+03
     -3.794  0.3669E+02  0.1187E+03
     -3.733  0.4065E+02  0.1212E+03
     -3.671  0.5731E+02  0.1247E+03
     -3.609  0.6445E+02  0.1287E+03
     -3.548  0.5835E+02  0.1323E+03
     -3.486  0.5653E+02  0.1358E+03
     -3.424  0.6646E+02  0.1399E+03
     -3.362  0.7656E+02  0.1446E+03
     -3.301  0.7434E+02  0.1492E+03
     -3.239  0.6779E+02  0.1534E+03
     -3.177  0.7163E+02  0.1578E+03
     -3.116  0.8636E+02  0.1631E+03
     -3.054  0.8480E+02  0.1683E+03
     -2.992  0.7537E+02  0.1730E+03
     -2.931  0.7762E+02  0.1778E+03
     -2.869  0.7657E+02  0.1825E+03
     -2.807  0.8255E+02  0.1876E+03
     -2.745  0.9988E+02  0.1938E+03
     -2.684  0.1054E+03  0.2003E+03
     -2.622  0.8614E+02  0.2056E+03
     -2.560  0.6318E+02  0.2095E+03
     -2.499  0.6307E+02  0.2134E+03
     -2.437  0.6106E+02  0.2171E+03
     -2.375  0.4549E+02  0.2199E+03
     -2.314  0.3144E+02  0.2219E+03
     -2.252  0.2470E+02  0.2234E+03
     -2.190  0.2890E+02  0.2252E+03
     -2.128  0.4281E+02  0.2278E+03
     -2.067  0.6275E+02  0.2317E+03
     -2.005  0.8558E+02  0.2370E+03
     -1.943  0.9280E+02  0.2427E+03
     -1.882  0.8157E+02  0.2477E+03
     -1.820  0.6269E+02  0.2516E+03
     -1.758  0.4552E+02  0.2544E+03
     -1.697  0.4193E+02  0.2570E+03
     -1.635  0.4733E+02  0.2599E+03
     -1.573  0.5648E+02  0.2634E+03
     -1.511  0.5893E+02  0.2670E+03
     -1.450  0.5462E+02  0.2704E+03
     -1.388  0.5841E+02  0.2740E+03
     -1.326  0.5983E+02  0.2777E+03
     -1.265  0.5208E+02  0.2809E+03
     -1.203  0.5447E+02  0.2843E+03
     -1.141  0.7217E+02  0.2887E+03
     -1.080  0.8417E+02  0.2939E+03
     -1.018  0.8572E+02  0.2992E+03
     -0.956  0.7194E+02  0.3037E+03
     -0.894  0.5739E+02  0.3072E+03
     -0.833  0.5798E+02  0.3108E+03
     -0.771  0.5288E+02  0.3140E+03
     -0.709  0.4231E+02  0.3167E+03
     -0.648  0.4993E+02  0.3197E+03
     -0.586  0.6239E+02  0.3236E+03
     -0.524  0.5994E+02  0.3273E+03
     -0.463  0.5906E+02  0.3309E+03
     -0.401  0.6771E+02  0.3351E+03
     -0.339  0.8525E+02  0.3404E+03
     -0.277  0.9497E+02  0.3462E+03
     -0.216  0.7516E+02  0.3509E+03
     -0.154  0.5627E+02  0.3543E+03
     -0.092  0.8126E+02  0.3593E+03
     -0.031  0.9786E+02  0.3654E+03
      0.031  0.6116E+02  0.3692E+03
      0.093  0.3237E+02  0.3712E+03
      0.154  0.4806E+02  0.3741E+03
      0.216  0.5789E+02  0.3777E+03
      0.278  0.4600E+02  0.3805E+03
      0.340  0.3882E+02  0.3829E+03
      0.401  0.2817E+02  0.3847E+03
      0.463  0.1431E+02  0.3855E+03
      0.525  0.5474E+01  0.3859E+03
      0.586  0.2819E+01  0.3861E+03
      0.648  0.4025E+01  0.3863E+03
      0.710  0.9922E+01  0.3869E+03
      0.771  0.1626E+02  0.3879E+03
      0.833  0.1277E+02  0.3887E+03
      0.895  0.7410E+01  0.3892E+03
      0.957  0.9989E+01  0.3898E+03
      1.018  0.1022E+02  0.3904E+03
      1.080  0.3625E+01  0.3906E+03
      1.142  0.2699E+01  0.3908E+03
      1.203  0.1003E+02  0.3914E+03
      1.265  0.1397E+02  0.3923E+03
      1.327  0.1233E+02  0.3930E+03
      1.388  0.1044E+02  0.3937E+03
      1.450  0.1307E+02  0.3945E+03
      1.512  0.2481E+02  0.3960E+03
      1.574  0.2733E+02  0.3977E+03
      1.635  0.1930E+02  0.3989E+03
      1.697  0.1589E+02  0.3999E+03
      1.759  0.1140E+02  0.4006E+03
      1.820  0.3008E+01  0.4008E+03
      1.882  0.1146E+01  0.4008E+03
      1.944  0.4229E+01  0.4011E+03
      2.005  0.6748E+01  0.4015E+03
      2.067  0.6422E+01  0.4019E+03
      2.129  0.4178E+01  0.4022E+03
      2.191  0.7373E+01  0.4026E+03
      2.252  0.1193E+02  0.4034E+03
      2.314  0.1122E+02  0.4041E+03
      2.376  0.1355E+02  0.4049E+03
      2.437  0.2071E+02  0.4062E+03
      2.499  0.2153E+02  0.4075E+03
      2.561  0.1255E+02  0.4083E+03
      2.622  0.6838E+01  0.4087E+03
      2.684  0.6534E+01  0.4091E+03
      2.746  0.1002E+02  0.4097E+03
      2.808  0.1827E+02  0.4108E+03
      2.869  0.1905E+02  0.4120E+03
      2.931  0.1315E+02  0.4128E+03
      2.993  0.8322E+01  0.4133E+03
      3.054  0.1008E+02  0.4140E+03
      3.116  0.1410E+02  0.4148E+03
      3.178  0.1240E+02  0.4156E+03
      3.239  0.1042E+02  0.4162E+03
      3.301  0.8705E+01  0.4168E+03
      3.363  0.3802E+01  0.4170E+03
      3.425  0.3656E+00  0.4170E+03
      3.486  0.3434E+01  0.4173E+03
      3.548  0.1083E+02  0.4179E+03
      3.610  0.1866E+02  0.4191E+03
      3.671  0.2427E+02  0.4206E+03
      3.733  0.2230E+02  0.4219E+03
      3.795  0.1332E+02  0.4228E+03
      3.856  0.5613E+01  0.4231E+03
      3.918  0.3319E+01  0.4233E+03
      3.980  0.3690E+01  0.4235E+03
      4.042  0.5075E+01  0.4239E+03
      4.103  0.7474E+01  0.4243E+03
      4.165  0.8064E+01  0.4248E+03
      4.227  0.6705E+01  0.4252E+03
      4.288  0.5085E+01  0.4255E+03
      4.350  0.1050E+02  0.4262E+03
      4.412  0.2375E+02  0.4277E+03
      4.473  0.2289E+02  0.4291E+03
      4.535  0.9665E+01  0.4297E+03
      4.597  0.6728E+01  0.4301E+03
      4.659  0.1118E+02  0.4308E+03
      4.720  0.1474E+02  0.4317E+03
      4.782  0.1405E+02  0.4325E+03
      4.844  0.9138E+01  0.4331E+03
      4.905  0.5754E+01  0.4335E+03
      4.967  0.8085E+01  0.4340E+03
      5.029  0.9907E+01  0.4346E+03
      5.090  0.5769E+01  0.4349E+03
      5.152  0.5940E+01  0.4353E+03
      5.214  0.1191E+02  0.4360E+03
      5.275  0.1505E+02  0.4370E+03
      5.337  0.1124E+02  0.4377E+03
      5.399  0.5894E+01  0.4380E+03
      5.461  0.1120E+02  0.4387E+03
      5.522  0.2176E+02  0.4401E+03
      5.584  0.2558E+02  0.4416E+03
      5.646  0.2681E+02  0.4433E+03
      5.707  0.2624E+02  0.4449E+03
      5.769  0.2200E+02  0.4463E+03
      5.831  0.1863E+02  0.4474E+03
      5.892  0.1726E+02  0.4485E+03
      5.954  0.2047E+02  0.4497E+03
      6.016  0.2906E+02  0.4515E+03
      6.078  0.2793E+02  0.4533E+03
      6.139  0.1507E+02  0.4542E+03
      6.201  0.1160E+02  0.4549E+03
      6.263  0.2193E+02  0.4563E+03
      6.324  0.3257E+02  0.4583E+03
      6.386  0.2955E+02  0.4601E+03
      6.448  0.1508E+02  0.4610E+03
      6.509  0.1162E+02  0.4617E+03
      6.571  0.2385E+02  0.4632E+03
      6.633  0.3114E+02  0.4651E+03
      6.695  0.2746E+02  0.4668E+03
      6.756  0.2370E+02  0.4683E+03
      6.818  0.1766E+02  0.4694E+03
      6.880  0.1116E+02  0.4701E+03
      6.941  0.1429E+02  0.4709E+03
      7.003  0.1759E+02  0.4720E+03
      7.065  0.1530E+02  0.4730E+03
      7.126  0.1956E+02  0.4742E+03
      7.188  0.2555E+02  0.4758E+03
      7.250  0.2331E+02  0.4772E+03
      7.312  0.1449E+02  0.4781E+03
      7.373  0.5948E+01  0.4785E+03
      7.435  0.3143E+01  0.4787E+03
      7.497  0.5306E+01  0.4790E+03
      7.558  0.6731E+01  0.4794E+03
      7.620  0.6441E+01  0.4798E+03
      7.682  0.3432E+01  0.4800E+03
      7.743  0.3099E+00  0.4800E+03
      7.805 -0.2744E+00  0.4800E+03
      7.867 -0.7210E-01  0.4800E+03
      7.929 -0.6142E-02  0.4800E+03
      7.990 -0.2153E-03  0.4800E+03
      8.052 -0.3309E-05  0.4800E+03
      8.114 -0.2290E-07  0.4800E+03
      8.175 -0.7228E-10  0.4800E+03
      8.237 -0.1051E-12  0.4800E+03
      8.299  0.0000E+00  0.4800E+03
      8.360  0.0000E+00  0.4800E+03
      8.422  0.0000E+00  0.4800E+03
      8.484  0.0000E+00  0.4800E+03
      8.546  0.0000E+00  0.4800E+03
      8.607  0.0000E+00  0.4800E+03
