   37   37    1    1
  0.4190497E+02  0.8468310E-09  0.8468310E-09  0.2496566E-08  0.5000000E-15
  1.000000000000000E-004
  CAR 
 unknown system                          
    361     13    240
 
  0.1276756E-14  0.1276756E-14  0.1276756E-14  0.4000000E-01
      1         -8.902556   1.000000
      2         -7.790758   1.000000
      3         -7.066866   1.000000
      4         -6.502907   1.000000
      5         -6.478659   1.000000
      6         -6.455419   1.000000
      7         -6.451723   1.000000
      8         -6.444755   1.000000
      9         -6.443060   1.000000
     10         -6.426150   1.000000
     11         -6.163674   1.000000
     12         -5.923561   1.000000
     13         -5.918919   1.000000
     14         -5.903253   1.000000
     15         -5.898100   1.000000
     16         -5.894393   1.000000
     17         -5.837374   1.000000
     18         -5.464929   1.000000
     19         -5.460565   1.000000
     20         -5.459656   1.000000
     21         -5.451266   1.000000
     22         -5.449781   1.000000
     23         -5.332485   1.000000
     24         -5.230025   1.000000
     25         -5.226736   1.000000
     26         -5.226463   1.000000
     27         -5.219419   1.000000
     28         -5.217184   1.000000
     29         -5.128991   1.000000
     30         -5.032856   1.000000
     31         -5.026611   1.000000
     32         -5.024975   1.000000
     33         -5.019144   1.000000
     34         -5.017283   1.000000
     35         -4.974047   1.000000
     36         -4.962518   1.000000
     37         -4.957215   1.000000
     38         -4.949779   1.000000
     39         -4.919662   1.000000
     40         -4.912079   1.000000
     41         -4.534809   1.000000
     42         -4.380771   1.000000
     43         -4.378397   1.000000
     44         -4.358135   1.000000
     45         -4.341905   1.000000
     46         -4.324268   1.000000
     47         -4.316189   1.000000
     48         -4.302491   1.000000
     49         -4.288510   1.000000
     50         -4.285082   1.000000
     51         -4.180520   1.000000
     52         -4.137706   1.000000
     53         -4.135077   1.000000
     54         -4.040418   1.000000
     55         -4.030754   1.000000
     56         -3.589740   1.000000
     57         -3.578591   1.000000
     58         -3.567297   1.000000
     59         -3.566550   1.000000
     60         -3.552496   1.000000
     61         -3.497393   1.000000
     62         -3.478833   1.000000
     63         -3.387350   1.000000
     64         -3.386093   1.000000
     65         -3.375697   1.000000
     66         -3.373591   1.000000
     67         -3.366627   1.000000
     68         -3.363119   1.000000
     69         -3.350589   1.000000
     70         -3.320036   1.000000
     71         -3.311738   1.000000
     72         -3.302220   1.000000
     73         -3.299440   1.000000
     74         -3.292634   1.000000
     75         -3.273298   1.000000
     76         -3.263325   1.000000
     77         -3.258662   1.000000
     78         -3.165947   1.000000
     79         -3.155293   1.000000
     80         -3.142540   1.000000
     81         -3.136864   1.000000
     82         -3.130161   1.000000
     83         -3.107843   1.000000
     84         -2.953698   1.000000
     85         -2.933473   1.000000
     86         -2.927369   1.000000
     87         -2.917875   1.000000
     88         -2.917617   1.000000
     89         -2.900793   1.000000
     90         -2.886892   1.000000
     91         -2.884370   1.000000
     92         -2.840681   1.000000
     93         -2.825838   1.000000
     94         -2.803650   1.000000
     95         -2.786440   1.000000
     96         -2.743596   1.000000
     97         -2.740474   1.000000
     98         -2.697110   1.000000
     99         -2.692982   1.000000
    100         -2.687973   1.000000
    101         -2.606136   1.000000
    102         -2.538528   1.000000
    103         -2.518503   1.000000
    104         -2.515431   1.000000
    105         -2.513280   1.000000
    106         -2.506866   1.000000
    107         -2.487274   1.000000
    108         -2.271534   1.000000
    109         -2.030902   1.000000
    110         -2.002684   1.000000
    111         -2.000302   1.000000
    112         -1.993725   1.000000
    113         -1.989403   1.000000
    114         -1.983203   1.000000
    115         -1.975634   1.000000
    116         -1.969254   1.000000
    117         -1.958819   1.000000
    118         -1.956509   1.000000
    119         -1.943743   1.000000
    120         -1.873443   1.000000
    121         -1.862462   1.000000
    122         -1.819885   1.000000
    123         -1.743979   1.000000
    124         -1.725835   1.000000
    125         -1.718866   1.000000
    126         -1.716334   1.000000
    127         -1.706805   1.000000
    128         -1.621531   1.000000
    129         -1.591586   1.000000
    130         -1.539487   1.000000
    131         -1.536885   1.000000
    132         -1.532277   1.000000
    133         -1.485751   1.000000
    134         -1.300961   1.000000
    135         -1.284589   1.000000
    136         -1.272836   1.000000
    137         -1.258903   1.000000
    138         -1.254007   1.000000
    139         -1.250494   1.000000
    140         -1.192924   1.000000
    141         -1.176280   1.000000
    142         -1.064557   1.000000
    143         -1.046274   1.000000
    144         -1.036238   1.000000
    145         -1.027409   1.000000
    146         -1.024547   1.000000
    147         -1.021482   1.000000
    148         -0.880901   1.000000
    149         -0.877920   1.000000
    150         -0.858909   1.000000
    151         -0.846591   1.000000
    152         -0.835488   1.000000
    153         -0.828453   1.000000
    154         -0.824522   1.000000
    155         -0.821271   1.000000
    156         -0.811079   1.000000
    157         -0.809712   1.000000
    158         -0.801724   1.000000
    159         -0.796084   1.000000
    160         -0.734696   1.000000
    161         -0.712163   1.000000
    162         -0.696514   1.000000
    163         -0.695084   1.000000
    164         -0.672762   1.000000
    165         -0.661261   1.000000
    166         -0.645575   1.000000
    167         -0.643987   1.000000
    168         -0.605411   1.000000
    169         -0.598292   1.000000
    170         -0.580942   1.000000
    171         -0.570303   1.000000
    172         -0.555108   1.000000
    173         -0.543631   1.000000
    174         -0.541461   1.000000
    175         -0.538633   1.000000
    176         -0.462943   1.000000
    177         -0.456080   1.000001
    178         -0.445950   1.000001
    179         -0.440944   1.000002
    180         -0.429388   1.000003
    181         -0.428039   1.000004
    182         -0.389732   1.000042
    183         -0.349664   1.000376
    184         -0.341382   1.000564
    185         -0.323122   1.001311
    186         -0.321161   1.001428
    187         -0.309715   1.002316
    188         -0.307035   1.002581
    189         -0.120471   0.838732
    190         -0.103261   0.722085
    191         -0.018373   0.091306
    192         -0.015240   0.076966
    193         -0.006282   0.041405
    194          0.000777   0.018899
    195          0.008967  -0.001511
    196          0.010703  -0.005100
    197          0.522156  -0.000000
    198          0.822281  -0.000000
    199          0.837433  -0.000000
    200          0.865722  -0.000000
    201          0.894572  -0.000000
    202          0.898614  -0.000000
    203          0.904880  -0.000000
    204          2.799537   0.000000
    205          3.127655   0.000000
    206          3.160317   0.000000
    207          3.195701   0.000000
    208          3.219056   0.000000
    209          3.223256   0.000000
    210          4.573368   0.000000
    211          4.718099   0.000000
    212          4.776773   0.000000
    213          4.812472   0.000000
    214          4.818199   0.000000
    215          4.824847   0.000000
    216          4.911100   0.000000
    217          5.104639   0.000000
    218          5.207616   0.000000
    219          5.433032   0.000000
    220          5.527901   0.000000
    221          5.788714   0.000000
    222          5.811637   0.000000
    223          5.842158   0.000000
    224          5.857418   0.000000
    225          5.870968   0.000000
    226          6.170688   0.000000
    227          6.355423   0.000000
    228          6.609655   0.000000
    229          6.617971   0.000000
    230          6.622067   0.000000
    231          6.849382   0.000000
    232          7.014680   0.000000
    233          7.125197   0.000000
    234          7.145889   0.000000
    235          7.157348   0.000000
    236          7.160488   0.000000
    237          7.166101   0.000000
    238          7.227808   0.000000
    239          7.255788   0.000000
    240          7.607264   0.000000
 
  0.2000000E+00  0.1278043E-14  0.1276756E-14  0.8000000E-01
      1         -8.754363   1.000000
      2         -7.665114   1.000000
      3         -7.028356   1.000000
      4         -6.920440   1.000000
      5         -6.560930   1.000000
      6         -6.552448   1.000000
      7         -6.361033   1.000000
      8         -6.262161   1.000000
      9         -6.229948   1.000000
     10         -6.212563   1.000000
     11         -6.123874   1.000000
     12         -6.008040   1.000000
     13         -5.979253   1.000000
     14         -5.850133   1.000000
     15         -5.831252   1.000000
     16         -5.825456   1.000000
     17         -5.745723   1.000000
     18         -5.539413   1.000000
     19         -5.425617   1.000000
     20         -5.418774   1.000000
     21         -5.405015   1.000000
     22         -5.390074   1.000000
     23         -5.335062   1.000000
     24         -5.302663   1.000000
     25         -5.276097   1.000000
     26         -5.228935   1.000000
     27         -5.223826   1.000000
     28         -5.208746   1.000000
     29         -5.159700   1.000000
     30         -5.120234   1.000000
     31         -5.111686   1.000000
     32         -5.036138   1.000000
     33         -5.018342   1.000000
     34         -5.012266   1.000000
     35         -5.008020   1.000000
     36         -4.874489   1.000000
     37         -4.812108   1.000000
     38         -4.785442   1.000000
     39         -4.768589   1.000000
     40         -4.752684   1.000000
     41         -4.571233   1.000000
     42         -4.500680   1.000000
     43         -4.493960   1.000000
     44         -4.454240   1.000000
     45         -4.416200   1.000000
     46         -4.394387   1.000000
     47         -4.388340   1.000000
     48         -4.314335   1.000000
     49         -4.211994   1.000000
     50         -4.173000   1.000000
     51         -4.127312   1.000000
     52         -4.108272   1.000000
     53         -4.072869   1.000000
     54         -4.049720   1.000000
     55         -4.038992   1.000000
     56         -3.835999   1.000000
     57         -3.738799   1.000000
     58         -3.733709   1.000000
     59         -3.686342   1.000000
     60         -3.661782   1.000000
     61         -3.622341   1.000000
     62         -3.588836   1.000000
     63         -3.561022   1.000000
     64         -3.553540   1.000000
     65         -3.535339   1.000000
     66         -3.524217   1.000000
     67         -3.472903   1.000000
     68         -3.451088   1.000000
     69         -3.411087   1.000000
     70         -3.376519   1.000000
     71         -3.361062   1.000000
     72         -3.344813   1.000000
     73         -3.269247   1.000000
     74         -3.260631   1.000000
     75         -3.238648   1.000000
     76         -3.183278   1.000000
     77         -3.179061   1.000000
     78         -3.159675   1.000000
     79         -3.131762   1.000000
     80         -3.106505   1.000000
     81         -3.094175   1.000000
     82         -3.066687   1.000000
     83         -3.026887   1.000000
     84         -3.001592   1.000000
     85         -2.965267   1.000000
     86         -2.955074   1.000000
     87         -2.944372   1.000000
     88         -2.933325   1.000000
     89         -2.915201   1.000000
     90         -2.897457   1.000000
     91         -2.870834   1.000000
     92         -2.823096   1.000000
     93         -2.809803   1.000000
     94         -2.783351   1.000000
     95         -2.775397   1.000000
     96         -2.758865   1.000000
     97         -2.734320   1.000000
     98         -2.725324   1.000000
     99         -2.694741   1.000000
    100         -2.682030   1.000000
    101         -2.614939   1.000000
    102         -2.568775   1.000000
    103         -2.546774   1.000000
    104         -2.525140   1.000000
    105         -2.511047   1.000000
    106         -2.501317   1.000000
    107         -2.495626   1.000000
    108         -2.486668   1.000000
    109         -2.447322   1.000000
    110         -2.437567   1.000000
    111         -2.427527   1.000000
    112         -2.416658   1.000000
    113         -2.198736   1.000000
    114         -2.078494   1.000000
    115         -2.037050   1.000000
    116         -2.009314   1.000000
    117         -2.001062   1.000000
    118         -1.990746   1.000000
    119         -1.984377   1.000000
    120         -1.955343   1.000000
    121         -1.940656   1.000000
    122         -1.860899   1.000000
    123         -1.801592   1.000000
    124         -1.780071   1.000000
    125         -1.711419   1.000000
    126         -1.658922   1.000000
    127         -1.648504   1.000000
    128         -1.619275   1.000000
    129         -1.593256   1.000000
    130         -1.569084   1.000000
    131         -1.551070   1.000000
    132         -1.535385   1.000000
    133         -1.522456   1.000000
    134         -1.445789   1.000000
    135         -1.416111   1.000000
    136         -1.400469   1.000000
    137         -1.387482   1.000000
    138         -1.375976   1.000000
    139         -1.277041   1.000000
    140         -1.198935   1.000000
    141         -1.181945   1.000000
    142         -1.159062   1.000000
    143         -1.155009   1.000000
    144         -1.141621   1.000000
    145         -1.123476   1.000000
    146         -1.066040   1.000000
    147         -1.036589   1.000000
    148         -1.004802   1.000000
    149         -0.993401   1.000000
    150         -0.985486   1.000000
    151         -0.939373   1.000000
    152         -0.926345   1.000000
    153         -0.904891   1.000000
    154         -0.893318   1.000000
    155         -0.818354   1.000000
    156         -0.795890   1.000000
    157         -0.779789   1.000000
    158         -0.762655   1.000000
    159         -0.727538   1.000000
    160         -0.660702   1.000000
    161         -0.644056   1.000000
    162         -0.631348   1.000000
    163         -0.604516   1.000000
    164         -0.591042   1.000000
    165         -0.562300   1.000000
    166         -0.547897   1.000000
    167         -0.486374   1.000000
    168         -0.474696   1.000000
    169         -0.418959   1.000007
    170         -0.405977   1.000016
    171         -0.402908   1.000019
    172         -0.384021   1.000059
    173         -0.364625   1.000173
    174         -0.353831   1.000304
    175         -0.346518   1.000439
    176         -0.339406   1.000621
    177         -0.331095   1.000916
    178         -0.272466   1.008924
    179         -0.267219   1.010481
    180         -0.131864   0.900996
    181         -0.117843   0.822584
    182         -0.104266   0.729546
    183         -0.092530   0.638458
    184         -0.076774   0.507246
    185         -0.068845   0.440312
    186         -0.037138   0.197575
    187         -0.027962   0.141338
    188         -0.008415   0.049148
    189          0.002603   0.013835
    190          0.067782  -0.030345
    191          0.105221  -0.013997
    192          0.130951  -0.006363
    193          0.194016  -0.000454
    194          0.290760  -0.000001
    195          0.296774  -0.000001
    196          0.312128  -0.000000
    197          0.355453  -0.000000
    198          0.684563  -0.000000
    199          0.747227  -0.000000
    200          1.243897  -0.000000
    201          1.463453  -0.000000
    202          1.483805  -0.000000
    203          1.598195  -0.000000
    204          2.393268  -0.000000
    205          2.789752   0.000000
    206          2.905025   0.000000
    207          3.547331   0.000000
    208          3.643519   0.000000
    209          3.657165   0.000000
    210          3.742704   0.000000
    211          3.983415   0.000000
    212          4.419271   0.000000
    213          4.603785   0.000000
    214          4.753829   0.000000
    215          4.941525   0.000000
    216          4.993285   0.000000
    217          5.006920   0.000000
    218          5.211736   0.000000
    219          5.273482   0.000000
    220          5.464331   0.000000
    221          5.664090   0.000000
    222          5.684614   0.000000
    223          5.777716   0.000000
    224          5.902526   0.000000
    225          6.131577   0.000000
    226          6.230056   0.000000
    227          6.286120   0.000000
    228          6.325779   0.000000
    229          6.348489   0.000000
    230          6.580363   0.000000
    231          6.700512   0.000000
    232          6.752201   0.000000
    233          6.791374   0.000000
    234          6.884078   0.000000
    235          6.943297   0.000000
    236          7.063497   0.000000
    237          7.289184   0.000000
    238          7.459304   0.000000
    239          7.510046   0.000000
    240          7.602978   0.000000
 
  0.2000000E+00  0.2000000E+00  0.1276756E-14  0.8000000E-01
      1         -8.755494   1.000000
      2         -7.675658   1.000000
      3         -7.070891   1.000000
      4         -6.879407   1.000000
      5         -6.561477   1.000000
      6         -6.554143   1.000000
      7         -6.361908   1.000000
      8         -6.274884   1.000000
      9         -6.213438   1.000000
     10         -6.212070   1.000000
     11         -6.157849   1.000000
     12         -6.002702   1.000000
     13         -5.910183   1.000000
     14         -5.855160   1.000000
     15         -5.829843   1.000000
     16         -5.827206   1.000000
     17         -5.795734   1.000000
     18         -5.532253   1.000000
     19         -5.420796   1.000000
     20         -5.414845   1.000000
     21         -5.411605   1.000000
     22         -5.357066   1.000000
     23         -5.333540   1.000000
     24         -5.291948   1.000000
     25         -5.274788   1.000000
     26         -5.263632   1.000000
     27         -5.223972   1.000000
     28         -5.217408   1.000000
     29         -5.128064   1.000000
     30         -5.111340   1.000000
     31         -5.103185   1.000000
     32         -5.035348   1.000000
     33         -5.018205   1.000000
     34         -5.008028   1.000000
     35         -5.006593   1.000000
     36         -4.848856   1.000000
     37         -4.810505   1.000000
     38         -4.782079   1.000000
     39         -4.774368   1.000000
     40         -4.761089   1.000000
     41         -4.547238   1.000000
     42         -4.495802   1.000000
     43         -4.486350   1.000000
     44         -4.458308   1.000000
     45         -4.420120   1.000000
     46         -4.405760   1.000000
     47         -4.388879   1.000000
     48         -4.336659   1.000000
     49         -4.210538   1.000000
     50         -4.178599   1.000000
     51         -4.126708   1.000000
     52         -4.115389   1.000000
     53         -4.065576   1.000000
     54         -4.046705   1.000000
     55         -4.029857   1.000000
     56         -3.825398   1.000000
     57         -3.735864   1.000000
     58         -3.735577   1.000000
     59         -3.673753   1.000000
     60         -3.656251   1.000000
     61         -3.620134   1.000000
     62         -3.582450   1.000000
     63         -3.580091   1.000000
     64         -3.551221   1.000000
     65         -3.531568   1.000000
     66         -3.527098   1.000000
     67         -3.500382   1.000000
     68         -3.445343   1.000000
     69         -3.394217   1.000000
     70         -3.366061   1.000000
     71         -3.361992   1.000000
     72         -3.354449   1.000000
     73         -3.294623   1.000000
     74         -3.270424   1.000000
     75         -3.269391   1.000000
     76         -3.185023   1.000000
     77         -3.165447   1.000000
     78         -3.158126   1.000000
     79         -3.133156   1.000000
     80         -3.087029   1.000000
     81         -3.066949   1.000000
     82         -3.065064   1.000000
     83         -3.048196   1.000000
     84         -2.991043   1.000000
     85         -2.964913   1.000000
     86         -2.964263   1.000000
     87         -2.933821   1.000000
     88         -2.931665   1.000000
     89         -2.907527   1.000000
     90         -2.904939   1.000000
     91         -2.868512   1.000000
     92         -2.833204   1.000000
     93         -2.801522   1.000000
     94         -2.787545   1.000000
     95         -2.775994   1.000000
     96         -2.760347   1.000000
     97         -2.736705   1.000000
     98         -2.725210   1.000000
     99         -2.710037   1.000000
    100         -2.693125   1.000000
    101         -2.614163   1.000000
    102         -2.563229   1.000000
    103         -2.551114   1.000000
    104         -2.540779   1.000000
    105         -2.520688   1.000000
    106         -2.509386   1.000000
    107         -2.501539   1.000000
    108         -2.494429   1.000000
    109         -2.449246   1.000000
    110         -2.436460   1.000000
    111         -2.433220   1.000000
    112         -2.422691   1.000000
    113         -2.164262   1.000000
    114         -2.076883   1.000000
    115         -2.043721   1.000000
    116         -2.030675   1.000000
    117         -2.004442   1.000000
    118         -1.992623   1.000000
    119         -1.980685   1.000000
    120         -1.949141   1.000000
    121         -1.936635   1.000000
    122         -1.901365   1.000000
    123         -1.820163   1.000000
    124         -1.789263   1.000000
    125         -1.713966   1.000000
    126         -1.660296   1.000000
    127         -1.653818   1.000000
    128         -1.611399   1.000000
    129         -1.610777   1.000000
    130         -1.570948   1.000000
    131         -1.558665   1.000000
    132         -1.536655   1.000000
    133         -1.534825   1.000000
    134         -1.440482   1.000000
    135         -1.404337   1.000000
    136         -1.398337   1.000000
    137         -1.379636   1.000000
    138         -1.377530   1.000000
    139         -1.212860   1.000000
    140         -1.207854   1.000000
    141         -1.187441   1.000000
    142         -1.171597   1.000000
    143         -1.157028   1.000000
    144         -1.145290   1.000000
    145         -1.115584   1.000000
    146         -1.054198   1.000000
    147         -1.047476   1.000000
    148         -1.021786   1.000000
    149         -0.993344   1.000000
    150         -0.982122   1.000000
    151         -0.933479   1.000000
    152         -0.920730   1.000000
    153         -0.906655   1.000000
    154         -0.905592   1.000000
    155         -0.813626   1.000000
    156         -0.803305   1.000000
    157         -0.770692   1.000000
    158         -0.759105   1.000000
    159         -0.713004   1.000000
    160         -0.673524   1.000000
    161         -0.668939   1.000000
    162         -0.621013   1.000000
    163         -0.612264   1.000000
    164         -0.610490   1.000000
    165         -0.568358   1.000000
    166         -0.546862   1.000000
    167         -0.485904   1.000000
    168         -0.477334   1.000000
    169         -0.412981   1.000010
    170         -0.408950   1.000013
    171         -0.391715   1.000038
    172         -0.376565   1.000090
    173         -0.363474   1.000184
    174         -0.350513   1.000360
    175         -0.349015   1.000388
    176         -0.339631   1.000614
    177         -0.326734   1.001116
    178         -0.277603   1.007568
    179         -0.276597   1.007821
    180         -0.133688   0.909757
    181         -0.127328   0.877746
    182         -0.101528   0.709050
    183         -0.081376   0.546116
    184         -0.063073   0.392285
    185         -0.061919   0.382809
    186         -0.029692   0.151329
    187         -0.013691   0.070244
    188          0.005619   0.006126
    189          0.010173  -0.004031
    190          0.081513  -0.024255
    191          0.103228  -0.014762
    192          0.127883  -0.007057
    193          0.200571  -0.000327
    194          0.293647  -0.000001
    195          0.298331  -0.000001
    196          0.309968  -0.000000
    197          0.348674  -0.000000
    198          0.709122  -0.000000
    199          0.747368  -0.000000
    200          1.251952  -0.000000
    201          1.449321  -0.000000
    202          1.479681  -0.000000
    203          1.602076  -0.000000
    204          2.356153  -0.000000
    205          2.851403   0.000000
    206          2.907533   0.000000
    207          3.515350   0.000000
    208          3.649047   0.000000
    209          3.680078   0.000000
    210          3.734570   0.000000
    211          3.941277   0.000000
    212          4.402416   0.000000
    213          4.603614   0.000000
    214          4.731079   0.000000
    215          4.976474   0.000000
    216          4.997978   0.000000
    217          5.006290   0.000000
    218          5.233524   0.000000
    219          5.336186   0.000000
    220          5.453842   0.000000
    221          5.595477   0.000000
    222          5.700236   0.000000
    223          5.869747   0.000000
    224          5.893680   0.000000
    225          6.100661   0.000000
    226          6.262532   0.000000
    227          6.287307   0.000000
    228          6.338176   0.000000
    229          6.349970   0.000000
    230          6.622390   0.000000
    231          6.668490   0.000000
    232          6.745281   0.000000
    233          6.783266   0.000000
    234          6.809501   0.000000
    235          6.949474   0.000000
    236          7.050883   0.000000
    237          7.236001   0.000000
    238          7.462835   0.000000
    239          7.572086   0.000000
    240          7.606513   0.000000
 
  0.1276756E-14  0.2000000E+00  0.1276756E-14  0.8000000E-01
      1         -8.754355   1.000000
      2         -7.665108   1.000000
      3         -7.028282   1.000000
      4         -6.920276   1.000000
      5         -6.561120   1.000000
      6         -6.552554   1.000000
      7         -6.361020   1.000000
      8         -6.261787   1.000000
      9         -6.229930   1.000000
     10         -6.212971   1.000000
     11         -6.123801   1.000000
     12         -6.008103   1.000000
     13         -5.979330   1.000000
     14         -5.849930   1.000000
     15         -5.831170   1.000000
     16         -5.825397   1.000000
     17         -5.745718   1.000000
     18         -5.539615   1.000000
     19         -5.425578   1.000000
     20         -5.418690   1.000000
     21         -5.404828   1.000000
     22         -5.390082   1.000000
     23         -5.335253   1.000000
     24         -5.302687   1.000000
     25         -5.276181   1.000000
     26         -5.228846   1.000000
     27         -5.223496   1.000000
     28         -5.208826   1.000000
     29         -5.159599   1.000000
     30         -5.120444   1.000000
     31         -5.111862   1.000000
     32         -5.035737   1.000000
     33         -5.018405   1.000000
     34         -5.012323   1.000000
     35         -5.008077   1.000000
     36         -4.874529   1.000000
     37         -4.812186   1.000000
     38         -4.785190   1.000000
     39         -4.768788   1.000000
     40         -4.753034   1.000000
     41         -4.571269   1.000000
     42         -4.500732   1.000000
     43         -4.494104   1.000000
     44         -4.454157   1.000000
     45         -4.416221   1.000000
     46         -4.394249   1.000000
     47         -4.388354   1.000000
     48         -4.314288   1.000000
     49         -4.212143   1.000000
     50         -4.173198   1.000000
     51         -4.127176   1.000000
     52         -4.108442   1.000000
     53         -4.072916   1.000000
     54         -4.049610   1.000000
     55         -4.038872   1.000000
     56         -3.836423   1.000000
     57         -3.738789   1.000000
     58         -3.733683   1.000000
     59         -3.686766   1.000000
     60         -3.662310   1.000000
     61         -3.622487   1.000000
     62         -3.589542   1.000000
     63         -3.560506   1.000000
     64         -3.553046   1.000000
     65         -3.535297   1.000000
     66         -3.523780   1.000000
     67         -3.472827   1.000000
     68         -3.451005   1.000000
     69         -3.411173   1.000000
     70         -3.376566   1.000000
     71         -3.361270   1.000000
     72         -3.345134   1.000000
     73         -3.269172   1.000000
     74         -3.259483   1.000000
     75         -3.237685   1.000000
     76         -3.183547   1.000000
     77         -3.179176   1.000000
     78         -3.159898   1.000000