 running   48 mpi-ranks, on    1 nodes
 distrk:  each k-point on   48 cores,    1 groups
 distr:  one band on    1 cores,   48 groups
 vasp.6.4.2 20Jul23 (build Mar 01 2024 16:46:03) complex                        
  
 POSCAR found type information on POSCAR PtH 
 POSCAR found :  2 types and      37 ions
 Reading from existing POTCAR
 scaLAPACK will be used
 -----------------------------------------------------------------------------
|                                                                             |
|           W    W    AA    RRRRR   N    N  II  N    N   GGGG   !!!           |
|           W    W   A  A   R    R  NN   N  II  NN   N  G    G  !!!           |
|           W    W  A    A  R    R  N N  N  II  N N  N  G       !!!           |
|           W WW W  AAAAAA  RRRRR   N  N N  II  N  N N  G  GGG   !            |
|           WW  WW  A    A  R   R   N   NN  II  N   NN  G    G                |
|           W    W  A    A  R    R  N    N  II  N    N   GGGG   !!!           |
|                                                                             |
|     For optimal performance we recommend to set                             |
|       NCORE = 2 up to number-of-cores-per-socket                            |
|     NCORE specifies how many cores store one orbital (NPAR=cpu/NCORE).      |
|     This setting can greatly improve the performance of VASP for DFT.       |
|     The default, NCORE=1 might be grossly inefficient on modern             |
|     multi-core architectures or massively parallel machines. Do your        |
|     own testing! More info at https://www.vasp.at/wiki/index.php/NCORE      |
|     Unfortunately you need to use the default for GW and RPA                |
|     calculations (for HF NCORE is supported but not extensively tested      |
|     yet).                                                                   |
|                                                                             |
 -----------------------------------------------------------------------------


     **************************************************************************
     Initializing libbeef V0.1.3 with the BEEF-vdW functional.
     Citation: Wellendorff et al., PRB 85, 235149 (2012).
     **************************************************************************

 -----------------------------------------------------------------------------
|                                                                             |
|               ----> ADVICE to this user running VASP <----                  |
|                                                                             |
|     You have switched on vdW-DFT.                                           |
|     This routine was written and supplied by Jiri Klimes. We recommend      |
|     that you carefully read and cite the following publications:            |
|       J. Klimes, D.R. Bowler, A. Michelides                                 |
|          J. Phys.: Cond Matt. 22 022201 (2010)                              |
|       J. Klimes, D.R. Bowler, A. Michelides                                 |
|          Phys. Rev. B. 83, 195131 (2011)                                    |
|     and references therein.                                                 |
|                                                                             |
 -----------------------------------------------------------------------------

 Reading from existing POTCAR
 -----------------------------------------------------------------------------
|                                                                             |
|               ----> ADVICE to this user running VASP <----                  |
|                                                                             |
|     You enforced a specific xc type in the INCAR file but a different       |
|     type was found in the POTCAR file.                                      |
|     I HOPE YOU KNOW WHAT YOU ARE DOING!                                     |
|                                                                             |
 -----------------------------------------------------------------------------

 LDA part: xc-table for Pade appr. of Perdew
 found WAVECAR, reading the header
 POSCAR, INCAR and KPOINTS ok, starting setup
 FFT: planning ... GRIDC
 FFT: planning ... GRID_SOFT
 FFT: planning ... GRID
 reading WAVECAR
 the WAVECAR file was read successfully
 initial charge from wavefunction
 entering main loop
       N       E                     dE             d eps       ncg     rms          rms(c)
Total vdW correction in eV:     52.0094346
DAV:   1    -0.104541480374E+03   -0.10454E+03   -0.32664E-02  6960   0.322E-01    0.716E-01
Total vdW correction in eV:     52.0090424
RMM:   2    -0.104603364415E+03   -0.61884E-01   -0.47590E-02  6501   0.356E-01    0.313E+00
Total vdW correction in eV:     52.0091322
RMM:   3    -0.104553094295E+03    0.50270E-01   -0.23195E-02  6812   0.282E-01    0.131E+00
Total vdW correction in eV:     52.0091010
RMM:   4    -0.104538027520E+03    0.15067E-01   -0.27948E-03  6541   0.866E-02    0.125E-01
Total vdW correction in eV:     52.0090215
RMM:   5    -0.104537879399E+03    0.14812E-03   -0.44331E-04  6753   0.341E-02    0.959E-02
Total vdW correction in eV:     52.0089389
RMM:   6    -0.104537846260E+03    0.33139E-04   -0.84640E-05  6588   0.148E-02    0.590E-02
Total vdW correction in eV:     52.0089132
RMM:   7    -0.104537841026E+03    0.52337E-05   -0.28223E-05  5090   0.838E-03
Total vdW correction in eV:     52.0090796
Total vdW correction in eV:     52.0089106
   1 F= -.10453784E+03 E0= -.10450648E+03  d E =-.940760E-01
 writing wavefunctions
