unknown system                          
           1
     8.468310    0.000000    0.000000
     4.234155    7.333772    0.000000
     0.000000    0.000000   24.965662
   Pt   H 
    36     1
Direct configuration=     1
   0.00000000  0.00000000  0.34046764
   0.33400137  0.00000000  0.34046764
   0.66800274  0.00000000  0.34046764
   0.00000000  0.33400137  0.34046764
   0.33400137  0.33400137  0.34046764
   0.66800274  0.33400137  0.34046764
   0.00000000  0.66800274  0.34046764
   0.33400137  0.66800274  0.34046764
   0.66800274  0.66800274  0.34046764
   0.11133379  0.11133379  0.43297074
   0.44533516  0.11133379  0.43297074
   0.77933653  0.11133379  0.43297074
   0.11133379  0.44533516  0.43297074
   0.44533516  0.44533516  0.43297074
   0.77933653  0.44533516  0.43297074
   0.11133379  0.77933653  0.43297074
   0.44533516  0.77933653  0.43297074
   0.77933653  0.77933653  0.43297074
   0.89130283  0.22495235  0.52489343
   0.22404634  0.22414234  0.52564239
   0.55760097  0.22432014  0.52430817
   0.89136472  0.55647214  0.52503929
   0.22422787  0.55769302  0.52430694
   0.55755792  0.55774131  0.52433326
   0.89078735  0.89083373  0.52407502
   0.22467789  0.89154002  0.52489774
   0.55632742  0.89143572  0.52504273
   0.00131264  0.00166197  0.61726170
   0.33905502  0.00076471  0.62076607
   0.67052001  0.00297874  0.61759824
   0.00040979  0.33942783  0.62076452
   0.33931501  0.33958824  0.61823715
   0.66978678  0.33639914  0.61768627
   0.00267880  0.67087566  0.61760518
   0.33617145  0.67003835  0.61767433
   0.66968143  0.66989060  0.61780850
   0.19659410  0.19683301  0.65912695
