
     Program PWSCF v.7.1 starts on 27Jan2025 at 12:21:49 
        Git branch: heads/qe-7.1
        Last git commit: 48ba0178f8fede6d020eb786884699a9f063f55d-dirty
        Last git commit date: Fri Jan 27 14:22:33 2023 +0000
        Last git commit subject: Merge branch 'fix_hubbard' into 'develop'

     This program is part of the open-source Quantum ESPRESSO suite
     for quantum simulation of materials; please cite
         "P. Giannozzi et al., J. Phys.:Condens. Matter 21 395502 (2009);
         "P. Giannozzi et al., J. Phys.:Condens. Matter 29 465901 (2017);
         "P. Giannozzi et al., J. Chem. Phys. 152 154105 (2020);
          URL http://www.quantum-espresso.org", 
     in publications or presentations arising from this work. More details at
     http://www.quantum-espresso.org/quote

     Parallel version (MPI), running on    48 processors

     MPI processes distributed on     1 nodes
     278403 MiB available memory on the printing compute node when the environment starts

     Reading input from espresso.pwi
Warning: card &CELL ignored
Warning: card / ignored
Warning: card &FCP ignored
Warning: card / ignored
Warning: card &RISM ignored
Warning: card / ignored

     Current dimensions of program PWSCF are:
     Max number of different atomic species (ntypx) = 10
     Max number of k-points (npk) =  40000
     Max angular momentum in pseudopotentials (lmaxx) =  4
     file Pt.pbe-n-kjpaw_psl.1.0.0.UPF: wavefunction(s)  6S 5D renormalized
     file H.pbe-kjpaw_psl.1.0.0.UPF: wavefunction(s)  1S renormalized

     **************************************************************************
     Initializing libbeef V0.1.2 with the BEEF-vdW functional.
     Citation: Wellendorff et al., PRB 85, 235149 (2012).
     **************************************************************************


     IMPORTANT: XC functional enforced from input :
     Exchange-correlation= BEEF-VDW
                           (   1   4  43  14   2   0   0)
     Any further DFT definition will be discarded
     Please, verify this is what you really want


     R & G space division:  proc/nbgrp/npool/nimage =      48
     Subspace diagonalization in iterative solution of the eigenvalue problem:
     one sub-group per band group will be used
     custom distributed-memory algorithm (size of sub-group:  2*  2 procs)


     Parallelization info
     --------------------
     sticks:   dense  smooth     PW     G-vecs:    dense   smooth      PW
     Min         150      59     16                30552     7447    1068
     Max         151      60     17                30571     7456    1081
     Sum        7243    2839    769              1467143   357639   51591

     Using Slab Decomposition



     bravais-lattice index     =            0
     lattice parameter (alat)  =      16.0028  a.u.
     unit-cell volume          =   10463.1828 (a.u.)^3
     number of atoms/cell      =           37
     number of atomic types    =            2
     number of electrons       =       361.00
     number of Kohn-Sham states=          217
     kinetic-energy cutoff     =      40.0000  Ry
     charge density cutoff     =     410.0000  Ry
     scf convergence threshold =      1.0E-06
     mixing beta               =       0.7000
     number of iterations used =            8  local-TF  mixing
     Exchange-correlation= BEEF-VDW
                           (   1   4  43  14   2   0   0)

     celldm(1)=  16.002787  celldm(2)=   0.000000  celldm(3)=   0.000000
     celldm(4)=   0.000000  celldm(5)=   0.000000  celldm(6)=   0.000000

     crystal axes: (cart. coord. in units of alat)
               a(1) = (   1.000000   0.000000   0.000000 )  
               a(2) = (   0.500000   0.866025   0.000000 )  
               a(3) = (   0.000000   0.000000   2.948128 )  

     reciprocal axes: (cart. coord. in units 2 pi/alat)
               b(1) = (  1.000000 -0.577350  0.000000 )  
               b(2) = (  0.000000  1.154701  0.000000 )  
               b(3) = (  0.000000  0.000000  0.339198 )  


     PseudoPot. # 1 for Pt read from file:
     /users/kbadger1/espresso/pseudo/pslibrary.1.0.0/pbe/PSEUDOPOTENTIALS/Pt.pbe-n-kjpaw_psl.1.0.0.UPF
     MD5 check sum: 2e24a0b5bf98a4ed1a57fa81bca8c143
     Pseudo is Projector augmented-wave + core cor, Zval = 10.0
     Generated using 'atomic' code by A. Dal Corso  v.7.0
     Shape of augmentation charge: PSQ
     Using radial grid of 1277 points,  6 beta functions with: 
                l(1) =   0
                l(2) =   0
                l(3) =   1
                l(4) =   1
                l(5) =   2
                l(6) =   2
     Q(r) pseudized with 0 coefficients 


     PseudoPot. # 2 for H  read from file:
     /users/kbadger1/espresso/pseudo/pslibrary.1.0.0/pbe/PSEUDOPOTENTIALS/H.pbe-kjpaw_psl.1.0.0.UPF
     MD5 check sum: fe4c6fa958fa6d3815bf5d2419cbf1df
     Pseudo is Projector augmented-wave, Zval =  1.0
     Generated using 'atomic' code by A. Dal Corso  v.7.0
     Shape of augmentation charge: PSQ
     Using radial grid of  929 points,  2 beta functions with: 
                l(1) =   0
                l(2) =   0
     Q(r) pseudized with 0 coefficients 


     atomic species   valence    mass     pseudopotential
        Pt            10.00   195.08400     Pt( 1.00)
        H              1.00     1.00800     H ( 1.00)

     No symmetry found



   Cartesian axes

     site n.     atom                  positions (alat units)
         1           Pt  tau(   1) = (   0.0000000   0.0000000   1.0037422  )
         2           Pt  tau(   2) = (   0.3340014   0.0000000   1.0037422  )
         3           Pt  tau(   3) = (   0.6680027   0.0000000   1.0037422  )
         4           Pt  tau(   4) = (   0.1670007   0.2892537   1.0037422  )
         5           Pt  tau(   5) = (   0.5010021   0.2892537   1.0037422  )
         6           Pt  tau(   6) = (   0.8350034   0.2892537   1.0037422  )
         7           Pt  tau(   7) = (   0.3340014   0.5785073   1.0037422  )
         8           Pt  tau(   8) = (   0.6680027   0.5785073   1.0037422  )
         9           Pt  tau(   9) = (   1.0020041   0.5785073   1.0037422  )
        10           Pt  tau(  10) = (   0.1670007   0.0964179   1.2764532  )
        11           Pt  tau(  11) = (   0.5010021   0.0964179   1.2764532  )
        12           Pt  tau(  12) = (   0.8350034   0.0964179   1.2764532  )
        13           Pt  tau(  13) = (   0.3340014   0.3856716   1.2764532  )
        14           Pt  tau(  14) = (   0.6680027   0.3856716   1.2764532  )
        15           Pt  tau(  15) = (   1.0020041   0.3856716   1.2764532  )
        16           Pt  tau(  16) = (   0.5010021   0.6749252   1.2764532  )
        17           Pt  tau(  17) = (   0.8350034   0.6749252   1.2764532  )
        18           Pt  tau(  18) = (   1.1690048   0.6749252   1.2764532  )
        19           Pt  tau(  19) = (   0.0026432   0.1940613   1.5476349  )
        20           Pt  tau(  20) = (   0.3348790   0.1934447   1.5489060  )
        21           Pt  tau(  21) = (   0.6685763   0.1936762   1.5462516  )
        22           Pt  tau(  22) = (   0.1685051   0.4814750   1.5479224  )
        23           Pt  tau(  23) = (   0.5019316   0.4823136   1.5462607  )
        24           Pt  tau(  24) = (   0.8353578   0.4823948   1.5461566  )
        25           Pt  tau(  25) = (   0.3352260   0.7709925   1.5459383  )
        26           Pt  tau(  26) = (   0.6692916   0.7714293   1.5476487  )
        27           Pt  tau(  27) = (   1.0011412   0.7713623   1.5479315  )
        28           Pt  tau(  28) = (   0.0010537   0.0008321   1.8209056  )
        29           Pt  tau(  29) = (   0.3379803  -0.0001226   1.8304412  )
        30           Pt  tau(  30) = (   0.6705333   0.0016764   1.8216566  )
        31           Pt  tau(  31) = (   0.1686853   0.2930909   1.8304328  )
        32           Pt  tau(  32) = (   0.5071683   0.2930434   1.8233778  )
        33           Pt  tau(  33) = (   0.8365708   0.2905942   1.8218557  )
        34           Pt  tau(  34) = (   0.3365211   0.5801912   1.8216440  )
        35           Pt  tau(  35) = (   0.6697497   0.5795156   1.8218836  )
        36           Pt  tau(  36) = (   1.0031189   0.5793627   1.8221815  )
        37           H   tau(  37) = (   0.2946998   0.1703717   1.9437126  )

     number of k points=    13  Marzari-Vanderbilt smearing, width (Ry)=  0.0200
                       cart. coord. in units 2pi/alat
        k(    1) = (   0.0000000   0.0000000   0.0000000), wk =   0.0800000
        k(    2) = (   0.0000000   0.2309401   0.0000000), wk =   0.1600000
        k(    3) = (   0.0000000   0.4618802   0.0000000), wk =   0.1600000
        k(    4) = (   0.2000000  -0.1154701   0.0000000), wk =   0.1600000
        k(    5) = (   0.2000000   0.1154701   0.0000000), wk =   0.1600000
        k(    6) = (   0.2000000   0.3464102   0.0000000), wk =   0.1600000
        k(    7) = (   0.2000000  -0.5773503   0.0000000), wk =   0.1600000
        k(    8) = (   0.2000000  -0.3464102   0.0000000), wk =   0.1600000
        k(    9) = (   0.4000000  -0.2309401   0.0000000), wk =   0.1600000
        k(   10) = (   0.4000000   0.0000000   0.0000000), wk =   0.1600000
        k(   11) = (   0.4000000   0.2309401   0.0000000), wk =   0.1600000
        k(   12) = (   0.4000000  -0.6928203   0.0000000), wk =   0.1600000
        k(   13) = (   0.4000000  -0.4618802   0.0000000), wk =   0.1600000

     Dense  grid:  1467143 G-vectors     FFT dimensions: ( 108, 108, 320)

     Smooth grid:   357639 G-vectors     FFT dimensions: (  72,  72, 192)

     Estimated max dynamical RAM per process >     211.30 MB

     Estimated total dynamical RAM >       9.90 GB

     Initial potential from superposition of free atoms

     starting charge     360.9939, renormalised to     361.0000

     negative rho (up, down):  3.570E-03 0.000E+00


     %%%%%%%%%%%%%%%%%%%%%%%%%%%%%%%%%%%%%%%%%%%%%%%%%%%%%%%%%%%%%%%%%%%%%%%%
     %                                                                      %
     % You are using vdW-DF, which was implemented by the Thonhauser group. %
     % Please cite the following two papers that made this development      %
     % possible and the two reviews that describe the various versions:     %
     %                                                                      %
     %   T. Thonhauser et al., PRL 115, 136402 (2015).                      %
     %   T. Thonhauser et al., PRB 76, 125112 (2007).                       %
     %   K. Berland et al., Rep. Prog. Phys. 78, 066501 (2015).             %
     %   D.C. Langreth et al., J. Phys.: Condens. Matter 21, 084203 (2009). %
     %                                                                      %
     % If you are calculating stress with vdW-DF, please also cite:         %
     %                                                                      %
     %   R. Sabatini et al., J. Phys.: Condens. Matter 24, 424209 (2012).   %
     %                                                                      %
     %%%%%%%%%%%%%%%%%%%%%%%%%%%%%%%%%%%%%%%%%%%%%%%%%%%%%%%%%%%%%%%%%%%%%%%%

     %%%%%%%%%%%%%%%%%%%%%%%%%%%%%%%%%%%%%%%%%%%%%%%%%%%%%%%%%%%%%%%%%%%%%%%%
     %                                                                      %
     %  vdW-DF NEWS:                                                        %
     %                                                                      %
     %  * vdW-DF3 is now available. DOI: 10.1021/acs.jctc.0c00471           %
     %    use with input_dft = 'vdW-DF3-opt1' or 'vdW-DF3-opt2'             %
     %                                                                      %
     %  * Unscreened and range-separated hybrid vdW-DF-cx functionals       %
     %    DOI: 10.1063/1.4986522 and 10.1088/1361-648X/ac2ad2               %
     %    use with input_dft = 'vdW-DF-cx0'    and 'vdW-DF-ahcx'            %
     %  * Unscreened and range-separated hybrid vdW-DF2-b86r functionals    %
     %    DOI: 10.1063/1.4986522 and DOI: 10.1103/PhysRevX.12.041003        %
     %    use with input_dft = 'vdW-DF2-br0' and 'vdW-DF2-ahbr'             %
     %                                                                      %
     %%%%%%%%%%%%%%%%%%%%%%%%%%%%%%%%%%%%%%%%%%%%%%%%%%%%%%%%%%%%%%%%%%%%%%%%


     Starting wfcs are  325 randomized atomic wfcs
     Checking if some PAW data can be deallocated... 

     total cpu time spent up to now is       13.4 secs

     per-process dynamical memory:   208.8 Mb

     Self-consistent Calculation

     iteration #  1     ecut=    40.00 Ry     beta= 0.70
     Davidson diagonalization with overlap
     ethr =  1.00E-02,  avg # of iterations =  2.0

     Threshold (ethr) on eigenvalues was too large:
     Diagonalizing with lowered threshold

     Davidson diagonalization with overlap
     ethr =  3.71E-04,  avg # of iterations =  3.6

     negative rho (up, down):  1.805E-02 0.000E+00

     total cpu time spent up to now is       48.4 secs

     total energy              =  -27755.29146086 Ry
     estimated scf accuracy    <       1.54672402 Ry

     iteration #  2     ecut=    40.00 Ry     beta= 0.70
     Davidson diagonalization with overlap
     ethr =  4.28E-04,  avg # of iterations =  2.0

     negative rho (up, down):  1.632E-02 0.000E+00

     total cpu time spent up to now is       61.0 secs

     total energy              =  -27755.38989888 Ry
     estimated scf accuracy    <       0.77358996 Ry

     iteration #  3     ecut=    40.00 Ry     beta= 0.70
     Davidson diagonalization with overlap
     ethr =  2.14E-04,  avg # of iterations =  2.0

     negative rho (up, down):  1.108E-02 0.000E+00

     total cpu time spent up to now is       77.3 secs

     total energy              =  -27755.44192414 Ry
     estimated scf accuracy    <       0.09119994 Ry

     iteration #  4     ecut=    40.00 Ry     beta= 0.70
     Davidson diagonalization with overlap
     c_bands:  2 eigenvalues not converged
     c_bands:  1 eigenvalues not converged
     c_bands:  1 eigenvalues not converged
     c_bands:  1 eigenvalues not converged
     ethr =  2.53E-05,  avg # of iterations = 14.6

     negative rho (up, down):  8.298E-03 0.000E+00

     total cpu time spent up to now is      113.6 secs

     total energy              =  -27755.48999228 Ry
     estimated scf accuracy    <       0.07874211 Ry

     iteration #  5     ecut=    40.00 Ry     beta= 0.70
     Davidson diagonalization with overlap
     c_bands:  1 eigenvalues not converged
     c_bands:  1 eigenvalues not converged
     c_bands:  1 eigenvalues not converged
     ethr =  2.18E-05,  avg # of iterations =  7.0

     negative rho (up, down):  4.073E-03 0.000E+00

     total cpu time spent up to now is      131.7 secs

     total energy              =  -27755.48989675 Ry
     estimated scf accuracy    <       0.02830772 Ry

     iteration #  6     ecut=    40.00 Ry     beta= 0.70
     Davidson diagonalization with overlap
     c_bands:  1 eigenvalues not converged
     ethr =  7.84E-06,  avg # of iterations =  6.5

     negative rho (up, down):  2.199E-03 0.000E+00

     total cpu time spent up to now is      147.6 secs

     total energy              =  -27755.49197480 Ry
     estimated scf accuracy    <       0.00239563 Ry

     iteration #  7     ecut=    40.00 Ry     beta= 0.70
     Davidson diagonalization with overlap
     c_bands:  1 eigenvalues not converged
     c_bands:  1 eigenvalues not converged
     ethr =  6.64E-07,  avg # of iterations = 11.8

     negative rho (up, down):  1.730E-03 0.000E+00

     total cpu time spent up to now is      176.8 secs

     total energy              =  -27755.49246156 Ry
     estimated scf accuracy    <       0.00184159 Ry

     iteration #  8     ecut=    40.00 Ry     beta= 0.70
     Davidson diagonalization with overlap
     ethr =  5.10E-07,  avg # of iterations =  1.9

     negative rho (up, down):  1.482E-03 0.000E+00

     total cpu time spent up to now is      194.4 secs

     total energy              =  -27755.49260245 Ry
     estimated scf accuracy    <       0.00019952 Ry

     iteration #  9     ecut=    40.00 Ry     beta= 0.70
     Davidson diagonalization with overlap
     ethr =  5.53E-08,  avg # of iterations =  5.3

     negative rho (up, down):  1.134E-03 0.000E+00

     total cpu time spent up to now is      221.3 secs

     total energy              =  -27755.49271330 Ry
     estimated scf accuracy    <       0.00007989 Ry

     iteration # 10     ecut=    40.00 Ry     beta= 0.70
     Davidson diagonalization with overlap
     ethr =  2.21E-08,  avg # of iterations =  4.2

     negative rho (up, down):  1.065E-03 0.000E+00

     total cpu time spent up to now is      246.9 secs

     total energy              =  -27755.49273362 Ry
     estimated scf accuracy    <       0.00007797 Ry

     iteration # 11     ecut=    40.00 Ry     beta= 0.70
     Davidson diagonalization with overlap
     ethr =  2.16E-08,  avg # of iterations =  1.5

     negative rho (up, down):  1.130E-03 0.000E+00

     total cpu time spent up to now is      258.6 secs

     total energy              =  -27755.49273734 Ry
     estimated scf accuracy    <       0.00004800 Ry

     iteration # 12     ecut=    40.00 Ry     beta= 0.70
     Davidson diagonalization with overlap
     ethr =  1.33E-08,  avg # of iterations =  1.3

     negative rho (up, down):  1.312E-03 0.000E+00

     total cpu time spent up to now is      270.7 secs

     total energy              =  -27755.49274047 Ry
     estimated scf accuracy    <       0.00001935 Ry

     iteration # 13     ecut=    40.00 Ry     beta= 0.70
     Davidson diagonalization with overlap
     ethr =  5.36E-09,  avg # of iterations =  2.3

     negative rho (up, down):  1.736E-03 0.000E+00

     total cpu time spent up to now is      287.2 secs

     total energy              =  -27755.49274246 Ry
     estimated scf accuracy    <       0.00001203 Ry

     iteration # 14     ecut=    40.00 Ry     beta= 0.70
     Davidson diagonalization with overlap
     ethr =  3.33E-09,  avg # of iterations =  2.0

     negative rho (up, down):  2.030E-03 0.000E+00

     total cpu time spent up to now is      300.0 secs

     total energy              =  -27755.49274540 Ry
     estimated scf accuracy    <       0.00000724 Ry

     iteration # 15     ecut=    40.00 Ry     beta= 0.70
     Davidson diagonalization with overlap
     ethr =  2.01E-09,  avg # of iterations =  1.4

     negative rho (up, down):  2.957E-03 0.000E+00

     total cpu time spent up to now is      316.7 secs

     total energy              =  -27755.49274186 Ry
     estimated scf accuracy    <       0.00000663 Ry

     iteration # 16     ecut=    40.00 Ry     beta= 0.70
     Davidson diagonalization with overlap
     ethr =  1.84E-09,  avg # of iterations =  1.8

     negative rho (up, down):  3.360E-03 0.000E+00

     total cpu time spent up to now is      329.0 secs

     End of self-consistent calculation

          k = 0.0000 0.0000 0.0000 ( 44645 PWs)   bands (ev):

    -6.6540  -5.5328  -4.8058  -4.2456  -4.2236  -4.2039  -4.2034  -4.1948
    -4.1942  -4.1799  -3.8969  -3.6669  -3.6641  -3.6490  -3.6453  -3.6399
    -3.5799  -3.1990  -3.1935  -3.1935  -3.1847  -3.1834  -3.0777  -2.9724
    -2.9701  -2.9698  -2.9629  -2.9602  -2.8661  -2.7618  -2.7517  -2.7516
    -2.7451  -2.7448  -2.7150  -2.7066  -2.7001  -2.6925  -2.6692  -2.6635
    -2.2687  -2.1243  -2.1220  -2.0902  -2.0752  -2.0595  -2.0530  -2.0385
    -2.0231  -2.0203  -1.9120  -1.8834  -1.8816  -1.7782  -1.7688  -1.3276
    -1.3186  -1.3086  -1.3072  -1.2952  -1.2474  -1.2175  -1.1163  -1.1162
    -1.1156  -1.1137  -1.1008  -1.0983  -1.0883  -1.0597  -1.0508  -1.0437
    -1.0397  -1.0346  -1.0105  -1.0016  -0.9978  -0.9041  -0.8955  -0.8821
    -0.8804  -0.8747  -0.8462  -0.6878  -0.6740  -0.6664  -0.6653  -0.6530
    -0.6469  -0.6277  -0.6265  -0.5612  -0.5456  -0.5208  -0.5040  -0.4659
    -0.4642  -0.4241  -0.4235  -0.4135  -0.3331  -0.2703  -0.2603  -0.2530
    -0.2493  -0.2408  -0.2286   0.0047   0.2376   0.2621   0.2649   0.2732
     0.2745   0.2850   0.2957   0.3038   0.3141   0.3165   0.3289   0.3806
     0.3897   0.4501   0.5299   0.5476   0.5550   0.5563   0.5679   0.6390
     0.6680   0.7221   0.7241   0.7266   0.7494   0.9689   0.9838   0.9948
     1.0095   1.0149   1.0150   1.0647   1.0859   1.2042   1.2164   1.2295
     1.2363   1.2409   1.2433   1.3861   1.3969   1.4139   1.4244   1.4310
     1.4412   1.4448   1.4480   1.4496   1.4528   1.4569   1.4618   1.5397
     1.5646   1.5762   1.5768   1.5958   1.6082   1.6243   1.6270   1.6760
     1.6830   1.6999   1.7116   1.7168   1.7351   1.7399   1.7408   1.8100
     1.8129   1.8249   1.8297   1.8395   1.8428   1.8780   1.9128   1.9213
     1.9337   1.9363   1.9486   1.9502   2.1372   2.1456   2.2372   2.2389
     2.2493   2.2554   2.2621   2.2654   2.7835   3.0886   3.0905   3.1208
     3.1467   3.1536   3.1560   5.0679   5.3931   5.4254   5.4591   5.4807
     5.4828   6.8782   7.0319   7.0812   7.1139   7.1178   7.1179   7.2140
     7.3325

          k = 0.0000 0.2309 0.0000 ( 44694 PWs)   bands (ev):

    -6.5063  -5.4069  -4.7743  -4.6688  -4.3137  -4.3038  -4.1034  -4.0098
    -3.9731  -3.9631  -3.8620  -3.7525  -3.7219  -3.5950  -3.5777  -3.5724
    -3.4897  -3.2829  -3.1604  -3.1560  -3.1403  -3.1271  -3.0704  -3.0398
    -3.0132  -2.9699  -2.9633  -2.9538  -2.8944  -2.8628  -2.8567  -2.7777
    -2.7627  -2.7469  -2.7385  -2.6035  -2.5399  -2.5239  -2.5153  -2.4877
    -2.3039  -2.2408  -2.2360  -2.1932  -2.1529  -2.1311  -2.1251  -2.0501
    -1.9445  -1.9065  -1.8633  -1.8469  -1.8052  -1.7852  -1.7750  -1.5711
    -1.4757  -1.4722  -1.4230  -1.4014  -1.3605  -1.3270  -1.3012  -1.2882
    -1.2711  -1.2621  -1.2092  -1.1912  -1.1508  -1.1097  -1.0982  -1.0811
    -1.0111  -1.0064  -0.9864  -0.9204  -0.9170  -0.8986  -0.8720  -0.8410
    -0.8291  -0.8111  -0.7776  -0.7245  -0.7022  -0.6939  -0.6847  -0.6740
    -0.6441  -0.6255  -0.5981  -0.5496  -0.5375  -0.5270  -0.5129  -0.4930
    -0.4612  -0.4485  -0.4292  -0.4160  -0.3521  -0.2896  -0.2706  -0.2484
    -0.2418  -0.2337  -0.2320  -0.2145  -0.1755  -0.1646  -0.1523  -0.1400
     0.0650   0.1869   0.2276   0.2515   0.2619   0.2681   0.2764   0.3088
     0.3232   0.4122   0.4722   0.4896   0.5515   0.6080   0.6147   0.6403
     0.6679   0.6819   0.7111   0.7306   0.7497   0.8329   0.8497   0.8652
     0.8762   0.8857   0.9921   1.0713   1.0949   1.1028   1.1114   1.1252
     1.1395   1.1964   1.2255   1.2587   1.2723   1.2830   1.3291   1.3432
     1.3676   1.3775   1.4445   1.4670   1.4868   1.5032   1.5336   1.6141
     1.6378   1.6421   1.6574   1.6734   1.6957   1.7169   1.7806   1.7922
     1.8416   1.8515   1.8611   1.8765   1.8973   1.9068   1.9193   1.9274
     1.9328   1.9859   1.9913   2.1245   2.1371   2.1514   2.1729   2.1838
     2.1893   2.2167   2.2434   2.2549   2.2732   2.3431   2.3795   2.4039
     2.4598   2.5612   2.5689   2.5825   2.6077   2.9398   3.0005   3.5072
     3.7244   3.7499   3.8614   4.6518   5.0528   5.1653   5.8198   5.9215
     5.9338   6.0104   6.2560   6.6998   6.8830   7.0375   7.2426   7.2928
     7.3103

          k = 0.0000 0.4619 0.0000 ( 44748 PWs)   bands (ev):

    -6.0818  -5.4505  -5.0824  -4.5747  -4.3462  -4.3288  -4.1363  -3.9848
    -3.8342  -3.7167  -3.6267  -3.6204  -3.5797  -3.4619  -3.4160  -3.4039
    -3.3981  -3.3824  -3.2515  -3.2320  -3.2302  -3.1847  -3.1792  -3.1612
    -3.0766  -3.0578  -3.0524  -3.0060  -2.7974  -2.7905  -2.7810  -2.7764
    -2.7639  -2.6768  -2.5410  -2.5333  -2.5205  -2.4956  -2.4755  -2.3877
    -2.2929  -2.2091  -2.2019  -2.1869  -2.1432  -2.1312  -2.0884  -2.0622
    -2.0465  -2.0134  -1.9869  -1.9462  -1.8304  -1.8240  -1.8006  -1.7253
    -1.6823  -1.6535  -1.6132  -1.6012  -1.5425  -1.4594  -1.4026  -1.3919
    -1.3847  -1.3365  -1.2914  -1.2836  -1.2242  -1.1546  -1.1449  -1.1310
    -1.0986  -1.0277  -1.0221  -0.9969  -0.9859  -0.9781  -0.9336  -0.9077
    -0.8948  -0.8899  -0.8743  -0.8583  -0.8457  -0.8333  -0.7902  -0.7323
    -0.7200  -0.7118  -0.6951  -0.6937  -0.6657  -0.5783  -0.5340  -0.5213
    -0.4802  -0.4696  -0.4545  -0.4282  -0.3896  -0.3800  -0.2915  -0.2576
    -0.2354  -0.2219  -0.1888  -0.1531  -0.1038  -0.0118   0.0063   0.0836
     0.1004   0.1566   0.1629   0.1954   0.2041   0.2105   0.2157   0.2735
     0.2938   0.3102   0.3224   0.3279   0.3581   0.3738   0.3915   0.4108
     0.4244   0.5458   0.5575   0.5718   0.6326   0.6550   0.7501   0.7686
     0.8362   0.8629   0.9066   0.9578   1.0246   1.0377   1.0885   1.0977
     1.1225   1.1369   1.1736   1.1946   1.2342   1.2382   1.3005   1.3319
     1.3483   1.3929   1.4087   1.4247   1.4328   1.4633   1.5605   1.6022
     1.6673   1.6850   1.7063   1.7166   1.7592   1.8076   1.8188   1.8767
     1.8892   1.9064   1.9152   1.9739   1.9981   2.0116   2.0206   2.1317
     2.1423   2.1547   2.1690   2.1729   2.1780   2.1953   2.2166   2.3911
     2.4054   2.4164   2.4270   2.4319   2.6001   2.6485   2.8312   3.0092
     3.0563   3.2575   3.4734   3.4876   3.7694   3.8680   3.9634   4.1674
     4.4595   4.7043   4.7129   4.7712   4.8963   4.9427   5.0270   5.0641
     5.3034   5.3594   5.8753   5.9734   6.3846   6.5208   6.8492   6.9826
     7.4251

          k = 0.2000-0.1155 0.0000 ( 44694 PWs)   bands (ev):

    -6.5063  -5.4069  -4.7745  -4.6689  -4.3134  -4.3037  -4.1034  -4.0103
    -3.9731  -3.9626  -3.8620  -3.7524  -3.7219  -3.5952  -3.5778  -3.5725
    -3.4897  -3.2827  -3.1604  -3.1560  -3.1405  -3.1272  -3.0703  -3.0398
    -3.0131  -2.9702  -2.9633  -2.9538  -2.8945  -2.8626  -2.8565  -2.7782
    -2.7627  -2.7469  -2.7383  -2.6036  -2.5399  -2.5240  -2.5151  -2.4873
    -2.3039  -2.2407  -2.2359  -2.1932  -2.1529  -2.1311  -2.1252  -2.0500
    -1.9443  -1.9064  -1.8634  -1.8468  -1.8052  -1.7853  -1.7751  -1.5706
    -1.4758  -1.4722  -1.4225  -1.4009  -1.3602  -1.3262  -1.3018  -1.2887
    -1.2715  -1.2623  -1.2093  -1.1912  -1.1505  -1.1097  -1.0978  -1.0808
    -1.0118  -1.0072  -0.9878  -0.9202  -0.9169  -0.8982  -0.8720  -0.8406
    -0.8287  -0.8094  -0.7783  -0.7247  -0.7028  -0.6942  -0.6847  -0.6739
    -0.6440  -0.6257  -0.5980  -0.5500  -0.5369  -0.5273  -0.5128  -0.4932
    -0.4614  -0.4486  -0.4293  -0.4162  -0.3521  -0.2896  -0.2703  -0.2485
    -0.2422  -0.2342  -0.2323  -0.2144  -0.1754  -0.1645  -0.1523  -0.1400
     0.0657   0.1873   0.2277   0.2512   0.2618   0.2678   0.2765   0.3086
     0.3230   0.4122   0.4722   0.4894   0.5511   0.6077   0.6146   0.6409
     0.6676   0.6816   0.7109   0.7304   0.7496   0.8329   0.8496   0.8654
     0.8762   0.8858   0.9920   1.0712   1.0948   1.1027   1.1114   1.1253
     1.1395   1.1964   1.2256   1.2589   1.2725   1.2831   1.3292   1.3434
     1.3676   1.3775   1.4445   1.4670   1.4869   1.5034   1.5334   1.6140
     1.6377   1.6421   1.6573   1.6731   1.6953   1.7170   1.7806   1.7923
     1.8415   1.8515   1.8610   1.8766   1.8971   1.9071   1.9193   1.9273
     1.9330   1.9855   1.9908   2.1243   2.1369   2.1517   2.1730   2.1840
     2.1897   2.2171   2.2438   2.2555   2.2734   2.3430   2.3795   2.4039
     2.4597   2.5615   2.5690   2.5824   2.6073   2.9403   3.0012   3.5070
     3.7243   3.7496   3.8613   4.6511   5.0532   5.1659   5.8198   5.9215
     5.9338   6.0106   6.2556   6.6996   6.8828   7.0365   7.2429   7.2933
     7.3104

          k = 0.2000 0.1155 0.0000 ( 44694 PWs)   bands (ev):

    -6.5073  -5.4169  -4.8145  -4.6278  -4.3146  -4.3087  -4.1040  -4.0171
    -3.9632  -3.9625  -3.8944  -3.7483  -3.6538  -3.5986  -3.5748  -3.5733
    -3.5378  -3.2787  -3.1577  -3.1535  -3.1446  -3.0925  -3.0689  -3.0294
    -3.0129  -2.9975  -2.9692  -2.9645  -2.8653  -2.8569  -2.8448  -2.7749
    -2.7623  -2.7422  -2.7335  -2.5806  -2.5377  -2.5243  -2.5156  -2.5011
    -2.2822  -2.2390  -2.2304  -2.1957  -2.1553  -2.1408  -2.1240  -2.0732
    -1.9445  -1.9122  -1.8642  -1.8519  -1.7996  -1.7824  -1.7635  -1.5660
    -1.4733  -1.4718  -1.4166  -1.3995  -1.3599  -1.3209  -1.3158  -1.2848
    -1.2731  -1.2555  -1.2370  -1.1861  -1.1358  -1.1073  -1.0962  -1.0934
    -1.0295  -1.0089  -1.0048  -0.9214  -0.9063  -0.8986  -0.8713  -0.8234
    -0.8118  -0.8106  -0.7889  -0.7167  -0.7059  -0.7029  -0.6758  -0.6755
    -0.6354  -0.6329  -0.5989  -0.5570  -0.5341  -0.5267  -0.5172  -0.4921
    -0.4674  -0.4465  -0.4366  -0.4241  -0.3514  -0.2854  -0.2744  -0.2651
    -0.2523  -0.2424  -0.2270  -0.2259  -0.1793  -0.1612  -0.1610  -0.1478
     0.0951   0.1846   0.2209   0.2358   0.2563   0.2686   0.2841   0.3170
     0.3272   0.3721   0.4557   0.4841   0.5527   0.6056   0.6124   0.6499
     0.6543   0.6753   0.7055   0.7301   0.7389   0.8389   0.8629   0.8652
     0.8806   0.8860   1.0545   1.0553   1.0926   1.0929   1.1076   1.1186
     1.1451   1.2069   1.2135   1.2426   1.2767   1.2780   1.3356   1.3473
     1.3626   1.3663   1.4517   1.4613   1.4951   1.5056   1.5545   1.6061
     1.6072   1.6458   1.6571   1.6586   1.6927   1.7215   1.7815   1.7892
     1.8441   1.8468   1.8681   1.8881   1.8961   1.9121   1.9169   1.9278
     1.9349   1.9831   1.9847   2.1240   2.1311   2.1507   2.1837   2.1930
     2.1942   2.2209   2.2611   2.2626   2.2777   2.3564   2.3787   2.4009
     2.4649   2.5617   2.5687   2.5810   2.6075   2.9589   2.9964   3.5170
     3.7109   3.7462   3.8681   4.6191   5.1082   5.1657   5.7917   5.9275
     5.9533   6.0031   6.2159   6.6837   6.8829   7.0204   7.2762   7.2952
     7.3098

          k = 0.2000 0.3464 0.0000 ( 44714 PWs)   bands (ev):

    -6.2216  -5.2379  -4.9708  -4.9540  -4.5570  -3.8934  -3.8900  -3.8835
    -3.8640  -3.8342  -3.8151  -3.7964  -3.7150  -3.6998  -3.5179  -3.3219
    -3.3101  -3.3031  -3.2954  -3.2290  -3.2076  -3.0765  -3.0654  -3.0626
    -3.0527  -2.9793  -2.9476  -2.9120  -2.9060  -2.9030  -2.8388  -2.8154
    -2.8002  -2.7433  -2.7346  -2.6473  -2.4925  -2.3858  -2.3113  -2.2890
    -2.2757  -2.2567  -2.2477  -2.2398  -2.1826  -2.1645  -2.1045  -2.0200
    -2.0032  -1.9855  -1.8960  -1.8692  -1.8267  -1.8201  -1.7915  -1.7301
    -1.7023  -1.5704  -1.5453  -1.5294  -1.4632  -1.4364  -1.4214  -1.4119
    -1.3918  -1.3490  -1.3259  -1.2057  -1.1956  -1.1715  -1.1630  -1.1246
    -1.0957  -1.0652  -1.0456  -1.0142  -0.9867  -0.9018  -0.8904  -0.8669
    -0.8508  -0.8477  -0.8271  -0.8029  -0.7857  -0.7640  -0.7389  -0.7320
    -0.7027  -0.6735  -0.5915  -0.5864  -0.5659  -0.5432  -0.5128  -0.5061
    -0.4886  -0.4524  -0.4393  -0.4325  -0.4262  -0.4179  -0.4080  -0.3909
    -0.3516  -0.3292  -0.2440  -0.2289  -0.1814  -0.1226  -0.0975  -0.0869
    -0.0728   0.1014   0.1222   0.1402   0.2280   0.2398   0.2786   0.2856
     0.3156   0.3249   0.3656   0.3759   0.4013   0.4167   0.4311   0.5053
     0.6057   0.6399   0.6729   0.6809   0.7093   0.7284   0.7538   0.8031
     0.8706   0.8967   0.9262   0.9843   0.9899   1.0303   1.0744   1.1187
     1.1318   1.1450   1.1930   1.2129   1.2208   1.2381   1.2484   1.2529
     1.2734   1.2780   1.2900   1.3927   1.4354   1.4848   1.6060   1.6222
     1.6456   1.7677   1.7858   1.8023   1.8076   1.8746   1.9106   1.9307
     1.9406   1.9615   1.9830   1.9950   2.0080   2.0105   2.0223   2.0609
     2.0763   2.0973   2.1660   2.1911   2.2046   2.2309   2.2407   2.2815
     2.4099   2.4309   2.4721   2.4826   2.5369   2.5498   2.5655   2.6608
     2.7093   3.0196   3.2199   3.2420   3.6329   3.7707   3.7802   3.7882
     4.2598   4.4671   4.4869   4.6708   4.7236   4.7433   5.3660   5.7741
     5.8902   5.9187   6.1101   6.3446   6.6262   6.6706   6.6821   6.7186
     6.7330

          k = 0.2000-0.5774 0.0000 ( 44692 PWs)   bands (ev):

    -5.7043  -5.6649  -5.1223  -4.8887  -4.4362  -4.2065  -3.8841  -3.8384
    -3.7463  -3.7040  -3.6041  -3.5955  -3.4964  -3.4910  -3.3995  -3.3839
    -3.3696  -3.3361  -3.3278  -3.3105  -3.1977  -3.1661  -3.1629  -3.1367
    -3.1142  -3.1075  -3.0391  -2.9733  -2.9088  -2.8130  -2.7738  -2.7635
    -2.7435  -2.7211  -2.6904  -2.6455  -2.5240  -2.5099  -2.4256  -2.3328
    -2.3187  -2.2647  -2.1903  -2.1816  -2.1264  -2.0798  -2.0098  -1.9554
    -1.9285  -1.9136  -1.8956  -1.8500  -1.8440  -1.8094  -1.7225  -1.7056
    -1.6868  -1.6746  -1.6678  -1.6645  -1.6113  -1.5944  -1.5541  -1.4756
    -1.4228  -1.3943  -1.3837  -1.2997  -1.2674  -1.2373  -1.2068  -1.1803
    -1.1663  -1.1376  -1.0883  -1.0758  -1.0557  -1.0313  -1.0016  -0.9521
    -0.9418  -0.9080  -0.8364  -0.8279  -0.8158  -0.8065  -0.7373  -0.6669
    -0.6445  -0.6229  -0.6153  -0.5954  -0.5574  -0.5448  -0.5381  -0.5098
    -0.4932  -0.4894  -0.4705  -0.4409  -0.4189  -0.4031  -0.3930  -0.3841
    -0.3779  -0.3721  -0.3328  -0.3010  -0.2719  -0.0996  -0.0606   0.0112
     0.0301   0.0716   0.1283   0.1434   0.1581   0.1750   0.2114   0.2292
     0.2407   0.2504   0.3276   0.3524   0.3804   0.4018   0.4421   0.4597
     0.5127   0.5296   0.5754   0.7090   0.7360   0.7773   0.7890   0.8075
     0.8553   0.8754   0.9103   0.9223   0.9377   0.9502   0.9663   0.9782
     1.0745   1.0955   1.1078   1.1328   1.1608   1.1944   1.2101   1.2277
     1.2315   1.3710   1.3957   1.4506   1.5229   1.5438   1.6195   1.6356
     1.6810   1.7386   1.7599   1.7669   1.8448   1.8567   1.9376   1.9588
     1.9787   1.9848   1.9951   2.0179   2.0362   2.0842   2.1436   2.1515
     2.1752   2.1898   2.2004   2.2060   2.2116   2.2852   2.3839   2.4148
     2.4223   2.4287   2.4349   2.4961   2.5196   2.6230   2.7395   3.4249
     3.5959   3.6114   3.7672   3.8312   3.9146   3.9802   3.9844   4.3100
     4.5648   4.6096   4.7964   5.0456   5.0694   5.1636   5.2033   5.3531
     5.4605   5.5282   5.5661   5.8367   5.9861   6.0295   6.4610   6.6693
     6.7002

          k = 0.2000-0.3464 0.0000 ( 44714 PWs)   bands (ev):

    -6.2186  -5.2098  -4.9728  -4.9524  -4.5568  -3.8923  -3.8855  -3.8838
    -3.8695  -3.8351  -3.8229  -3.7946  -3.7140  -3.7001  -3.5421  -3.3086
    -3.3067  -3.3000  -3.2894  -3.2264  -3.2061  -3.0722  -3.0686  -3.0575
    -3.0555  -3.0092  -2.9512  -2.9136  -2.9117  -2.9020  -2.8639  -2.8175
    -2.7968  -2.7580  -2.7407  -2.6416  -2.5895  -2.4022  -2.3167  -2.2950
    -2.2624  -2.2524  -2.2433  -2.2390  -2.1846  -2.1555  -2.1133  -2.0142
    -1.9997  -1.9574  -1.8932  -1.8509  -1.8279  -1.8132  -1.7923  -1.7309
    -1.7080  -1.5637  -1.5486  -1.5364  -1.4705  -1.4383  -1.4252  -1.4093
    -1.3679  -1.3525  -1.3345  -1.2026  -1.1873  -1.1696  -1.1555  -1.1311
    -1.1028  -1.0606  -1.0225  -1.0211  -0.9899  -0.9084  -0.8857  -0.8695
    -0.8538  -0.8447  -0.8200  -0.7998  -0.7782  -0.7688  -0.7268  -0.7145
    -0.6920  -0.6545  -0.5848  -0.5784  -0.5571  -0.5384  -0.5211  -0.5044
    -0.4835  -0.4488  -0.4379  -0.4215  -0.4212  -0.4175  -0.4127  -0.3910
    -0.3634  -0.3205  -0.2396  -0.2134  -0.1783  -0.1420  -0.0986  -0.0791
    -0.0738   0.1064   0.1142   0.1780   0.2331   0.2501   0.2692   0.2921
     0.2972   0.3195   0.3603   0.3792   0.4019   0.4143   0.4341   0.4996
     0.5779   0.6419   0.6737   0.6801   0.7092   0.7360   0.7707   0.8041
     0.8653   0.8960   0.9197   0.9463   1.0056   1.0211   1.0724   1.1260
     1.1407   1.1502   1.1912   1.1969   1.2289   1.2342   1.2467   1.2611
     1.2724   1.2785   1.2965   1.3970   1.4528   1.4887   1.6032   1.6180
     1.6469   1.7487   1.7993   1.8025   1.8039   1.8896   1.9162   1.9245
     1.9476   1.9655   1.9863   1.9906   2.0110   2.0151   2.0256   2.0634
     2.0781   2.0870   2.1681   2.1963   2.2000   2.2319   2.2402   2.2831
     2.4057   2.4455   2.4610   2.4745   2.5314   2.5512   2.5688   2.6862
     2.7077   2.9825   3.1957   3.2525   3.5876   3.7713   3.7817   3.7871
     4.2684   4.4722   4.4845   4.6433   4.7170   4.7478   5.3431   5.7491
     5.9070   5.9198   6.1545   6.3720   6.6328   6.6628   6.6910   6.7238
     6.7308

          k = 0.4000-0.2309 0.0000 ( 44748 PWs)   bands (ev):

    -6.0818  -5.4506  -5.0824  -4.5747  -4.3461  -4.3287  -4.1364  -3.9852
    -3.8342  -3.7167  -3.6267  -3.6200  -3.5799  -3.4621  -3.4160  -3.4040
    -3.3982  -3.3826  -3.2517  -3.2319  -3.2300  -3.1850  -3.1793  -3.1613
    -3.0767  -3.0577  -3.0523  -3.0061  -2.7972  -2.7904  -2.7809  -2.7762
    -2.7636  -2.6767  -2.5408  -2.5332  -2.5204  -2.4955  -2.4753  -2.3875
    -2.2929  -2.2091  -2.2019  -2.1869  -2.1433  -2.1312  -2.0885  -2.0615
    -2.0467  -2.0137  -1.9870  -1.9461  -1.8301  -1.8238  -1.8004  -1.7252
    -1.6820  -1.6525  -1.6127  -1.6009  -1.5422  -1.4593  -1.4025  -1.3922
    -1.3850  -1.3368  -1.2911  -1.2838  -1.2244  -1.1549  -1.1461  -1.1319
    -1.0990  -1.0272  -1.0220  -0.9969  -0.9856  -0.9781  -0.9334  -0.9073
    -0.8944  -0.8898  -0.8742  -0.8582  -0.8463  -0.8334  -0.7902  -0.7321
    -0.7198  -0.7116  -0.6946  -0.6938  -0.6661  -0.5779  -0.5341  -0.5219
    -0.4811  -0.4700  -0.4540  -0.4284  -0.3905  -0.3810  -0.2917  -0.2577
    -0.2352  -0.2220  -0.1891  -0.1531  -0.1040  -0.0119   0.0066   0.0836
     0.1005   0.1566   0.1629   0.1958   0.2047   0.2108   0.2157   0.2737
     0.2939   0.3103   0.3222   0.3275   0.3580   0.3734   0.3908   0.4105
     0.4251   0.5454   0.5571   0.5716   0.6325   0.6548   0.7498   0.7682
     0.8362   0.8628   0.9069   0.9582   1.0246   1.0377   1.0881   1.0972
     1.1226   1.1373   1.1737   1.1947   1.2345   1.2385   1.3005   1.3321
     1.3485   1.3931   1.4090   1.4246   1.4328   1.4626   1.5603   1.6020
     1.6672   1.6849   1.7062   1.7165   1.7591   1.8076   1.8189   1.8765
     1.8891   1.9062   1.9151   1.9741   1.9975   2.0110   2.0206   2.1314
     2.1425   2.1548   2.1691   2.1731   2.1780   2.1960   2.2171   2.3911
     2.4055   2.4172   2.4273   2.4327   2.6000   2.6485   2.8312   3.0100
     3.0560   3.2571   3.4733   3.4875   3.7693   3.8681   3.9630   4.1680
     4.4600   4.7043   4.7130   4.7713   4.8960   4.9426   5.0274   5.0647
     5.3034   5.3594   5.8749   5.9739   6.3843   6.5206   6.8490   6.9826
     7.4256

          k = 0.4000 0.0000 0.0000 ( 44714 PWs)   bands (ev):

    -6.2216  -5.2379  -4.9709  -4.9541  -4.5570  -3.8934  -3.8902  -3.8837
    -3.8641  -3.8343  -3.8147  -3.7960  -3.7149  -3.6998  -3.5180  -3.3223
    -3.3104  -3.3031  -3.2955  -3.2294  -3.2075  -3.0765  -3.0654  -3.0626
    -3.0525  -2.9793  -2.9470  -2.9119  -2.9059  -2.9029  -2.8388  -2.8154
    -2.8005  -2.7433  -2.7344  -2.6480  -2.4925  -2.3857  -2.3111  -2.2888
    -2.2756  -2.2564  -2.2477  -2.2398  -2.1826  -2.1646  -2.1044  -2.0199
    -2.0031  -1.9854  -1.8960  -1.8692  -1.8266  -1.8202  -1.7916  -1.7301
    -1.7023  -1.5701  -1.5450  -1.5290  -1.4624  -1.4360  -1.4214  -1.4119
    -1.3916  -1.3490  -1.3259  -1.2056  -1.1957  -1.1720  -1.1636  -1.1247
    -1.0958  -1.0651  -1.0456  -1.0140  -0.9873  -0.9015  -0.8901  -0.8666
    -0.8506  -0.8476  -0.8271  -0.8033  -0.7860  -0.7636  -0.7393  -0.7326
    -0.7033  -0.6736  -0.5916  -0.5865  -0.5659  -0.5435  -0.5128  -0.5064
    -0.4890  -0.4522  -0.4388  -0.4324  -0.4263  -0.4178  -0.4078  -0.3911
    -0.3516  -0.3293  -0.2439  -0.2289  -0.1814  -0.1228  -0.0979  -0.0870
    -0.0729   0.1016   0.1223   0.1401   0.2280   0.2394   0.2785   0.2851
     0.3158   0.3250   0.3659   0.3761   0.4014   0.4166   0.4310   0.5063
     0.6049   0.6398   0.6728   0.6808   0.7092   0.7283   0.7537   0.8030
     0.8706   0.8966   0.9261   0.9842   0.9898   1.0300   1.0744   1.1189
     1.1317   1.1449   1.1932   1.2130   1.2210   1.2383   1.2486   1.2531
     1.2735   1.2780   1.2904   1.3924   1.4354   1.4850   1.6059   1.6220
     1.6456   1.7678   1.7858   1.8024   1.8076   1.8744   1.9105   1.9313
     1.9406   1.9615   1.9829   1.9948   2.0078   2.0102   2.0219   2.0608
     2.0760   2.0980   2.1656   2.1913   2.2040   2.2309   2.2407   2.2813
     2.4106   2.4315   2.4727   2.4831   2.5371   2.5500   2.5656   2.6607
     2.7092   3.0192   3.2197   3.2418   3.6332   3.7710   3.7806   3.7885
     4.2599   4.4669   4.4867   4.6709   4.7236   4.7433   5.3661   5.7745
     5.8907   5.9190   6.1099   6.3445   6.6262   6.6703   6.6822   6.7185
     6.7332

          k = 0.4000 0.2309 0.0000 ( 44748 PWs)   bands (ev):

    -6.0869  -5.4714  -5.1050  -4.5703  -4.3475  -4.3395  -4.1256  -3.9752
    -3.8341  -3.7163  -3.6200  -3.6185  -3.5624  -3.4614  -3.4407  -3.4047
    -3.4029  -3.3925  -3.2615  -3.2312  -3.2308  -3.1867  -3.1810  -3.1527
    -3.0873  -3.0527  -3.0502  -2.8469  -2.7984  -2.7819  -2.7799  -2.7708
    -2.7655  -2.6222  -2.5383  -2.5265  -2.5223  -2.4873  -2.4740  -2.3673
    -2.3055  -2.2029  -2.2000  -2.1882  -2.1498  -2.1262  -2.1237  -2.0507
    -2.0498  -2.0003  -1.9843  -1.9819  -1.8326  -1.8173  -1.7997  -1.7483
    -1.6754  -1.6425  -1.6051  -1.6017  -1.5407  -1.4603  -1.3931  -1.3921
    -1.3879  -1.3300  -1.2951  -1.2793  -1.2558  -1.1643  -1.1555  -1.1463
    -1.1224  -1.0300  -1.0296  -0.9927  -0.9865  -0.9779  -0.9402  -0.8973
    -0.8972  -0.8826  -0.8688  -0.8637  -0.8577  -0.8298  -0.7904  -0.7209
    -0.7159  -0.7141  -0.6960  -0.6816  -0.6743  -0.6059  -0.5379  -0.5286
    -0.5000  -0.4714  -0.4503  -0.4292  -0.4156  -0.4023  -0.2906  -0.2723
    -0.2366  -0.2355  -0.1888  -0.1479  -0.1463  -0.0168   0.0179   0.0573
     0.0953   0.1369   0.1911   0.1914   0.2115   0.2160   0.2197   0.2526
     0.2925   0.3157   0.3240   0.3376   0.3510   0.3742   0.3866   0.4138
     0.4463   0.5314   0.5435   0.5633   0.6327   0.6743   0.7569   0.7688
     0.8410   0.8604   0.9063   0.9733   1.0064   1.0424   1.0643   1.0932
     1.1296   1.1321   1.1796   1.1933   1.2329   1.2412   1.2929   1.3402
     1.3486   1.3907   1.4060   1.4204   1.4278   1.4627   1.5623   1.5923
     1.6359   1.6802   1.6946   1.7196   1.7664   1.8066   1.8139   1.8822
     1.8898   1.9083   1.9089   1.9917   1.9923   2.0035   2.0189   2.1329
     2.1374   2.1590   2.1640   2.1781   2.1847   2.2063   2.2211   2.3919
     2.4183   2.4222   2.4326   2.4358   2.6032   2.6483   2.8850   3.0075
     3.0688   3.2367   3.4786   3.4852   3.7884   3.8701   3.9568   4.2020
     4.5111   4.7036   4.7115   4.7577   4.8903   4.9268   5.0563   5.0714
     5.3016   5.3611   5.8506   5.9871   6.3618   6.5094   6.8918   6.9666
     7.4738

          k = 0.4000-0.6928 0.0000 ( 44692 PWs)   bands (ev):

    -5.7170  -5.6682  -5.1023  -4.9361  -4.4312  -4.1765  -3.8954  -3.8435
    -3.7449  -3.7055  -3.6056  -3.5977  -3.5003  -3.4913  -3.4030  -3.3785
    -3.3656  -3.3409  -3.3270  -3.3077  -3.1872  -3.1669  -3.1584  -3.1507
    -3.1181  -3.1120  -3.0189  -2.9305  -2.9013  -2.7935  -2.7679  -2.7541
    -2.7515  -2.7134  -2.6648  -2.6326  -2.5216  -2.5054  -2.4076  -2.3345
    -2.3089  -2.2894  -2.1839  -2.1802  -2.1215  -2.1012  -2.0150  -1.9562
    -1.9311  -1.9203  -1.8970  -1.8425  -1.8309  -1.7973  -1.7235  -1.7101
    -1.6963  -1.6735  -1.6644  -1.6619  -1.6278  -1.5877  -1.5422  -1.4634
    -1.4453  -1.4058  -1.3741  -1.3050  -1.2527  -1.2415  -1.2294  -1.1805
    -1.1737  -1.1578  -1.0974  -1.0726  -1.0595  -1.0319  -1.0025  -0.9676
    -0.9227  -0.9171  -0.8459  -0.8265  -0.8102  -0.8027  -0.7451  -0.6833
    -0.6372  -0.6311  -0.6170  -0.6046  -0.5610  -0.5430  -0.5394  -0.5252
    -0.5114  -0.5016  -0.4743  -0.4418  -0.4092  -0.4073  -0.4001  -0.3837
    -0.3761  -0.3720  -0.3508  -0.2979  -0.2781  -0.0990  -0.0658   0.0135
     0.0328   0.0914   0.1282   0.1438   0.1686   0.1789   0.2202   0.2310
     0.2501   0.2583   0.3235   0.3708   0.3802   0.4113   0.4363   0.4629
     0.5141   0.5158   0.5562   0.6481   0.7300   0.7756   0.7872   0.8159
     0.8550   0.8809   0.9114   0.9172   0.9393   0.9452   0.9669   0.9814
     1.0688   1.1102   1.1168   1.1471   1.1537   1.1878   1.2024   1.2164
     1.2251   1.3771   1.4008   1.4557   1.4987   1.5587   1.6261   1.6383
     1.7099   1.7323   1.7570   1.7707   1.8311   1.8649   1.9356   1.9557
     1.9625   1.9844   1.9901   2.0106   2.0448   2.0868   2.1473   2.1505
     2.1704   2.1821   2.2020   2.2092   2.2127   2.2845   2.3942   2.4199
     2.4280   2.4327   2.4359   2.4930   2.5301   2.6124   2.7060   3.4598
     3.5952   3.6111   3.7757   3.8279   3.9490   3.9802   3.9838   4.3227
     4.5478   4.6150   4.8437   5.0443   5.0744   5.1417   5.2088   5.4029
     5.4438   5.5130   5.5767   5.8320   5.9499   6.0391   6.4794   6.6480
     6.6925

          k = 0.4000-0.4619 0.0000 ( 44692 PWs)   bands (ev):

    -5.7043  -5.6650  -5.1222  -4.8886  -4.4363  -4.2066  -3.8845  -3.8384
    -3.7463  -3.7040  -3.6039  -3.5953  -3.4966  -3.4911  -3.3996  -3.3841
    -3.3695  -3.3363  -3.3276  -3.3102  -3.1980  -3.1661  -3.1628  -3.1369
    -3.1145  -3.1072  -3.0390  -2.9734  -2.9087  -2.8127  -2.7738  -2.7636
    -2.7435  -2.7207  -2.6904  -2.6454  -2.5238  -2.5096  -2.4255  -2.3333
    -2.3185  -2.2648  -2.1903  -2.1815  -2.1264  -2.0799  -2.0103  -1.9556
    -1.9286  -1.9137  -1.8954  -1.8492  -1.8433  -1.8093  -1.7223  -1.7055
    -1.6866  -1.6745  -1.6677  -1.6643  -1.6114  -1.5944  -1.5540  -1.4755
    -1.4231  -1.3939  -1.3836  -1.2998  -1.2667  -1.2378  -1.2071  -1.1804
    -1.1671  -1.1382  -1.0883  -1.0757  -1.0557  -1.0311  -1.0016  -0.9519
    -0.9416  -0.9077  -0.8367  -0.8281  -0.8151  -0.8067  -0.7371  -0.6677
    -0.6448  -0.6222  -0.6148  -0.5952  -0.5575  -0.5450  -0.5384  -0.5112
    -0.4935  -0.4895  -0.4710  -0.4397  -0.4185  -0.4035  -0.3934  -0.3842
    -0.3777  -0.3719  -0.3329  -0.3013  -0.2719  -0.1000  -0.0610   0.0112
     0.0302   0.0716   0.1282   0.1434   0.1586   0.1751   0.2113   0.2290
     0.2408   0.2509   0.3275   0.3526   0.3803   0.4015   0.4419   0.4601
     0.5127   0.5294   0.5746   0.7089   0.7361   0.7773   0.7892   0.8077
     0.8554   0.8753   0.9103   0.9222   0.9376   0.9503   0.9664   0.9782
     1.0746   1.0956   1.1080   1.1329   1.1607   1.1945   1.2102   1.2274
     1.2312   1.3711   1.3951   1.4502   1.5229   1.5439   1.6197   1.6359
     1.6811   1.7386   1.7600   1.7671   1.8447   1.8567   1.9375   1.9584
     1.9783   1.9846   1.9951   2.0177   2.0366   2.0845   2.1435   2.1518
     2.1751   2.1893   2.2003   2.2060   2.2116   2.2851   2.3839   2.4151
     2.4227   2.4289   2.4358   2.4962   2.5201   2.6230   2.7394   3.4247
     3.5959   3.6113   3.7668   3.8315   3.9144   3.9801   3.9841   4.3106
     4.5650   4.6096   4.7965   5.0455   5.0694   5.1634   5.2034   5.3549
     5.4606   5.5282   5.5656   5.8370   5.9857   6.0293   6.4615   6.6683
     6.6997

     the Fermi energy is     2.1939 ev

!    total energy              =  -27755.49274049 Ry
     total all-electron energy =  -1326642.258157 Ry
     estimated scf accuracy    <       0.00000062 Ry
     smearing contrib. (-TS)   =       0.00410118 Ry
     internal energy E=F+TS    =  -27755.49684166 Ry

     The total energy is F=E-TS. E is the sum of the following terms:
     one-electron contribution =  -22797.46944539 Ry
     hartree contribution      =   11701.55587001 Ry
     xc contribution           =    -890.80156672 Ry
     ewald contribution        =    9705.21899961 Ry
     one-center paw contrib.   =  -25474.00069916 Ry

     convergence has been achieved in  16 iterations

     negative rho (up, down):  3.360E-03 0.000E+00

     Forces acting on atoms (cartesian axes, Ry/au):

     atom    1 type  1   force =     0.00243107    0.00140085   -0.00574141
     atom    2 type  1   force =     0.00040189    0.00217796   -0.00435911
     atom    3 type  1   force =    -0.00199274    0.00333596   -0.00549064
     atom    4 type  1   force =     0.00207994   -0.00074829   -0.00435259
     atom    5 type  1   force =    -0.00017638   -0.00008517   -0.00317789
     atom    6 type  1   force =    -0.00214144    0.00056233   -0.00384278
     atom    7 type  1   force =     0.00189505   -0.00344968   -0.00547074
     atom    8 type  1   force =    -0.00059403   -0.00219011   -0.00386528
     atom    9 type  1   force =    -0.00233408   -0.00140058   -0.00421725
     atom   10 type  1   force =     0.00312991    0.00188172    0.00639273
     atom   11 type  1   force =     0.00045809    0.00209172    0.00472420
     atom   12 type  1   force =    -0.00223087    0.00399966    0.00294050
     atom   13 type  1   force =     0.00197973   -0.00058703    0.00472531
     atom   14 type  1   force =     0.00004846    0.00005716    0.00263558
     atom   15 type  1   force =    -0.00201543    0.00109518    0.00607074
     atom   16 type  1   force =     0.00226524   -0.00389773    0.00294531
     atom   17 type  1   force =    -0.00007585   -0.00227085    0.00609077
     atom   18 type  1   force =    -0.00339065   -0.00195707    0.00306426
     atom   19 type  1   force =     0.00005412    0.00013093    0.00006195
     atom   20 type  1   force =    -0.00006468   -0.00002846   -0.00000644
     atom   21 type  1   force =     0.00007462    0.00005095    0.00004037
     atom   22 type  1   force =    -0.00003739    0.00003545    0.00008447
     atom   23 type  1   force =     0.00006624    0.00002885    0.00002198
     atom   24 type  1   force =     0.00014550    0.00006293    0.00003465
     atom   25 type  1   force =     0.00002636   -0.00000573    0.00002792
     atom   26 type  1   force =     0.00014188   -0.00001671    0.00006392
     atom   27 type  1   force =     0.00000437   -0.00006002    0.00008126
     atom   28 type  1   force =     0.00014755    0.00006253    0.00000929
     atom   29 type  1   force =     0.00026062   -0.00003842    0.00002804
     atom   30 type  1   force =     0.00012649    0.00013361    0.00000158
     atom   31 type  1   force =     0.00009851    0.00023279    0.00002508
     atom   32 type  1   force =     0.00013659    0.00005375   -0.00017752
     atom   33 type  1   force =     0.00025117    0.00006001   -0.00004174
     atom   34 type  1   force =     0.00020032    0.00001586    0.00000859
     atom   35 type  1   force =     0.00019641    0.00018622   -0.00005509
     atom   36 type  1   force =     0.00011046    0.00006751   -0.00016582
     atom   37 type  2   force =    -0.00167705   -0.00098809    0.00088580
     The non-local contrib.  to forces
     atom    1 type  1   force =     0.00153774    0.00090287   -0.01655868
     atom    2 type  1   force =     0.00012409    0.00262085   -0.01753592
     atom    3 type  1   force =     0.00045928    0.00142552   -0.01678079
     atom    4 type  1   force =     0.00230999   -0.00118773   -0.01753373
     atom    5 type  1   force =    -0.00032967   -0.00015847   -0.01765354
     atom    6 type  1   force =    -0.00155550    0.00058453   -0.01710386
     atom    7 type  1   force =     0.00145216   -0.00033370   -0.01676255
     atom    8 type  1   force =    -0.00029670   -0.00166377   -0.01712723
     atom    9 type  1   force =    -0.00222244   -0.00131157   -0.01637753
     atom   10 type  1   force =     0.00192008    0.00119454    0.00092940
     atom   11 type  1   force =     0.00029499    0.00172802    0.00126705
     atom   12 type  1   force =    -0.00006568    0.00308519    0.00042937
     atom   13 type  1   force =     0.00157094   -0.00053555    0.00127852
     atom   14 type  1   force =     0.00083252    0.00051079   -0.00014390
     atom   15 type  1   force =    -0.00219076    0.00083576    0.00087958
     atom   16 type  1   force =     0.00254753   -0.00154788    0.00043120
     atom   17 type  1   force =    -0.00039182   -0.00228283    0.00088451
     atom   18 type  1   force =    -0.00350737   -0.00202049    0.00133377
     atom   19 type  1   force =    -0.00277887   -0.00136341    0.00020024
     atom   20 type  1   force =     0.00058584    0.00036039    0.00849446
     atom   21 type  1   force =     0.00213709    0.00018456    0.00165351
     atom   22 type  1   force =     0.00083530    0.00334302   -0.00037064
     atom   23 type  1   force =     0.00119446    0.00175332    0.00164131
     atom   24 type  1   force =    -0.00074034   -0.00045212    0.00401692
     atom   25 type  1   force =     0.00046691    0.00025995    0.00295706
     atom   26 type  1   force =    -0.00258499   -0.00170545    0.00019699
     atom   27 type  1   force =     0.00332446   -0.00096367   -0.00038977
     atom   28 type  1   force =     0.01104165    0.00631695    0.02132207
     atom   29 type  1   force =    -0.00849906    0.02736176   -0.00456829
     atom   30 type  1   force =    -0.00047202    0.00066216    0.01523086
     atom   31 type  1   force =     0.01949246   -0.02109927   -0.00458592
     atom   32 type  1   force =    -0.03857961   -0.02234055    0.02751869
     atom   33 type  1   force =    -0.00048324    0.00081515    0.01412331
     atom   34 type  1   force =     0.00039110   -0.00083021    0.01521281
     atom   35 type  1   force =     0.00051354   -0.00089654    0.01415152
     atom   36 type  1   force =    -0.00080892   -0.00050782    0.01507676
     atom   37 type  2   force =    -0.00583721   -0.00337196   -0.02148426
     The ionic contribution  to forces
     atom    1 type  1   force =     0.14433346    0.08326131  -96.26818729
     atom    2 type  1   force =     0.01798386    0.14837055  -96.19162125
     atom    3 type  1   force =    -0.14191922    0.21966054  -96.21783324
     atom    4 type  1   force =     0.13754517   -0.05865309  -96.19176538
     atom    5 type  1   force =     0.00248104    0.00142855  -96.13841801
     atom    6 type  1   force =    -0.13300903    0.08535644  -96.16064503
     atom    7 type  1   force =     0.11933515   -0.23269157  -96.21784581
     atom    8 type  1   force =     0.00741972   -0.15779225  -96.16053113
     atom    9 type  1   force =    -0.14213062   -0.08197871  -96.16223414
     atom   10 type  1   force =     0.19870772    0.11442261  -32.38897211
     atom   11 type  1   force =    -0.08362572    0.16048494  -32.41436147
     atom   12 type  1   force =    -0.08487056    0.24620449  -32.42851473
     atom   13 type  1   force =     0.09752317   -0.15195036  -32.41474287
     atom   14 type  1   force =    -0.02885252   -0.01585312  -32.54827634
     atom   15 type  1   force =    -0.06810438    0.04596247  -32.42058205
     atom   16 type  1   force =     0.17085812   -0.19599203  -32.42803942
     atom   17 type  1   force =     0.00514224   -0.08063198  -32.41971784
     atom   18 type  1   force =    -0.19423073   -0.11141302  -32.31227678
     atom   19 type  1   force =     0.12151916    0.04704164   32.09724012
     atom   20 type  1   force =    -0.02520050   -0.01604354   32.43648082
     atom   21 type  1   force =    -0.08174870   -0.00250057   31.65933555
     atom   22 type  1   force =     0.01980667   -0.06193284   32.08137052
     atom   23 type  1   force =    -0.04207406   -0.06899638   31.66041868
     atom   24 type  1   force =     0.01864607    0.01185167   31.66127196
     atom   25 type  1   force =    -0.03816237   -0.02178248   31.65194341
     atom   26 type  1   force =     0.10284867    0.08156626   32.10032000
     atom   27 type  1   force =    -0.04482861    0.04901920   32.08341460
     atom   28 type  1   force =     0.02588839    0.01389840   95.06602701
     atom   29 type  1   force =     0.12963078   -0.85902160   95.59984878
     atom   30 type  1   force =     0.04196695    0.01327589   95.27636691
     atom   31 type  1   force =    -0.67784175    0.54018752   95.59930034
     atom   32 type  1   force =     0.20542534    0.11669038   95.09887463
     atom   33 type  1   force =     0.02513992    0.00449492   95.32164651
     atom   34 type  1   force =     0.03288347    0.03003535   95.27454525
     atom   35 type  1   force =     0.01835975    0.02030400   95.32597314
     atom   36 type  1   force =    -0.03981758   -0.02194179   95.30474961
     atom   37 type  2   force =     0.18297156    0.10565823   12.18543702
     The local contribution  to forces
     atom    1 type  1   force =    -0.14310969   -0.08262647   96.26150792
     atom    2 type  1   force =    -0.01761940   -0.14835640   96.18741735
     atom    3 type  1   force =     0.13916552   -0.21723167   96.21172243
     atom    4 type  1   force =    -0.13729007    0.05885454   96.18750827
     atom    5 type  1   force =    -0.00236258   -0.00144328   96.13563164
     atom    6 type  1   force =     0.13202208   -0.08535589   96.15662042
     atom    7 type  1   force =    -0.11855477    0.22914480   96.21171010
     atom    8 type  1   force =    -0.00784067    0.15699375   96.15654657
     atom    9 type  1   force =     0.14176020    0.08184979   96.15716113
     atom   10 type  1   force =    -0.19693867   -0.11355466   32.39375484
     atom   11 type  1   force =     0.08378493   -0.15983211   32.41713620
     atom   12 type  1   force =     0.08227952   -0.24500323   32.43021152
     atom   13 type  1   force =    -0.09676577    0.15169550   32.41750307
     atom   14 type  1   force =     0.02780053    0.01525351   32.54992502
     atom   15 type  1   force =     0.06817528   -0.04559287   32.42497877
     atom   16 type  1   force =    -0.17097852    0.19319863   32.42973134
     atom   17 type  1   force =    -0.00481626    0.08062867   32.42412264
     atom   18 type  1   force =     0.19404173    0.11141508   32.31365241
     atom   19 type  1   force =    -0.11847870   -0.04572167  -32.09483700
     atom   20 type  1   force =     0.02474746    0.01564367  -32.44222236
     atom   21 type  1   force =     0.07947999    0.00204887  -31.65871976
     atom   22 type  1   force =    -0.02032170    0.05879567  -32.07853314
     atom   23 type  1   force =     0.04067058    0.06726608  -31.65982677
     atom   24 type  1   force =    -0.01782291   -0.01130468  -31.66304345
     atom   25 type  1   force =     0.03751130    0.02144733  -31.65276401
     atom   26 type  1   force =    -0.10006397   -0.07961660  -32.09795709
     atom   27 type  1   force =     0.04177249   -0.04779876  -32.08060560
     atom   28 type  1   force =    -0.03603307   -0.01972924  -95.07094952
     atom   29 type  1   force =    -0.11918104    0.82359271  -95.58490588
     atom   30 type  1   force =    -0.04174043   -0.01354696  -95.27508424
     atom   31 type  1   force =     0.65234945   -0.51343124  -95.58429201
     atom   32 type  1   force =    -0.16614931   -0.09404855  -95.11160839
     atom   33 type  1   force =    -0.02416836   -0.00533358  -95.31907372
     atom   34 type  1   force =    -0.03305359   -0.02958265  -95.27320104
     atom   35 type  1   force =    -0.01856676   -0.01892563  -95.32345655
     atom   36 type  1   force =     0.04074014    0.02257515  -95.30321812
     atom   37 type  2   force =    -0.17879572   -0.10327314  -12.16311826
     The core correction contribution to forces
     atom    1 type  1   force =    -0.00042009   -0.00024203    0.01761277
     atom    2 type  1   force =    -0.00001430   -0.00043221    0.01744442
     atom    3 type  1   force =     0.00032112   -0.00057538    0.01756485
     atom    4 type  1   force =    -0.00038143    0.00020471    0.01744520
     atom    5 type  1   force =    -0.00000716   -0.00000398    0.01734803
     atom    6 type  1   force =     0.00033995   -0.00017614    0.01728459
     atom    7 type  1   force =    -0.00033852    0.00056653    0.01756447
     atom    8 type  1   force =     0.00001780    0.00038309    0.01728459
     atom    9 type  1   force =     0.00036906    0.00021327    0.01724422
     atom   10 type  1   force =    -0.00050580   -0.00029252    0.00090493
     atom   11 type  1   force =     0.00009616   -0.00035081    0.00096593
     atom   12 type  1   force =     0.00027684   -0.00061492    0.00108041
     atom   13 type  1   force =    -0.00025545    0.00025567    0.00096596
     atom   14 type  1   force =     0.00004088    0.00002139    0.00134860
     atom   15 type  1   force =     0.00024095   -0.00011440    0.00095902
     atom   16 type  1   force =    -0.00039328    0.00054459    0.00107859
     atom   17 type  1   force =     0.00002322    0.00026230    0.00095704
     atom   18 type  1   force =     0.00050631    0.00028928    0.00061127
     atom   19 type  1   force =    -0.00023536   -0.00007273   -0.00226286
     atom   20 type  1   force =     0.00000202    0.00000388   -0.00253376
     atom   21 type  1   force =     0.00003906    0.00005154   -0.00195778
     atom   22 type  1   force =    -0.00009135   -0.00001099   -0.00209462
     atom   23 type  1   force =     0.00006353    0.00000501   -0.00195404
     atom   24 type  1   force =     0.00000959    0.00000255   -0.00186351
     atom   25 type  1   force =     0.00012416    0.00007026   -0.00192382
     atom   26 type  1   force =    -0.00018288   -0.00016987   -0.00226180
     atom   27 type  1   force =    -0.00005262   -0.00007768   -0.00209224
     atom   28 type  1   force =    -0.00093996   -0.00053896   -0.01625944
     atom   29 type  1   force =    -0.00155033    0.00795540   -0.01035525
     atom   30 type  1   force =     0.00042958   -0.00027535   -0.01644571
     atom   31 type  1   force =     0.00610947   -0.00531554   -0.01035711
     atom   32 type  1   force =    -0.00047856   -0.00026958   -0.01489252
     atom   33 type  1   force =    -0.00035113   -0.00003044   -0.01647964
     atom   34 type  1   force =    -0.00002494    0.00050962   -0.01644647
     atom   35 type  1   force =    -0.00020821   -0.00029219   -0.01647995
     atom   36 type  1   force =     0.00010179    0.00005532   -0.01652946
     atom   37 type  2   force =     0.00000000    0.00000000    0.00000000
     The Hubbard contrib.    to forces
     atom    1 type  1   force =     0.00000000    0.00000000    0.00000000
     atom    2 type  1   force =     0.00000000    0.00000000    0.00000000
     atom    3 type  1   force =     0.00000000    0.00000000    0.00000000
     atom    4 type  1   force =     0.00000000    0.00000000    0.00000000
     atom    5 type  1   force =     0.00000000    0.00000000    0.00000000
     atom    6 type  1   force =     0.00000000    0.00000000    0.00000000
     atom    7 type  1   force =     0.00000000    0.00000000    0.00000000
     atom    8 type  1   force =     0.00000000    0.00000000    0.00000000
     atom    9 type  1   force =     0.00000000    0.00000000    0.00000000
     atom   10 type  1   force =     0.00000000    0.00000000    0.00000000
     atom   11 type  1   force =     0.00000000    0.00000000    0.00000000
     atom   12 type  1   force =     0.00000000    0.00000000    0.00000000
     atom   13 type  1   force =     0.00000000    0.00000000    0.00000000
     atom   14 type  1   force =     0.00000000    0.00000000    0.00000000
     atom   15 type  1   force =     0.00000000    0.00000000    0.00000000
     atom   16 type  1   force =     0.00000000    0.00000000    0.00000000
     atom   17 type  1   force =     0.00000000    0.00000000    0.00000000
     atom   18 type  1   force =     0.00000000    0.00000000    0.00000000
     atom   19 type  1   force =     0.00000000    0.00000000    0.00000000
     atom   20 type  1   force =     0.00000000    0.00000000    0.00000000
     atom   21 type  1   force =     0.00000000    0.00000000    0.00000000
     atom   22 type  1   force =     0.00000000    0.00000000    0.00000000
     atom   23 type  1   force =     0.00000000    0.00000000    0.00000000
     atom   24 type  1   force =     0.00000000    0.00000000    0.00000000
     atom   25 type  1   force =     0.00000000    0.00000000    0.00000000
     atom   26 type  1   force =     0.00000000    0.00000000    0.00000000
     atom   27 type  1   force =     0.00000000    0.00000000    0.00000000
     atom   28 type  1   force =     0.00000000    0.00000000    0.00000000
     atom   29 type  1   force =     0.00000000    0.00000000    0.00000000
     atom   30 type  1   force =     0.00000000    0.00000000    0.00000000
     atom   31 type  1   force =     0.00000000    0.00000000    0.00000000
     atom   32 type  1   force =     0.00000000    0.00000000    0.00000000
     atom   33 type  1   force =     0.00000000    0.00000000    0.00000000
     atom   34 type  1   force =     0.00000000    0.00000000    0.00000000
     atom   35 type  1   force =     0.00000000    0.00000000    0.00000000
     atom   36 type  1   force =     0.00000000    0.00000000    0.00000000
     atom   37 type  2   force =     0.00000000    0.00000000    0.00000000
     The SCF correction term to forces
     atom    1 type  1   force =     0.00000000    0.00000000   -0.00000000
     atom    2 type  1   force =    -0.00000000   -0.00000000   -0.00000000
     atom    3 type  1   force =    -0.00000000    0.00000000   -0.00000000
     atom    4 type  1   force =    -0.00000000    0.00000000   -0.00000000
     atom    5 type  1   force =     0.00000000    0.00000000   -0.00000000
     atom    6 type  1   force =     0.00000000    0.00000000   -0.00000000
     atom    7 type  1   force =     0.00000000   -0.00000000   -0.00000000
     atom    8 type  1   force =     0.00000000   -0.00000000   -0.00000000
     atom    9 type  1   force =    -0.00000000   -0.00000000   -0.00000000
     atom   10 type  1   force =    -0.00000000    0.00000000   -0.00000000
     atom   11 type  1   force =    -0.00000000    0.00000000   -0.00000000
     atom   12 type  1   force =     0.00000000    0.00000000   -0.00000000
     atom   13 type  1   force =    -0.00000000   -0.00000000   -0.00000000
     atom   14 type  1   force =     0.00000000    0.00000000   -0.00000000
     atom   15 type  1   force =    -0.00000000    0.00000000   -0.00000000
     atom   16 type  1   force =     0.00000000   -0.00000000   -0.00000000
     atom   17 type  1   force =    -0.00000000   -0.00000000   -0.00000000
     atom   18 type  1   force =    -0.00000000   -0.00000000   -0.00000000
     atom   19 type  1   force =     0.00002842    0.00024741   -0.00033147
     atom   20 type  1   force =    -0.00019895    0.00000744   -0.00027852
     atom   21 type  1   force =     0.00016773    0.00026685   -0.00032408
     atom   22 type  1   force =    -0.00026577   -0.00015912   -0.00034056
     atom   23 type  1   force =     0.00021228    0.00000112   -0.00031012
     atom   24 type  1   force =     0.00005364   -0.00003419   -0.00040019
     atom   25 type  1   force =     0.00008691   -0.00000048   -0.00023764
     atom   26 type  1   force =     0.00012561   -0.00009076   -0.00028710
     atom   27 type  1   force =    -0.00021082   -0.00023881   -0.00029865
     atom   28 type  1   force =     0.00019107    0.00011567   -0.00018375
     atom   29 type  1   force =    -0.00013918    0.00007361   -0.00004423
     atom   30 type  1   force =    -0.00005705    0.00001816   -0.00011917
     atom   31 type  1   force =    -0.00001056   -0.00010838   -0.00009313
     atom   32 type  1   force =    -0.00008074    0.00002234   -0.00012285
     atom   33 type  1   force =     0.00011453    0.00011426   -0.00031112
     atom   34 type  1   force =     0.00000483   -0.00011595   -0.00015488
     atom   35 type  1   force =     0.00009863   -0.00000313   -0.00029618
     atom   36 type  1   force =    -0.00010443   -0.00011306   -0.00029751
     atom   37 type  2   force =    -0.00001513   -0.00000093   -0.00000162

     Total force =     0.002273     Total SCF correction =     0.001383
     SCF correction compared to forces is large: reduce conv_thr to get better values

     Writing all to output data dir ./pwscf.save/

     init_run     :     10.19s CPU     13.25s WALL (       1 calls)
     electrons    :    307.32s CPU    315.82s WALL (       1 calls)
     forces       :      6.85s CPU      7.46s WALL (       1 calls)

     Called by init_run:
     wfcinit      :      5.71s CPU      5.90s WALL (       1 calls)
     potinit      :      3.05s CPU      5.85s WALL (       1 calls)
     hinit0       :      0.85s CPU      0.86s WALL (       1 calls)

     Called by electrons:
     c_bands      :    262.17s CPU    267.24s WALL (      17 calls)
     sum_band     :     25.58s CPU     26.52s WALL (      17 calls)
     v_of_rho     :     11.73s CPU     15.96s WALL (      17 calls)
     newd         :      2.35s CPU      3.01s WALL (      17 calls)
     PAW_pot      :      3.84s CPU      3.95s WALL (      17 calls)
     mix_rho      :      3.78s CPU      3.84s WALL (      17 calls)
     vdW_kernel   :      1.69s CPU      4.43s WALL (       1 calls)

     Called by c_bands:
     init_us_2    :      2.44s CPU      2.48s WALL (     468 calls)
     init_us_2:cp :      2.44s CPU      2.48s WALL (     468 calls)
     cegterg      :    254.79s CPU    259.48s WALL (     221 calls)

     Called by *egterg:
     cdiaghg      :     59.53s CPU     60.37s WALL (    1134 calls)
     h_psi        :    119.88s CPU    122.33s WALL (    1160 calls)
     s_psi        :     12.93s CPU     13.12s WALL (    1160 calls)
     g_psi        :      0.42s CPU      0.43s WALL (     926 calls)

     Called by h_psi:
     h_psi:calbec :     18.64s CPU     19.18s WALL (    1160 calls)
     vloc_psi     :     86.75s CPU     88.35s WALL (    1160 calls)
     add_vuspsi   :     13.46s CPU     13.76s WALL (    1160 calls)

     General routines
     calbec       :     25.39s CPU     26.08s WALL (    1433 calls)
     fft          :      9.63s CPU     11.17s WALL (    1131 calls)
     ffts         :      2.19s CPU      2.23s WALL (    4289 calls)
     fftw         :     83.84s CPU     85.30s WALL (  290757 calls)
     interpolate  :      0.59s CPU      0.62s WALL (      17 calls)

     Parallel routines

     PWSCF        :   5m26.07s CPU   5m41.41s WALL


   This run was terminated on:  12:27:31  27Jan2025            

=------------------------------------------------------------------------------=
   JOB DONE.
=------------------------------------------------------------------------------=
