
     Program PWSCF v.7.1 starts on  7Dec2025 at 21:10:45 
        Git branch: heads/qe-7.1
        Last git commit: 48ba0178f8fede6d020eb786884699a9f063f55d-dirty
        Last git commit date: Fri Jan 27 14:22:33 2023 +0000
        Last git commit subject: Merge branch 'fix_hubbard' into 'develop'

     This program is part of the open-source Quantum ESPRESSO suite
     for quantum simulation of materials; please cite
         "P. Giannozzi et al., J. Phys.:Condens. Matter 21 395502 (2009);
         "P. Giannozzi et al., J. Phys.:Condens. Matter 29 465901 (2017);
         "P. Giannozzi et al., J. Chem. Phys. 152 154105 (2020);
          URL http://www.quantum-espresso.org", 
     in publications or presentations arising from this work. More details at
     http://www.quantum-espresso.org/quote

     Parallel version (MPI), running on    96 processors

     MPI processes distributed on     2 nodes
     119720 MiB available memory on the printing compute node when the environment starts

     Reading input from espresso.pwi
Warning: card &CELL ignored
Warning: card / ignored
Warning: card &FCP ignored
Warning: card / ignored
Warning: card &RISM ignored
Warning: card / ignored

     Current dimensions of program PWSCF are:
     Max number of different atomic species (ntypx) = 10
     Max number of k-points (npk) =  40000
     Max angular momentum in pseudopotentials (lmaxx) =  4
     file Co.pbe-n-kjpaw_psl.1.0.0.UPF: wavefunction(s)  4S 3D renormalized
     file C.pbe-n-kjpaw_psl.1.0.0.UPF: wavefunction(s)  2S 2P renormalized
     file O.pbe-nl-kjpaw_psl.1.0.0.UPF: wavefunction(s)  2S 2P renormalized
     file H.pbe-kjpaw_psl.1.0.0.UPF: wavefunction(s)  1S renormalized

     **************************************************************************
     Initializing libbeef V0.1.2 with the BEEF-vdW functional.
     Citation: Wellendorff et al., PRB 85, 235149 (2012).
     **************************************************************************


     IMPORTANT: XC functional enforced from input :
     Exchange-correlation= BEEF-VDW
                           (   1   4  43  14   2   0   0)
     Any further DFT definition will be discarded
     Please, verify this is what you really want


     R & G space division:  proc/nbgrp/npool/nimage =      96
     Subspace diagonalization in iterative solution of the eigenvalue problem:
     one sub-group per band group will be used
     custom distributed-memory algorithm (size of sub-group:  2*  2 procs)


     Parallelization info
     --------------------
     sticks:   dense  smooth     PW     G-vecs:    dense   smooth      PW
     Min          43      28      7                 7829     4248     595
     Max          44      29      8                 7845     4281     630
     Sum        4153    2773    757               752179   409445   59217

     Using Slab Decomposition



     bravais-lattice index     =            0
     lattice parameter (alat)  =      14.1729  a.u.
     unit-cell volume          =    8574.3059 (a.u.)^3
     number of atoms/cell      =           39
     number of atomic types    =            4
     number of electrons       =       335.00
     number of Kohn-Sham states=          202
     kinetic-energy cutoff     =      50.0000  Ry
     charge density cutoff     =     300.0000  Ry
     scf convergence threshold =      1.0E-08
     mixing beta               =       0.7000
     number of iterations used =            8  local-TF  mixing
     Exchange-correlation= BEEF-VDW
                           (   1   4  43  14   2   0   0)

     celldm(1)=  14.172946  celldm(2)=   0.000000  celldm(3)=   0.000000
     celldm(4)=   0.000000  celldm(5)=   0.000000  celldm(6)=   0.000000

     crystal axes: (cart. coord. in units of alat)
               a(1) = (   1.000000   0.000000   0.000000 )  
               a(2) = (   0.500000   0.866025   0.000000 )  
               a(3) = (   0.000000   0.000000   3.477667 )  

     reciprocal axes: (cart. coord. in units 2 pi/alat)
               b(1) = (  1.000000 -0.577350  0.000000 )  
               b(2) = (  0.000000  1.154701  0.000000 )  
               b(3) = (  0.000000  0.000000  0.287549 )  


     PseudoPot. # 1 for Co read from file:
     /users/kbadger1/espresso/pseudo/pslibrary.1.0.0/pbe/PSEUDOPOTENTIALS/Co.pbe-n-kjpaw_psl.1.0.0.UPF
     MD5 check sum: 88af6ec42553d4236c267fdfcb472151
     Pseudo is Projector augmented-wave + core cor, Zval =  9.0
     Generated using 'atomic' code by A. Dal Corso  v.7.0
     Shape of augmentation charge: PSQ
     Using radial grid of 1193 points,  6 beta functions with: 
                l(1) =   0
                l(2) =   0
                l(3) =   1
                l(4) =   1
                l(5) =   2
                l(6) =   2
     Q(r) pseudized with 0 coefficients 


     PseudoPot. # 2 for C  read from file:
     /users/kbadger1/espresso/pseudo/pslibrary.1.0.0/pbe/PSEUDOPOTENTIALS/C.pbe-n-kjpaw_psl.1.0.0.UPF
     MD5 check sum: 6408e75cdba28732cea38a4db8498ce4
     Pseudo is Projector augmented-wave + core cor, Zval =  4.0
     Generated using 'atomic' code by A. Dal Corso  v.7.0
     Shape of augmentation charge: PSQ
     Using radial grid of 1073 points,  4 beta functions with: 
                l(1) =   0
                l(2) =   0
                l(3) =   1
                l(4) =   1
     Q(r) pseudized with 0 coefficients 


     PseudoPot. # 3 for O  read from file:
     /users/kbadger1/espresso/pseudo/pslibrary.1.0.0/pbe/PSEUDOPOTENTIALS/O.pbe-nl-kjpaw_psl.1.0.0.UPF
     MD5 check sum: f0439fab3598ca4e468f064226030408
     Pseudo is Projector augmented-wave + core cor, Zval =  6.0
     Generated using 'atomic' code by A. Dal Corso  v.7.0
     Shape of augmentation charge: PSQ
     Using radial grid of 1095 points,  4 beta functions with: 
                l(1) =   0
                l(2) =   0
                l(3) =   1
                l(4) =   1
     Q(r) pseudized with 0 coefficients 


     PseudoPot. # 4 for H  read from file:
     /users/kbadger1/espresso/pseudo/pslibrary.1.0.0/pbe/PSEUDOPOTENTIALS/H.pbe-kjpaw_psl.1.0.0.UPF
     MD5 check sum: fe4c6fa958fa6d3815bf5d2419cbf1df
     Pseudo is Projector augmented-wave, Zval =  1.0
     Generated using 'atomic' code by A. Dal Corso  v.7.0
     Shape of augmentation charge: PSQ
     Using radial grid of  929 points,  2 beta functions with: 
                l(1) =   0
                l(2) =   0
     Q(r) pseudized with 0 coefficients 


     atomic species   valence    mass     pseudopotential
        Co             9.00    58.93319     Co( 1.00)
        C              4.00    12.00000     C ( 1.00)
        O              6.00    15.99491     O ( 1.00)
        H              1.00     1.00783     H ( 1.00)

     Starting magnetic structure 
     atomic species   magnetization
        Co           1.000
        C            1.000
        O            0.000
        H            0.000

     No symmetry found



   Cartesian axes

     site n.     atom                  positions (alat units)
         1           Co  tau(   1) = (   0.0000000   0.1924501   1.3333333  )
         2           Co  tau(   2) = (   0.3333333   0.1924501   1.3333333  )
         3           Co  tau(   3) = (   0.6666667   0.1924501   1.3333333  )
         4           Co  tau(   4) = (   0.1666667   0.4811252   1.3333333  )
         5           Co  tau(   5) = (   0.5000000   0.4811252   1.3333333  )
         6           Co  tau(   6) = (   0.8333333   0.4811252   1.3333333  )
         7           Co  tau(   7) = (   0.3333333   0.7698004   1.3333333  )
         8           Co  tau(   8) = (   0.6666667   0.7698004   1.3333333  )
         9           Co  tau(   9) = (   1.0000000   0.7698004   1.3333333  )
        10           Co  tau(  10) = (   0.0000000   0.0000000   1.6036667  )
        11           Co  tau(  11) = (   0.3333333   0.0000000   1.6036667  )
        12           Co  tau(  12) = (   0.6666667   0.0000000   1.6036667  )
        13           Co  tau(  13) = (   0.1666667   0.2886751   1.6036667  )
        14           Co  tau(  14) = (   0.5000000   0.2886751   1.6036667  )
        15           Co  tau(  15) = (   0.8333333   0.2886751   1.6036667  )
        16           Co  tau(  16) = (   0.3333333   0.5773503   1.6036667  )
        17           Co  tau(  17) = (   0.6666667   0.5773503   1.6036667  )
        18           Co  tau(  18) = (   1.0000000   0.5773503   1.6036667  )
        19           Co  tau(  19) = (   0.0000000   0.1924501   1.8740000  )
        20           Co  tau(  20) = (   0.3333333   0.1924501   1.8740000  )
        21           Co  tau(  21) = (   0.6666667   0.1924501   1.8740000  )
        22           Co  tau(  22) = (   0.1666667   0.4811252   1.8740000  )
        23           Co  tau(  23) = (   0.5000000   0.4811252   1.8740000  )
        24           Co  tau(  24) = (   0.8333333   0.4811252   1.8740000  )
        25           Co  tau(  25) = (   0.3333333   0.7698004   1.8740000  )
        26           Co  tau(  26) = (   0.6666667   0.7698004   1.8740000  )
        27           Co  tau(  27) = (   1.0000000   0.7698004   1.8740000  )
        28           Co  tau(  28) = (   0.0000000   0.0000000   2.1443333  )
        29           Co  tau(  29) = (   0.3333333   0.0000000   2.1443333  )
        30           Co  tau(  30) = (   0.6666667   0.0000000   2.1443333  )
        31           Co  tau(  31) = (   0.1666667   0.2886751   2.1443333  )
        32           Co  tau(  32) = (   0.5000000   0.2886751   2.1443333  )
        33           Co  tau(  33) = (   0.8333333   0.2886751   2.1443333  )
        34           Co  tau(  34) = (   0.3333333   0.5773503   2.1443333  )
        35           Co  tau(  35) = (   0.6666667   0.5773503   2.1443333  )
        36           Co  tau(  36) = (   1.0000000   0.5773503   2.1443333  )
        37           C   tau(  37) = (   0.3898628   0.2162312   2.3538144  )
        38           O   tau(  38) = (   0.2346702   0.1487141   2.3868206  )
        39           H   tau(  39) = (   0.4721282   0.2463706   2.4716224  )

     number of k points=    13  Marzari-Vanderbilt smearing, width (Ry)=  0.0010
                       cart. coord. in units 2pi/alat
        k(    1) = (   0.0000000   0.0000000   0.0000000), wk =   0.0400000
        k(    2) = (   0.0000000   0.2309401   0.0000000), wk =   0.0800000
        k(    3) = (   0.0000000   0.4618802   0.0000000), wk =   0.0800000
        k(    4) = (   0.2000000  -0.1154701   0.0000000), wk =   0.0800000
        k(    5) = (   0.2000000   0.1154701   0.0000000), wk =   0.0800000
        k(    6) = (   0.2000000   0.3464102   0.0000000), wk =   0.0800000
        k(    7) = (   0.2000000  -0.5773503   0.0000000), wk =   0.0800000
        k(    8) = (   0.2000000  -0.3464102   0.0000000), wk =   0.0800000
        k(    9) = (   0.4000000  -0.2309401   0.0000000), wk =   0.0800000
        k(   10) = (   0.4000000   0.0000000   0.0000000), wk =   0.0800000
        k(   11) = (   0.4000000   0.2309401   0.0000000), wk =   0.0800000
        k(   12) = (   0.4000000  -0.6928203   0.0000000), wk =   0.0800000
        k(   13) = (   0.4000000  -0.4618802   0.0000000), wk =   0.0800000

     Dense  grid:   752179 G-vectors     FFT dimensions: (  80,  80, 288)

     Smooth grid:   409445 G-vectors     FFT dimensions: (  64,  64, 225)

     Estimated max dynamical RAM per process >      99.02 MB

     Estimated total dynamical RAM >       9.28 GB
     Generating pointlists ...
     new r_m :   0.1021 (alat units)  1.4470 (a.u.) for type    1
     new r_m :   0.0606 (alat units)  0.8583 (a.u.) for type    2
     new r_m :   0.0711 (alat units)  1.0081 (a.u.) for type    3
     new r_m :   0.0606 (alat units)  0.8583 (a.u.) for type    4

     Initial potential from superposition of free atoms

     starting charge     334.9897, renormalised to     335.0000

     negative rho (up, down):  3.018E-03 4.697E-04


     %%%%%%%%%%%%%%%%%%%%%%%%%%%%%%%%%%%%%%%%%%%%%%%%%%%%%%%%%%%%%%%%%%%%%%%%
     %                                                                      %
     % You are using vdW-DF, which was implemented by the Thonhauser group. %
     % Please cite the following two papers that made this development      %
     % possible and the two reviews that describe the various versions:     %
     %                                                                      %
     %   T. Thonhauser et al., PRL 115, 136402 (2015).                      %
     %   T. Thonhauser et al., PRB 76, 125112 (2007).                       %
     %   K. Berland et al., Rep. Prog. Phys. 78, 066501 (2015).             %
     %   D.C. Langreth et al., J. Phys.: Condens. Matter 21, 084203 (2009). %
     %                                                                      %
     % If you are calculating stress with vdW-DF, please also cite:         %
     %                                                                      %
     %   R. Sabatini et al., J. Phys.: Condens. Matter 24, 424209 (2012).   %
     %   C.M. Frostenson et al., Electr. Struct. 4, 014001 (2022).          %
     %                                                                      %
     %%%%%%%%%%%%%%%%%%%%%%%%%%%%%%%%%%%%%%%%%%%%%%%%%%%%%%%%%%%%%%%%%%%%%%%%

     %%%%%%%%%%%%%%%%%%%%%%%%%%%%%%%%%%%%%%%%%%%%%%%%%%%%%%%%%%%%%%%%%%%%%%%%
     %                                                                      %
     %  vdW-DF NEWS:                                                        %
     %                                                                      %
     %  * vdW-DF3 is now available. DOI: 10.1021/acs.jctc.0c00471           %
     %    use with input_dft = 'vdW-DF3-opt1' or 'vdW-DF3-opt2'             %
     %                                                                      %
     %  * Unscreened and range-separated hybrid vdW-DF-cx functionals       %
     %    DOI: 10.1063/1.4986522 and 10.1088/1361-648X/ac2ad2               %
     %    use with input_dft = 'vdW-DF-cx0'    and 'vdW-DF-ahcx'            %
     %  * Unscreened and range-separated hybrid vdW-DF2-b86r functionals    %
     %    DOI: 10.1063/1.4986522 and DOI: 10.1103/PhysRevX.12.041003        %
     %    use with input_dft = 'vdW-DF2-br0' and 'vdW-DF2-ahbr'             %
     %                                                                      %
     %%%%%%%%%%%%%%%%%%%%%%%%%%%%%%%%%%%%%%%%%%%%%%%%%%%%%%%%%%%%%%%%%%%%%%%%


     Starting wfcs are  333 randomized atomic wfcs
     Checking if some PAW data can be deallocated... 

     total cpu time spent up to now is       12.7 secs

     per-process dynamical memory:   232.7 Mb

     Self-consistent Calculation

     iteration #  1     ecut=    50.00 Ry     beta= 0.70
     Davidson diagonalization with overlap
     ethr =  1.00E-02,  avg # of iterations =  2.0

     negative rho (up, down):  2.268E-05 8.075E-08

     total cpu time spent up to now is       38.3 secs

     total energy              =   -6053.07920099 Ry
     estimated scf accuracy    <      39.67327487 Ry

     total magnetization       =    69.00 Bohr mag/cell
     absolute magnetization    =    81.10 Bohr mag/cell

     iteration #  2     ecut=    50.00 Ry     beta= 0.70
     Davidson diagonalization with overlap
     ethr =  1.00E-02,  avg # of iterations =  1.0

     negative rho (up, down):  2.271E-06 3.075E-09

     total cpu time spent up to now is       56.2 secs

     total energy              =   -6052.50758860 Ry
     estimated scf accuracy    <      24.95354252 Ry

     total magnetization       =    69.00 Bohr mag/cell
     absolute magnetization    =    76.74 Bohr mag/cell

     iteration #  3     ecut=    50.00 Ry     beta= 0.70
     Davidson diagonalization with overlap
     ethr =  7.45E-03,  avg # of iterations =  1.0

     negative rho (up, down):  1.589E-08 0.000E+00

     total cpu time spent up to now is       73.6 secs

     total energy              =   -6055.15061658 Ry
     estimated scf accuracy    <      85.02583061 Ry

     total magnetization       =    66.28 Bohr mag/cell
     absolute magnetization    =    73.26 Bohr mag/cell

     iteration #  4     ecut=    50.00 Ry     beta= 0.70
     Davidson diagonalization with overlap
     ethr =  7.45E-03,  avg # of iterations =  1.0

     total cpu time spent up to now is       91.4 secs

     total energy              =   -6056.31967964 Ry
     estimated scf accuracy    <       5.72523758 Ry

     total magnetization       =    60.63 Bohr mag/cell
     absolute magnetization    =    70.30 Bohr mag/cell

     iteration #  5     ecut=    50.00 Ry     beta= 0.70
     Davidson diagonalization with overlap
     ethr =  1.71E-03,  avg # of iterations =  1.3

     total cpu time spent up to now is      109.5 secs

     total energy              =   -6056.38557084 Ry
     estimated scf accuracy    <       2.39811050 Ry

     total magnetization       =    60.46 Bohr mag/cell
     absolute magnetization    =    69.66 Bohr mag/cell

     iteration #  6     ecut=    50.00 Ry     beta= 0.70
     Davidson diagonalization with overlap
     ethr =  7.16E-04,  avg # of iterations =  1.5

     total cpu time spent up to now is      127.0 secs

     total energy              =   -6056.48065701 Ry
     estimated scf accuracy    <       0.52859647 Ry

     total magnetization       =    60.47 Bohr mag/cell
     absolute magnetization    =    69.48 Bohr mag/cell

     iteration #  7     ecut=    50.00 Ry     beta= 0.70
     Davidson diagonalization with overlap
     ethr =  1.58E-04,  avg # of iterations =  6.2

     total cpu time spent up to now is      153.2 secs

     total energy              =   -6056.52039543 Ry
     estimated scf accuracy    <       0.82838284 Ry

     total magnetization       =    60.73 Bohr mag/cell
     absolute magnetization    =    69.27 Bohr mag/cell

     iteration #  8     ecut=    50.00 Ry     beta= 0.70
     Davidson diagonalization with overlap
     ethr =  1.58E-04,  avg # of iterations =  1.7

     total cpu time spent up to now is      167.4 secs

     total energy              =   -6056.52618690 Ry
     estimated scf accuracy    <       0.15452414 Ry

     total magnetization       =    61.01 Bohr mag/cell
     absolute magnetization    =    69.34 Bohr mag/cell

     iteration #  9     ecut=    50.00 Ry     beta= 0.70
     Davidson diagonalization with overlap
     c_bands:  2 eigenvalues not converged
     c_bands:  3 eigenvalues not converged
     c_bands:  1 eigenvalues not converged
     ethr =  4.61E-05,  avg # of iterations = 11.7

     total cpu time spent up to now is      199.0 secs

     total energy              =   -6056.54206394 Ry
     estimated scf accuracy    <       0.22806078 Ry

     total magnetization       =    61.32 Bohr mag/cell
     absolute magnetization    =    69.27 Bohr mag/cell

     iteration # 10     ecut=    50.00 Ry     beta= 0.70
     Davidson diagonalization with overlap
     ethr =  4.61E-05,  avg # of iterations =  1.7

     total cpu time spent up to now is      219.9 secs

     total energy              =   -6056.53920659 Ry
     estimated scf accuracy    <       0.17317040 Ry

     total magnetization       =    61.32 Bohr mag/cell
     absolute magnetization    =    69.20 Bohr mag/cell

     iteration # 11     ecut=    50.00 Ry     beta= 0.70
     Davidson diagonalization with overlap
     ethr =  4.61E-05,  avg # of iterations =  1.6

     total cpu time spent up to now is      238.2 secs

     total energy              =   -6056.53605109 Ry
     estimated scf accuracy    <       0.12168465 Ry

     total magnetization       =    61.31 Bohr mag/cell
     absolute magnetization    =    69.02 Bohr mag/cell

     iteration # 12     ecut=    50.00 Ry     beta= 0.70
     Davidson diagonalization with overlap
     ethr =  3.63E-05,  avg # of iterations =  1.5

     negative rho (up, down):  3.668E-06 0.000E+00

     total cpu time spent up to now is      255.1 secs

     total energy              =   -6056.53686370 Ry
     estimated scf accuracy    <       0.08707997 Ry

     total magnetization       =    61.27 Bohr mag/cell
     absolute magnetization    =    68.90 Bohr mag/cell

     iteration # 13     ecut=    50.00 Ry     beta= 0.70
     Davidson diagonalization with overlap
     ethr =  2.60E-05,  avg # of iterations =  1.6

     total cpu time spent up to now is      272.6 secs

     total energy              =   -6056.53566642 Ry
     estimated scf accuracy    <       0.08676419 Ry

     total magnetization       =    61.32 Bohr mag/cell
     absolute magnetization    =    68.91 Bohr mag/cell

     iteration # 14     ecut=    50.00 Ry     beta= 0.70
     Davidson diagonalization with overlap
     ethr =  2.59E-05,  avg # of iterations =  1.5

     negative rho (up, down):  1.444E-03 6.290E-04

     total cpu time spent up to now is      289.7 secs

     total energy              =   -6056.53037293 Ry
     estimated scf accuracy    <       0.07474995 Ry

     total magnetization       =    61.32 Bohr mag/cell
     absolute magnetization    =    68.95 Bohr mag/cell

     iteration # 15     ecut=    50.00 Ry     beta= 0.70
     Davidson diagonalization with overlap
     c_bands:  2 eigenvalues not converged
     ethr =  2.23E-05,  avg # of iterations =  3.1

     negative rho (up, down):  6.095E-03 4.755E-03

     total cpu time spent up to now is      310.0 secs

     total energy              =   -6056.52803501 Ry
     estimated scf accuracy    <       0.06407461 Ry

     total magnetization       =    61.32 Bohr mag/cell
     absolute magnetization    =    68.90 Bohr mag/cell

     iteration # 16     ecut=    50.00 Ry     beta= 0.70
     Davidson diagonalization with overlap
     c_bands:  3 eigenvalues not converged
     c_bands:  2 eigenvalues not converged
     ethr =  1.91E-05,  avg # of iterations =  3.5

     negative rho (up, down):  2.025E-02 1.850E-02

     total cpu time spent up to now is      332.7 secs

     total energy              =   -6056.52535417 Ry
     estimated scf accuracy    <       0.04077278 Ry

     total magnetization       =    61.33 Bohr mag/cell
     absolute magnetization    =    68.88 Bohr mag/cell

     iteration # 17     ecut=    50.00 Ry     beta= 0.70
     Davidson diagonalization with overlap
     c_bands:  2 eigenvalues not converged
     c_bands:  2 eigenvalues not converged
     ethr =  1.22E-05,  avg # of iterations =  4.7

     negative rho (up, down):  2.299E-02 2.133E-02

     total cpu time spent up to now is      356.9 secs

     total energy              =   -6056.52453840 Ry
     estimated scf accuracy    <       0.07207323 Ry

     total magnetization       =    61.33 Bohr mag/cell
     absolute magnetization    =    68.85 Bohr mag/cell

     iteration # 18     ecut=    50.00 Ry     beta= 0.70
     Davidson diagonalization with overlap
     ethr =  1.22E-05,  avg # of iterations =  1.3

     negative rho (up, down):  1.264E-02 1.138E-02

     total cpu time spent up to now is      371.7 secs

     total energy              =   -6056.52546925 Ry
     estimated scf accuracy    <       0.03471332 Ry

     total magnetization       =    61.32 Bohr mag/cell
     absolute magnetization    =    68.84 Bohr mag/cell

     iteration # 19     ecut=    50.00 Ry     beta= 0.70
     Davidson diagonalization with overlap
     ethr =  1.04E-05,  avg # of iterations =  1.3

     negative rho (up, down):  2.146E-02 2.016E-02

     total cpu time spent up to now is      389.4 secs

     total energy              =   -6056.52290866 Ry
     estimated scf accuracy    <       0.01387785 Ry

     total magnetization       =    61.32 Bohr mag/cell
     absolute magnetization    =    68.86 Bohr mag/cell

     iteration # 20     ecut=    50.00 Ry     beta= 0.70
     Davidson diagonalization with overlap
     c_bands:  3 eigenvalues not converged
     ethr =  4.14E-06,  avg # of iterations =  4.8

     negative rho (up, down):  1.955E-02 1.843E-02

     total cpu time spent up to now is      406.8 secs

     total energy              =   -6056.52176992 Ry
     estimated scf accuracy    <       0.02400236 Ry

     total magnetization       =    61.32 Bohr mag/cell
     absolute magnetization    =    68.85 Bohr mag/cell

     iteration # 21     ecut=    50.00 Ry     beta= 0.70
     Davidson diagonalization with overlap
     ethr =  4.14E-06,  avg # of iterations =  1.4

     negative rho (up, down):  1.706E-02 1.625E-02

     total cpu time spent up to now is      428.8 secs

     total energy              =   -6056.52151354 Ry
     estimated scf accuracy    <       0.01420455 Ry

     total magnetization       =    61.32 Bohr mag/cell
     absolute magnetization    =    68.85 Bohr mag/cell

     iteration # 22     ecut=    50.00 Ry     beta= 0.70
     Davidson diagonalization with overlap
     ethr =  4.14E-06,  avg # of iterations =  1.3

     negative rho (up, down):  2.340E-02 2.264E-02

     total cpu time spent up to now is      445.9 secs

     total energy              =   -6056.52192190 Ry
     estimated scf accuracy    <       0.01029162 Ry

     total magnetization       =    61.32 Bohr mag/cell
     absolute magnetization    =    68.85 Bohr mag/cell

     iteration # 23     ecut=    50.00 Ry     beta= 0.70
     Davidson diagonalization with overlap
     ethr =  3.07E-06,  avg # of iterations =  1.5

     negative rho (up, down):  1.566E-02 1.502E-02

     total cpu time spent up to now is      463.0 secs

     total energy              =   -6056.52188505 Ry
     estimated scf accuracy    <       0.00091312 Ry

     total magnetization       =    61.32 Bohr mag/cell
     absolute magnetization    =    68.85 Bohr mag/cell

     iteration # 24     ecut=    50.00 Ry     beta= 0.70
     Davidson diagonalization with overlap
     ethr =  2.73E-07,  avg # of iterations =  5.3

     negative rho (up, down):  1.108E-02 1.046E-02

     total cpu time spent up to now is      487.6 secs

     total energy              =   -6056.52181633 Ry
     estimated scf accuracy    <       0.00146544 Ry

     total magnetization       =    61.32 Bohr mag/cell
     absolute magnetization    =    68.86 Bohr mag/cell

     iteration # 25     ecut=    50.00 Ry     beta= 0.70
     Davidson diagonalization with overlap
     c_bands:  3 eigenvalues not converged
     ethr =  2.73E-07,  avg # of iterations =  2.3

     negative rho (up, down):  8.791E-03 8.169E-03

     total cpu time spent up to now is      509.3 secs

     total energy              =   -6056.52206660 Ry
     estimated scf accuracy    <       0.00188459 Ry

     total magnetization       =    61.32 Bohr mag/cell
     absolute magnetization    =    68.86 Bohr mag/cell

     iteration # 26     ecut=    50.00 Ry     beta= 0.70
     Davidson diagonalization with overlap
     ethr =  2.73E-07,  avg # of iterations =  2.3

     negative rho (up, down):  4.956E-03 4.208E-03

     total cpu time spent up to now is      527.5 secs

     total energy              =   -6056.52198950 Ry
     estimated scf accuracy    <       0.00040081 Ry

     total magnetization       =    61.32 Bohr mag/cell
     absolute magnetization    =    68.86 Bohr mag/cell

     iteration # 27     ecut=    50.00 Ry     beta= 0.70
     Davidson diagonalization with overlap
     ethr =  1.20E-07,  avg # of iterations =  2.0

     negative rho (up, down):  4.163E-03 3.343E-03

     total cpu time spent up to now is      547.6 secs

     total energy              =   -6056.52201640 Ry
     estimated scf accuracy    <       0.00072915 Ry

     total magnetization       =    61.32 Bohr mag/cell
     absolute magnetization    =    68.86 Bohr mag/cell

     iteration # 28     ecut=    50.00 Ry     beta= 0.70
     Davidson diagonalization with overlap
     ethr =  1.20E-07,  avg # of iterations =  1.6

     negative rho (up, down):  5.223E-03 4.396E-03

     total cpu time spent up to now is      567.8 secs

     total energy              =   -6056.52208434 Ry
     estimated scf accuracy    <       0.00042348 Ry

     total magnetization       =    61.32 Bohr mag/cell
     absolute magnetization    =    68.86 Bohr mag/cell

     iteration # 29     ecut=    50.00 Ry     beta= 0.70
     Davidson diagonalization with overlap
     ethr =  1.20E-07,  avg # of iterations =  1.3

     negative rho (up, down):  4.529E-03 3.708E-03

     total cpu time spent up to now is      581.7 secs

     total energy              =   -6056.52205364 Ry
     estimated scf accuracy    <       0.00027186 Ry

     total magnetization       =    61.32 Bohr mag/cell
     absolute magnetization    =    68.86 Bohr mag/cell

     iteration # 30     ecut=    50.00 Ry     beta= 0.70
     Davidson diagonalization with overlap
     ethr =  8.12E-08,  avg # of iterations =  1.3

     negative rho (up, down):  4.193E-03 3.289E-03

     total cpu time spent up to now is      601.3 secs

     total energy              =   -6056.52206658 Ry
     estimated scf accuracy    <       0.00018951 Ry

     total magnetization       =    61.32 Bohr mag/cell
     absolute magnetization    =    68.86 Bohr mag/cell

     iteration # 31     ecut=    50.00 Ry     beta= 0.70
     Davidson diagonalization with overlap
     ethr =  5.66E-08,  avg # of iterations =  1.5

     negative rho (up, down):  2.930E-03 1.872E-03

     total cpu time spent up to now is      616.8 secs

     total energy              =   -6056.52205137 Ry
     estimated scf accuracy    <       0.00009756 Ry

     total magnetization       =    61.32 Bohr mag/cell
     absolute magnetization    =    68.86 Bohr mag/cell

     iteration # 32     ecut=    50.00 Ry     beta= 0.70
     Davidson diagonalization with overlap
     ethr =  2.91E-08,  avg # of iterations =  2.1

     negative rho (up, down):  2.471E-03 1.346E-03

     total cpu time spent up to now is      638.4 secs

     total energy              =   -6056.52205443 Ry
     estimated scf accuracy    <       0.00010303 Ry

     total magnetization       =    61.32 Bohr mag/cell
     absolute magnetization    =    68.86 Bohr mag/cell

     iteration # 33     ecut=    50.00 Ry     beta= 0.70
     Davidson diagonalization with overlap
     ethr =  2.91E-08,  avg # of iterations =  1.5

     negative rho (up, down):  2.492E-03 1.384E-03

     total cpu time spent up to now is      656.0 secs

     total energy              =   -6056.52205634 Ry
     estimated scf accuracy    <       0.00005109 Ry

     total magnetization       =    61.32 Bohr mag/cell
     absolute magnetization    =    68.86 Bohr mag/cell

     iteration # 34     ecut=    50.00 Ry     beta= 0.70
     Davidson diagonalization with overlap
     ethr =  1.53E-08,  avg # of iterations =  3.1

     negative rho (up, down):  2.333E-03 1.227E-03

     total cpu time spent up to now is      675.9 secs

     total energy              =   -6056.52205530 Ry
     estimated scf accuracy    <       0.00013722 Ry

     total magnetization       =    61.32 Bohr mag/cell
     absolute magnetization    =    68.86 Bohr mag/cell

     iteration # 35     ecut=    50.00 Ry     beta= 0.70
     Davidson diagonalization with overlap
     ethr =  1.53E-08,  avg # of iterations =  1.2

     negative rho (up, down):  2.309E-03 1.200E-03

     total cpu time spent up to now is      693.3 secs

     total energy              =   -6056.52205957 Ry
     estimated scf accuracy    <       0.00000471 Ry

     total magnetization       =    61.32 Bohr mag/cell
     absolute magnetization    =    68.86 Bohr mag/cell

     iteration # 36     ecut=    50.00 Ry     beta= 0.70
     Davidson diagonalization with overlap
     ethr =  1.41E-09,  avg # of iterations =  8.5

     negative rho (up, down):  2.284E-03 1.180E-03

     total cpu time spent up to now is      722.2 secs

     total energy              =   -6056.52206031 Ry
     estimated scf accuracy    <       0.00000779 Ry

     total magnetization       =    61.32 Bohr mag/cell
     absolute magnetization    =    68.86 Bohr mag/cell

     iteration # 37     ecut=    50.00 Ry     beta= 0.70
     Davidson diagonalization with overlap
     ethr =  1.41E-09,  avg # of iterations =  1.5

     negative rho (up, down):  2.303E-03 1.196E-03

     total cpu time spent up to now is      741.1 secs

     total energy              =   -6056.52206041 Ry
     estimated scf accuracy    <       0.00000245 Ry

     total magnetization       =    61.32 Bohr mag/cell
     absolute magnetization    =    68.86 Bohr mag/cell

     iteration # 38     ecut=    50.00 Ry     beta= 0.70
     Davidson diagonalization with overlap
     ethr =  7.31E-10,  avg # of iterations =  1.9

     negative rho (up, down):  2.278E-03 1.179E-03

     total cpu time spent up to now is      760.2 secs

     total energy              =   -6056.52206040 Ry
     estimated scf accuracy    <       0.00000764 Ry

     total magnetization       =    61.32 Bohr mag/cell
     absolute magnetization    =    68.86 Bohr mag/cell

     iteration # 39     ecut=    50.00 Ry     beta= 0.70
     Davidson diagonalization with overlap
     ethr =  7.31E-10,  avg # of iterations =  2.0

     negative rho (up, down):  2.281E-03 1.178E-03

     total cpu time spent up to now is      778.8 secs

     total energy              =   -6056.52206060 Ry
     estimated scf accuracy    <       0.00000185 Ry

     total magnetization       =    61.32 Bohr mag/cell
     absolute magnetization    =    68.86 Bohr mag/cell

     iteration # 40     ecut=    50.00 Ry     beta= 0.70
     Davidson diagonalization with overlap
     ethr =  5.52E-10,  avg # of iterations =  1.2

     negative rho (up, down):  2.269E-03 1.166E-03

     total cpu time spent up to now is      794.1 secs

     total energy              =   -6056.52206066 Ry
     estimated scf accuracy    <       0.00000192 Ry

     total magnetization       =    61.32 Bohr mag/cell
     absolute magnetization    =    68.86 Bohr mag/cell

     iteration # 41     ecut=    50.00 Ry     beta= 0.70
     Davidson diagonalization with overlap
     ethr =  5.52E-10,  avg # of iterations =  1.1

     negative rho (up, down):  2.265E-03 1.161E-03

     total cpu time spent up to now is      815.0 secs

     total energy              =   -6056.52206073 Ry
     estimated scf accuracy    <       0.00000082 Ry

     total magnetization       =    61.32 Bohr mag/cell
     absolute magnetization    =    68.86 Bohr mag/cell

     iteration # 42     ecut=    50.00 Ry     beta= 0.70
     Davidson diagonalization with overlap
     ethr =  2.45E-10,  avg # of iterations =  1.3

     negative rho (up, down):  2.275E-03 1.170E-03

     total cpu time spent up to now is      828.8 secs

     total energy              =   -6056.52206073 Ry
     estimated scf accuracy    <       0.00000054 Ry

     total magnetization       =    61.32 Bohr mag/cell
     absolute magnetization    =    68.86 Bohr mag/cell

     iteration # 43     ecut=    50.00 Ry     beta= 0.70
     Davidson diagonalization with overlap
     ethr =  1.61E-10,  avg # of iterations =  1.7

     negative rho (up, down):  2.261E-03 1.157E-03

     total cpu time spent up to now is      851.0 secs

     total energy              =   -6056.52206072 Ry
     estimated scf accuracy    <       0.00000072 Ry

     total magnetization       =    61.32 Bohr mag/cell
     absolute magnetization    =    68.86 Bohr mag/cell

     iteration # 44     ecut=    50.00 Ry     beta= 0.70
     Davidson diagonalization with overlap
     ethr =  1.61E-10,  avg # of iterations =  1.2

     negative rho (up, down):  2.259E-03 1.154E-03

     total cpu time spent up to now is      868.9 secs

     total energy              =   -6056.52206075 Ry
     estimated scf accuracy    <       0.00000026 Ry

     total magnetization       =    61.32 Bohr mag/cell
     absolute magnetization    =    68.86 Bohr mag/cell

     iteration # 45     ecut=    50.00 Ry     beta= 0.70
     Davidson diagonalization with overlap
     ethr =  7.89E-11,  avg # of iterations =  2.0

     negative rho (up, down):  2.251E-03 1.146E-03

     total cpu time spent up to now is      887.1 secs

     total energy              =   -6056.52206073 Ry
     estimated scf accuracy    <       0.00000034 Ry

     total magnetization       =    61.32 Bohr mag/cell
     absolute magnetization    =    68.86 Bohr mag/cell

     iteration # 46     ecut=    50.00 Ry     beta= 0.70
     Davidson diagonalization with overlap
     ethr =  7.89E-11,  avg # of iterations =  1.8

     negative rho (up, down):  2.255E-03 1.150E-03

     total cpu time spent up to now is      905.4 secs

     total energy              =   -6056.52206074 Ry
     estimated scf accuracy    <       0.00000021 Ry

     total magnetization       =    61.32 Bohr mag/cell
     absolute magnetization    =    68.86 Bohr mag/cell

     iteration # 47     ecut=    50.00 Ry     beta= 0.70
     Davidson diagonalization with overlap
     ethr =  6.20E-11,  avg # of iterations =  1.3

     negative rho (up, down):  2.248E-03 1.143E-03

     total cpu time spent up to now is      927.2 secs

     total energy              =   -6056.52206073 Ry
     estimated scf accuracy    <       0.00000009 Ry

     total magnetization       =    61.32 Bohr mag/cell
     absolute magnetization    =    68.86 Bohr mag/cell

     iteration # 48     ecut=    50.00 Ry     beta= 0.70
     Davidson diagonalization with overlap
     ethr =  2.82E-11,  avg # of iterations =  3.6

     negative rho (up, down):  2.248E-03 1.143E-03

     total cpu time spent up to now is      943.8 secs

     total energy              =   -6056.52206073 Ry
     estimated scf accuracy    <       0.00000016 Ry

     total magnetization       =    61.32 Bohr mag/cell
     absolute magnetization    =    68.86 Bohr mag/cell

     iteration # 49     ecut=    50.00 Ry     beta= 0.70
     Davidson diagonalization with overlap
     ethr =  2.82E-11,  avg # of iterations =  1.4

     negative rho (up, down):  2.245E-03 1.140E-03

     total cpu time spent up to now is      964.9 secs

     total energy              =   -6056.52206073 Ry
     estimated scf accuracy    <       0.00000002 Ry

     total magnetization       =    61.32 Bohr mag/cell
     absolute magnetization    =    68.86 Bohr mag/cell

     iteration # 50     ecut=    50.00 Ry     beta= 0.70
     Davidson diagonalization with overlap
     ethr =  5.97E-12,  avg # of iterations =  7.2

     negative rho (up, down):  2.243E-03 1.138E-03

     total cpu time spent up to now is      990.4 secs

     total energy              =   -6056.52206073 Ry
     estimated scf accuracy    <       0.00000003 Ry

     total magnetization       =    61.32 Bohr mag/cell
     absolute magnetization    =    68.86 Bohr mag/cell

     iteration # 51     ecut=    50.00 Ry     beta= 0.70
     Davidson diagonalization with overlap
     ethr =  5.97E-12,  avg # of iterations =  1.3

     negative rho (up, down):  2.242E-03 1.137E-03

     total cpu time spent up to now is     1004.8 secs

     total energy              =   -6056.52206073 Ry
     estimated scf accuracy    <       0.00000002 Ry

     total magnetization       =    61.32 Bohr mag/cell
     absolute magnetization    =    68.86 Bohr mag/cell

     iteration # 52     ecut=    50.00 Ry     beta= 0.70
     Davidson diagonalization with overlap
     ethr =  4.91E-12,  avg # of iterations =  1.5

     negative rho (up, down):  2.239E-03 1.135E-03

     total cpu time spent up to now is     1025.9 secs

     total energy              =   -6056.52206072 Ry
     estimated scf accuracy    <       0.00000002 Ry

     total magnetization       =    61.32 Bohr mag/cell
     absolute magnetization    =    68.86 Bohr mag/cell

     iteration # 53     ecut=    50.00 Ry     beta= 0.70
     Davidson diagonalization with overlap
     ethr =  4.89E-12,  avg # of iterations =  1.1

     negative rho (up, down):  2.232E-03 1.127E-03

     Magnetic moment per site  (integrated on atomic sphere of radius R)
     atom   1 (R=0.102)  charge=  6.2058  magn=  1.7667
     atom   2 (R=0.102)  charge=  6.2061  magn=  1.7567
     atom   3 (R=0.102)  charge=  6.2064  magn=  1.7608
     atom   4 (R=0.102)  charge=  6.2061  magn=  1.7612
     atom   5 (R=0.102)  charge=  6.2063  magn=  1.7611
     atom   6 (R=0.102)  charge=  6.2057  magn=  1.7669
     atom   7 (R=0.102)  charge=  6.2066  magn=  1.7685
     atom   8 (R=0.102)  charge=  6.2059  magn=  1.7660
     atom   9 (R=0.102)  charge=  6.2061  magn=  1.7631
     atom  10 (R=0.102)  charge=  6.2112  magn=  1.6913
     atom  11 (R=0.102)  charge=  6.2118  magn=  1.7008
     atom  12 (R=0.102)  charge=  6.2112  magn=  1.6947
     atom  13 (R=0.102)  charge=  6.2117  magn=  1.7017
     atom  14 (R=0.102)  charge=  6.2123  magn=  1.6823
     atom  15 (R=0.102)  charge=  6.2121  magn=  1.6970
     atom  16 (R=0.102)  charge=  6.2110  magn=  1.6950
     atom  17 (R=0.102)  charge=  6.2122  magn=  1.6942
     atom  18 (R=0.102)  charge=  6.2119  magn=  1.6878
     atom  19 (R=0.102)  charge=  6.2098  magn=  1.6913
     atom  20 (R=0.102)  charge=  6.2075  magn=  1.7360
     atom  21 (R=0.102)  charge=  6.2129  magn=  1.6657
     atom  22 (R=0.102)  charge=  6.2125  magn=  1.6701
     atom  23 (R=0.102)  charge=  6.2127  magn=  1.6624
     atom  24 (R=0.102)  charge=  6.2103  magn=  1.7039
     atom  25 (R=0.102)  charge=  6.2112  magn=  1.6902
     atom  26 (R=0.102)  charge=  6.2098  magn=  1.6885
     atom  27 (R=0.102)  charge=  6.2122  magn=  1.6801
     atom  28 (R=0.102)  charge=  6.2127  magn=  1.7908
     atom  29 (R=0.102)  charge=  6.2204  magn=  1.6770
     atom  30 (R=0.102)  charge=  6.2067  magn=  1.7677
     atom  31 (R=0.102)  charge=  6.2177  magn=  1.6909
     atom  32 (R=0.102)  charge=  6.2350  magn=  1.1319
     atom  33 (R=0.102)  charge=  6.2066  magn=  1.7715
     atom  34 (R=0.102)  charge=  6.2057  magn=  1.7739
     atom  35 (R=0.102)  charge=  6.2054  magn=  1.7711
     atom  36 (R=0.102)  charge=  6.2034  magn=  1.7978
     atom  37 (R=0.061)  charge=  0.8325  magn= -0.0239
     atom  38 (R=0.071)  charge=  3.3212  magn=  0.0259
     atom  39 (R=0.061)  charge=  0.5044  magn=  0.0013

     total cpu time spent up to now is     1040.3 secs

     End of self-consistent calculation

 ------ SPIN UP ------------


          k = 0.0000 0.0000 0.0000 ( 51087 PWs)   bands (ev):

   -21.4719 -10.2370  -7.4799  -6.8934  -6.2675  -5.6424  -5.4856  -4.5562
    -4.5415  -4.5378  -4.5359  -4.5325  -4.5010  -4.4808  -4.1682  -4.0294
    -4.0071  -4.0055  -3.9976  -3.9563  -3.9476  -3.5241  -3.4929  -3.4895
    -3.4836  -3.4596  -3.4353  -3.3684  -3.3604  -3.3593  -3.3569  -3.3468
    -3.3191  -3.2841  -3.2828  -2.9836  -2.9792  -2.9672  -2.9654  -2.9519
    -2.9338  -2.9161  -2.9045  -2.9001  -2.8946  -2.8928  -2.8907  -2.7472
    -2.7383  -2.7214  -2.7044  -2.6758  -2.6655  -2.6596  -2.6504  -2.6332
    -2.6304  -2.6184  -2.6079  -2.5381  -2.5337  -2.5294  -2.5229  -2.5218
    -2.4542  -2.2729  -2.0294  -2.0058  -2.0006  -1.9895  -1.9857  -1.9010
    -1.8840  -1.8642  -1.8583  -1.8481  -1.8311  -1.8169  -1.8092  -1.8060
    -1.8014  -1.7605  -1.7567  -1.7210  -1.7091  -1.7046  -1.6903  -1.6815
    -1.6748  -1.6677  -1.6636  -1.6625  -1.6422  -1.6344  -1.6337  -1.6295
    -1.6266  -1.6225  -1.6177  -1.6172  -1.6118  -1.6084  -1.6067  -1.6063
    -1.5936  -1.5542  -1.5487  -1.5364  -1.5296  -1.4622  -1.4573  -1.4115
    -1.2655  -1.2171  -1.1761  -1.1698  -1.1634  -1.1617  -1.1431  -1.1282
    -1.1214  -1.1213  -1.0899  -1.0731  -1.0721  -0.9534  -0.9494  -0.9444
    -0.9230  -0.8954  -0.8011  -0.7759  -0.7539  -0.7455  -0.7375  -0.7056
    -0.6866  -0.6802  -0.6760  -0.6729  -0.6610  -0.6398  -0.5751  -0.5601
    -0.4652  -0.4399  -0.4258  -0.4244  -0.4083  -0.3848  -0.3661  -0.3633
    -0.3591  -0.3566  -0.3523  -0.3512  -0.3460  -0.3384  -0.3358  -0.3300
    -0.3203  -0.3170  -0.3014  -0.2948  -0.2867  -0.2832  -0.2818  -0.2761
    -0.2568  -0.2558  -0.2352  -0.2287  -0.2241  -0.2133  -0.2093  -0.2056
    -0.2052  -0.1988  -0.1664  -0.1528  -0.1354  -0.1314  -0.1248  -0.1190
    -0.1156  -0.1125  -0.0939  -0.0861  -0.0778  -0.0609  -0.0312  -0.0282
    -0.0261  -0.0231   0.0312   0.0369   0.0392   0.0480   0.0567   0.0818
     0.4982   1.0027

          k = 0.0000 0.2309 0.0000 ( 51134 PWs)   bands (ev):

   -21.4719 -10.2371  -7.3450  -6.8658  -6.2032  -5.6491  -5.4607  -5.2261
    -4.7890  -4.7772  -4.4051  -4.2722  -4.2014  -4.1951  -4.1315  -4.0755
    -4.0580  -4.0046  -3.9274  -3.8886  -3.8623  -3.6169  -3.5129  -3.4902
    -3.4268  -3.4033  -3.3741  -3.3650  -3.3623  -3.3547  -3.3448  -3.3216
    -3.2933  -3.2504  -3.2412  -3.2190  -3.2131  -3.0370  -3.0037  -2.9897
    -2.9582  -2.9385  -2.9266  -2.9212  -2.8531  -2.8208  -2.8009  -2.7737
    -2.7613  -2.7571  -2.7464  -2.7203  -2.6269  -2.6234  -2.6007  -2.5732
    -2.5571  -2.5515  -2.5220  -2.5120  -2.4921  -2.4691  -2.4455  -2.4393
    -2.3873  -2.3073  -2.1369  -2.0993  -2.0863  -2.0559  -2.0304  -1.9757
    -1.9604  -1.9512  -1.9464  -1.9382  -1.9197  -1.9052  -1.8839  -1.8508
    -1.8180  -1.8134  -1.7985  -1.7648  -1.7526  -1.7458  -1.7384  -1.7252
    -1.7173  -1.7082  -1.7039  -1.7020  -1.6842  -1.6760  -1.6640  -1.6286
    -1.6104  -1.5781  -1.5626  -1.5289  -1.5175  -1.5142  -1.5102  -1.4992
    -1.4836  -1.4805  -1.4678  -1.4608  -1.4593  -1.4378  -1.4231  -1.4087
    -1.3941  -1.3873  -1.3437  -1.3108  -1.2975  -1.2302  -1.2124  -1.1916
    -1.1794  -1.1681  -1.1626  -1.1550  -1.1496  -1.1123  -1.0396  -1.0122
    -0.9758  -0.9732  -0.9180  -0.9038  -0.8817  -0.8341  -0.8151  -0.8009
    -0.7780  -0.7215  -0.6974  -0.6900  -0.6629  -0.6528  -0.6334  -0.6222
    -0.6102  -0.5891  -0.5801  -0.5435  -0.5256  -0.5183  -0.5090  -0.5039
    -0.4509  -0.4352  -0.4284  -0.4205  -0.4014  -0.3790  -0.3612  -0.3566
    -0.3481  -0.3402  -0.3335  -0.3256  -0.3062  -0.2974  -0.2838  -0.2490
    -0.2382  -0.2241  -0.2147  -0.1863  -0.1732  -0.1588  -0.1325  -0.1088
    -0.1006  -0.0920  -0.0794  -0.0757  -0.0523  -0.0432  -0.0405  -0.0232
    -0.0074   0.0274   0.0375   0.0510   0.0709   0.0783   0.1114   0.1228
     0.1346   0.1716   0.4117   0.4236   0.5252   0.5802   0.6563   0.6879
     0.7927   0.9166

          k = 0.0000 0.4619 0.0000 ( 51204 PWs)   bands (ev):

   -21.4719 -10.2373  -7.0495  -6.7221  -6.2015  -5.9955  -5.5555  -5.2574
    -4.9273  -4.9155  -4.7831  -4.0847  -4.0579  -4.0350  -3.9914  -3.9484
    -3.8463  -3.8394  -3.7947  -3.7198  -3.7047  -3.6920  -3.5946  -3.5300
    -3.5217  -3.5158  -3.5111  -3.4560  -3.4322  -3.4017  -3.3946  -3.2656
    -3.2412  -3.2354  -3.2187  -3.1985  -3.1857  -3.1068  -3.0913  -3.0808
    -3.0635  -3.0573  -2.9497  -2.9051  -2.8592  -2.7892  -2.7607  -2.7391
    -2.7190  -2.6833  -2.6765  -2.6725  -2.6620  -2.6399  -2.5937  -2.5747
    -2.5424  -2.5295  -2.5040  -2.4382  -2.3733  -2.3675  -2.3333  -2.3014
    -2.2741  -2.2509  -2.2340  -2.2110  -2.2050  -2.1454  -2.1136  -2.0808
    -2.0756  -2.0740  -2.0656  -2.0488  -2.0346  -2.0250  -1.9834  -1.9666
    -1.9548  -1.9352  -1.9045  -1.8921  -1.8604  -1.8383  -1.7842  -1.7680
    -1.7543  -1.7361  -1.7212  -1.6980  -1.6781  -1.6559  -1.6415  -1.6351
    -1.6199  -1.6170  -1.5939  -1.5801  -1.5699  -1.5606  -1.5465  -1.5217
    -1.5161  -1.4936  -1.4630  -1.4514  -1.4057  -1.3712  -1.3513  -1.3396
    -1.3360  -1.3134  -1.2743  -1.2449  -1.2346  -1.2190  -1.2126  -1.2067
    -1.1952  -1.1913  -1.1781  -1.1729  -1.1611  -1.1519  -1.1400  -1.1303
    -1.1059  -1.0871  -1.0270  -1.0076  -0.9833  -0.9708  -0.9537  -0.9337
    -0.9126  -0.8637  -0.8553  -0.8350  -0.8205  -0.7831  -0.7658  -0.7181
    -0.7011  -0.6596  -0.6449  -0.6358  -0.6185  -0.6059  -0.5859  -0.5173
    -0.4670  -0.4612  -0.4384  -0.4244  -0.4209  -0.4127  -0.4064  -0.3924
    -0.3760  -0.3515  -0.2932  -0.2778  -0.2648  -0.2582  -0.2490  -0.2408
    -0.2286  -0.2192  -0.2090  -0.1937  -0.1739  -0.1428  -0.1005  -0.0746
    -0.0702  -0.0568  -0.0379   0.0159   0.0290   0.0433   0.0568   0.0999
     0.1063   0.1436   0.1478   0.1693   0.1730   0.1780   0.1980   0.2035
     0.2757   0.2906   0.4192   0.9509   1.2004   1.3670   1.4036   1.4464
     1.6380   1.7747

          k = 0.2000-0.1155 0.0000 ( 51134 PWs)   bands (ev):

   -21.4719 -10.2375  -7.3447  -6.8659  -6.2004  -5.6366  -5.4668  -5.2380
    -4.7874  -4.7718  -4.4099  -4.2796  -4.2001  -4.1949  -4.1333  -4.0761
    -4.0493  -4.0036  -3.9325  -3.8851  -3.8607  -3.6200  -3.5103  -3.4905
    -3.4352  -3.4047  -3.3727  -3.3649  -3.3627  -3.3546  -3.3388  -3.3221
    -3.2941  -3.2489  -3.2410  -3.2187  -3.2130  -3.0488  -3.0016  -2.9875
    -2.9504  -2.9372  -2.9285  -2.9208  -2.8606  -2.8183  -2.8012  -2.7735
    -2.7617  -2.7571  -2.7422  -2.7217  -2.6311  -2.6210  -2.6025  -2.5668
    -2.5564  -2.5517  -2.5208  -2.5117  -2.4893  -2.4687  -2.4454  -2.4376
    -2.3920  -2.3042  -2.1390  -2.0994  -2.0884  -2.0567  -2.0316  -1.9780
    -1.9605  -1.9509  -1.9429  -1.9380  -1.9207  -1.9068  -1.8879  -1.8492
    -1.8152  -1.8116  -1.7958  -1.7655  -1.7489  -1.7441  -1.7367  -1.7259
    -1.7183  -1.7095  -1.7045  -1.7025  -1.6898  -1.6759  -1.6567  -1.6333
    -1.6091  -1.5822  -1.5593  -1.5283  -1.5197  -1.5144  -1.5108  -1.4982
    -1.4843  -1.4818  -1.4672  -1.4613  -1.4596  -1.4382  -1.4253  -1.4080
    -1.3932  -1.3871  -1.3482  -1.3140  -1.2940  -1.2238  -1.2100  -1.1908
    -1.1785  -1.1712  -1.1609  -1.1543  -1.1484  -1.1178  -1.0464  -1.0080
    -0.9762  -0.9579  -0.9195  -0.9043  -0.8813  -0.8367  -0.8148  -0.7972
    -0.7784  -0.7306  -0.7000  -0.6944  -0.6610  -0.6551  -0.6283  -0.6216
    -0.6130  -0.5899  -0.5748  -0.5436  -0.5276  -0.5194  -0.5078  -0.5038
    -0.4470  -0.4384  -0.4254  -0.4203  -0.4034  -0.3838  -0.3588  -0.3556
    -0.3488  -0.3407  -0.3342  -0.3269  -0.3075  -0.2980  -0.2808  -0.2460
    -0.2384  -0.2243  -0.2108  -0.1848  -0.1802  -0.1564  -0.1312  -0.1084
    -0.0982  -0.0915  -0.0798  -0.0768  -0.0516  -0.0451  -0.0399  -0.0320
    -0.0060   0.0271   0.0391   0.0512   0.0713   0.0778   0.1097   0.1231
     0.1376   0.1726   0.4158   0.4233   0.5153   0.5861   0.6527   0.6906
     0.7738   0.9098

          k = 0.2000 0.1155 0.0000 ( 51134 PWs)   bands (ev):

   -21.4719 -10.2381  -7.3432  -6.8661  -6.1929  -5.6034  -5.4897  -5.2713
    -4.7806  -4.7614  -4.4154  -4.3012  -4.2022  -4.1912  -4.1340  -4.0806
    -4.0209  -4.0052  -3.9398  -3.8772  -3.8603  -3.6192  -3.5110  -3.4972
    -3.4300  -3.4025  -3.3700  -3.3652  -3.3638  -3.3518  -3.3339  -3.3251
    -3.2850  -3.2494  -3.2473  -3.2162  -3.2124  -3.0420  -2.9898  -2.9872
    -2.9517  -2.9426  -2.9279  -2.9256  -2.8618  -2.8208  -2.8132  -2.7808
    -2.7644  -2.7577  -2.7427  -2.7302  -2.6311  -2.6244  -2.6026  -2.5837
    -2.5631  -2.5328  -2.5207  -2.5022  -2.4887  -2.4680  -2.4471  -2.4418
    -2.3977  -2.2855  -2.1355  -2.1038  -2.0863  -2.0588  -2.0358  -1.9724
    -1.9606  -1.9535  -1.9458  -1.9332  -1.9242  -1.9073  -1.8737  -1.8623
    -1.8311  -1.8083  -1.7844  -1.7733  -1.7481  -1.7455  -1.7399  -1.7204
    -1.7129  -1.7081  -1.7066  -1.7030  -1.6791  -1.6764  -1.6507  -1.6429
    -1.5979  -1.5769  -1.5663  -1.5328  -1.5169  -1.5095  -1.5059  -1.4979
    -1.4891  -1.4790  -1.4766  -1.4613  -1.4608  -1.4352  -1.4207  -1.4076
    -1.3956  -1.3895  -1.3669  -1.3235  -1.2977  -1.2073  -1.1968  -1.1894
    -1.1768  -1.1743  -1.1651  -1.1593  -1.1485  -1.1411  -1.0412  -1.0156
    -0.9698  -0.9492  -0.9051  -0.9017  -0.8730  -0.8491  -0.8225  -0.8058
    -0.7519  -0.7279  -0.7083  -0.6899  -0.6611  -0.6594  -0.6287  -0.6242
    -0.6036  -0.5971  -0.5743  -0.5307  -0.5196  -0.5119  -0.5003  -0.4967
    -0.4664  -0.4371  -0.4300  -0.4180  -0.4111  -0.3798  -0.3683  -0.3532
    -0.3480  -0.3410  -0.3351  -0.3213  -0.3032  -0.3015  -0.2759  -0.2583
    -0.2332  -0.2234  -0.2096  -0.1959  -0.1724  -0.1682  -0.1207  -0.1044
    -0.0996  -0.0906  -0.0866  -0.0757  -0.0519  -0.0454  -0.0343  -0.0247
    -0.0021   0.0339   0.0417   0.0491   0.0756   0.0781   0.1086   0.1248
     0.1589   0.1669   0.4123   0.4177   0.4864   0.5691   0.6474   0.6743
     0.7493   0.9395

          k = 0.2000 0.3464 0.0000 ( 51202 PWs)   bands (ev):

   -21.4719 -10.2385  -7.1174  -6.7878  -6.1084  -5.7016  -5.6155  -5.4227
    -5.3626  -4.5146  -4.4429  -4.2047  -4.1958  -4.1463  -3.9900  -3.9815
    -3.8923  -3.8811  -3.8686  -3.7525  -3.7389  -3.6217  -3.6020  -3.5396
    -3.4998  -3.4154  -3.4013  -3.3882  -3.3727  -3.3531  -3.3326  -3.3153
    -3.3030  -3.2795  -3.2640  -3.2294  -3.1938  -3.1515  -3.1469  -3.0563
    -3.0297  -2.9452  -2.9266  -2.8998  -2.8764  -2.8707  -2.7841  -2.7577
    -2.7270  -2.6949  -2.6880  -2.6764  -2.6467  -2.6234  -2.6118  -2.6023
    -2.5808  -2.5287  -2.4685  -2.4156  -2.4054  -2.3926  -2.3686  -2.3471
    -2.3301  -2.2514  -2.2106  -2.1491  -2.1396  -2.1075  -2.0888  -2.0717
    -2.0518  -2.0439  -2.0301  -2.0212  -2.0006  -1.9831  -1.9796  -1.9695
    -1.9528  -1.9088  -1.8712  -1.8530  -1.7926  -1.7857  -1.7726  -1.7444
    -1.7392  -1.7063  -1.6997  -1.6755  -1.6643  -1.6416  -1.6320  -1.6185
    -1.6124  -1.6015  -1.5928  -1.5839  -1.5738  -1.5689  -1.5447  -1.5264
    -1.5206  -1.5073  -1.4784  -1.4489  -1.4323  -1.4039  -1.3943  -1.3859
    -1.3742  -1.3621  -1.3331  -1.3081  -1.2852  -1.2780  -1.2610  -1.2359
    -1.2170  -1.2074  -1.2013  -1.1943  -1.1732  -1.1485  -1.1340  -1.0989
    -1.0698  -1.0417  -1.0269  -0.9976  -0.9465  -0.9094  -0.8927  -0.8419
    -0.7929  -0.7850  -0.7741  -0.7635  -0.7518  -0.7345  -0.7209  -0.7095
    -0.6880  -0.6751  -0.6468  -0.6274  -0.6067  -0.5927  -0.5796  -0.5634
    -0.5443  -0.5296  -0.5027  -0.4900  -0.4836  -0.4339  -0.3784  -0.3374
    -0.3164  -0.3036  -0.2902  -0.2761  -0.2605  -0.2479  -0.2439  -0.2303
    -0.2234  -0.2068  -0.1561  -0.1333  -0.1251  -0.1140  -0.0783  -0.0614
    -0.0506  -0.0455  -0.0336  -0.0212  -0.0140  -0.0037   0.0034   0.0220
     0.0334   0.0664   0.1117   0.1193   0.1357   0.1677   0.1726   0.1872
     0.4842   0.5171   0.5669   0.6804   0.8427   0.8658   1.1457   1.3588
     1.4269   1.5794

          k = 0.2000-0.5774 0.0000 ( 51262 PWs)   bands (ev):

   -21.4719 -10.2380  -6.9833  -6.4088  -6.3913  -5.9921  -5.7065  -5.5233
    -5.0444  -4.9350  -4.5401  -4.1890  -3.9522  -3.8983  -3.8047  -3.7769
    -3.7696  -3.7448  -3.7354  -3.7074  -3.6756  -3.6594  -3.6559  -3.6507
    -3.5711  -3.5418  -3.5092  -3.5053  -3.4802  -3.4695  -3.3776  -3.3486
    -3.3251  -3.3149  -3.2938  -3.2522  -3.2039  -3.1545  -3.0602  -3.0295
    -3.0239  -2.9921  -2.9487  -2.9200  -2.8972  -2.8171  -2.8116  -2.8059
    -2.7405  -2.7276  -2.6563  -2.6331  -2.6185  -2.5886  -2.5438  -2.5266
    -2.4872  -2.4471  -2.4401  -2.4296  -2.4244  -2.4044  -2.3736  -2.3131
    -2.2847  -2.2390  -2.2241  -2.2121  -2.2082  -2.1544  -2.1370  -2.1090
    -2.0824  -2.0555  -2.0445  -2.0285  -2.0113  -2.0033  -1.9717  -1.9642
    -1.9479  -1.9395  -1.9276  -1.9018  -1.8956  -1.8902  -1.8304  -1.8182
    -1.7888  -1.7650  -1.7338  -1.7117  -1.6927  -1.6722  -1.6532  -1.6338
    -1.6255  -1.6157  -1.6052  -1.5949  -1.5817  -1.5736  -1.5492  -1.5266
    -1.4886  -1.4714  -1.4538  -1.4478  -1.4313  -1.4262  -1.4183  -1.4112
    -1.4045  -1.3919  -1.3758  -1.3565  -1.3272  -1.3060  -1.2825  -1.2661
    -1.2164  -1.1985  -1.1757  -1.1637  -1.1372  -1.1236  -1.1136  -1.0974
    -1.0581  -1.0488  -1.0357  -1.0031  -0.9510  -0.9136  -0.9028  -0.8804
    -0.8697  -0.8614  -0.8490  -0.8182  -0.8034  -0.7902  -0.7619  -0.7325
    -0.7135  -0.6917  -0.6793  -0.6665  -0.6444  -0.6140  -0.5963  -0.5910
    -0.5740  -0.5513  -0.5395  -0.5345  -0.4935  -0.4604  -0.4400  -0.3463
    -0.3014  -0.2863  -0.2766  -0.2664  -0.2576  -0.2512  -0.2443  -0.2079
    -0.1943  -0.1858  -0.1739  -0.1571  -0.1269  -0.1191  -0.0528  -0.0484
    -0.0317  -0.0211  -0.0088   0.0029   0.0468   0.0519   0.0564   0.0656
     0.0795   0.1482   0.1548   0.1664   0.1748   0.1894   0.2058   0.2304
     0.3286   0.5373   0.6329   0.8901   1.3489   1.4633   1.5392   1.7642
     1.9402   1.9928

          k = 0.2000-0.3464 0.0000 ( 51202 PWs)   bands (ev):

   -21.4719 -10.2374  -7.1202  -6.7904  -6.1163  -5.7250  -5.6162  -5.4242
    -5.3136  -4.5318  -4.4245  -4.2058  -4.1997  -4.1409  -3.9886  -3.9837
    -3.8929  -3.8739  -3.8635  -3.7571  -3.7500  -3.6141  -3.6092  -3.5412
    -3.5008  -3.4277  -3.4005  -3.3895  -3.3676  -3.3466  -3.3368  -3.3313
    -3.3081  -3.2844  -3.2677  -3.2329  -3.1962  -3.1544  -3.1381  -3.0517
    -3.0335  -2.9331  -2.9262  -2.9019  -2.8903  -2.8558  -2.7654  -2.7336
    -2.7217  -2.6994  -2.6903  -2.6726  -2.6465  -2.6317  -2.6098  -2.5933
    -2.5850  -2.5167  -2.4671  -2.4227  -2.4102  -2.3794  -2.3658  -2.3426
    -2.3245  -2.2940  -2.2141  -2.1475  -2.1314  -2.1145  -2.0973  -2.0670
    -2.0596  -2.0423  -2.0301  -2.0164  -2.0018  -1.9900  -1.9765  -1.9717
    -1.9470  -1.9101  -1.8638  -1.8283  -1.7936  -1.7766  -1.7667  -1.7439
    -1.7363  -1.7236  -1.6954  -1.6777  -1.6618  -1.6517  -1.6303  -1.6221
    -1.6181  -1.6062  -1.6015  -1.5817  -1.5744  -1.5633  -1.5526  -1.5326
    -1.5208  -1.5087  -1.4881  -1.4458  -1.4313  -1.4088  -1.3896  -1.3813
    -1.3665  -1.3568  -1.3493  -1.2964  -1.2823  -1.2759  -1.2585  -1.2394
    -1.2153  -1.2092  -1.1998  -1.1840  -1.1712  -1.1551  -1.1406  -1.0936
    -1.0768  -1.0460  -1.0369  -0.9887  -0.9465  -0.9252  -0.8936  -0.8105
    -0.7970  -0.7817  -0.7760  -0.7652  -0.7528  -0.7377  -0.7325  -0.7119
    -0.6934  -0.6704  -0.6477  -0.6277  -0.6164  -0.5908  -0.5844  -0.5656
    -0.5470  -0.5319  -0.5020  -0.4886  -0.4827  -0.4376  -0.3703  -0.3303
    -0.3205  -0.3032  -0.2885  -0.2783  -0.2622  -0.2548  -0.2462  -0.2300
    -0.2189  -0.1937  -0.1479  -0.1393  -0.1305  -0.1247  -0.0805  -0.0557
    -0.0533  -0.0467  -0.0364  -0.0202  -0.0154  -0.0083   0.0002   0.0117
     0.0386   0.0937   0.1124   0.1195   0.1297   0.1615   0.1768   0.1987
     0.4787   0.5163   0.5327   0.7308   0.7885   0.8735   1.1768   1.3786
     1.4040   1.6080

          k = 0.4000-0.2309 0.0000 ( 51204 PWs)   bands (ev):

   -21.4719 -10.2383  -7.0499  -6.7199  -6.1922  -5.9914  -5.5443  -5.2827
    -4.9281  -4.9073  -4.7941  -4.0890  -4.0488  -4.0329  -3.9918  -3.9527
    -3.8449  -3.8397  -3.7968  -3.7198  -3.7046  -3.6917  -3.5996  -3.5290
    -3.5212  -3.5165  -3.5099  -3.4590  -3.4413  -3.4038  -3.3947  -3.2522
    -3.2406  -3.2346  -3.2171  -3.1978  -3.1858  -3.1154  -3.0956  -3.0791
    -3.0645  -3.0571  -2.9554  -2.8899  -2.8649  -2.7874  -2.7628  -2.7374
    -2.7194  -2.6834  -2.6776  -2.6714  -2.6579  -2.6406  -2.5917  -2.5746
    -2.5451  -2.5234  -2.5064  -2.4391  -2.3722  -2.3657  -2.3350  -2.3028
    -2.2830  -2.2521  -2.2312  -2.2089  -2.2006  -2.1459  -2.0971  -2.0824
    -2.0752  -2.0735  -2.0635  -2.0512  -2.0337  -2.0260  -1.9857  -1.9686
    -1.9565  -1.9327  -1.9037  -1.8891  -1.8621  -1.8347  -1.7848  -1.7635
    -1.7535  -1.7358  -1.7239  -1.7018  -1.6779  -1.6612  -1.6433  -1.6338
    -1.6241  -1.6173  -1.5965  -1.5793  -1.5700  -1.5605  -1.5489  -1.5217
    -1.5160  -1.4935  -1.4558  -1.4498  -1.4081  -1.3682  -1.3578  -1.3410
    -1.3339  -1.3152  -1.2697  -1.2449  -1.2329  -1.2182  -1.2124  -1.2066
    -1.1929  -1.1873  -1.1793  -1.1756  -1.1605  -1.1578  -1.1396  -1.1312
    -1.1096  -1.0912  -1.0304  -1.0069  -0.9815  -0.9709  -0.9566  -0.9351
    -0.9115  -0.8604  -0.8540  -0.8344  -0.8195  -0.7829  -0.7647  -0.7172
    -0.6966  -0.6639  -0.6482  -0.6358  -0.6197  -0.6048  -0.5854  -0.5156
    -0.4710  -0.4559  -0.4363  -0.4263  -0.4205  -0.4129  -0.4044  -0.3899
    -0.3735  -0.3445  -0.2939  -0.2795  -0.2662  -0.2570  -0.2472  -0.2405
    -0.2268  -0.2201  -0.2099  -0.1943  -0.1753  -0.1484  -0.1002  -0.0746
    -0.0684  -0.0556  -0.0368   0.0145   0.0326   0.0349   0.0567   0.0914
     0.1049   0.1431   0.1487   0.1692   0.1722   0.1768   0.1946   0.2040
     0.2757   0.2901   0.4052   0.9757   1.1730   1.3573   1.4054   1.4452
     1.6443   1.7801

          k = 0.4000 0.0000 0.0000 ( 51202 PWs)   bands (ev):

   -21.4719 -10.2391  -7.1171  -6.7866  -6.1039  -5.6845  -5.6197  -5.4215
    -5.3811  -4.5077  -4.4542  -4.2040  -4.1915  -4.1487  -3.9905  -3.9824
    -3.8935  -3.8850  -3.8693  -3.7517  -3.7319  -3.6234  -3.6024  -3.5384
    -3.4995  -3.4154  -3.4013  -3.3942  -3.3730  -3.3532  -3.3340  -3.3136
    -3.3021  -3.2792  -3.2625  -3.2299  -3.1932  -3.1499  -3.1463  -3.0656
    -3.0303  -2.9403  -2.9255  -2.8989  -2.8804  -2.8726  -2.7860  -2.7551
    -2.7271  -2.6933  -2.6880  -2.6757  -2.6438  -2.6211  -2.6112  -2.6000
    -2.5818  -2.5213  -2.4683  -2.4159  -2.4063  -2.3925  -2.3658  -2.3462
    -2.3317  -2.2518  -2.2160  -2.1518  -2.1412  -2.1083  -2.0891  -2.0697
    -2.0523  -2.0442  -2.0300  -2.0205  -1.9987  -1.9816  -1.9799  -1.9724
    -1.9529  -1.9084  -1.8721  -1.8575  -1.7899  -1.7845  -1.7683  -1.7449
    -1.7418  -1.7080  -1.6979  -1.6733  -1.6661  -1.6438  -1.6319  -1.6182
    -1.6125  -1.6029  -1.5907  -1.5848  -1.5748  -1.5692  -1.5461  -1.5268
    -1.5215  -1.5086  -1.4753  -1.4499  -1.4327  -1.4049  -1.3968  -1.3843
    -1.3737  -1.3601  -1.3322  -1.3074  -1.2885  -1.2760  -1.2604  -1.2270
    -1.2178  -1.2055  -1.2010  -1.1932  -1.1739  -1.1496  -1.1345  -1.0995
    -1.0695  -1.0415  -1.0258  -0.9915  -0.9494  -0.9127  -0.8920  -0.8375
    -0.7944  -0.7872  -0.7739  -0.7653  -0.7507  -0.7349  -0.7244  -0.7136
    -0.6865  -0.6766  -0.6458  -0.6281  -0.6061  -0.5932  -0.5808  -0.5626
    -0.5453  -0.5305  -0.5046  -0.4883  -0.4816  -0.4283  -0.3746  -0.3392
    -0.3164  -0.3053  -0.2889  -0.2758  -0.2626  -0.2483  -0.2402  -0.2278
    -0.2203  -0.2084  -0.1563  -0.1345  -0.1254  -0.1138  -0.0781  -0.0627
    -0.0509  -0.0467  -0.0343  -0.0232  -0.0145  -0.0042   0.0040   0.0244
     0.0288   0.0623   0.1124   0.1202   0.1321   0.1684   0.1721   0.1855
     0.4841   0.5166   0.5761   0.6480   0.8487   0.8713   1.1531   1.3651
     1.4171   1.5967

          k = 0.4000 0.2309 0.0000 ( 51204 PWs)   bands (ev):

   -21.4719 -10.2400  -7.0480  -6.7149  -6.1597  -5.9981  -5.5027  -5.3738
    -4.9268  -4.8862  -4.8287  -4.1000  -4.0274  -4.0144  -3.9912  -3.9602
    -3.8443  -3.8355  -3.7954  -3.7141  -3.6994  -3.6955  -3.6143  -3.5241
    -3.5229  -3.5125  -3.5091  -3.4581  -3.4443  -3.4022  -3.3895  -3.2420
    -3.2400  -3.2185  -3.2093  -3.1908  -3.1839  -3.1202  -3.0790  -3.0732
    -3.0647  -3.0598  -2.9552  -2.9032  -2.8840  -2.8040  -2.7830  -2.7411
    -2.7286  -2.6862  -2.6813  -2.6713  -2.6543  -2.6465  -2.5815  -2.5788
    -2.5591  -2.5441  -2.5119  -2.4286  -2.3739  -2.3591  -2.3539  -2.2998
    -2.2583  -2.2432  -2.2386  -2.2217  -2.1686  -2.1540  -2.1348  -2.0841
    -2.0794  -2.0701  -2.0579  -2.0546  -2.0303  -2.0238  -1.9964  -1.9573
    -1.9539  -1.9291  -1.9029  -1.8685  -1.8542  -1.8452  -1.7802  -1.7748
    -1.7588  -1.7427  -1.7253  -1.7133  -1.6688  -1.6504  -1.6420  -1.6337
    -1.6243  -1.6025  -1.5966  -1.5768  -1.5676  -1.5568  -1.5337  -1.5324
    -1.5097  -1.4911  -1.4498  -1.4416  -1.3874  -1.3732  -1.3573  -1.3388
    -1.3180  -1.3177  -1.2810  -1.2414  -1.2355  -1.2199  -1.2121  -1.2084
    -1.1949  -1.1911  -1.1799  -1.1793  -1.1730  -1.1602  -1.1348  -1.1323
    -1.1218  -1.0894  -1.0261  -1.0053  -0.9771  -0.9705  -0.9472  -0.9421
    -0.9189  -0.8662  -0.8496  -0.8273  -0.8151  -0.7750  -0.7697  -0.7261
    -0.7047  -0.6604  -0.6381  -0.6325  -0.6114  -0.5961  -0.5608  -0.5479
    -0.4721  -0.4570  -0.4317  -0.4253  -0.4221  -0.4121  -0.3999  -0.3988
    -0.3761  -0.3269  -0.3010  -0.2757  -0.2666  -0.2609  -0.2543  -0.2427
    -0.2339  -0.2032  -0.1987  -0.1887  -0.1798  -0.1705  -0.0898  -0.0780
    -0.0672  -0.0605  -0.0326   0.0055   0.0274   0.0350   0.0663   0.0797
     0.1039   0.1458   0.1460   0.1706   0.1722   0.1771   0.2036   0.2233
     0.2728   0.2858   0.4039   0.9802   1.2196   1.3117   1.3916   1.4187
     1.6980   1.7737

          k = 0.4000-0.6928 0.0000 ( 51262 PWs)   bands (ev):

   -21.4719 -10.2397  -6.9840  -6.3900  -6.3705  -6.0244  -5.7190  -5.4406
    -5.1463  -4.9580  -4.4930  -4.1842  -3.9519  -3.9076  -3.8196  -3.7785
    -3.7692  -3.7456  -3.7318  -3.7166  -3.6678  -3.6592  -3.6553  -3.6418
    -3.5717  -3.5446  -3.5074  -3.4992  -3.4779  -3.4766  -3.3811  -3.3343
    -3.3194  -3.3134  -3.2797  -3.2493  -3.1962  -3.1504  -3.0879  -3.0262
    -3.0231  -2.9820  -2.9506  -2.9252  -2.8904  -2.8254  -2.8182  -2.8001
    -2.7572  -2.7412  -2.6503  -2.6290  -2.6139  -2.5974  -2.5578  -2.5337
    -2.4899  -2.4466  -2.4430  -2.4320  -2.4255  -2.4125  -2.3851  -2.3067
    -2.2537  -2.2318  -2.2253  -2.2180  -2.1909  -2.1625  -2.1506  -2.1073
    -2.0785  -2.0562  -2.0417  -2.0348  -2.0231  -1.9953  -1.9770  -1.9679
    -1.9547  -1.9388  -1.9313  -1.9006  -1.8941  -1.8640  -1.8307  -1.8162
    -1.8059  -1.7609  -1.7280  -1.7193  -1.7011  -1.6578  -1.6434  -1.6371
    -1.6197  -1.6169  -1.6087  -1.5933  -1.5851  -1.5621  -1.5434  -1.5019
    -1.4852  -1.4680  -1.4534  -1.4451  -1.4293  -1.4250  -1.4202  -1.4098
    -1.3969  -1.3836  -1.3639  -1.3589  -1.3482  -1.3062  -1.2814  -1.2785
    -1.2430  -1.2076  -1.1654  -1.1539  -1.1473  -1.1313  -1.1214  -1.0972
    -1.0599  -1.0474  -1.0341  -1.0008  -0.9348  -0.9157  -0.8984  -0.8910
    -0.8764  -0.8608  -0.8363  -0.8253  -0.8016  -0.7806  -0.7564  -0.7441
    -0.7201  -0.6914  -0.6761  -0.6671  -0.6435  -0.6057  -0.5953  -0.5757
    -0.5678  -0.5555  -0.5468  -0.5301  -0.4836  -0.4684  -0.4367  -0.3511
    -0.2951  -0.2927  -0.2771  -0.2707  -0.2559  -0.2500  -0.2330  -0.2240
    -0.1967  -0.1837  -0.1719  -0.1550  -0.1345  -0.1092  -0.0511  -0.0444
    -0.0327  -0.0176  -0.0091   0.0070   0.0426   0.0500   0.0639   0.0652
     0.0860   0.1198   0.1514   0.1551   0.1699   0.1829   0.1999   0.2240
     0.3299   0.5439   0.6652   0.9338   1.2867   1.4616   1.5097   1.8015
     1.9238   1.9695

          k = 0.4000-0.4619 0.0000 ( 51262 PWs)   bands (ev):

   -21.4719 -10.2387  -6.9840  -6.4057  -6.3849  -5.9949  -5.7156  -5.4990
    -5.0746  -4.9343  -4.5295  -4.1869  -3.9522  -3.9022  -3.8133  -3.7782
    -3.7693  -3.7444  -3.7332  -3.7084  -3.6729  -3.6600  -3.6559  -3.6492
    -3.5726  -3.5416  -3.5102  -3.5036  -3.4800  -3.4698  -3.3832  -3.3491
    -3.3247  -3.3159  -3.2916  -3.2508  -3.1924  -3.1544  -3.0779  -3.0296
    -3.0241  -2.9823  -2.9477  -2.9234  -2.8971  -2.8180  -2.8109  -2.8024
    -2.7413  -2.7272  -2.6570  -2.6318  -2.6156  -2.5893  -2.5415  -2.5258
    -2.4906  -2.4465  -2.4403  -2.4287  -2.4245  -2.4080  -2.3747  -2.3142
    -2.2825  -2.2398  -2.2235  -2.2139  -2.2064  -2.1539  -2.1357  -2.1005
    -2.0795  -2.0580  -2.0445  -2.0299  -2.0164  -2.0015  -1.9712  -1.9670
    -1.9481  -1.9380  -1.9256  -1.8967  -1.8959  -1.8840  -1.8288  -1.8207
    -1.7859  -1.7678  -1.7386  -1.7142  -1.6934  -1.6734  -1.6532  -1.6372
    -1.6194  -1.6176  -1.6071  -1.5938  -1.5842  -1.5784  -1.5489  -1.5214
    -1.4876  -1.4703  -1.4534  -1.4466  -1.4341  -1.4264  -1.4194  -1.4114
    -1.4043  -1.3936  -1.3758  -1.3554  -1.3294  -1.3050  -1.2849  -1.2598
    -1.2193  -1.2025  -1.1726  -1.1624  -1.1366  -1.1258  -1.1125  -1.0983
    -1.0588  -1.0496  -1.0373  -1.0028  -0.9524  -0.9134  -0.8987  -0.8809
    -0.8704  -0.8590  -0.8494  -0.8189  -0.8013  -0.7902  -0.7641  -0.7340
    -0.7121  -0.6906  -0.6793  -0.6699  -0.6425  -0.6109  -0.6001  -0.5913
    -0.5723  -0.5536  -0.5399  -0.5321  -0.4928  -0.4606  -0.4369  -0.3451
    -0.3002  -0.2869  -0.2753  -0.2634  -0.2585  -0.2499  -0.2428  -0.2104
    -0.1912  -0.1866  -0.1740  -0.1595  -0.1274  -0.1186  -0.0515  -0.0476
    -0.0370  -0.0197  -0.0077   0.0046   0.0456   0.0534   0.0570   0.0632
     0.0806   0.1468   0.1541   0.1610   0.1743   0.1782   0.2052   0.2279
     0.3259   0.5375   0.6427   0.8813   1.3489   1.4655   1.5303   1.7997
     1.9089   1.9968

 ------ SPIN DOWN ----------


          k = 0.0000 0.0000 0.0000 ( 51087 PWs)   bands (ev):

   -21.4341 -10.3107  -7.5989  -6.8700  -6.3000  -5.6341  -5.4599  -4.3622
    -4.3445  -4.3400  -4.3362  -4.3317  -4.2952  -4.1973  -3.5040  -3.4679
    -3.4662  -3.4596  -3.4333  -3.3969  -3.2994  -2.5964  -2.5210  -2.5176
    -2.5078  -2.4808  -2.4320  -2.1129  -2.0584  -2.0522  -2.0479  -2.0432
    -2.0224  -1.9032  -1.8480  -1.8034  -1.7717  -1.7666  -1.7529  -1.7434
    -1.6614  -1.6592  -1.6228  -1.6100  -1.6037  -1.5298  -1.5020  -1.5006
    -1.4795  -1.4663  -1.3232  -1.2498  -1.2384  -1.2332  -1.2274  -1.2163
    -1.2162  -1.2020  -1.1867  -1.1655  -1.1606  -1.1421  -1.1370  -1.1245
    -1.0932  -1.0117  -0.7333  -0.5814  -0.5767  -0.5531  -0.5484  -0.4239
    -0.3631  -0.2648  -0.2444  -0.2368  -0.2262  -0.2240  -0.2165  -0.1798
    -0.1694  -0.1644  -0.1514  -0.1405  -0.1395  -0.1389  -0.0823  -0.0616
    -0.0481  -0.0336  -0.0275  -0.0126   0.0068   0.0143   0.0177   0.0254
     0.0257   0.0266   0.0495   0.0524   0.0547   0.0649   0.1005   0.1145
     0.1882   0.2140   0.2215   0.2665   0.2710   0.2778   0.2794   0.2842
     0.2902   0.2923   0.2934   0.3606   0.3612   0.3652   0.4257   0.4290
     0.4502   0.4694   0.4722   0.5056   0.6523   0.6716   0.6894   0.7219
     0.7570   0.7622   0.7696   0.7699   0.8651   0.9828   1.0664   1.1025
     1.1125   1.1298   1.2973   1.3195   1.3242   1.3279   1.3344   1.3376
     1.3593   1.4885   1.4899   1.5015   1.5072   1.5088   1.5314   1.5353
     1.5441   1.5662   1.5862   1.5943   1.6319   1.6335   1.6393   1.6531
     1.6544   1.6616   1.6647   1.6775   1.7002   1.7147   1.7413   1.7584
     1.7648   1.7726   1.7755   1.7838   1.7861   1.7907   1.7923   1.8281
     1.8478   1.8603   1.8623   1.8639   1.8772   1.8785   1.8843   1.9184
     1.9200   1.9280   1.9304   1.9360   1.9383   1.9473   1.9553   1.9562
     1.9643   2.0095   2.0121   2.0536   2.1572   2.1603   2.1671   2.1715
     2.1745   2.1770

          k = 0.0000 0.2309 0.0000 ( 51134 PWs)   bands (ev):

   -21.4341 -10.3108  -7.4565  -6.8441  -6.2281  -5.6612  -5.4436  -5.2398
    -4.7275  -4.7114  -4.1891  -4.0466  -3.7967  -3.7850  -3.7177  -3.6575
    -3.4955  -3.2392  -3.1403  -3.0991  -3.0079  -2.7370  -2.5797  -2.5059
    -2.4678  -2.4258  -2.3867  -2.1939  -2.1131  -2.0895  -2.0790  -2.0637
    -2.0332  -2.0095  -1.9908  -1.9707  -1.9459  -1.8754  -1.8079  -1.7552
    -1.7280  -1.7165  -1.6994  -1.5786  -1.5309  -1.5248  -1.5142  -1.4462
    -1.3874  -1.3734  -1.3228  -1.2968  -1.2724  -1.2485  -1.2313  -1.2244
    -1.2042  -1.2014  -1.1377  -1.1114  -1.0874  -1.0668  -1.0550  -1.0155
    -0.9853  -0.8943  -0.7723  -0.6203  -0.6051  -0.5845  -0.5749  -0.5219
    -0.4547  -0.4371  -0.3931  -0.3841  -0.2768  -0.2633  -0.2514  -0.2342
    -0.2175  -0.2061  -0.1901  -0.1751  -0.1698  -0.1557  -0.1207  -0.0674
    -0.0434  -0.0287  -0.0205  -0.0148   0.0092   0.0304   0.0389   0.0481
     0.0573   0.0632   0.0678   0.0763   0.0778   0.0833   0.1240   0.1354
     0.1564   0.1667   0.1823   0.1865   0.2059   0.2293   0.2367   0.2559
     0.2823   0.2860   0.3442   0.3688   0.3850   0.4011   0.4114   0.4280
     0.5254   0.5654   0.6259   0.6413   0.6552   0.6757   0.6967   0.7230
     0.7316   0.7470   0.7489   0.7574   0.8715   0.9897   1.0589   1.0813
     1.0870   1.0882   1.1095   1.1234   1.1531   1.1708   1.2430   1.2686
     1.3035   1.3309   1.3613   1.3692   1.3983   1.4145   1.4428   1.4735
     1.5069   1.5408   1.5510   1.5640   1.5701   1.5875   1.6104   1.6201
     1.6439   1.6786   1.7055   1.7148   1.7416   1.7488   1.7618   1.7979
     1.8094   1.8187   1.8270   1.8295   1.8497   1.8823   1.9069   1.9150
     1.9223   1.9471   1.9557   1.9677   1.9782   1.9923   2.0079   2.0142
     2.0287   2.0691   2.0713   2.0792   2.0938   2.1005   2.1162   2.1261
     2.1406   2.1592   2.1655   2.1737   2.2396   2.2621   2.2653   2.3066
     2.3384   2.3666

          k = 0.0000 0.4619 0.0000 ( 51204 PWs)   bands (ev):

   -21.4341 -10.3110  -7.0881  -6.7658  -6.2697  -6.0237  -5.5686  -5.2708
    -4.9386  -4.9221  -4.7685  -3.8547  -3.8398  -3.7139  -3.2208  -3.1763
    -3.1682  -3.0509  -2.9002  -2.8569  -2.7513  -2.7162  -2.5946  -2.5688
    -2.5499  -2.4995  -2.4501  -2.4173  -2.3499  -2.3226  -2.2918  -2.2539
    -2.2362  -2.0704  -2.0300  -1.9812  -1.9489  -1.8777  -1.8402  -1.8299
    -1.8203  -1.7925  -1.7495  -1.5637  -1.5259  -1.4931  -1.4745  -1.4452
    -1.3348  -1.3024  -1.2824  -1.2739  -1.2665  -1.2418  -1.2379  -1.2105
    -1.1918  -1.1249  -1.1154  -1.1041  -1.0737  -1.0599  -0.9564  -0.9016
    -0.8355  -0.7745  -0.7404  -0.6536  -0.6298  -0.6029  -0.5749  -0.5596
    -0.5447  -0.5284  -0.4858  -0.4665  -0.4362  -0.4025  -0.3707  -0.3525
    -0.3235  -0.3037  -0.2803  -0.2766  -0.2378  -0.2168  -0.1700  -0.1221
    -0.0905  -0.0801  -0.0469  -0.0149   0.0011   0.0284   0.0362   0.0571
     0.0864   0.0983   0.1098   0.1277   0.1317   0.1396   0.1594   0.1865
     0.1918   0.2184   0.2260   0.2369   0.2410   0.2488   0.2591   0.2823
     0.3003   0.3187   0.3730   0.4201   0.4430   0.4509   0.4857   0.5006
     0.5036   0.5235   0.5407   0.5833   0.6107   0.6145   0.6240   0.6604
     0.6808   0.6967   0.7118   0.7312   0.7547   0.8222   0.8661   0.8984
     0.9266   0.9580   1.0410   1.0782   1.1353   1.1604   1.1793   1.1836
     1.2046   1.2226   1.2508   1.2845   1.2921   1.3793   1.4426   1.4595
     1.4781   1.5089   1.5294   1.5496   1.5843   1.5937   1.6236   1.6351
     1.6646   1.6764   1.7197   1.7489   1.7793   1.7899   1.8175   1.8318
     1.8387   1.8435   1.8634   1.8929   1.9071   1.9210   1.9338   1.9600
     1.9737   2.0218   2.0278   2.0645   2.0834   2.0984   2.1101   2.1194
     2.1274   2.1537   2.1627   2.1677   2.1846   2.1951   2.1989   2.2004
     2.2222   2.2488   2.3324   2.4058   2.4123   2.5376   2.6781   2.8535
     2.8910   2.9586

          k = 0.2000-0.1155 0.0000 ( 51134 PWs)   bands (ev):

   -21.4341 -10.3112  -7.4561  -6.8442  -6.2250  -5.6482  -5.4497  -5.2534
    -4.7249  -4.7060  -4.1982  -4.0528  -3.7957  -3.7846  -3.7089  -3.6522
    -3.4982  -3.2393  -3.1364  -3.0974  -3.0157  -2.7511  -2.5675  -2.5044
    -2.4753  -2.4186  -2.3857  -2.2063  -2.1071  -2.0897  -2.0805  -2.0578
    -2.0344  -2.0066  -1.9907  -1.9675  -1.9448  -1.8806  -1.8089  -1.7687
    -1.7284  -1.7219  -1.6849  -1.5775  -1.5296  -1.5264  -1.5137  -1.4516
    -1.3832  -1.3728  -1.3258  -1.2894  -1.2723  -1.2498  -1.2302  -1.2263
    -1.2072  -1.1955  -1.1313  -1.1112  -1.0857  -1.0691  -1.0530  -1.0160
    -0.9847  -0.9031  -0.7689  -0.6191  -0.6063  -0.5846  -0.5741  -0.5227
    -0.4537  -0.4366  -0.3941  -0.3826  -0.2727  -0.2644  -0.2494  -0.2334
    -0.2191  -0.2070  -0.1910  -0.1761  -0.1684  -0.1541  -0.1223  -0.0678
    -0.0454  -0.0285  -0.0214  -0.0129   0.0107   0.0319   0.0386   0.0485
     0.0546   0.0632   0.0664   0.0753   0.0778   0.0837   0.1237   0.1369
     0.1568   0.1671   0.1794   0.1869   0.2085   0.2247   0.2383   0.2577
     0.2815   0.2902   0.3445   0.3756   0.3843   0.4010   0.4122   0.4284
     0.5269   0.5591   0.6092   0.6411   0.6470   0.6834   0.6986   0.7217
     0.7298   0.7469   0.7503   0.7566   0.8774   0.9896   1.0579   1.0791
     1.0856   1.0890   1.1062   1.1247   1.1535   1.1686   1.2421   1.2685
     1.3033   1.3280   1.3598   1.3705   1.3982   1.4154   1.4432   1.4829
     1.5059   1.5386   1.5493   1.5606   1.5705   1.5871   1.6104   1.6201
     1.6501   1.6834   1.6998   1.7164   1.7423   1.7474   1.7607   1.7988
     1.8096   1.8169   1.8260   1.8315   1.8478   1.8844   1.9072   1.9163
     1.9230   1.9442   1.9581   1.9679   1.9781   1.9915   2.0083   2.0137
     2.0283   2.0680   2.0710   2.0785   2.0932   2.1000   2.1147   2.1216
     2.1360   2.1588   2.1657   2.1725   2.2438   2.2634   2.2654   2.3002
     2.3433   2.3670

          k = 0.2000 0.1155 0.0000 ( 51134 PWs)   bands (ev):

   -21.4341 -10.3118  -7.4545  -6.8446  -6.2168  -5.6154  -5.4681  -5.2954
    -4.7089  -4.6975  -4.2071  -4.0865  -3.7943  -3.7869  -3.6660  -3.6453
    -3.5050  -3.2382  -3.1285  -3.1002  -3.0255  -2.7623  -2.5402  -2.5164
    -2.4679  -2.4097  -2.4005  -2.1858  -2.1098  -2.0826  -2.0770  -2.0617
    -2.0444  -2.0084  -1.9916  -1.9679  -1.9566  -1.8866  -1.8053  -1.7843
    -1.7267  -1.7242  -1.6555  -1.6343  -1.5423  -1.5260  -1.4807  -1.4197
    -1.3954  -1.3710  -1.3267  -1.3113  -1.2660  -1.2475  -1.2342  -1.2269
    -1.2163  -1.1720  -1.1556  -1.1094  -1.0925  -1.0566  -1.0470  -1.0172
    -0.9744  -0.8812  -0.7895  -0.6197  -0.6094  -0.5795  -0.5716  -0.5261
    -0.4732  -0.4245  -0.3946  -0.3873  -0.2892  -0.2548  -0.2508  -0.2397
    -0.2062  -0.1990  -0.1955  -0.1766  -0.1707  -0.1496  -0.1295  -0.0650
    -0.0400  -0.0294  -0.0169  -0.0156   0.0026   0.0394   0.0436   0.0508
     0.0530   0.0631   0.0655   0.0750   0.0760   0.0839   0.1260   0.1295
     0.1600   0.1642   0.1848   0.1856   0.1928   0.2310   0.2454   0.2591
     0.2807   0.2867   0.3414   0.3841   0.3920   0.4002   0.4198   0.4277
     0.5068   0.5662   0.6024   0.6397   0.6491   0.6942   0.7082   0.7228
     0.7313   0.7411   0.7518   0.7567   0.8550   0.9914   1.0579   1.0747
     1.0798   1.0914   1.1148   1.1293   1.1519   1.2151   1.2471   1.2793
     1.2977   1.3193   1.3602   1.3772   1.4072   1.4194   1.4233   1.4454
     1.5103   1.5339   1.5575   1.5695   1.5859   1.6035   1.6074   1.6277
     1.6384   1.6867   1.6972   1.7152   1.7261   1.7573   1.7643   1.7946
     1.8110   1.8163   1.8284   1.8324   1.8556   1.8790   1.9052   1.9084
     1.9194   1.9324   1.9579   1.9648   1.9831   1.9939   2.0033   2.0175
     2.0327   2.0694   2.0710   2.0752   2.0948   2.0982   2.1044   2.1291
     2.1331   2.1611   2.1641   2.1693   2.2489   2.2562   2.2658   2.3069
     2.3356   2.3769

          k = 0.2000 0.3464 0.0000 ( 51202 PWs)   bands (ev):

   -21.4341 -10.3122  -7.1910  -6.7974  -6.1105  -5.7634  -5.6938  -5.4374
    -5.3681  -4.4632  -4.3592  -3.9868  -3.9716  -3.8545  -3.1705  -3.1472
    -3.1375  -3.1275  -3.0249  -2.9452  -2.8488  -2.8404  -2.8004  -2.4743
    -2.4340  -2.3880  -2.3713  -2.3289  -2.2928  -2.2751  -2.2090  -2.1823
    -2.1707  -2.1640  -2.1322  -2.0381  -1.9856  -1.9237  -1.8061  -1.7909
    -1.7462  -1.7381  -1.6631  -1.6565  -1.6064  -1.4991  -1.4688  -1.4387
    -1.3559  -1.3119  -1.2717  -1.2661  -1.2610  -1.2471  -1.2246  -1.2113
    -1.1997  -1.1926  -1.1270  -1.0845  -1.0480  -0.9870  -0.9273  -0.8906
    -0.8303  -0.7983  -0.7755  -0.6902  -0.5910  -0.5693  -0.5616  -0.5202
    -0.5088  -0.4812  -0.4740  -0.4519  -0.4074  -0.3922  -0.3626  -0.3484
    -0.3414  -0.3200  -0.3026  -0.2786  -0.2216  -0.1907  -0.1311  -0.1164
    -0.1043  -0.0770  -0.0470  -0.0248  -0.0103   0.0043   0.0156   0.0266
     0.0412   0.0648   0.0725   0.0840   0.0978   0.1129   0.1423   0.1686
     0.1796   0.1846   0.1939   0.2072   0.2208   0.2289   0.2426   0.2547
     0.3234   0.3440   0.3513   0.3726   0.4461   0.4752   0.5016   0.5151
     0.5421   0.5577   0.5869   0.6311   0.6478   0.6609   0.6739   0.6821
     0.6923   0.7081   0.7472   0.7961   0.8192   0.8624   0.9630   0.9837
     1.0400   1.0862   1.1017   1.1250   1.1394   1.1545   1.1715   1.1829
     1.2063   1.2138   1.2210   1.2495   1.2778   1.3473   1.3848   1.3897
     1.4245   1.4399   1.4479   1.4797   1.5050   1.5532   1.5616   1.5887
     1.6262   1.6824   1.7668   1.7893   1.7973   1.8197   1.8333   1.8413
     1.8608   1.8656   1.8851   1.8938   1.9266   1.9487   1.9676   1.9748
     1.9950   2.0123   2.0274   2.0321   2.0502   2.0660   2.0766   2.0984
     2.1082   2.1178   2.1214   2.1465   2.1527   2.1818   2.2031   2.2368
     2.2430   2.2694   2.3509   2.3729   2.4272   2.4966   2.5260   2.6456
     2.7916   2.8315

          k = 0.2000-0.5774 0.0000 ( 51262 PWs)   bands (ev):

   -21.4341 -10.3117  -6.9604  -6.5233  -6.4695  -5.9996  -5.7831  -5.5342
    -5.0771  -4.9442  -4.5033  -4.0409  -3.5067  -3.3605  -3.1797  -3.1697
    -3.1583  -2.9593  -2.9143  -2.7782  -2.7597  -2.7510  -2.6373  -2.6216
    -2.6134  -2.5831  -2.5749  -2.5550  -2.3887  -2.2966  -2.2228  -2.2086
    -2.1926  -2.1738  -2.1438  -2.1373  -2.0653  -2.0148  -1.8249  -1.8042
    -1.6987  -1.6752  -1.6698  -1.5983  -1.5577  -1.5179  -1.4414  -1.4262
[...]
     atom    8 type  1   force =     0.00061539   -0.00532900   -0.10059889
     atom    9 type  1   force =    -0.00051248    0.00401644   -0.10474202
     atom   10 type  1   force =     0.00138183    0.00057195   -0.01593220
     atom   11 type  1   force =    -0.00021237    0.00023960   -0.00845535
     atom   12 type  1   force =    -0.00004947    0.00230152   -0.01277760
     atom   13 type  1   force =     0.00048113   -0.00036412   -0.00813410
     atom   14 type  1   force =     0.00051323    0.00010474   -0.01126579
     atom   15 type  1   force =    -0.00137570    0.00056764   -0.01030366
     atom   16 type  1   force =     0.00198189   -0.00099722   -0.01280757
     atom   17 type  1   force =     0.00026779   -0.00094551   -0.01039719
     atom   18 type  1   force =    -0.00149275   -0.00051786   -0.01563722
     atom   19 type  1   force =    -0.00606745   -0.00110587    0.00617509
     atom   20 type  1   force =    -0.00146738   -0.00226499    0.00030042
     atom   21 type  1   force =     0.00530928   -0.00628093    0.01086079
     atom   22 type  1   force =     0.00167253    0.00671839    0.00403954
     atom   23 type  1   force =    -0.00317974    0.00681328    0.01139912
     atom   24 type  1   force =     0.00130191    0.00038085    0.02051163
     atom   25 type  1   force =     0.00198494    0.00102292    0.01892406
     atom   26 type  1   force =    -0.00273921   -0.00396070    0.00637904
     atom   27 type  1   force =     0.00494941   -0.00088111    0.00763428
     atom   28 type  1   force =     0.05438040    0.03611811    0.16450649
     atom   29 type  1   force =    -0.03968808    0.08694697    0.18708122
     atom   30 type  1   force =    -0.01129914    0.00576974    0.11624146
     atom   31 type  1   force =     0.05987521   -0.06001726    0.16384805
     atom   32 type  1   force =     0.00789235   -0.00070309    0.03072061
     atom   33 type  1   force =     0.00254007   -0.00216808    0.11431830
     atom   34 type  1   force =    -0.00284339   -0.01177523    0.11650152
     atom   35 type  1   force =     0.00079836    0.00178452    0.11071702
     atom   36 type  1   force =    -0.00129277   -0.00157548    0.10117949
     atom   37 type  2   force =    -0.42275423   -0.22194775    0.17267026
     atom   38 type  3   force =     1.96448142    0.87645275   -1.09466727
     atom   39 type  4   force =    -0.04464264   -0.01673676   -0.06146469
     The ionic contribution  to forces
     atom    1 type  1   force =    -0.00995957    0.00083219 -111.27140930
     atom    2 type  1   force =     0.00138213    0.00068028 -111.28865812
     atom    3 type  1   force =     0.00857742   -0.00002799 -111.26865637
     atom    4 type  1   force =    -0.00441009    0.00931547 -111.26818677
     atom    5 type  1   force =     0.00436222    0.00771667 -111.26827896
     atom    6 type  1   force =     0.00004789    0.00036236 -111.25953353
     atom    7 type  1   force =    -0.00141455   -0.00103467 -111.25975572
     atom    8 type  1   force =    -0.00415382   -0.00931525 -111.27082622
     atom    9 type  1   force =     0.00556835   -0.00852906 -111.26798470
     atom   10 type  1   force =    -0.05684374   -0.03518411  -40.22609627
     atom   11 type  1   force =     0.01163555   -0.07675671  -40.31788560
     atom   12 type  1   force =     0.04520996   -0.03312514  -40.20331795
     atom   13 type  1   force =    -0.05850703    0.04812790  -40.32076885
     atom   14 type  1   force =     0.06547110    0.03867596  -40.30675848
     atom   15 type  1   force =    -0.00695946    0.01751585  -40.19132368
     atom   16 type  1   force =    -0.00406459    0.05600585  -40.20180015
     atom   17 type  1   force =     0.01103142   -0.01280109  -40.18735568
     atom   18 type  1   force =    -0.00696932   -0.00245488  -40.17920770
     atom   19 type  1   force =    -0.50459272    0.04678801   31.14402819
     atom   20 type  1   force =     0.07517183    0.03723898   30.17560463
     atom   21 type  1   force =     0.42880423   -0.00652577   31.28161590
     atom   22 type  1   force =    -0.21364122    0.45258714   31.31230462
     atom   23 type  1   force =     0.21051277    0.38566069   31.30134142
     atom   24 type  1   force =     0.00363889    0.01771172   31.67784850
     atom   25 type  1   force =    -0.06525170   -0.04793462   31.66829267
     atom   26 type  1   force =    -0.20333429   -0.47077248   31.17614857
     atom   27 type  1   force =     0.26814561   -0.41492745   31.32150463
     atom   28 type  1   force =    -2.41316319   -1.50342612  103.14417353
     atom   29 type  1   force =     0.98872337   -5.03436063   99.07295376
     atom   30 type  1   force =     1.58504585   -1.15851468  104.01711515
     atom   31 type  1   force =    -3.70661255    3.52177222   98.64072429
     atom   32 type  1   force =     4.26851236    2.62680452   98.74908490
     atom   33 type  1   force =    -0.23563855    0.49806047  104.31600386
     atom   34 type  1   force =    -0.13468190    1.90751945  104.08817905
     atom   35 type  1   force =     0.29649314   -0.36709369  104.40579122
     atom   36 type  1   force =    -0.17284891   -0.03860027  104.58359430
     atom   37 type  2   force =     5.51152036    2.37577953   57.06124022
     atom   38 type  3   force =    -7.63499451   -3.45255304   89.04778688
     atom   39 type  4   force =     1.64818725    0.62478238   15.37246775
     The local contribution  to forces
     atom    1 type  1   force =     0.01517846   -0.00369186  111.37365956
     atom    2 type  1   force =    -0.00366194   -0.00165350  111.39337488
     atom    3 type  1   force =    -0.01173824    0.00279916  111.37690807
     atom    4 type  1   force =     0.00099094   -0.00750865  111.37512183
     atom    5 type  1   force =    -0.00358700   -0.01131452  111.37629993
     atom    6 type  1   force =     0.00176632    0.00084962  111.36518308
     atom    7 type  1   force =     0.00059058    0.00057223  111.36614756
     atom    8 type  1   force =     0.00375463    0.01480245  111.37440952
     atom    9 type  1   force =    -0.00541774    0.00445555  111.37509624
     atom   10 type  1   force =     0.05647429    0.03502583   40.22022350
     atom   11 type  1   force =    -0.01281987    0.07603946   40.30622610
     atom   12 type  1   force =    -0.04432792    0.03047891   40.19608049
     atom   13 type  1   force =     0.05662897   -0.04854081   40.30932909
     atom   14 type  1   force =    -0.06450495   -0.03802333   40.29580335
     atom   15 type  1   force =     0.00857028   -0.01818199   40.18022026
     atom   16 type  1   force =     0.00242354   -0.05386663   40.19492421
     atom   17 type  1   force =    -0.01137552    0.01404547   40.17653860
     atom   18 type  1   force =     0.00906544    0.00334951   40.17296630
     atom   19 type  1   force =     0.51111681   -0.04344350  -31.12744655
     atom   20 type  1   force =    -0.07245028   -0.03403167  -30.15674952
     atom   21 type  1   force =    -0.43311465    0.01162361  -31.27484459
     atom   22 type  1   force =     0.21215548   -0.45912051  -31.29729830
     atom   23 type  1   force =    -0.20805939   -0.39185744  -31.29466246
     atom   24 type  1   force =    -0.00424028   -0.01791073  -31.67480315
     atom   25 type  1   force =     0.06332704    0.04723363  -31.66151454
     atom   26 type  1   force =     0.20723294    0.47388612  -31.16025064
     atom   27 type  1   force =    -0.27267136    0.41568053  -31.30862827
     atom   28 type  1   force =     2.34782903    1.46084895 -103.32182690
     atom   29 type  1   force =    -0.94676297    4.92388350  -99.26434007
     atom   30 type  1   force =    -1.56435113    1.14723838 -104.14077690
     atom   31 type  1   force =     3.62258304   -3.44787191  -98.81329188
     atom   32 type  1   force =    -4.26574411   -2.61577119  -98.77756134
     atom   33 type  1   force =     0.23035274   -0.49253208 -104.44181517
     atom   34 type  1   force =     0.13911358   -1.88648981 -104.21170410
     atom   35 type  1   force =    -0.29612939    0.36099350 -104.52651447
     atom   36 type  1   force =     0.17171932    0.03902317 -104.69340922
     atom   37 type  2   force =    -5.09128057   -2.15582846  -57.23002885
     atom   38 type  3   force =     5.69043331    2.58472850  -87.96698177
     atom   39 type  4   force =    -1.60220137   -0.60952864  -15.30426072
     The core correction contribution to forces
     atom    1 type  1   force =     0.00040803   -0.00011234    0.01020612
     atom    2 type  1   force =    -0.00014449   -0.00012826    0.00967852
     atom    3 type  1   force =    -0.00017795    0.00013933    0.01034967
     atom    4 type  1   force =    -0.00020814   -0.00016767    0.01007065
     atom    5 type  1   force =    -0.00002271   -0.00022959    0.01043894
     atom    6 type  1   force =    -0.00019983   -0.00001560    0.01001227
     atom    7 type  1   force =    -0.00017034   -0.00006958    0.00979365
     atom    8 type  1   force =    -0.00001100    0.00039493    0.01023125
     atom    9 type  1   force =    -0.00020339   -0.00014652    0.01001237
     atom   10 type  1   force =     0.00011563    0.00006458   -0.00206055
     atom   11 type  1   force =    -0.00025685    0.00006064   -0.00173075
     atom   12 type  1   force =     0.00019647   -0.00003766   -0.00186657
     atom   13 type  1   force =    -0.00009157   -0.00033780   -0.00171432
     atom   14 type  1   force =     0.00019935    0.00009842   -0.00194928
     atom   15 type  1   force =     0.00001910    0.00009442   -0.00166786
     atom   16 type  1   force =     0.00009229    0.00023580   -0.00187322
     atom   17 type  1   force =     0.00002915   -0.00008467   -0.00165002
     atom   18 type  1   force =    -0.00010555   -0.00005153   -0.00199317
     atom   19 type  1   force =    -0.00038093   -0.00031811    0.00142975
     atom   20 type  1   force =    -0.00026881   -0.00017162    0.00157716
     atom   21 type  1   force =     0.00092398   -0.00077617    0.00048989
     atom   22 type  1   force =    -0.00011786    0.00036291    0.00102025
     atom   23 type  1   force =    -0.00037604    0.00119842    0.00056435
     atom   24 type  1   force =     0.00005158   -0.00000678    0.00201752
     atom   25 type  1   force =     0.00044911    0.00024189    0.00188086
     atom   26 type  1   force =    -0.00051204   -0.00010496    0.00139125
     atom   27 type  1   force =     0.00007400   -0.00034776    0.00130247
     atom   28 type  1   force =     0.00320509    0.00158369   -0.00686584
     atom   29 type  1   force =    -0.00083220    0.01399324    0.00266627
     atom   30 type  1   force =    -0.00390956    0.00329586   -0.00860198
     atom   31 type  1   force =     0.01086896   -0.00868788    0.00406644
     atom   32 type  1   force =    -0.00615850   -0.00539797   -0.00076945
     atom   33 type  1   force =    -0.00104377   -0.00008887   -0.00975136
     atom   34 type  1   force =     0.00122182   -0.00409900   -0.00871345
     atom   35 type  1   force =    -0.00106572   -0.00084846   -0.00966357
     atom   36 type  1   force =     0.00006222    0.00016616   -0.01075102
     atom   37 type  2   force =     0.00630756    0.00355403   -0.00232408
     atom   38 type  3   force =    -0.01666522   -0.00738407    0.01030910
     atom   39 type  4   force =     0.00000000    0.00000000    0.00000000
     The Hubbard contrib.    to forces
     atom    1 type  1   force =     0.00000000    0.00000000    0.00000000
     atom    2 type  1   force =     0.00000000    0.00000000    0.00000000
     atom    3 type  1   force =     0.00000000    0.00000000    0.00000000
     atom    4 type  1   force =     0.00000000    0.00000000    0.00000000
     atom    5 type  1   force =     0.00000000    0.00000000    0.00000000
     atom    6 type  1   force =     0.00000000    0.00000000    0.00000000
     atom    7 type  1   force =     0.00000000    0.00000000    0.00000000
     atom    8 type  1   force =     0.00000000    0.00000000    0.00000000
     atom    9 type  1   force =     0.00000000    0.00000000    0.00000000
     atom   10 type  1   force =     0.00000000    0.00000000    0.00000000
     atom   11 type  1   force =     0.00000000    0.00000000    0.00000000
     atom   12 type  1   force =     0.00000000    0.00000000    0.00000000
     atom   13 type  1   force =     0.00000000    0.00000000    0.00000000
     atom   14 type  1   force =     0.00000000    0.00000000    0.00000000
     atom   15 type  1   force =     0.00000000    0.00000000    0.00000000
     atom   16 type  1   force =     0.00000000    0.00000000    0.00000000
     atom   17 type  1   force =     0.00000000    0.00000000    0.00000000
     atom   18 type  1   force =     0.00000000    0.00000000    0.00000000
     atom   19 type  1   force =     0.00000000    0.00000000    0.00000000
     atom   20 type  1   force =     0.00000000    0.00000000    0.00000000
     atom   21 type  1   force =     0.00000000    0.00000000    0.00000000
     atom   22 type  1   force =     0.00000000    0.00000000    0.00000000
     atom   23 type  1   force =     0.00000000    0.00000000    0.00000000
     atom   24 type  1   force =     0.00000000    0.00000000    0.00000000
     atom   25 type  1   force =     0.00000000    0.00000000    0.00000000
     atom   26 type  1   force =     0.00000000    0.00000000    0.00000000
     atom   27 type  1   force =     0.00000000    0.00000000    0.00000000
     atom   28 type  1   force =     0.00000000    0.00000000    0.00000000
     atom   29 type  1   force =     0.00000000    0.00000000    0.00000000
     atom   30 type  1   force =     0.00000000    0.00000000    0.00000000
     atom   31 type  1   force =     0.00000000    0.00000000    0.00000000
     atom   32 type  1   force =     0.00000000    0.00000000    0.00000000
     atom   33 type  1   force =     0.00000000    0.00000000    0.00000000
     atom   34 type  1   force =     0.00000000    0.00000000    0.00000000
     atom   35 type  1   force =     0.00000000    0.00000000    0.00000000
     atom   36 type  1   force =     0.00000000    0.00000000    0.00000000
     atom   37 type  2   force =     0.00000000    0.00000000    0.00000000
     atom   38 type  3   force =     0.00000000    0.00000000    0.00000000
     atom   39 type  4   force =     0.00000000    0.00000000    0.00000000
     The SCF correction term to forces
     atom    1 type  1   force =    -0.00000000    0.00000000    0.00000000
     atom    2 type  1   force =    -0.00000000   -0.00000000    0.00000000
     atom    3 type  1   force =     0.00000000   -0.00000000    0.00000000
     atom    4 type  1   force =    -0.00000000   -0.00000000    0.00000000
     atom    5 type  1   force =     0.00000000    0.00000000    0.00000000
     atom    6 type  1   force =     0.00000000   -0.00000000    0.00000000
     atom    7 type  1   force =    -0.00000000    0.00000000    0.00000000
     atom    8 type  1   force =    -0.00000000    0.00000000    0.00000000
     atom    9 type  1   force =    -0.00000000   -0.00000000    0.00000000
     atom   10 type  1   force =    -0.00000000   -0.00000000    0.00000000
     atom   11 type  1   force =    -0.00000000   -0.00000000    0.00000000
     atom   12 type  1   force =     0.00000000   -0.00000000    0.00000000
     atom   13 type  1   force =    -0.00000000    0.00000000    0.00000000
     atom   14 type  1   force =     0.00000000    0.00000000    0.00000000
     atom   15 type  1   force =     0.00000000   -0.00000000    0.00000000
     atom   16 type  1   force =    -0.00000000    0.00000000    0.00000000
     atom   17 type  1   force =    -0.00000000    0.00000000    0.00000000
     atom   18 type  1   force =     0.00000000    0.00000000    0.00000000
     atom   19 type  1   force =     0.00000000   -0.00000000   -0.00000000
     atom   20 type  1   force =    -0.00000000    0.00000000   -0.00000000
     atom   21 type  1   force =     0.00000000    0.00000000   -0.00000000
     atom   22 type  1   force =     0.00000000   -0.00000000   -0.00000000
     atom   23 type  1   force =    -0.00000000    0.00000000   -0.00000000
     atom   24 type  1   force =     0.00000000    0.00000000   -0.00000000
     atom   25 type  1   force =     0.00000000   -0.00000000   -0.00000000
     atom   26 type  1   force =    -0.00000000    0.00000000   -0.00000000
     atom   27 type  1   force =    -0.00000000   -0.00000000   -0.00000000
     atom   28 type  1   force =     0.00000000    0.00000000   -0.00000000
     atom   29 type  1   force =    -0.00000000    0.00000000   -0.00000000
     atom   30 type  1   force =    -0.00000000    0.00000000   -0.00000000
     atom   31 type  1   force =     0.00000000   -0.00000000   -0.00000000
     atom   32 type  1   force =    -0.00000000    0.00000000   -0.00000000
     atom   33 type  1   force =     0.00000000    0.00000000   -0.00000000
     atom   34 type  1   force =     0.00000000   -0.00000000   -0.00000000
     atom   35 type  1   force =     0.00000000    0.00000000   -0.00000000
     atom   36 type  1   force =    -0.00000000   -0.00000000   -0.00000000
     atom   37 type  2   force =    -0.00000477    0.00000077   -0.00000245
     atom   38 type  3   force =     0.00000025    0.00000056   -0.00000262
     atom   39 type  4   force =    -0.00000104    0.00000012   -0.00000002

     Total force =     0.009644     Total SCF correction =     0.000006

     Writing all to output data dir ./pwscf.save/

     init_run     :     11.89s CPU     12.33s WALL (       1 calls)
     electrons    :   1010.43s CPU   1027.83s WALL (       1 calls)
     forces       :      7.03s CPU      7.15s WALL (       1 calls)

     Called by init_run:
     wfcinit      :      8.79s CPU      9.10s WALL (       1 calls)
     potinit      :      1.99s CPU      2.08s WALL (       1 calls)
     hinit0       :      0.84s CPU      0.86s WALL (       1 calls)

     Called by electrons:
     c_bands      :    843.32s CPU    858.08s WALL (      53 calls)
     sum_band     :    112.78s CPU    114.21s WALL (      53 calls)
     v_of_rho     :     10.23s CPU     10.70s WALL (      54 calls)
     newd         :      2.94s CPU      3.00s WALL (      54 calls)
     PAW_pot      :     13.59s CPU     13.77s WALL (      54 calls)
     mix_rho      :     28.90s CPU     29.27s WALL (      53 calls)
     vdW_kernel   :      1.09s CPU      1.10s WALL (       1 calls)

     Called by c_bands:
     init_us_2    :      9.83s CPU     10.00s WALL (    2808 calls)
     init_us_2:cp :      9.81s CPU      9.99s WALL (    2808 calls)
     cegterg      :    816.56s CPU    830.56s WALL (    1378 calls)

     Called by *egterg:
     cdiaghg      :    207.55s CPU    209.50s WALL (    4638 calls)
     h_psi        :    412.71s CPU    420.42s WALL (    4664 calls)
     s_psi        :     39.31s CPU     40.66s WALL (    4664 calls)
     g_psi        :      0.97s CPU      1.00s WALL (    3260 calls)

     Called by h_psi:
     h_psi:calbec :     64.82s CPU     66.54s WALL (    4664 calls)
     vloc_psi     :    304.50s CPU    308.75s WALL (    4664 calls)
     add_vuspsi   :     40.87s CPU     42.60s WALL (    4664 calls)

     General routines
     calbec       :     96.15s CPU     98.22s WALL (    6146 calls)
     fft          :     10.44s CPU     10.95s WALL (    4883 calls)
     ffts         :     16.25s CPU     16.47s WALL (   24862 calls)
     fftw         :    353.55s CPU    358.31s WALL ( 1427730 calls)
     interpolate  :      0.40s CPU      0.41s WALL (     108 calls)

     Parallel routines

     PWSCF        :  17m18.16s CPU  17m41.91s WALL


   This run was terminated on:  21:28:27   7Dec2025            

=------------------------------------------------------------------------------=
   JOB DONE.
=------------------------------------------------------------------------------=
