  37  37   0   0
  0.4190497E+02  0.8468310E-09  0.8468310E-09  0.2496566E-08  0.5000000E-15
  1.000000000000000E-004
  CAR 
 unknown system                          
      8.87298550     -9.87420055  301     -0.06443239      1.00000000
     -9.874  0.0000E+00  0.0000E+00
     -9.812  0.0000E+00  0.0000E+00
     -9.749  0.0000E+00  0.0000E+00
     -9.687 -0.6242E-28 -0.3900E-29
     -9.624 -0.1003E-23 -0.6267E-25
     -9.562 -0.7327E-20 -0.4579E-21
     -9.499 -0.2431E-16 -0.1520E-17
     -9.437 -0.3542E-13 -0.2215E-14
     -9.374 -0.2388E-10 -0.1495E-11
     -9.312 -0.7223E-08 -0.4529E-09
     -9.249 -0.9712E-06 -0.6115E-07
     -9.187 -0.5711E-04 -0.3630E-05
     -9.124 -0.1418E-02 -0.9224E-04
     -9.062 -0.1356E-01 -0.9395E-03
     -8.999 -0.3317E-01 -0.3012E-02
     -8.937  0.9332E-01  0.2820E-02
     -8.874  0.3754E+00  0.2628E-01
     -8.812  0.7426E+00  0.7269E-01
     -8.749  0.2527E+01  0.2306E+00
     -8.687  0.3775E+01  0.4665E+00
     -8.624  0.1609E+01  0.5671E+00
     -8.562 -0.2278E+00  0.5529E+00
     -8.499  0.6430E+00  0.5930E+00
     -8.437  0.3133E+01  0.7888E+00
     -8.374  0.3714E+01  0.1021E+01
     -8.312  0.3629E+01  0.1248E+01
     -8.249  0.3459E+01  0.1464E+01
     -8.187  0.1165E+01  0.1537E+01
     -8.124 -0.1902E+00  0.1525E+01
     -8.062 -0.3952E+00  0.1500E+01
     -7.999 -0.5868E-01  0.1496E+01
     -7.937  0.3529E+01  0.1717E+01
     -7.875  0.7588E+01  0.2191E+01
     -7.812  0.4488E+01  0.2472E+01
     -7.750  0.4535E+00  0.2500E+01
     -7.687  0.1969E+01  0.2623E+01
     -7.625  0.4062E+01  0.2877E+01
     -7.562  0.2424E+01  0.3028E+01
     -7.500  0.2020E+01  0.3154E+01
     -7.437  0.3447E+01  0.3370E+01
     -7.375  0.2064E+01  0.3499E+01
     -7.312  0.2268E+01  0.3641E+01
     -7.250  0.7472E+01  0.4107E+01
     -7.187  0.1194E+02  0.4854E+01
     -7.125  0.8876E+01  0.5409E+01
     -7.062  0.4560E+01  0.5694E+01
     -7.000  0.4561E+01  0.5979E+01
     -6.937  0.4525E+01  0.6261E+01
     -6.875  0.2076E+01  0.6391E+01
     -6.812 -0.7238E-01  0.6387E+01
     -6.750  0.1615E+01  0.6487E+01
     -6.687  0.6029E+01  0.6864E+01
     -6.625  0.1113E+02  0.7560E+01
     -6.562  0.1655E+02  0.8594E+01
     -6.500  0.1573E+02  0.9577E+01
     -6.437  0.1043E+02  0.1023E+02
     -6.375  0.7655E+01  0.1071E+02
     -6.312  0.8201E+01  0.1122E+02
     -6.250  0.1512E+02  0.1216E+02
     -6.187  0.2433E+02  0.1368E+02
     -6.125  0.3020E+02  0.1557E+02
     -6.062  0.3381E+02  0.1768E+02
     -6.000  0.3314E+02  0.1976E+02
     -5.937  0.3421E+02  0.2189E+02
     -5.875  0.3650E+02  0.2417E+02
     -5.812  0.3226E+02  0.2619E+02
     -5.750  0.2234E+02  0.2759E+02
     -5.687  0.2375E+02  0.2907E+02
     -5.625  0.3719E+02  0.3139E+02
     -5.562  0.4654E+02  0.3430E+02
     -5.500  0.4782E+02  0.3729E+02
     -5.437  0.5104E+02  0.4048E+02
     -5.375  0.6112E+02  0.4430E+02
     -5.312  0.6462E+02  0.4834E+02
     -5.250  0.5404E+02  0.5171E+02
     -5.187  0.4747E+02  0.5468E+02
     -5.125  0.4801E+02  0.5768E+02
     -5.062  0.5441E+02  0.6108E+02
     -5.000  0.7146E+02  0.6555E+02
     -4.937  0.5925E+02  0.6925E+02
     -4.875  0.3079E+02  0.7117E+02
     -4.812  0.2915E+02  0.7299E+02
     -4.750  0.4248E+02  0.7565E+02
     -4.687  0.3535E+02  0.7786E+02
     -4.625  0.1971E+02  0.7909E+02
     -4.562  0.2550E+02  0.8068E+02
     -4.500  0.4664E+02  0.8360E+02
     -4.438  0.6225E+02  0.8749E+02
     -4.375  0.6068E+02  0.9128E+02
     -4.313  0.4842E+02  0.9431E+02
     -4.250  0.4277E+02  0.9698E+02
     -4.188  0.4415E+02  0.9974E+02
     -4.125  0.5133E+02  0.1029E+03
     -4.063  0.5957E+02  0.1067E+03
     -4.000  0.5131E+02  0.1099E+03
     -3.938  0.4341E+02  0.1126E+03
     -3.875  0.4418E+02  0.1153E+03
     -3.813  0.3940E+02  0.1178E+03
     -3.750  0.3679E+02  0.1201E+03
     -3.688  0.5115E+02  0.1233E+03
     -3.625  0.6363E+02  0.1273E+03
     -3.563  0.5972E+02  0.1310E+03
     -3.500  0.5636E+02  0.1345E+03
     -3.438  0.6146E+02  0.1384E+03
     -3.375  0.7257E+02  0.1429E+03
     -3.313  0.7739E+02  0.1477E+03
     -3.250  0.7207E+02  0.1523E+03
     -3.188  0.6630E+02  0.1564E+03
     -3.125  0.7838E+02  0.1613E+03
     -3.063  0.8674E+02  0.1667E+03
     -3.000  0.7821E+02  0.1716E+03
     -2.938  0.7683E+02  0.1764E+03
     -2.875  0.7620E+02  0.1812E+03
     -2.813  0.7937E+02  0.1861E+03
     -2.750  0.9757E+02  0.1922E+03
     -2.688  0.1073E+03  0.1989E+03
     -2.625  0.8969E+02  0.2045E+03
     -2.563  0.6620E+02  0.2087E+03
     -2.500  0.6510E+02  0.2127E+03
     -2.438  0.6629E+02  0.2169E+03
     -2.375  0.5134E+02  0.2201E+03
     -2.313  0.3579E+02  0.2223E+03
     -2.250  0.3110E+02  0.2243E+03
     -2.188  0.2738E+02  0.2260E+03
     -2.125  0.3545E+02  0.2282E+03
     -2.063  0.6118E+02  0.2320E+03
     -2.000  0.8426E+02  0.2373E+03
     -1.938  0.9191E+02  0.2430E+03
     -1.875  0.8175E+02  0.2481E+03
     -1.813  0.6235E+02  0.2520E+03
     -1.750  0.4820E+02  0.2550E+03
     -1.688  0.4292E+02  0.2577E+03
     -1.625  0.4193E+02  0.2603E+03
     -1.563  0.5116E+02  0.2635E+03
     -1.500  0.6503E+02  0.2676E+03
     -1.438  0.6332E+02  0.2716E+03
     -1.375  0.5649E+02  0.2751E+03
     -1.313  0.5528E+02  0.2785E+03
     -1.250  0.5115E+02  0.2817E+03
     -1.188  0.5444E+02  0.2851E+03
     -1.126  0.6938E+02  0.2895E+03
     -1.063  0.8114E+02  0.2946E+03
     -1.001  0.8515E+02  0.2999E+03
     -0.938  0.7344E+02  0.3045E+03
     -0.876  0.5744E+02  0.3081E+03
     -0.813  0.5409E+02  0.3114E+03
     -0.751  0.4934E+02  0.3145E+03
     -0.688  0.4328E+02  0.3172E+03
     -0.626  0.5394E+02  0.3206E+03
     -0.563  0.6633E+02  0.3247E+03
     -0.501  0.6099E+02  0.3285E+03
     -0.438  0.5882E+02  0.3322E+03
     -0.376  0.6696E+02  0.3364E+03
     -0.313  0.8434E+02  0.3417E+03
     -0.251  0.9221E+02  0.3474E+03
     -0.188  0.7039E+02  0.3518E+03
     -0.126  0.6070E+02  0.3556E+03
     -0.063  0.8785E+02  0.3611E+03
     -0.001  0.8922E+02  0.3667E+03
      0.062  0.4997E+02  0.3698E+03
      0.124  0.3892E+02  0.3723E+03
      0.187  0.5536E+02  0.3757E+03
      0.249  0.4934E+02  0.3788E+03
      0.312  0.3995E+02  0.3813E+03
      0.374  0.3567E+02  0.3835E+03
      0.437  0.2307E+02  0.3850E+03
      0.499  0.1184E+02  0.3857E+03
      0.562  0.6110E+01  0.3861E+03
      0.624  0.4958E+01  0.3864E+03
      0.687  0.6705E+01  0.3868E+03
      0.749  0.9972E+01  0.3874E+03
      0.812  0.1189E+02  0.3882E+03
      0.874  0.9663E+01  0.3888E+03
      0.937  0.9942E+01  0.3894E+03
      0.999  0.1289E+02  0.3902E+03
      1.062  0.9380E+01  0.3908E+03
      1.124  0.4865E+01  0.3911E+03
      1.187  0.6611E+01  0.3915E+03
      1.249  0.1039E+02  0.3922E+03
      1.312  0.1143E+02  0.3929E+03
      1.374  0.1092E+02  0.3936E+03
      1.437  0.7994E+01  0.3941E+03
      1.499  0.1598E+02  0.3951E+03
      1.562  0.2818E+02  0.3968E+03
      1.624  0.2599E+02  0.3984E+03
      1.687  0.1787E+02  0.3996E+03
      1.749  0.1294E+02  0.4004E+03
      1.812  0.7535E+01  0.4008E+03
      1.874  0.4139E+01  0.4011E+03
      1.937  0.4816E+01  0.4014E+03
      1.999  0.6555E+01  0.4018E+03
      2.062  0.5057E+01  0.4021E+03
      2.124  0.3448E+01  0.4023E+03
      2.186  0.6154E+01  0.4027E+03
      2.249  0.1105E+02  0.4034E+03
      2.311  0.1139E+02  0.4041E+03
      2.374  0.1082E+02  0.4048E+03
      2.436  0.1829E+02  0.4059E+03
      2.499  0.2307E+02  0.4074E+03
      2.561  0.1365E+02  0.4082E+03
      2.624  0.6510E+01  0.4086E+03
      2.686  0.8328E+01  0.4092E+03
      2.749  0.1302E+02  0.4100E+03
      2.811  0.1554E+02  0.4110E+03
      2.874  0.1380E+02  0.4118E+03
      2.936  0.1332E+02  0.4126E+03
      2.999  0.1227E+02  0.4134E+03
      3.061  0.1007E+02  0.4140E+03
      3.124  0.1378E+02  0.4149E+03
      3.186  0.1315E+02  0.4157E+03
      3.249  0.1082E+02  0.4164E+03
      3.311  0.1092E+02  0.4171E+03
      3.374  0.7536E+01  0.4176E+03
      3.436  0.6595E+01  0.4180E+03
      3.499  0.6593E+01  0.4184E+03
      3.561  0.5029E+01  0.4187E+03
      3.624  0.9631E+01  0.4193E+03
      3.686  0.1836E+02  0.4204E+03
      3.749  0.2020E+02  0.4217E+03
      3.811  0.1388E+02  0.4226E+03
      3.874  0.6740E+01  0.4230E+03
      3.936  0.7842E+01  0.4235E+03
      3.999  0.1185E+02  0.4242E+03
      4.061  0.1077E+02  0.4249E+03
      4.124  0.4738E+01  0.4252E+03
      4.186  0.1102E+00  0.4252E+03
      4.249  0.1063E+01  0.4253E+03
      4.311  0.6138E+01  0.4257E+03
      4.374  0.1650E+02  0.4267E+03
      4.436  0.2750E+02  0.4284E+03
      4.499  0.2304E+02  0.4298E+03
      4.561  0.1022E+02  0.4305E+03
      4.624  0.6602E+01  0.4309E+03
      4.686  0.8305E+01  0.4314E+03
      4.749  0.9769E+01  0.4320E+03
      4.811  0.1010E+02  0.4327E+03
      4.874  0.9151E+01  0.4332E+03
      4.936  0.1119E+02  0.4339E+03
      4.999  0.1388E+02  0.4348E+03
      5.061  0.1374E+02  0.4356E+03
      5.124  0.1271E+02  0.4364E+03
      5.186  0.8863E+01  0.4370E+03
      5.249  0.8444E+01  0.4375E+03
      5.311  0.1155E+02  0.4382E+03
      5.374  0.7891E+01  0.4387E+03
      5.436  0.5615E+01  0.4391E+03
      5.498  0.1460E+02  0.4400E+03
      5.561  0.2274E+02  0.4414E+03
      5.623  0.2130E+02  0.4428E+03
      5.686  0.2114E+02  0.4441E+03
      5.748  0.2536E+02  0.4457E+03
      5.811  0.2095E+02  0.4470E+03
      5.873  0.1510E+02  0.4479E+03
      5.936  0.1927E+02  0.4491E+03
      5.998  0.2776E+02  0.4509E+03
      6.061  0.3048E+02  0.4528E+03
      6.123  0.2304E+02  0.4542E+03
      6.186  0.1608E+02  0.4552E+03
      6.248  0.1602E+02  0.4562E+03
      6.311  0.2067E+02  0.4575E+03
      6.373  0.3015E+02  0.4594E+03
      6.436  0.2531E+02  0.4610E+03
      6.498  0.1233E+02  0.4617E+03
      6.561  0.1657E+02  0.4628E+03
      6.623  0.2838E+02  0.4645E+03
      6.686  0.3014E+02  0.4664E+03
      6.748  0.2705E+02  0.4681E+03
      6.811  0.2104E+02  0.4694E+03
      6.873  0.2083E+02  0.4707E+03
      6.936  0.2038E+02  0.4720E+03
      6.998  0.1095E+02  0.4727E+03
      7.061  0.1070E+02  0.4734E+03
      7.123  0.1934E+02  0.4746E+03
      7.186  0.2207E+02  0.4759E+03
      7.248  0.2067E+02  0.4772E+03
      7.311  0.1469E+02  0.4782E+03
      7.373  0.5228E+01  0.4785E+03
      7.436  0.5848E+00  0.4785E+03
      7.498  0.3527E+01  0.4787E+03
      7.561  0.7932E+01  0.4792E+03
      7.623  0.7561E+01  0.4797E+03
      7.686  0.3470E+01  0.4799E+03
      7.748  0.2776E+00  0.4799E+03
      7.811 -0.1321E+00  0.4799E+03
      7.873  0.4786E+00  0.4800E+03
      7.936  0.5442E+00  0.4800E+03
      7.998  0.1327E+00  0.4800E+03
      8.061 -0.3031E-01  0.4800E+03
      8.123 -0.1348E-01  0.4800E+03
      8.186 -0.1417E-02  0.4800E+03
      8.248 -0.5710E-04  0.4800E+03
      8.311 -0.9712E-06  0.4800E+03
      8.373 -0.7223E-08  0.4800E+03
      8.436 -0.2388E-10  0.4800E+03
      8.498 -0.3553E-13  0.4800E+03
      8.561  0.0000E+00  0.4800E+03
      8.623  0.0000E+00  0.4800E+03
      8.686  0.0000E+00  0.4800E+03
      8.748  0.0000E+00  0.4800E+03
      8.810  0.0000E+00  0.4800E+03
      8.873  0.0000E+00  0.4800E+03
