   37   37    1    1
  0.4190497E+02  0.8468310E-09  0.8468310E-09  0.2496566E-08  0.5000000E-15
  1.000000000000000E-004
  CAR 
 unknown system                          
    361     13    240
 
  0.1276756E-14  0.1276756E-14  0.1276756E-14  0.4000000E-01
      1         -8.874201   1.000000
      2         -7.608637   1.000000
      3         -6.543321   1.000000
      4         -6.476488   1.000000
      5         -6.466481   1.000000
      6         -6.455474   1.000000
      7         -6.449722   1.000000
      8         -6.445099   1.000000
      9         -6.426970   1.000000
     10         -6.420158   1.000000
     11         -5.994545   1.000000
     12         -5.905981   1.000000
     13         -5.902820   1.000000
     14         -5.901869   1.000000
     15         -5.892226   1.000000
     16         -5.890308   1.000000
     17         -5.575206   1.000000
     18         -5.447600   1.000000
     19         -5.445438   1.000000
     20         -5.439039   1.000000
     21         -5.433650   1.000000
     22         -5.433491   1.000000
     23         -5.362078   1.000000
     24         -5.221267   1.000000
     25         -5.215062   1.000000
     26         -5.214307   1.000000
     27         -5.206010   1.000000
     28         -5.205368   1.000000
     29         -5.052455   1.000000
     30         -5.012906   1.000000
     31         -5.005617   1.000000
     32         -5.004256   1.000000
     33         -5.001899   1.000000
     34         -4.998615   1.000000
     35         -4.969195   1.000000
     36         -4.960275   1.000000
     37         -4.955236   1.000000
     38         -4.945800   1.000000
     39         -4.943304   1.000000
     40         -4.898423   1.000000
     41         -4.790467   1.000000
     42         -4.372223   1.000000
     43         -4.368899   1.000000
     44         -4.343618   1.000000
     45         -4.340631   1.000000
     46         -4.306882   1.000000
     47         -4.303956   1.000000
     48         -4.299320   1.000000
     49         -4.290452   1.000000
     50         -4.289380   1.000000
     51         -4.243083   1.000000
     52         -4.129664   1.000000
     53         -4.109659   1.000000
     54         -4.045121   1.000000
     55         -3.910308   1.000000
     56         -3.587029   1.000000
     57         -3.569418   1.000000
     58         -3.567143   1.000000
     59         -3.554774   1.000000
     60         -3.551745   1.000000
     61         -3.539880   1.000000
     62         -3.478858   1.000000
     63         -3.384319   1.000000
     64         -3.377365   1.000000
     65         -3.364503   1.000000
     66         -3.363089   1.000000
     67         -3.358017   1.000000
     68         -3.350917   1.000000
     69         -3.322031   1.000000
     70         -3.316263   1.000000
     71         -3.314216   1.000000
     72         -3.290140   1.000000
     73         -3.286114   1.000000
     74         -3.282039   1.000000
     75         -3.257122   1.000000
     76         -3.254703   1.000000
     77         -3.229539   1.000000
     78         -3.151557   1.000000
     79         -3.140856   1.000000
     80         -3.139687   1.000000
     81         -3.132395   1.000000
     82         -3.121752   1.000000
     83         -2.942131   1.000000
     84         -2.935401   1.000000
     85         -2.925390   1.000000
     86         -2.913079   1.000000
     87         -2.905686   1.000000
     88         -2.899580   1.000000
     89         -2.892708   1.000000
     90         -2.883331   1.000000
     91         -2.875649   1.000000
     92         -2.820295   1.000000
     93         -2.817318   1.000000
     94         -2.765049   1.000000
     95         -2.762544   1.000000
     96         -2.727717   1.000000
     97         -2.727427   1.000000
     98         -2.689027   1.000000
     99         -2.685380   1.000000
    100         -2.673970   1.000000
    101         -2.670255   1.000000
    102         -2.535723   1.000000
    103         -2.525623   1.000000
    104         -2.516044   1.000000
    105         -2.498842   1.000000
    106         -2.487776   1.000000
    107         -2.480195   1.000000
    108         -2.139118   1.000000
    109         -2.029877   1.000000
    110         -2.014104   1.000000
    111         -2.001842   1.000000
    112         -1.991052   1.000000
    113         -1.988222   1.000000
    114         -1.982751   1.000000
    115         -1.979071   1.000000
    116         -1.945762   1.000000
    117         -1.945385   1.000000
    118         -1.935690   1.000000
    119         -1.930466   1.000000
    120         -1.920468   1.000000
    121         -1.859430   1.000000
    122         -1.850470   1.000000
    123         -1.732480   1.000000
    124         -1.705388   1.000000
    125         -1.703754   1.000000
    126         -1.686228   1.000000
    127         -1.685426   1.000000
    128         -1.603362   1.000000
    129         -1.585955   1.000000
    130         -1.580794   1.000000
    131         -1.524751   1.000000
    132         -1.523758   1.000000
    133         -1.517508   1.000000
    134         -1.475111   1.000000
    135         -1.294485   1.000000
    136         -1.286910   1.000000
    137         -1.258798   1.000000
    138         -1.255748   1.000000
    139         -1.244727   1.000000
    140         -1.231171   1.000000
    141         -1.182200   1.000000
    142         -1.175243   1.000000
    143         -1.021098   1.000000
    144         -1.016453   1.000000
    145         -1.012391   1.000000
    146         -1.004538   1.000000
    147         -0.999828   1.000000
    148         -0.946554   1.000000
    149         -0.850961   1.000000
    150         -0.841700   1.000000
    151         -0.835574   1.000000
    152         -0.826192   1.000000
    153         -0.821315   1.000000
    154         -0.800718   1.000000
    155         -0.799969   1.000000
    156         -0.793999   1.000000
    157         -0.790410   1.000000
    158         -0.787306   1.000000
    159         -0.784349   1.000000
    160         -0.699455   1.000000
    161         -0.680285   1.000000
    162         -0.678103   1.000000
    163         -0.662877   1.000000
    164         -0.659164   1.000000
    165         -0.657123   1.000000
    166         -0.634422   1.000000
    167         -0.620061   1.000000
    168         -0.579174   1.000000
    169         -0.576424   1.000000
    170         -0.551389   1.000000
    171         -0.544574   1.000000
    172         -0.543790   1.000000
    173         -0.541819   1.000000
    174         -0.538295   1.000000
    175         -0.535245   1.000000
    176         -0.463079   1.000000
    177         -0.446850   1.000000
    178         -0.443497   1.000001
    179         -0.432715   1.000001
    180         -0.426419   1.000002
    181         -0.422269   1.000003
    182         -0.406386   1.000007
    183         -0.345669   1.000257
    184         -0.319486   1.000921
    185         -0.314198   1.001170
    186         -0.309873   1.001416
    187         -0.297213   1.002414
    188         -0.292860   1.002874
    189         -0.114304   0.869391
    190         -0.089794   0.707168
    191         -0.015829   0.137671
    192         -0.007497   0.094214
    193          0.016530   0.007531
    194          0.019617   0.000307
    195          0.022026  -0.004775
    196          0.026853  -0.013560
    197          0.331515  -0.000000
    198          0.819254  -0.000000
    199          0.893329  -0.000000
    200          0.902750  -0.000000
    201          0.910989  -0.000000
    202          0.915112  -0.000000
    203          0.916291  -0.000000
    204          2.413899  -0.000000
    205          3.175143   0.000000
    206          3.184064   0.000000
    207          3.219886   0.000000
    208          3.228986   0.000000
    209          3.239812   0.000000
    210          4.358855   0.000000
    211          4.772972   0.000000
    212          4.775927   0.000000
    213          4.818505   0.000000
    214          4.821277   0.000000
    215          4.839866   0.000000
    216          4.841302   0.000000
    217          4.954982   0.000000
    218          5.109864   0.000000
    219          5.508943   0.000000
    220          5.540075   0.000000
    221          5.828559   0.000000
    222          5.841325   0.000000
    223          5.844182   0.000000
    224          5.862168   0.000000
    225          5.878183   0.000000
    226          6.074486   0.000000
    227          6.601696   0.000000
    228          6.628062   0.000000
    229          6.638480   0.000000
    230          6.643740   0.000000
    231          6.672115   0.000000
    232          6.848174   0.000000
    233          7.116650   0.000000
    234          7.121934   0.000000
    235          7.142021   0.000000
    236          7.166792   0.000000
    237          7.170789   0.000000
    238          7.179697   0.000000
    239          7.320506   0.000000
    240          7.872986   0.000000
 
  0.2000000E+00  0.1278043E-14  0.1276756E-14  0.8000000E-01
      1         -8.725875   1.000000
      2         -7.463477   1.000000
      3         -6.955831   1.000000
      4         -6.573899   1.000000
      5         -6.550593   1.000000
      6         -6.389159   1.000000
      7         -6.328390   1.000000
      8         -6.264632   1.000000
      9         -6.222434   1.000000
     10         -6.207775   1.000000
     11         -6.061838   1.000000
     12         -5.993719   1.000000
     13         -5.891677   1.000000
     14         -5.830400   1.000000
     15         -5.827326   1.000000
     16         -5.818072   1.000000
     17         -5.560013   1.000000
     18         -5.496647   1.000000
     19         -5.405997   1.000000
     20         -5.403941   1.000000
     21         -5.391494   1.000000
     22         -5.358703   1.000000
     23         -5.319422   1.000000
     24         -5.304868   1.000000
     25         -5.260682   1.000000
     26         -5.228306   1.000000
     27         -5.203011   1.000000
     28         -5.198684   1.000000
     29         -5.146082   1.000000
     30         -5.110889   1.000000
     31         -5.078270   1.000000
     32         -5.016687   1.000000
     33         -5.004252   1.000000
     34         -4.996442   1.000000
     35         -4.992423   1.000000
     36         -4.870048   1.000000
     37         -4.792621   1.000000
     38         -4.782409   1.000000
     39         -4.767664   1.000000
     40         -4.753516   1.000000
     41         -4.715301   1.000000
     42         -4.494611   1.000000
     43         -4.476949   1.000000
     44         -4.467076   1.000000
     45         -4.413397   1.000000
     46         -4.400975   1.000000
     47         -4.383524   1.000000
     48         -4.329751   1.000000
     49         -4.200444   1.000000
     50         -4.187634   1.000000
     51         -4.112281   1.000000
     52         -4.107171   1.000000
     53         -4.080971   1.000000
     54         -4.049584   1.000000
     55         -3.972760   1.000000
     56         -3.816779   1.000000
     57         -3.731324   1.000000
     58         -3.709274   1.000000
     59         -3.682339   1.000000
     60         -3.676784   1.000000
     61         -3.631699   1.000000
     62         -3.566876   1.000000
     63         -3.551148   1.000000
     64         -3.541712   1.000000
     65         -3.514702   1.000000
     66         -3.507999   1.000000
     67         -3.492147   1.000000
     68         -3.439559   1.000000
     69         -3.393054   1.000000
     70         -3.375950   1.000000
     71         -3.357805   1.000000
     72         -3.337629   1.000000
     73         -3.258535   1.000000
     74         -3.243998   1.000000
     75         -3.235857   1.000000
     76         -3.179077   1.000000
     77         -3.167852   1.000000
     78         -3.149619   1.000000
     79         -3.100258   1.000000
     80         -3.087472   1.000000
     81         -3.079131   1.000000
     82         -3.020718   1.000000
     83         -3.015479   1.000000
     84         -2.979864   1.000000
     85         -2.960633   1.000000
     86         -2.945788   1.000000
     87         -2.932909   1.000000
     88         -2.919812   1.000000
     89         -2.909483   1.000000
     90         -2.897472   1.000000
     91         -2.845321   1.000000
     92         -2.802989   1.000000
     93         -2.799070   1.000000
     94         -2.774539   1.000000
     95         -2.752945   1.000000
     96         -2.749457   1.000000
     97         -2.738829   1.000000
     98         -2.703676   1.000000
     99         -2.695632   1.000000
    100         -2.676642   1.000000
    101         -2.575342   1.000000
    102         -2.532751   1.000000
    103         -2.527228   1.000000
    104         -2.510294   1.000000
    105         -2.496622   1.000000
    106         -2.493177   1.000000
    107         -2.483323   1.000000
    108         -2.480088   1.000000
    109         -2.427296   1.000000
    110         -2.419213   1.000000
    111         -2.407456   1.000000
    112         -2.395605   1.000000
    113         -2.311821   1.000000
    114         -2.099401   1.000000
    115         -2.084314   1.000000
    116         -2.031917   1.000000
    117         -1.999666   1.000000
    118         -1.990052   1.000000
    119         -1.968621   1.000000
    120         -1.960314   1.000000
    121         -1.931446   1.000000
    122         -1.915045   1.000000
    123         -1.790947   1.000000
    124         -1.778665   1.000000
    125         -1.777338   1.000000
    126         -1.666041   1.000000
    127         -1.641090   1.000000
    128         -1.602978   1.000000
    129         -1.570820   1.000000
    130         -1.556857   1.000000
    131         -1.531599   1.000000
    132         -1.519958   1.000000
    133         -1.499060   1.000000
    134         -1.482151   1.000000
    135         -1.423930   1.000000
    136         -1.400980   1.000000
    137         -1.382560   1.000000
    138         -1.370696   1.000000
    139         -1.364645   1.000000
    140         -1.200886   1.000000
    141         -1.173251   1.000000
    142         -1.162166   1.000000
    143         -1.136970   1.000000
    144         -1.126569   1.000000
    145         -1.103930   1.000000
    146         -1.075291   1.000000
    147         -1.021438   1.000000
    148         -0.995833   1.000000
    149         -0.992078   1.000000
    150         -0.972640   1.000000
    151         -0.950486   1.000000
    152         -0.903815   1.000000
    153         -0.897339   1.000000
    154         -0.883462   1.000000
    155         -0.857530   1.000000
    156         -0.772708   1.000000
    157         -0.766171   1.000000
    158         -0.743351   1.000000
    159         -0.694895   1.000000
    160         -0.639319   1.000000
    161         -0.621569   1.000000
    162         -0.618730   1.000000
    163         -0.601854   1.000000
    164         -0.575460   1.000000
    165         -0.562474   1.000000
    166         -0.531155   1.000000
    167         -0.477719   1.000000
    168         -0.454178   1.000000
    169         -0.445836   1.000000
    170         -0.388729   1.000023
    171         -0.383152   1.000032
    172         -0.373500   1.000056
    173         -0.338988   1.000361
    174         -0.334957   1.000441
    175         -0.329819   1.000567
    176         -0.328861   1.000593
    177         -0.323835   1.000753
    178         -0.263811   1.008156
    179         -0.250122   1.012342
    180         -0.120208   0.900155
    181         -0.116096   0.879100
    182         -0.086260   0.679929
    183         -0.077103   0.606276
    184         -0.072169   0.565256
    185         -0.057876   0.444648
    186         -0.026496   0.203135
    187         -0.012833   0.121247
    188          0.000724   0.058189
    189          0.014720   0.012152
    190          0.085291  -0.027775
    191          0.123444  -0.011593
    192          0.145088  -0.005807
    193          0.151159  -0.004679
    194          0.295232  -0.000002
    195          0.311367  -0.000001
    196          0.320046  -0.000000
    197          0.372587  -0.000000
    198          0.647208  -0.000000
    199          0.767354  -0.000000
    200          1.185793  -0.000000
    201          1.492920  -0.000000
    202          1.495812  -0.000000
    203          1.623127  -0.000000
    204          2.261306  -0.000000
    205          2.718487   0.000000
    206          2.922556   0.000000
    207          3.426592   0.000000
    208          3.662510   0.000000
    209          3.666282   0.000000
    210          3.767301   0.000000
    211          3.971381   0.000000
    212          4.349469   0.000000
    213          4.628979   0.000000
    214          4.660070   0.000000
    215          4.948806   0.000000
    216          4.993710   0.000000
    217          5.012238   0.000000
    218          5.120211   0.000000
    219          5.230732   0.000000
    220          5.479084   0.000000
    221          5.651570   0.000000
    222          5.746467   0.000000
    223          5.849727   0.000000
    224          5.923380   0.000000
    225          6.035419   0.000000
    226          6.183528   0.000000
    227          6.220328   0.000000
    228          6.318639   0.000000
    229          6.355342   0.000000
    230          6.625644   0.000000
    231          6.724351   0.000000
    232          6.725719   0.000000
    233          6.782094   0.000000
    234          6.857809   0.000000
    235          6.913268   0.000000
    236          7.050881   0.000000
    237          7.227735   0.000000
    238          7.506710   0.000000
    239          7.554336   0.000000
    240          7.617860   0.000000
 
  0.2000000E+00  0.2000000E+00  0.1276756E-14  0.8000000E-01
      1         -8.726065   1.000000
      2         -7.463707   1.000000
      3         -6.961752   1.000000
      4         -6.569287   1.000000
      5         -6.547737   1.000000
      6         -6.389231   1.000000
      7         -6.329243   1.000000
      8         -6.270293   1.000000
      9         -6.221955   1.000000
     10         -6.202447   1.000000
     11         -6.060776   1.000000
     12         -5.992255   1.000000
     13         -5.891533   1.000000
     14         -5.834497   1.000000
     15         -5.831894   1.000000
     16         -5.818470   1.000000
     17         -5.570219   1.000000
     18         -5.478107   1.000000
     19         -5.408348   1.000000
     20         -5.401502   1.000000
     21         -5.395610   1.000000
     22         -5.356901   1.000000
     23         -5.318064   1.000000
     24         -5.302432   1.000000
     25         -5.259931   1.000000
     26         -5.226860   1.000000
     27         -5.209664   1.000000
     28         -5.200437   1.000000
     29         -5.155522   1.000000
     30         -5.106303   1.000000
     31         -5.074465   1.000000
     32         -5.026620   1.000000
     33         -5.006429   1.000000
     34         -4.993723   1.000000
     35         -4.988182   1.000000
     36         -4.879130   1.000000
     37         -4.792481   1.000000
     38         -4.784058   1.000000
     39         -4.768066   1.000000
     40         -4.752430   1.000000
     41         -4.700780   1.000000
     42         -4.492015   1.000000
     43         -4.478094   1.000000
     44         -4.446026   1.000000
     45         -4.415353   1.000000
     46         -4.402184   1.000000
     47         -4.381853   1.000000
     48         -4.333037   1.000000
     49         -4.197464   1.000000
     50         -4.187382   1.000000
     51         -4.120485   1.000000
     52         -4.107206   1.000000
     53         -4.078831   1.000000
     54         -4.050441   1.000000
     55         -3.974856   1.000000
     56         -3.800981   1.000000
     57         -3.732524   1.000000
     58         -3.705571   1.000000
     59         -3.668345   1.000000
     60         -3.664416   1.000000
     61         -3.630299   1.000000
     62         -3.570788   1.000000
     63         -3.565322   1.000000
     64         -3.529647   1.000000
     65         -3.522368   1.000000
     66         -3.515937   1.000000
     67         -3.487937   1.000000
     68         -3.439755   1.000000
     69         -3.398413   1.000000
     70         -3.370002   1.000000
     71         -3.354100   1.000000
     72         -3.337289   1.000000
     73         -3.279973   1.000000
     74         -3.258909   1.000000
     75         -3.256035   1.000000
     76         -3.177014   1.000000
     77         -3.165952   1.000000
     78         -3.149020   1.000000
     79         -3.099444   1.000000
     80         -3.075964   1.000000
     81         -3.061736   1.000000
     82         -3.034524   1.000000
     83         -3.013776   1.000000
     84         -2.977792   1.000000
     85         -2.962334   1.000000
     86         -2.951107   1.000000
     87         -2.933922   1.000000
     88         -2.917628   1.000000
     89         -2.907791   1.000000
     90         -2.888337   1.000000
     91         -2.848014   1.000000
     92         -2.807976   1.000000
     93         -2.793982   1.000000
     94         -2.779987   1.000000
     95         -2.758063   1.000000
     96         -2.751219   1.000000
     97         -2.725468   1.000000
     98         -2.703394   1.000000
     99         -2.695549   1.000000
    100         -2.681904   1.000000
    101         -2.572848   1.000000
    102         -2.535861   1.000000
    103         -2.525233   1.000000
    104         -2.514079   1.000000
    105         -2.504957   1.000000
    106         -2.492473   1.000000
    107         -2.488523   1.000000
    108         -2.473244   1.000000
    109         -2.424812   1.000000
    110         -2.418830   1.000000
    111         -2.409611   1.000000
    112         -2.394562   1.000000
    113         -2.277188   1.000000
    114         -2.117895   1.000000
    115         -2.070480   1.000000
    116         -2.034676   1.000000
    117         -2.004368   1.000000
    118         -1.990219   1.000000
    119         -1.969600   1.000000
    120         -1.964354   1.000000
    121         -1.933217   1.000000
    122         -1.922860   1.000000
    123         -1.800702   1.000000
    124         -1.784752   1.000000
    125         -1.776248   1.000000
    126         -1.675085   1.000000
    127         -1.646021   1.000000
    128         -1.590728   1.000000
    129         -1.577208   1.000000
    130         -1.564229   1.000000
    131         -1.534742   1.000000
    132         -1.523783   1.000000
    133         -1.505325   1.000000
    134         -1.493449   1.000000
    135         -1.423596   1.000000
    136         -1.394591   1.000000
    137         -1.383325   1.000000
    138         -1.371021   1.000000
    139         -1.361040   1.000000
    140         -1.195037   1.000000
    141         -1.178916   1.000000
    142         -1.167922   1.000000
    143         -1.137112   1.000000
    144         -1.123971   1.000000
    145         -1.104280   1.000000
    146         -1.069806   1.000000
    147         -1.022653   1.000000
    148         -0.992269   1.000000
    149         -0.985093   1.000000
    150         -0.974413   1.000000
    151         -0.941313   1.000000
    152         -0.904042   1.000000
    153         -0.893163   1.000000
    154         -0.885872   1.000000
    155         -0.855170   1.000000
    156         -0.771515   1.000000
    157         -0.765416   1.000000
    158         -0.738497   1.000000
    159         -0.695233   1.000000
    160         -0.646739   1.000000
    161         -0.622142   1.000000
    162         -0.618813   1.000000
    163         -0.609081   1.000000
    164         -0.578038   1.000000
    165         -0.573754   1.000000
    166         -0.532140   1.000000
    167         -0.480062   1.000000
    168         -0.453343   1.000000
    169         -0.448446   1.000000
    170         -0.388632   1.000023
    171         -0.381996   1.000034
    172         -0.373748   1.000055
    173         -0.338770   1.000365
    174         -0.335783   1.000423
    175         -0.331869   1.000513
    176         -0.330051   1.000560
    177         -0.318433   1.000967
    178         -0.270473   1.006545
    179         -0.259629   1.009308
    180         -0.131605   0.949613
    181         -0.115492   0.875863
    182         -0.082592   0.650906
    183         -0.070719   0.553087
    184         -0.066656   0.518811
    185         -0.049396   0.374333
    186         -0.016373   0.140748
    187          0.003308   0.048265
    188          0.006176   0.038020
    189          0.024559  -0.009612
    190          0.090135  -0.025578
    191          0.123255  -0.011657
    192          0.140244  -0.006853
    193          0.144711  -0.005884
    194          0.302573  -0.000001
    195          0.311477  -0.000001
    196          0.323676  -0.000000
    197          0.362846  -0.000000
    198          0.660830  -0.000000
    199          0.781331  -0.000000
    200          1.180148  -0.000000
    201          1.486704  -0.000000
    202          1.492891  -0.000000
    203          1.621318  -0.000000
    204          2.250694  -0.000000
    205          2.722393   0.000000
    206          2.934134   0.000000
    207          3.429754   0.000000
    208          3.660386   0.000000
    209          3.665494   0.000000
    210          3.769711   0.000000
    211          3.966698   0.000000
    212          4.343410   0.000000
    213          4.625445   0.000000
    214          4.655790   0.000000
    215          4.939651   0.000000
    216          4.999458   0.000000
    217          5.016887   0.000000
    218          5.117512   0.000000
    219          5.230723   0.000000
    220          5.494513   0.000000
    221          5.655181   0.000000
    222          5.735209   0.000000
    223          5.873044   0.000000
    224          5.934493   0.000000
    225          6.023458   0.000000
    226          6.175377   0.000000
    227          6.208064   0.000000
    228          6.323319   0.000000
    229          6.373259   0.000000
    230          6.609183   0.000000
    231          6.724628   0.000000
    232          6.727533   0.000000
    233          6.777263   0.000000
    234          6.863115   0.000000
    235          6.912633   0.000000
    236          7.047914   0.000000
    237          7.224060   0.000000
    238          7.500893   0.000000
    239          7.551064   0.000000
    240          7.616424   0.000000
 
  0.1276756E-14  0.2000000E+00  0.1276756E-14  0.8000000E-01
      1         -8.725983   1.000000
      2         -7.463697   1.000000
      3         -6.958542   1.000000
      4         -6.570949   1.000000
      5         -6.550140   1.000000
      6         -6.389039   1.000000
      7         -6.328880   1.000000
      8         -6.265113   1.000000
      9         -6.225225   1.000000
     10         -6.205045   1.000000
     11         -6.063461   1.000000
     12         -5.992082   1.000000
     13         -5.886359   1.000000
     14         -5.834700   1.000000
     15         -5.832871   1.000000
     16         -5.816289   1.000000
     17         -5.571375   1.000000
     18         -5.479682   1.000000
     19         -5.407520   1.000000
     20         -5.401256   1.000000
     21         -5.391610   1.000000
     22         -5.357765   1.000000
     23         -5.320153   1.000000
     24         -5.302236   1.000000
     25         -5.260589   1.000000
     26         -5.225907   1.000000
     27         -5.208653   1.000000
     28         -5.198923   1.000000
     29         -5.158935   1.000000
     30         -5.109301   1.000000
     31         -5.073031   1.000000
     32         -5.021060   1.000000
     33         -5.006429   1.000000
     34         -4.994440   1.000000
     35         -4.989204   1.000000
     36         -4.876608   1.000000
     37         -4.793287   1.000000
     38         -4.786054   1.000000
     39         -4.769882   1.000000
     40         -4.751735   1.000000
     41         -4.703643   1.000000
     42         -4.493665   1.000000
     43         -4.481040   1.000000
     44         -4.446839   1.000000
     45         -4.416218   1.000000
     46         -4.397239   1.000000
     47         -4.380349   1.000000
     48         -4.334238   1.000000
     49         -4.199031   1.000000
     50         -4.188973   1.000000
     51         -4.123657   1.000000
     52         -4.105043   1.000000
     53         -4.077019   1.000000
     54         -4.049484   1.000000
     55         -3.975474   1.000000
     56         -3.804502   1.000000
     57         -3.732281   1.000000
     58         -3.707317   1.000000
     59         -3.676200   1.000000
     60         -3.669148   1.000000
     61         -3.633575   1.000000
     62         -3.566172   1.000000
     63         -3.559685   1.000000
     64         -3.532738   1.000000
     65         -3.517672   1.000000
     66         -3.515370   1.000000
     67         -3.488378   1.000000
     68         -3.439432   1.000000
     69         -3.399576   1.000000
     70         -3.378996   1.000000
     71         -3.358831   1.000000
     72         -3.336085   1.000000
     73         -3.267123   1.000000
     74         -3.255310   1.000000
     75         -3.243728   1.000000
     76         -3.178234   1.000000
     77         -3.167410   1.000000
     78         -3.151206   1.000000