<?xml version="1.0" encoding="ISO-8859-1"?>
<modeling>
 <generator>
  <i name="program" type="string">vasp </i>
  <i name="version" type="string">6.4.2  </i>
  <i name="subversion" type="string">20Jul23 (build Mar 01 2024 16:46:03) complex                          parallel </i>
  <i name="platform" type="string">LinuxIFC </i>
  <i name="date" type="string">2025 01 15 </i>
  <i name="time" type="string">04:58:58 </i>
 </generator>
 <incar>
  <i type="string" name="ALGO">Fast</i>
  <i type="int" name="ISPIN">     1</i>
  <i type="int" name="IBRION">    -1</i>
  <i name="EDIFF">      0.00001000</i>
  <i type="int" name="ISYM">     0</i>
  <i name="ENCUT">    680.29000000</i>
  <i type="string" name="LREAL">Auto</i>
  <i type="int" name="ISMEAR">     1</i>
  <i name="SIGMA">      0.10000000</i>
  <i type="string" name="GGA">BF</i>
  <i type="logical" name="LUSE_VDW"> T  </i>
  <i name="Zab_VDW">     -1.88670000</i>
 </incar>
 <primitive_cell>
  <structure name="primitive_cell" >
   <crystal>
    <varray name="basis" >
     <v>       8.46831000       0.00000000       0.00000000 </v>
     <v>       4.23415500       7.33377159       0.00000000 </v>
     <v>       0.00000000       0.00000000      24.96566199 </v>
    </varray>
    <i name="volume">   1550.48373159 </i>
    <varray name="rec_basis" >
     <v>       0.11808732      -0.06817774       0.00000000 </v>
     <v>       0.00000000       0.13635549       0.00000000 </v>
     <v>       0.00000000       0.00000000       0.04005502 </v>
    </varray>
   </crystal>
   <varray name="positions" >
    <v>       0.00000000       0.00000000       0.34046764 </v>
    <v>       0.33400137       0.00000000       0.34046764 </v>
    <v>       0.66800274       0.00000000       0.34046764 </v>
    <v>       1.00000000       0.33400137       0.34046764 </v>
    <v>       0.33400137       0.33400137       0.34046764 </v>
    <v>       0.66800274       0.33400137       0.34046764 </v>
    <v>       1.00000000       0.66800274       0.34046764 </v>
    <v>       0.33400137       0.66800274       0.34046764 </v>
    <v>       0.66800274       0.66800274       0.34046764 </v>
    <v>       0.11133379       0.11133379       0.43297074 </v>
    <v>       0.44533516       0.11133379       0.43297074 </v>
    <v>       0.77933653       0.11133379       0.43297074 </v>
    <v>       0.11133379       0.44533516       0.43297074 </v>
    <v>       0.44533516       0.44533516       0.43297074 </v>
    <v>       0.77933653       0.44533516       0.43297074 </v>
    <v>       0.11133379       0.77933653       0.43297074 </v>
    <v>       0.44533516       0.77933653       0.43297074 </v>
    <v>       0.77933653       0.77933653       0.43297074 </v>
    <v>       0.89262475       0.22430388       0.52582391 </v>
    <v>       0.22391114       0.22344737       0.52526575 </v>
    <v>       0.55860849       0.22326757       0.52419136 </v>
    <v>       0.89287522       0.55409569       0.52588828 </v>
    <v>       0.22487354       0.55629951       0.52437854 </v>
    <v>       0.55854890       0.55642490       0.52444411 </v>
    <v>       0.89222057       0.88966545       0.52441980 </v>
    <v>       0.22507918       0.88982059       0.52457283 </v>
    <v>       0.55887629       0.88930426       0.52432605 </v>
    <v>       0.00459347       0.99988028       0.61782440 </v>
    <v>       0.33931201       0.99939876       0.61770988 </v>
    <v>       0.67144770       0.00057403       0.61752647 </v>
    <v>       0.00684756       0.33264400       0.62337174 </v>
    <v>       0.33942366       0.33360428       0.61750772 </v>
    <v>       0.67141990       0.33360654       0.61776849 </v>
    <v>       0.00451132       0.66787343       0.61773483 </v>
    <v>       0.33828730       0.66690511       0.61741102 </v>
    <v>       0.67127052       0.66764965       0.61783739 </v>
    <v>       0.03277683       0.31991704       0.68512739 </v>
   </varray>
  </structure>
  <varray name="primitive_index" >
   <v type="int" >        1 </v>
   <v type="int" >        2 </v>
   <v type="int" >        3 </v>
   <v type="int" >        4 </v>
   <v type="int" >        5 </v>
   <v type="int" >        6 </v>
   <v type="int" >        7 </v>
   <v type="int" >        8 </v>
   <v type="int" >        9 </v>
   <v type="int" >       10 </v>
   <v type="int" >       11 </v>
   <v type="int" >       12 </v>
   <v type="int" >       13 </v>
   <v type="int" >       14 </v>
   <v type="int" >       15 </v>
   <v type="int" >       16 </v>
   <v type="int" >       17 </v>
   <v type="int" >       18 </v>
   <v type="int" >       19 </v>
   <v type="int" >       20 </v>
   <v type="int" >       21 </v>
   <v type="int" >       22 </v>
   <v type="int" >       23 </v>
   <v type="int" >       24 </v>
   <v type="int" >       25 </v>
   <v type="int" >       26 </v>
   <v type="int" >       27 </v>
   <v type="int" >       28 </v>
   <v type="int" >       29 </v>
   <v type="int" >       30 </v>
   <v type="int" >       31 </v>
   <v type="int" >       32 </v>
   <v type="int" >       33 </v>
   <v type="int" >       34 </v>
   <v type="int" >       35 </v>
   <v type="int" >       36 </v>
   <v type="int" >       37 </v>
  </varray>
 </primitive_cell>
 <kpoints>
  <generation param="Monkhorst-Pack">
   <v type="int" name="divisions">       5        5        1 </v>
   <v name="usershift">      0.00000000       0.00000000       0.00000000 </v>
   <v name="genvec1">      0.20000000      -0.00000000       0.00000000 </v>
   <v name="genvec2">      0.00000000       0.20000000       0.00000000 </v>
   <v name="genvec3">      0.00000000       0.00000000       1.00000000 </v>
   <v name="shift">      0.00000000       0.00000000       0.00000000 </v>
  </generation>
  <varray name="kpointlist" >
   <v>       0.00000000       0.00000000       0.00000000 </v>
   <v>       0.20000000       0.00000000       0.00000000 </v>
   <v>       0.20000000       0.20000000       0.00000000 </v>
   <v>       0.00000000       0.20000000       0.00000000 </v>
   <v>       0.40000000       0.00000000       0.00000000 </v>
   <v>       0.40000000       0.40000000       0.00000000 </v>
   <v>       0.00000000       0.40000000       0.00000000 </v>
   <v>       0.40000000       0.20000000       0.00000000 </v>
   <v>       0.20000000       0.40000000       0.00000000 </v>
   <v>      -0.20000000       0.20000000       0.00000000 </v>
   <v>      -0.40000000       0.20000000       0.00000000 </v>
   <v>       0.40000000      -0.40000000       0.00000000 </v>
   <v>      -0.20000000       0.40000000       0.00000000 </v>
  </varray>
  <varray name="weights" >
   <v>       0.04000000 </v>
   <v>       0.08000000 </v>
   <v>       0.08000000 </v>
   <v>       0.08000000 </v>
   <v>       0.08000000 </v>
   <v>       0.08000000 </v>
   <v>       0.08000000 </v>
   <v>       0.08000000 </v>
   <v>       0.08000000 </v>
   <v>       0.08000000 </v>
   <v>       0.08000000 </v>
   <v>       0.08000000 </v>
   <v>       0.08000000 </v>
  </varray>
 </kpoints>
 <parameters>
  <separator name="general" >
   <i type="string" name="SYSTEM">unknown system</i>
   <i type="logical" name="LCOMPAT"> F  </i>
  </separator>
  <separator name="electronic" >
   <i type="string" name="PREC">normal</i>
   <i name="ENMAX">    680.29000000</i>
   <i name="ENAUG">    400.00000000</i>
   <i name="EDIFF">      0.00001000</i>
   <i type="int" name="IALGO">    68</i>
   <i type="int" name="IWAVPR">    10</i>
   <i type="int" name="NBANDS">   240</i>
   <i type="int" name="NBANDSLOW">    -1</i>
   <i type="int" name="NBANDSHIGH">    -1</i>
   <i name="NELECT">    361.00000000</i>
   <i type="int" name="TURBO">     0</i>
   <i type="int" name="IRESTART">     0</i>
   <i type="int" name="NREBOOT">     0</i>
   <i type="int" name="NMIN">     0</i>
   <i name="EREF">      0.00000000</i>
   <separator name="electronic smearing" >
    <i type="int" name="ISMEAR">     1</i>
    <i name="SIGMA">      0.10000000</i>
    <i name="KSPACING">      0.50000000</i>
    <i type="logical" name="KGAMMA"> T  </i>
    <i type="logical" name="KBLOWUP"> T  </i>
   </separator>
   <separator name="electronic projectors" >
    <i type="logical" name="LREAL"> T  </i>
    <v name="ROPT">     -0.00050000     -0.00050000</v>
    <i type="int" name="LMAXPAW">  -100</i>
    <i type="int" name="LMAXMIX">     2</i>
    <i type="logical" name="NLSPLINE"> F  </i>
   </separator>
   <separator name="electronic startup" >
    <i type="int" name="ISTART">     1</i>
    <i type="int" name="ICHARG">     0</i>
    <i type="int" name="INIWAV">     1</i>
   </separator>
   <separator name="electronic spin" >
    <i type="int" name="ISPIN">     1</i>
    <i type="logical" name="LNONCOLLINEAR"> F  </i>
    <v name="MAGMOM">      1.00000000      1.00000000      1.00000000      1.00000000      1.00000000      1.00000000      1.00000000      1.00000000      1.00000000      1.00000000      1.00000000      1.00000000      1.00000000      1.00000000      1.00000000      1.00000000      1.00000000      1.00000000      1.00000000      1.00000000
      1.00000000      1.00000000      1.00000000      1.00000000      1.00000000      1.00000000      1.00000000      1.00000000      1.00000000      1.00000000      1.00000000      1.00000000      1.00000000      1.00000000      1.00000000      1.00000000      1.00000000</v>
    <i name="NUPDOWN">     -1.00000000</i>
    <i type="logical" name="LSORBIT"> F  </i>
    <v name="SAXIS">      0.00000000      0.00000000      1.00000000</v>
    <i type="logical" name="LSPIRAL"> F  </i>
    <v name="QSPIRAL">      0.00000000      0.00000000      0.00000000</v>
    <i type="logical" name="LZEROZ"> F  </i>
   </separator>
   <separator name="electronic exchange-correlation" >
    <i type="logical" name="LASPH"> F  </i>
    <i type="logical" name="LMETAGGA"> F  </i>
   </separator>
   <separator name="electronic convergence" >
    <i type="int" name="NELM">    60</i>
    <i type="int" name="NELMDL">     0</i>
    <i type="int" name="NELMIN">     2</i>
    <i name="ENINI">    680.29000000</i>
    <separator name="electronic convergence detail" >
     <i type="logical" name="LDIAG"> T  </i>
     <i type="logical" name="LSUBROT"> F  </i>
     <i name="WEIMIN">      0.00000000</i>
     <i name="EBREAK">      0.00000001</i>
     <i name="DEPER">      0.30000000</i>
     <i type="int" name="NRMM">     4</i>
     <i name="TIME">      0.40000000</i>
    </separator>
   </separator>
   <separator name="electronic mixer" >
    <i name="AMIX">      0.40000000</i>
    <i name="BMIX">      1.00000000</i>
    <i name="AMIN">      0.10000000</i>
    <i name="AMIX_MAG">      1.60000000</i>
    <i name="BMIX_MAG">      1.00000000</i>
    <separator name="electronic mixer details" >
     <i type="int" name="IMIX">     4</i>
     <i type="logical" name="MIXFIRST"> F  </i>
     <i type="int" name="MAXMIX">   -45</i>
     <i name="WC">    100.00000000</i>
     <i type="int" name="INIMIX">     1</i>
     <i type="int" name="MIXPRE">     1</i>
     <i type="int" name="MREMOVE">     5</i>
    </separator>
   </separator>
   <separator name="electronic dipolcorrection" >
    <i type="logical" name="LDIPOL"> F  </i>
    <i type="logical" name="LMONO"> F  </i>
    <i type="int" name="IDIPOL">     0</i>
    <i name="EPSILON">      1.00000000</i>
    <v name="DIPOL">   -100.00000000   -100.00000000   -100.00000000</v>
    <i name="EFIELD">      0.00000000</i>
   </separator>
  </separator>
  <separator name="grids" >
   <i type="int" name="NGX">    54</i>
   <i type="int" name="NGY">    54</i>
   <i type="int" name="NGZ">   160</i>
   <i type="int" name="NGXF">   108</i>
   <i type="int" name="NGYF">   108</i>
   <i type="int" name="NGZF">   320</i>
   <i type="logical" name="ADDGRID"> F  </i>
  </separator>
  <separator name="ionic" >
   <i type="int" name="NSW">     0</i>
   <i type="int" name="IBRION">    -1</i>
   <i type="int" name="MDALGO">     0</i>
   <i type="int" name="ISIF">     2</i>
   <i name="PSTRESS">      0.00000000</i>
   <i name="EDIFFG">      0.00010000</i>
   <i type="int" name="NFREE">     0</i>
   <i name="POTIM">      0.50000000</i>
   <i name="SMASS">     -3.00000000</i>
   <i name="SCALEE">      1.00000000</i>
  </separator>
  <separator name="ionic md" >
   <i name="TEBEG">      0.00010000</i>
   <i name="TEEND">      0.00010000</i>
   <i type="int" name="NBLOCK">     1</i>
   <i type="int" name="KBLOCK">     1</i>
   <i type="int" name="NPACO">   256</i>
   <i name="APACO">     10.00000000</i>
  </separator>
  <separator name="symmetry" >
   <i type="int" name="ISYM">     0</i>
   <i name="SYMPREC">      0.00001000</i>
  </separator>
  <separator name="dos" >
   <i type="int" name="LORBIT">     0</i>
   <v name="RWIGS">     -1.00000000     -1.00000000</v>
   <i type="int" name="NEDOS">   301</i>
   <i name="EMIN">     10.00000000</i>
   <i name="EMAX">    -10.00000000</i>
   <i name="EFERMI">      0.00000000</i>
  </separator>
  <separator name="writing" >
   <i type="int" name="NWRITE">     2</i>
   <i type="logical" name="LWAVE"> T  </i>
   <i type="logical" name="LDOWNSAMPLE"> F  </i>
   <i type="logical" name="LCHARG"> T  </i>
   <i type="logical" name="LPARD"> F  </i>
   <i type="logical" name="LVTOT"> F  </i>
   <i type="logical" name="LVHAR"> F  </i>
   <i type="logical" name="LELF"> F  </i>
   <i type="logical" name="LOPTICS"> F  </i>
   <v name="STM">      0.00000000      0.00000000      0.00000000      0.00000000      0.00000000      0.00000000      0.00000000</v>
  </separator>
  <separator name="performance" >
   <i type="int" name="NPAR">    48</i>
   <i type="int" name="NSIM">     4</i>
   <i type="int" name="NBLK">    -1</i>
   <i type="logical" name="LPLANE"> T  </i>
   <i type="logical" name="LSCALAPACK"> T  </i>
   <i type="logical" name="LSCAAWARE"> F  </i>
   <i type="logical" name="LSCALU"> F  </i>
   <i type="logical" name="LASYNC"> F  </i>
   <i type="logical" name="LORBITALREAL"> F  </i>
  </separator>
  <separator name="miscellaneous" >
   <i type="int" name="IDIOT">     3</i>
   <i type="int" name="PHON_NSTRUCT">    -1</i>
   <i type="logical" name="LMUSIC"> F  </i>
   <v name="POMASS">    195.08000000      1.00000000</v>
   <v name="DARWINR">      0.00000000      0.00000000</v>
   <v name="DARWINV">      1.00000000      1.00000000</v>
   <i type="logical" name="LCORR"> T  </i>
  </separator>
  <i type="logical" name="GGA_COMPAT"> T  </i>
  <i type="logical" name="LBERRY"> F  </i>
  <i type="int" name="ICORELEVEL">     0</i>
  <i type="logical" name="LDAU"> F  </i>
  <i type="int" name="I_CONSTRAINED_M">     0</i>
  <separator name="electronic exchange-correlation" >
   <i type="string" name="GGA">BF</i>
   <i type="int" name="VOSKOWN">     0</i>
   <i type="logical" name="LHFCALC"> F  </i>
   <i type="string" name="PRECFOCK"></i>
   <i type="logical" name="LSYMGRAD"> F  </i>
   <i type="logical" name="LHFONE"> F  </i>
   <i type="logical" name="LRHFCALC"> F  </i>
   <i type="logical" name="LTHOMAS"> F  </i>
   <i type="logical" name="LMODELHF"> F  </i>
   <i type="logical" name="LFOCKACE"> F  </i>
   <i name="ENCUT4O">     -1.00000000</i>
   <i type="int" name="EXXOEP">     0</i>
   <i type="int" name="FOURORBIT">     0</i>
   <i name="AEXX">      0.00000000</i>
   <i name="HFALPHA">      0.00000000</i>
   <i name="MCALPHA">      0.00000000</i>
   <i name="ALDAX">      1.00000000</i>
   <i name="AGGAX">      1.00000000</i>
   <i name="ALDAC">      1.00000000</i>
   <i name="AGGAC">      1.00000000</i>
   <i type="int" name="NKREDX">     1</i>
   <i type="int" name="NKREDY">     1</i>
   <i type="int" name="NKREDZ">     1</i>
   <i type="logical" name="SHIFTRED"> F  </i>
   <i type="logical" name="ODDONLY"> F  </i>
   <i type="logical" name="EVENONLY"> F  </i>
   <i type="int" name="LMAXFOCK">     0</i>
   <i type="int" name="NMAXFOCKAE">     0</i>
   <i type="logical" name="LFOCKAEDFT"> F  </i>
   <i name="HFSCREEN">      0.00000000</i>
   <i name="HFSCREENC">      0.00000000</i>
   <i type="int" name="NBANDSGWLOW">     0</i>
  </separator>
  <separator name="vdW DFT" >
   <i type="logical" name="LUSE_VDW"> T  </i>
   <i type="int" name="IVDW_NL">     1</i>
   <i type="logical" name="LSPIN_VDW"> F  </i>
   <i name="Zab_VDW">     -1.88670000</i>
   <i name="PARAM1">      0.12340000</i>
   <i name="PARAM2">      1.00000000</i>
   <i name="PARAM3">      0.00000000</i>
  </separator>
  <separator name="model GW" >
   <i type="int" name="MODEL_GW">     0</i>
   <i name="MODEL_EPS0">     25.14297943</i>
   <i name="MODEL_ALPHA">      1.00000000</i>
  </separator>
  <separator name="linear response parameters" >
   <i type="logical" name="LEPSILON"> F  </i>
   <i type="logical" name="LRPA"> F  </i>
   <i type="logical" name="LNABLA"> F  </i>
   <i type="logical" name="LVEL"> F  </i>
   <i name="CSHIFT">      0.10000000</i>
   <i name="OMEGAMAX">     -1.00000000</i>
   <i name="DEG_THRESHOLD">      0.00200000</i>
   <i name="RTIME">     -0.10000000</i>
   <i name="WPLASMAI">      0.00000000</i>
   <v name="DFIELD">      0.00000000      0.00000000      0.00000000</v>
   <v name="WPLASMA">      0.00000000      0.00000000      0.00000000      0.00000000      0.00000000      0.00000000      0.00000000      0.00000000      0.00000000</v>
  </separator>
  <separator name="orbital magnetization" >
   <i type="logical" name="NUCIND"> F  </i>
   <v name="MAGPOS">      0.00000000      0.00000000      0.00000000</v>
   <i type="logical" name="LNICSALL"> T  </i>
   <i type="logical" name="ORBITALMAG"> F  </i>
   <i type="logical" name="LMAGBLOCH"> F  </i>
   <i type="logical" name="LCHIMAG"> F  </i>
   <i type="logical" name="LGAUGE"> T  </i>
   <i type="int" name="MAGATOM">     0</i>
   <v name="MAGDIPOL">      0.00000000      0.00000000      0.00000000</v>
   <v name="AVECCONST">      0.00000000      0.00000000      0.00000000</v>
  </separator>
  <separator name="response functions" >
   <i type="logical" name="LALL_IN_ONE"> F  </i>
   <i type="int" name="IALL_IN_ONE">    -1</i>
   <i type="int" name="NBANDS_WAVE">    -1</i>
   <i type="logical" name="LFINITE_TEMPERATURE"> F  </i>
   <i type="logical" name="LADDER"> F  </i>
   <i type="logical" name="LRPAFORCE"> F  </i>
   <i type="logical" name="LFXC"> F  </i>
   <i type="logical" name="LHARTREE"> T  </i>
   <i type="int" name="IBSE">     0</i>
   <v type="int" name="KPOINT">    -1     0     0     0</v>
   <i type="logical" name="LTCTC"> F  </i>
   <i type="logical" name="LTCTE"> F  </i>
   <i type="logical" name="LTETE"> F  </i>
   <i type="logical" name="LTRIPLET"> F  </i>
   <i type="logical" name="LFXCEPS"> F  </i>
   <i type="logical" name="LFXHEG"> F  </i>
   <i type="int" name="NATURALO">     2</i>
   <i type="logical" name="LHOLEGF"> F  </i>
   <i type="logical" name="L2ORDER"> F  </i>
   <i type="logical" name="LDMP1"> F  </i>
   <i type="logical" name="LMP2LT"> F  </i>
   <i type="logical" name="LSMP2LT"> F  </i>
   <i type="logical" name="LGWLF"> F  </i>
   <i name="ENCUTGW">     -1.60000002</i>
   <i name="ENCUTGWSOFT">     -1.60000002</i>
   <i name="ENCUTLF">     -1.00000000</i>
   <i type="logical" name="LESF_SPLINES"> F  </i>
   <i type="int" name="LMAXMP2">    -1</i>
   <i name="SCISSOR">      0.00000000</i>
   <i type="int" name="NOMEGA">     0</i>
   <i type="int" name="NOMEGAR">     0</i>
   <i type="int" name="NBANDSGW">    -1</i>
   <i type="int" name="NBANDSO">    -1</i>
   <i type="int" name="NBANDSV">    -1</i>
   <i type="int" name="NELMGW">     1</i>
   <i type="int" name="NELMHF">     1</i>
   <i type="int" name="DIM">     3</i>
   <i type="int" name="IESPILON">     4</i>
   <i type="int" name="ANTIRES">     0</i>
   <i name="OMEGAMAX">    -30.00000000</i>
   <i name="OMEGAMIN">    -30.00000000</i>
   <i name="OMEGATL">   -200.00000000</i>
   <i type="int" name="OMEGAGRID">     0</i>
   <i name="CSHIFT">     -0.10000000</i>
   <i type="logical" name="LSELFENERGY"> F  </i>
   <i type="logical" name="LSPECTRAL"> F  </i>
   <i type="logical" name="LSPECTRALGW"> F  </i>
   <i type="logical" name="LSINGLES"> F  </i>
   <i type="logical" name="LFERMIGW"> F  </i>
   <i type="logical" name="ODDONLYGW"> F  </i>
   <i type="logical" name="EVENONLYGW"> F  </i>
   <i type="int" name="NKREDLFX">     1</i>
   <i type="int" name="NKREDLFY">     1</i>
   <i type="int" name="NKREDLFZ">     1</i>
   <i type="int" name="MAXMEM">  2800</i>
   <i type="int" name="TELESCOPE">     0</i>
   <i type="int" name="NTAUPAR">    -1</i>
   <i type="int" name="NOMEGAPAR">    -1</i>
   <i name="DAMP_NEWTON">      0.80000001</i>
   <i name="LAMBDA">      1.00000000</i>
  </separator>
  <separator name="External order field" >
   <i name="OFIELD_KAPPA">      0.00000000</i>
   <v name="OFIELD_K">      0.00000000      0.00000000      0.00000000</v>
   <i name="OFIELD_Q6_NEAR">      0.00000000</i>
   <i name="OFIELD_Q6_FAR">      0.00000000</i>
   <i name="OFIELD_A">      0.00000000</i>
  </separator>
  <separator name="optional k-points parameters" >
   <i type="int" name="KPOINTS_OPT_MODE">     1</i>
   <i type="logical" name="LKPOINTS_OPT"> F  </i>
  </separator>
 </parameters>
 <atominfo>
  <atoms>      37 </atoms>
  <types>       2 </types>
  <array name="atoms" >
   <dimension dim="1">ion</dimension>
   <field type="string">element</field>
   <field type="int">atomtype</field>
   <set>
    <rc><c>Pt</c><c>   1</c></rc>
    <rc><c>Pt</c><c>   1</c></rc>
    <rc><c>Pt</c><c>   1</c></rc>
    <rc><c>Pt</c><c>   1</c></rc>
    <rc><c>Pt</c><c>   1</c></rc>
    <rc><c>Pt</c><c>   1</c></rc>
    <rc><c>Pt</c><c>   1</c></rc>
    <rc><c>Pt</c><c>   1</c></rc>
    <rc><c>Pt</c><c>   1</c></rc>
    <rc><c>Pt</c><c>   1</c></rc>
    <rc><c>Pt</c><c>   1</c></rc>
    <rc><c>Pt</c><c>   1</c></rc>
    <rc><c>Pt</c><c>   1</c></rc>
    <rc><c>Pt</c><c>   1</c></rc>
    <rc><c>Pt</c><c>   1</c></rc>
    <rc><c>Pt</c><c>   1</c></rc>
    <rc><c>Pt</c><c>   1</c></rc>
    <rc><c>Pt</c><c>   1</c></rc>
    <rc><c>Pt</c><c>   1</c></rc>
    <rc><c>Pt</c><c>   1</c></rc>
    <rc><c>Pt</c><c>   1</c></rc>
    <rc><c>Pt</c><c>   1</c></rc>
    <rc><c>Pt</c><c>   1</c></rc>
    <rc><c>Pt</c><c>   1</c></rc>
    <rc><c>Pt</c><c>   1</c></rc>
    <rc><c>Pt</c><c>   1</c></rc>
    <rc><c>Pt</c><c>   1</c></rc>
    <rc><c>Pt</c><c>   1</c></rc>
    <rc><c>Pt</c><c>   1</c></rc>
    <rc><c>Pt</c><c>   1</c></rc>
    <rc><c>Pt</c><c>   1</c></rc>
    <rc><c>Pt</c><c>   1</c></rc>
    <rc><c>Pt</c><c>   1</c></rc>
    <rc><c>Pt</c><c>   1</c></rc>
    <rc><c>Pt</c><c>   1</c></rc>
    <rc><c>Pt</c><c>   1</c></rc>
    <rc><c>H </c><c>   2</c></rc>
   </set>
  </array>
  <array name="atomtypes" >
   <dimension dim="1">type</dimension>
   <field type="int">atomspertype</field>
   <field type="string">element</field>
   <field>mass</field>
   <field>valence</field>
   <field type="string">pseudopotential</field>
   <set>
    <rc><c>  36</c><c>Pt</c><c>    195.08000000</c><c>     10.00000000</c><c>  PAW_PBE Pt 04Feb2005                  </c></rc>
    <rc><c>   1</c><c>H </c><c>      1.00000000</c><c>      1.00000000</c><c>  PAW_PBE H 15Jun2001                   </c></rc>
   </set>
  </array>
 </atominfo>
 <structure name="initialpos" >
  <crystal>
   <varray name="basis" >
    <v>       8.46831000       0.00000000       0.00000000 </v>
    <v>       4.23415500       7.33377159       0.00000000 </v>
    <v>       0.00000000       0.00000000      24.96566199 </v>
   </varray>
   <i name="volume">   1550.48373159 </i>
   <varray name="rec_basis" >
    <v>       0.11808732      -0.06817774       0.00000000 </v>
    <v>       0.00000000       0.13635549       0.00000000 </v>
    <v>       0.00000000       0.00000000       0.04005502 </v>
   </varray>
  </crystal>
  <varray name="positions" >
   <v>       0.00000000       0.00000000       0.34046764 </v>
   <v>       0.33400137       0.00000000       0.34046764 </v>
   <v>       0.66800274       0.00000000       0.34046764 </v>
   <v>       0.00000000       0.33400137       0.34046764 </v>
   <v>       0.33400137       0.33400137       0.34046764 </v>
   <v>       0.66800274       0.33400137       0.34046764 </v>
   <v>       0.00000000       0.66800274       0.34046764 </v>
   <v>       0.33400137       0.66800274       0.34046764 </v>
   <v>       0.66800274       0.66800274       0.34046764 </v>
   <v>       0.11133379       0.11133379       0.43297074 </v>
   <v>       0.44533516       0.11133379       0.43297074 </v>
   <v>       0.77933653       0.11133379       0.43297074 </v>
   <v>       0.11133379       0.44533516       0.43297074 </v>
   <v>       0.44533516       0.44533516       0.43297074 </v>
   <v>       0.77933653       0.44533516       0.43297074 </v>
   <v>       0.11133379       0.77933653       0.43297074 </v>
   <v>       0.44533516       0.77933653       0.43297074 </v>
   <v>       0.77933653       0.77933653       0.43297074 </v>
   <v>       0.89262475       0.22430388       0.52582391 </v>
   <v>       0.22391114       0.22344737       0.52526575 </v>
   <v>       0.55860849       0.22326757       0.52419136 </v>
   <v>       0.89287522       0.55409569       0.52588828 </v>
   <v>       0.22487354       0.55629951       0.52437854 </v>
   <v>       0.55854890       0.55642490       0.52444411 </v>
   <v>       0.89222057       0.88966545       0.52441980 </v>
   <v>       0.22507918       0.88982059       0.52457283 </v>
   <v>       0.55887629       0.88930426       0.52432605 </v>
   <v>       0.00459347       0.99988028       0.61782440 </v>
   <v>       0.33931201       0.99939876       0.61770988 </v>
   <v>       0.67144770       0.00057403       0.61752647 </v>
   <v>       0.00684756       0.33264400       0.62337174 </v>
   <v>       0.33942366       0.33360428       0.61750772 </v>
   <v>       0.67141990       0.33360654       0.61776849 </v>
   <v>       0.00451132       0.66787343       0.61773483 </v>
   <v>       0.33828730       0.66690511       0.61741102 </v>
   <v>       0.67127052       0.66764965       0.61783739 </v>
   <v>       0.03277683       0.31991704       0.68512739 </v>
  </varray>
  <varray name="selective"  type="logical" >
   <v type="logical" >  F  F  F </v>
   <v type="logical" >  F  F  F </v>
   <v type="logical" >  F  F  F </v>
   <v type="logical" >  F  F  F </v>
   <v type="logical" >  F  F  F </v>
   <v type="logical" >  F  F  F </v>
   <v type="logical" >  F  F  F </v>
   <v type="logical" >  F  F  F </v>
   <v type="logical" >  F  F  F </v>
   <v type="logical" >  F  F  F </v>
   <v type="logical" >  F  F  F </v>
   <v type="logical" >  F  F  F </v>
   <v type="logical" >  F  F  F </v>
   <v type="logical" >  F  F  F </v>
   <v type="logical" >  F  F  F </v>
   <v type="logical" >  F  F  F </v>
   <v type="logical" >  F  F  F </v>
   <v type="logical" >  F  F  F </v>
   <v type="logical" >  T  T  T </v>
   <v type="logical" >  T  T  T </v>
   <v type="logical" >  T  T  T </v>
   <v type="logical" >  T  T  T </v>
   <v type="logical" >  T  T  T </v>
   <v type="logical" >  T  T  T </v>
   <v type="logical" >  T  T  T </v>
   <v type="logical" >  T  T  T </v>
   <v type="logical" >  T  T  T </v>
   <v type="logical" >  T  T  T </v>
   <v type="logical" >  T  T  T </v>
   <v type="logical" >  T  T  T </v>
   <v type="logical" >  T  T  T </v>
   <v type="logical" >  T  T  T </v>
   <v type="logical" >  T  T  T </v>
   <v type="logical" >  T  T  T </v>
   <v type="logical" >  T  T  T </v>
   <v type="logical" >  T  T  T </v>
   <v type="logical" >  T  T  T </v>
  </varray>
  <nose>
   <v>      -3.00000000       0.00000000       0.00010000       0.00010000 </v>
  </nose>
 </structure>
 <calculation>
  <scstep>
   <time name="dav">   15.93   16.26</time>
   <time name="total">   19.69   20.04</time>
   <energy>
    <i name="alphaZ">    797.33612757 </i>
    <i name="ewald"> 132039.18787342 </i>
    <i name="hartreedc">-159444.01037263 </i>
    <i name="XCdc">     89.38803612 </i>
    <i name="pawpsdc">  32144.91684712 </i>
    <i name="pawaedc"> -31147.57896634 </i>
    <i name="eentropy">     -0.08470494 </i>
    <i name="bandstr">  -1080.62025183 </i>
    <i name="atom">  26496.80315902 </i>
    <i name="e_fr_energy">   -104.66225249 </i>
    <i name="e_wo_entrp">   -104.57754755 </i>
    <i name="e_0_energy">   -104.63401751 </i>
   </energy>
  </scstep>
  <scstep>
   <time name="diag">    2.76    2.78</time>
   <time name="diis">    8.54    8.60</time>
   <time name="orth">    0.51    0.51</time>
   <time name="total">   15.08   15.20</time>
   <energy>
    <i name="e_fr_energy">   -109.57908143 </i>
    <i name="e_wo_entrp">   -109.57375196 </i>
    <i name="e_0_energy">   -109.57730494 </i>
   </energy>
  </scstep>
  <scstep>
   <time name="diag">    4.02    4.05</time>
   <time name="diis">    8.63    8.71</time>
   <time name="orth">    0.58    0.59</time>
   <time name="total">   16.52   16.70</time>
   <energy>
    <i name="e_fr_energy">   -104.65326372 </i>
    <i name="e_wo_entrp">   -104.57134147 </i>
    <i name="e_0_energy">   -104.62595630 </i>
   </energy>
  </scstep>
  <scstep>
   <time name="diag">    2.85    2.91</time>
   <time name="diis">    8.49    8.57</time>
   <time name="orth">    0.68    0.68</time>
   <time name="total">   15.33   15.51</time>
   <energy>
    <i name="e_fr_energy">   -104.61792240 </i>
    <i name="e_wo_entrp">   -104.53572618 </i>
    <i name="e_0_energy">   -104.59052366 </i>
   </energy>
  </scstep>
  <scstep>
   <time name="diag">    2.95    2.97</time>
   <time name="diis">    8.78    8.86</time>
   <time name="orth">    0.61    0.61</time>
   <time name="total">   16.20   16.38</time>
   <energy>
    <i name="e_fr_energy">   -104.61413511 </i>
    <i name="e_wo_entrp">   -104.53131664 </i>
    <i name="e_0_energy">   -104.58652895 </i>
   </energy>
  </scstep>
  <scstep>
   <time name="diag">    2.82    2.85</time>
   <time name="diis">    8.90    8.98</time>
   <time name="orth">    1.74    1.75</time>
   <time name="total">   16.72   16.88</time>
   <energy>
    <i name="e_fr_energy">   -104.61400848 </i>
    <i name="e_wo_entrp">   -104.53084553 </i>
    <i name="e_0_energy">   -104.58628750 </i>
   </energy>
  </scstep>
  <scstep>
   <time name="diag">    2.52    2.54</time>
   <time name="diis">    8.94    9.00</time>
   <time name="orth">    0.73    0.74</time>
   <time name="total">   15.56   15.73</time>
   <energy>
    <i name="e_fr_energy">   -104.61395207 </i>
    <i name="e_wo_entrp">   -104.53047697 </i>
    <i name="e_0_energy">   -104.58612704 </i>
   </energy>
  </scstep>
  <scstep>
   <time name="diag">    2.74    2.77</time>
   <time name="diis">    9.04    9.12</time>
   <time name="orth">    0.73    0.74</time>
   <time name="total">   15.79   15.94</time>
   <energy>
    <i name="e_fr_energy">   -104.61379049 </i>
    <i name="e_wo_entrp">   -104.53053553 </i>
    <i name="e_0_energy">   -104.58603884 </i>
   </energy>
  </scstep>
  <scstep>
   <time name="diag">    2.96    2.99</time>
   <time name="diis">    8.96    9.04</time>
   <time name="orth">    0.77    0.78</time>
   <time name="total">   16.11   16.29</time>
   <energy>
    <i name="e_fr_energy">   -104.61372940 </i>
    <i name="e_wo_entrp">   -104.53036125 </i>
    <i name="e_0_energy">   -104.58594001 </i>
   </energy>
  </scstep>
  <scstep>
   <time name="diag">    2.91    2.93</time>
   <time name="diis">    8.22    8.29</time>
   <time name="orth">    0.74    0.75</time>
   <time name="total">   14.52   14.64</time>
   <energy>
    <i name="alphaZ">    797.33612757 </i>
    <i name="ewald"> 132039.18787342 </i>
    <i name="hartreedc">-159440.77148052 </i>
    <i name="XCdc">     89.38416472 </i>
    <i name="pawpsdc">  32144.63375978 </i>
    <i name="pawaedc"> -31147.29040582 </i>
    <i name="eentropy">     -0.08328481 </i>
    <i name="bandstr">  -1083.81363752 </i>
    <i name="atom">  26496.80315902 </i>
    <i name="e_fr_energy">   -104.61372418 </i>
    <i name="e_wo_entrp">   -104.53043937 </i>
    <i name="e_0_energy">   -104.58596258 </i>
   </energy>
  </scstep>
  <structure>
   <crystal>
    <varray name="basis" >
     <v>       8.46831000       0.00000000       0.00000000 </v>
     <v>       4.23415500       7.33377159       0.00000000 </v>
     <v>       0.00000000       0.00000000      24.96566199 </v>
    </varray>
    <i name="volume">   1550.48373159 </i>
    <varray name="rec_basis" >
     <v>       0.11808732      -0.06817774       0.00000000 </v>
     <v>       0.00000000       0.13635549       0.00000000 </v>
     <v>       0.00000000       0.00000000       0.04005502 </v>
    </varray>
   </crystal>
   <varray name="positions" >
    <v>       0.00000000       0.00000000       0.34046764 </v>
    <v>       0.33400137       0.00000000       0.34046764 </v>
    <v>       0.66800274       0.00000000       0.34046764 </v>
    <v>       0.00000000       0.33400137       0.34046764 </v>
    <v>       0.33400137       0.33400137       0.34046764 </v>
    <v>       0.66800274       0.33400137       0.34046764 </v>
    <v>       0.00000000       0.66800274       0.34046764 </v>
    <v>       0.33400137       0.66800274       0.34046764 </v>
    <v>       0.66800274       0.66800274       0.34046764 </v>
    <v>       0.11133379       0.11133379       0.43297074 </v>
    <v>       0.44533516       0.11133379       0.43297074 </v>
    <v>       0.77933653       0.11133379       0.43297074 </v>
    <v>       0.11133379       0.44533516       0.43297074 </v>
    <v>       0.44533516       0.44533516       0.43297074 </v>
    <v>       0.77933653       0.44533516       0.43297074 </v>
    <v>       0.11133379       0.77933653       0.43297074 </v>
    <v>       0.44533516       0.77933653       0.43297074 </v>
    <v>       0.77933653       0.77933653       0.43297074 </v>
    <v>       0.89262475       0.22430388       0.52582391 </v>
    <v>       0.22391114       0.22344737       0.52526575 </v>
    <v>       0.55860849       0.22326757       0.52419136 </v>
    <v>       0.89287522       0.55409569       0.52588828 </v>
    <v>       0.22487354       0.55629951       0.52437854 </v>
    <v>       0.55854890       0.55642490       0.52444411 </v>
    <v>       0.89222057       0.88966545       0.52441980 </v>
    <v>       0.22507918       0.88982059       0.52457283 </v>
    <v>       0.55887629       0.88930426       0.52432605 </v>
    <v>       0.00459347       0.99988028       0.61782440 </v>
    <v>       0.33931201       0.99939876       0.61770988 </v>
    <v>       0.67144770       0.00057403       0.61752647 </v>
    <v>       0.00684756       0.33264400       0.62337174 </v>
    <v>       0.33942366       0.33360428       0.61750772 </v>
    <v>       0.67141990       0.33360654       0.61776849 </v>
    <v>       0.00451132       0.66787343       0.61773483 </v>
    <v>       0.33828730       0.66690511       0.61741102 </v>
    <v>       0.67127052       0.66764965       0.61783739 </v>
    <v>       0.03277683       0.31991704       0.68512739 </v>
   </varray>
  </structure>
  <varray name="forces" >
   <v>       0.04235013       0.04375243      -0.12099883 </v>
   <v>       0.01757714       0.05923983      -0.09598780 </v>
   <v>      -0.04946556       0.07825927      -0.22735442 </v>
   <v>       0.04609538      -0.01470350      -0.09187451 </v>
   <v>      -0.00318473      -0.01162469      -0.07233298 </v>
   <v>      -0.05395228       0.00272372      -0.07850790 </v>
   <v>       0.02431129      -0.05613588      -0.11204090 </v>
   <v>      -0.01778022      -0.04682989      -0.09456917 </v>
   <v>      -0.06277004      -0.03112411      -0.09184394 </v>
   <v>       0.06994616       0.08873038       0.23795232 </v>
   <v>       0.06136377       0.03886515      -0.02848732 </v>
   <v>      -0.07764474       0.06661029       0.03021004 </v>
   <v>       0.02247972      -0.04109702       0.22956760 </v>
   <v>       0.01309786      -0.00161626       0.04682244 </v>
   <v>      -0.00980290      -0.00651565       0.27193969 </v>
   <v>       0.06598442      -0.09972698       0.09270748 </v>
   <v>      -0.00410640      -0.07739060       0.08873421 </v>
   <v>      -0.06262931      -0.01362790       0.06250727 </v>
   <v>       0.00637093      -0.00576925      -0.00580282 </v>
   <v>       0.00745073      -0.00123286      -0.00513055 </v>
   <v>       0.00630847      -0.00606613       0.00065248 </v>
   <v>       0.00657111       0.00133347      -0.01254328 </v>
   <v>       0.01388448       0.00308242      -0.00074813 </v>
   <v>       0.00392620      -0.00100924      -0.00632642 </v>
   <v>      -0.00298772       0.00133719      -0.00056140 </v>
   <v>       0.00882936      -0.00347492       0.00218589 </v>
   <v>       0.00461138      -0.00235399      -0.00072629 </v>
   <v>      -0.00883629       0.00112517      -0.00594669 </v>
   <v>       0.01106467      -0.00524466      -0.01828783 </v>
   <v>      -0.00309240      -0.00038321       0.01362903 </v>
   <v>      -0.01362284       0.00708967      -0.03894351 </v>
   <v>       0.00626731      -0.00362207      -0.00836746 </v>
   <v>       0.00120045       0.00271509       0.00052987 </v>
   <v>       0.00104934       0.00343688       0.00000130 </v>
   <v>       0.00191311       0.00375223       0.00736048 </v>
   <v>      -0.00254567      -0.01325740      -0.00272062 </v>
   <v>      -0.07023232       0.04075302       0.03530267 </v>
  </varray>
  <varray name="stress" >
   <v>     -34.82307178      -0.01871021      -0.07714574 </v>
   <v>      -0.01871016     -34.88297377       0.06210702 </v>
   <v>      -0.07714581       0.06210692       2.48153375 </v>
  </varray>
  <energy>
   <i name="e_fr_energy">   -104.61372418 </i>
   <i name="e_wo_entrp">   -104.53043937 </i>
   <i name="e_0_energy">   -104.58596258 </i>
  </energy>
  <time name="totalsc">  190.14  192.71</time>
  <eigenvalues>
   <array>
    <dimension dim="1">band</dimension>
    <dimension dim="2">kpoint</dimension>
    <dimension dim="3">spin</dimension>
    <field>eigene</field>
    <field>occ</field>
    <set>
     <set comment="spin 1">
      <set comment="kpoint 1">
       <r>   -8.8742    1.0000 </r>
       <r>   -7.6086    1.0000 </r>
       <r>   -6.5433    1.0000 </r>
       <r>   -6.4765    1.0000 </r>
       <r>   -6.4665    1.0000 </r>
       <r>   -6.4555    1.0000 </r>
       <r>   -6.4497    1.0000 </r>
       <r>   -6.4451    1.0000 </r>
       <r>   -6.4270    1.0000 </r>
       <r>   -6.4202    1.0000 </r>
       <r>   -5.9945    1.0000 </r>
       <r>   -5.9060    1.0000 </r>
       <r>   -5.9028    1.0000 </r>
       <r>   -5.9019    1.0000 </r>
       <r>   -5.8922    1.0000 </r>
       <r>   -5.8903    1.0000 </r>
       <r>   -5.5752    1.0000 </r>
       <r>   -5.4476    1.0000 </r>
       <r>   -5.4454    1.0000 </r>
       <r>   -5.4390    1.0000 </r>
       <r>   -5.4336    1.0000 </r>
       <r>   -5.4335    1.0000 </r>
       <r>   -5.3621    1.0000 </r>
       <r>   -5.2213    1.0000 </r>
       <r>   -5.2151    1.0000 </r>
       <r>   -5.2143    1.0000 </r>
       <r>   -5.2060    1.0000 </r>
       <r>   -5.2054    1.0000 </r>
       <r>   -5.0525    1.0000 </r>
       <r>   -5.0129    1.0000 </r>
       <r>   -5.0056    1.0000 </r>
       <r>   -5.0043    1.0000 </r>
       <r>   -5.0019    1.0000 </r>
       <r>   -4.9986    1.0000 </r>
       <r>   -4.9692    1.0000 </r>
       <r>   -4.9603    1.0000 </r>
       <r>   -4.9552    1.0000 </r>
       <r>   -4.9458    1.0000 </r>
       <r>   -4.9433    1.0000 </r>
       <r>   -4.8984    1.0000 </r>
       <r>   -4.7905    1.0000 </r>
       <r>   -4.3722    1.0000 </r>
       <r>   -4.3689    1.0000 </r>
       <r>   -4.3436    1.0000 </r>
       <r>   -4.3406    1.0000 </r>
       <r>   -4.3069    1.0000 </r>
       <r>   -4.3040    1.0000 </r>
       <r>   -4.2993    1.0000 </r>
       <r>   -4.2905    1.0000 </r>
       <r>   -4.2894    1.0000 </r>
       <r>   -4.2431    1.0000 </r>
       <r>   -4.1297    1.0000 </r>
       <r>   -4.1097    1.0000 </r>
       <r>   -4.0451    1.0000 </r>
       <r>   -3.9103    1.0000 </r>
       <r>   -3.5870    1.0000 </r>
       <r>   -3.5694    1.0000 </r>
       <r>   -3.5671    1.0000 </r>
       <r>   -3.5548    1.0000 </r>
       <r>   -3.5517    1.0000 </r>
       <r>   -3.5399    1.0000 </r>
       <r>   -3.4789    1.0000 </r>
       <r>   -3.3843    1.0000 </r>
       <r>   -3.3774    1.0000 </r>
       <r>   -3.3645    1.0000 </r>
       <r>   -3.3631    1.0000 </r>
       <r>   -3.3580    1.0000 </r>
       <r>   -3.3509    1.0000 </r>
       <r>   -3.3220    1.0000 </r>
       <r>   -3.3163    1.0000 </r>
       <r>   -3.3142    1.0000 </r>
       <r>   -3.2901    1.0000 </r>
       <r>   -3.2861    1.0000 </r>
       <r>   -3.2820    1.0000 </r>
       <r>   -3.2571    1.0000 </r>
       <r>   -3.2547    1.0000 </r>
       <r>   -3.2295    1.0000 </r>
       <r>   -3.1516    1.0000 </r>
       <r>   -3.1409    1.0000 </r>
       <r>   -3.1397    1.0000 </r>
       <r>   -3.1324    1.0000 </r>
       <r>   -3.1218    1.0000 </r>
       <r>   -2.9421    1.0000 </r>
       <r>   -2.9354    1.0000 </r>
       <r>   -2.9254    1.0000 </r>
       <r>   -2.9131    1.0000 </r>
       <r>   -2.9057    1.0000 </r>
       <r>   -2.8996    1.0000 </r>
       <r>   -2.8927    1.0000 </r>
       <r>   -2.8833    1.0000 </r>
       <r>   -2.8756    1.0000 </r>
       <r>   -2.8203    1.0000 </r>
       <r>   -2.8173    1.0000 </r>
       <r>   -2.7650    1.0000 </r>
       <r>   -2.7625    1.0000 </r>
       <r>   -2.7277    1.0000 </r>
       <r>   -2.7274    1.0000 </r>
       <r>   -2.6890    1.0000 </r>
       <r>   -2.6854    1.0000 </r>
       <r>   -2.6740    1.0000 </r>
       <r>   -2.6703    1.0000 </r>
       <r>   -2.5357    1.0000 </r>
       <r>   -2.5256    1.0000 </r>
       <r>   -2.5160    1.0000 </r>
       <r>   -2.4988    1.0000 </r>
       <r>   -2.4878    1.0000 </r>
       <r>   -2.4802    1.0000 </r>
       <r>   -2.1391    1.0000 </r>
       <r>   -2.0299    1.0000 </r>
       <r>   -2.0141    1.0000 </r>
       <r>   -2.0018    1.0000 </r>
       <r>   -1.9911    1.0000 </r>
       <r>   -1.9882    1.0000 </r>
       <r>   -1.9828    1.0000 </r>
       <r>   -1.9791    1.0000 </r>
       <r>   -1.9458    1.0000 </r>
       <r>   -1.9454    1.0000 </r>
       <r>   -1.9357    1.0000 </r>
       <r>   -1.9305    1.0000 </r>
       <r>   -1.9205    1.0000 </r>
       <r>   -1.8594    1.0000 </r>
       <r>   -1.8505    1.0000 </r>
       <r>   -1.7325    1.0000 </r>
       <r>   -1.7054    1.0000 </r>
       <r>   -1.7038    1.0000 </r>
       <r>   -1.6862    1.0000 </r>
       <r>   -1.6854    1.0000 </r>
       <r>   -1.6034    1.0000 </r>
       <r>   -1.5860    1.0000 </r>
       <r>   -1.5808    1.0000 </r>
       <r>   -1.5248    1.0000 </r>
       <r>   -1.5238    1.0000 </r>
       <r>   -1.5175    1.0000 </r>
       <r>   -1.4751    1.0000 </r>
       <r>   -1.2945    1.0000 </r>
       <r>   -1.2869    1.0000 </r>
       <r>   -1.2588    1.0000 </r>
       <r>   -1.2557    1.0000 </r>
       <r>   -1.2447    1.0000 </r>
       <r>   -1.2312    1.0000 </r>
       <r>   -1.1822    1.0000 </r>
       <r>   -1.1752    1.0000 </r>
       <r>   -1.0211    1.0000 </r>
       <r>   -1.0165    1.0000 </r>
       <r>   -1.0124    1.0000 </r>
       <r>   -1.0045    1.0000 </r>
       <r>   -0.9998    1.0000 </r>
       <r>   -0.9466    1.0000 </r>
       <r>   -0.8510    1.0000 </r>
       <r>   -0.8417    1.0000 </r>
       <r>   -0.8356    1.0000 </r>
       <r>   -0.8262    1.0000 </r>
       <r>   -0.8213    1.0000 </r>
       <r>   -0.8007    1.0000 </r>
       <r>   -0.8000    1.0000 </r>
       <r>   -0.7940    1.0000 </r>
       <r>   -0.7904    1.0000 </r>
       <r>   -0.7873    1.0000 </r>
       <r>   -0.7843    1.0000 </r>
       <r>   -0.6995    1.0000 </r>
       <r>   -0.6803    1.0000 </r>
       <r>   -0.6781    1.0000 </r>
       <r>   -0.6629    1.0000 </r>
       <r>   -0.6592    1.0000 </r>
       <r>   -0.6571    1.0000 </r>
       <r>   -0.6344    1.0000 </r>
       <r>   -0.6201    1.0000 </r>
       <r>   -0.5792    1.0000 </r>
       <r>   -0.5764    1.0000 </r>
       <r>   -0.5514    1.0000 </r>
       <r>   -0.5446    1.0000 </r>
       <r>   -0.5438    1.0000 </r>
       <r>   -0.5418    1.0000 </r>
       <r>   -0.5383    1.0000 </r>
       <r>   -0.5352    1.0000 </r>
       <r>   -0.4631    1.0000 </r>
       <r>   -0.4468    1.0000 </r>
       <r>   -0.4435    1.0000 </r>
       <r>   -0.4327    1.0000 </r>
       <r>   -0.4264    1.0000 </r>
       <r>   -0.4223    1.0000 </r>
       <r>   -0.4064    1.0000 </r>
       <r>   -0.3457    1.0003 </r>
       <r>   -0.3195    1.0009 </r>
       <r>   -0.3142    1.0012 </r>
       <r>   -0.3099    1.0014 </r>
       <r>   -0.2972    1.0024 </r>
       <r>   -0.2929    1.0029 </r>
       <r>   -0.1143    0.8694 </r>
       <r>   -0.0898    0.7072 </r>
       <r>   -0.0158    0.1377 </r>
       <r>   -0.0075    0.0942 </r>
       <r>    0.0165    0.0075 </r>
       <r>    0.0196    0.0003 </r>
       <r>    0.0220   -0.0048 </r>
       <r>    0.0269   -0.0136 </r>
       <r>    0.3315   -0.0000 </r>
       <r>    0.8193   -0.0000 </r>
       <r>    0.8933   -0.0000 </r>
       <r>    0.9028   -0.0000 </r>
       <r>    0.9110   -0.0000 </r>
       <r>    0.9151   -0.0000 </r>
       <r>    0.9163   -0.0000 </r>
       <r>    2.4139   -0.0000 </r>
       <r>    3.1751    0.0000 </r>
       <r>    3.1841    0.0000 </r>
       <r>    3.2199    0.0000 </r>
       <r>    3.2290    0.0000 </r>
       <r>    3.2398    0.0000 </r>
       <r>    4.3589    0.0000 </r>
       <r>    4.7730    0.0000 </r>
       <r>    4.7759    0.0000 </r>
       <r>    4.8185    0.0000 </r>
       <r>    4.8213    0.0000 </r>
       <r>    4.8399    0.0000 </r>
       <r>    4.8413    0.0000 </r>
       <r>    4.9550    0.0000 </r>
       <r>    5.1099    0.0000 </r>
       <r>    5.5089    0.0000 </r>
       <r>    5.5401    0.0000 </r>
       <r>    5.8286    0.0000 </r>
       <r>    5.8413    0.0000 </r>
       <r>    5.8442    0.0000 </r>
       <r>    5.8622    0.0000 </r>
       <r>    5.8782    0.0000 </r>
       <r>    6.0745    0.0000 </r>
       <r>    6.6017    0.0000 </r>
       <r>    6.6281    0.0000 </r>
       <r>    6.6385    0.0000 </r>
       <r>    6.6437    0.0000 </r>
       <r>    6.6721    0.0000 </r>
       <r>    6.8482    0.0000 </r>
       <r>    7.1167    0.0000 </r>
       <r>    7.1219    0.0000 </r>
       <r>    7.1420    0.0000 </r>
       <r>    7.1668    0.0000 </r>
       <r>    7.1708    0.0000 </r>
       <r>    7.1797    0.0000 </r>
       <r>    7.3205    0.0000 </r>
       <r>    7.8730    0.0000 </r>
      </set>
      <set comment="kpoint 2">
       <r>   -8.7259    1.0000 </r>
       <r>   -7.4635    1.0000 </r>
       <r>   -6.9558    1.0000 </r>
       <r>   -6.5739    1.0000 </r>
       <r>   -6.5506    1.0000 </r>
       <r>   -6.3892    1.0000 </r>
       <r>   -6.3284    1.0000 </r>
       <r>   -6.2646    1.0000 </r>
       <r>   -6.2224    1.0000 </r>
       <r>   -6.2078    1.0000 </r>
       <r>   -6.0618    1.0000 </r>
       <r>   -5.9937    1.0000 </r>
       <r>   -5.8917    1.0000 </r>
       <r>   -5.8304    1.0000 </r>
       <r>   -5.8273    1.0000 </r>
       <r>   -5.8181    1.0000 </r>
       <r>   -5.5600    1.0000 </r>
       <r>   -5.4966    1.0000 </r>
       <r>   -5.4060    1.0000 </r>
       <r>   -5.4039    1.0000 </r>
       <r>   -5.3915    1.0000 </r>
       <r>   -5.3587    1.0000 </r>
       <r>   -5.3194    1.0000 </r>
       <r>   -5.3049    1.0000 </r>
       <r>   -5.2607    1.0000 </r>
       <r>   -5.2283    1.0000 </r>
       <r>   -5.2030    1.0000 </r>
       <r>   -5.1987    1.0000 </r>
       <r>   -5.1461    1.0000 </r>
       <r>   -5.1109    1.0000 </r>
       <r>   -5.0783    1.0000 </r>
       <r>   -5.0167    1.0000 </r>
       <r>   -5.0043    1.0000 </r>
       <r>   -4.9964    1.0000 </r>
       <r>   -4.9924    1.0000 </r>
       <r>   -4.8700    1.0000 </r>
       <r>   -4.7926    1.0000 </r>
       <r>   -4.7824    1.0000 </r>
       <r>   -4.7677    1.0000 </r>
       <r>   -4.7535    1.0000 </r>
       <r>   -4.7153    1.0000 </r>
       <r>   -4.4946    1.0000 </r>
       <r>   -4.4769    1.0000 </r>
       <r>   -4.4671    1.0000 </r>
       <r>   -4.4134    1.0000 </r>
       <r>   -4.4010    1.0000 </r>
       <r>   -4.3835    1.0000 </r>
       <r>   -4.3298    1.0000 </r>
       <r>   -4.2004    1.0000 </r>
       <r>   -4.1876    1.0000 </r>
       <r>   -4.1123    1.0000 </r>
       <r>   -4.1072    1.0000 </r>
       <r>   -4.0810    1.0000 </r>
       <r>   -4.0496    1.0000 </r>
       <r>   -3.9728    1.0000 </r>
       <r>   -3.8168    1.0000 </r>
       <r>   -3.7313    1.0000 </r>
       <r>   -3.7093    1.0000 </r>
       <r>   -3.6823    1.0000 </r>
       <r>   -3.6768    1.0000 </r>
       <r>   -3.6317    1.0000 </r>
       <r>   -3.5669    1.0000 </r>
       <r>   -3.5511    1.0000 </r>
       <r>   -3.5417    1.0000 </r>
       <r>   -3.5147    1.0000 </r>
       <r>   -3.5080    1.0000 </r>
       <r>   -3.4921    1.0000 </r>
       <r>   -3.4396    1.0000 </r>
       <r>   -3.3931    1.0000 </r>
       <r>   -3.3760    1.0000 </r>
       <r>   -3.3578    1.0000 </r>
       <r>   -3.3376    1.0000 </r>
       <r>   -3.2585    1.0000 </r>
       <r>   -3.2440    1.0000 </r>
       <r>   -3.2359    1.0000 </r>
       <r>   -3.1791    1.0000 </r>
       <r>   -3.1679    1.0000 </r>
       <r>   -3.1496    1.0000 </r>
       <r>   -3.1003    1.0000 </r>
       <r>   -3.0875    1.0000 </r>
       <r>   -3.0791    1.0000 </r>
       <r>   -3.0207    1.0000 </r>
       <r>   -3.0155    1.0000 </r>
       <r>   -2.9799    1.0000 </r>
       <r>   -2.9606    1.0000 </r>
       <r>   -2.9458    1.0000 </r>
       <r>   -2.9329    1.0000 </r>
       <r>   -2.9198    1.0000 </r>
       <r>   -2.9095    1.0000 </r>
       <r>   -2.8975    1.0000 </r>
       <r>   -2.8453    1.0000 </r>
       <r>   -2.8030    1.0000 </r>
       <r>   -2.7991    1.0000 </r>
       <r>   -2.7745    1.0000 </r>
       <r>   -2.7529    1.0000 </r>
       <r>   -2.7495    1.0000 </r>
       <r>   -2.7388    1.0000 </r>
       <r>   -2.7037    1.0000 </r>
       <r>   -2.6956    1.0000 </r>
       <r>   -2.6766    1.0000 </r>
       <r>   -2.5753    1.0000 </r>
       <r>   -2.5328    1.0000 </r>
       <r>   -2.5272    1.0000 </r>
       <r>   -2.5103    1.0000 </r>
       <r>   -2.4966    1.0000 </r>
       <r>   -2.4932    1.0000 </r>
       <r>   -2.4833    1.0000 </r>
       <r>   -2.4801    1.0000 </r>
       <r>   -2.4273    1.0000 </r>
       <r>   -2.4192    1.0000 </r>
       <r>   -2.4075    1.0000 </r>
       <r>   -2.3956    1.0000 </r>
       <r>   -2.3118    1.0000 </r>
       <r>   -2.0994    1.0000 </r>
       <r>   -2.0843    1.0000 </r>
       <r>   -2.0319    1.0000 </r>
       <r>   -1.9997    1.0000 </r>
       <r>   -1.9901    1.0000 </r>
       <r>   -1.9686    1.0000 </r>
       <r>   -1.9603    1.0000 </r>
       <r>   -1.9314    1.0000 </r>
       <r>   -1.9150    1.0000 </r>
       <r>   -1.7909    1.0000 </r>
       <r>   -1.7787    1.0000 </r>
       <r>   -1.7773    1.0000 </r>
       <r>   -1.6660    1.0000 </r>
       <r>   -1.6411    1.0000 </r>
       <r>   -1.6030    1.0000 </r>
       <r>   -1.5708    1.0000 </r>
       <r>   -1.5569    1.0000 </r>
       <r>   -1.5316    1.0000 </r>
       <r>   -1.5200    1.0000 </r>
       <r>   -1.4991    1.0000 </r>
       <r>   -1.4822    1.0000 </r>
       <r>   -1.4239    1.0000 </r>
       <r>   -1.4010    1.0000 </r>
       <r>   -1.3826    1.0000 </r>
       <r>   -1.3707    1.0000 </r>
       <r>   -1.3646    1.0000 </r>
       <r>   -1.2009    1.0000 </r>
       <r>   -1.1733    1.0000 </r>
       <r>   -1.1622    1.0000 </r>
       <r>   -1.1370    1.0000 </r>
       <r>   -1.1266    1.0000 </r>
       <r>   -1.1039    1.0000 </r>
       <r>   -1.0753    1.0000 </r>
       <r>   -1.0214    1.0000 </r>
       <r>   -0.9958    1.0000 </r>
       <r>   -0.9921    1.0000 </r>
       <r>   -0.9726    1.0000 </r>
       <r>   -0.9505    1.0000 </r>
       <r>   -0.9038    1.0000 </r>
       <r>   -0.8973    1.0000 </r>
       <r>   -0.8835    1.0000 </r>
       <r>   -0.8575    1.0000 </r>
       <r>   -0.7727    1.0000 </r>
       <r>   -0.7662    1.0000 </r>
       <r>   -0.7434    1.0000 </r>
       <r>   -0.6949    1.0000 </r>
       <r>   -0.6393    1.0000 </r>
       <r>   -0.6216    1.0000 </r>
       <r>   -0.6187    1.0000 </r>
       <r>   -0.6019    1.0000 </r>
       <r>   -0.5755    1.0000 </r>
       <r>   -0.5625    1.0000 </r>
       <r>   -0.5312    1.0000 </r>
       <r>   -0.4777    1.0000 </r>
       <r>   -0.4542    1.0000 </r>
       <r>   -0.4458    1.0000 </r>
       <r>   -0.3887    1.0000 </r>
       <r>   -0.3832    1.0000 </r>
       <r>   -0.3735    1.0001 </r>
       <r>   -0.3390    1.0004 </r>
       <r>   -0.3350    1.0004 </r>
       <r>   -0.3298    1.0006 </r>
       <r>   -0.3289    1.0006 </r>
       <r>   -0.3238    1.0008 </r>
       <r>   -0.2638    1.0082 </r>
       <r>   -0.2501    1.0123 </r>
       <r>   -0.1202    0.9002 </r>
       <r>   -0.1161    0.8791 </r>
       <r>   -0.0863    0.6799 </r>
       <r>   -0.0771    0.6063 </r>
       <r>   -0.0722    0.5653 </r>
       <r>   -0.0579    0.4446 </r>
       <r>   -0.0265    0.2031 </r>
       <r>   -0.0128    0.1212 </r>
       <r>    0.0007    0.0582 </r>
       <r>    0.0147    0.0122 </r>
       <r>    0.0853   -0.0278 </r>
       <r>    0.1234   -0.0116 </r>
       <r>    0.1451   -0.0058 </r>
       <r>    0.1512   -0.0047 </r>
       <r>    0.2952   -0.0000 </r>
       <r>    0.3114   -0.0000 </r>
       <r>    0.3200   -0.0000 </r>
       <r>    0.3726   -0.0000 </r>
       <r>    0.6472   -0.0000 </r>
       <r>    0.7674   -0.0000 </r>
       <r>    1.1858   -0.0000 </r>
       <r>    1.4929   -0.0000 </r>
       <r>    1.4958   -0.0000 </r>
       <r>    1.6231   -0.0000 </r>
       <r>    2.2613   -0.0000 </r>
       <r>    2.7185    0.0000 </r>
       <r>    2.9226    0.0000 </r>
       <r>    3.4266    0.0000 </r>
       <r>    3.6625    0.0000 </r>
       <r>    3.6663    0.0000 </r>
       <r>    3.7673    0.0000 </r>
       <r>    3.9714    0.0000 </r>
       <r>    4.3495    0.0000 </r>
       <r>    4.6290    0.0000 </r>
       <r>    4.6601    0.0000 </r>
       <r>    4.9488    0.0000 </r>
       <r>    4.9937    0.0000 </r>
       <r>    5.0122    0.0000 </r>
       <r>    5.1202    0.0000 </r>
       <r>    5.2307    0.0000 </r>
       <r>    5.4791    0.0000 </r>
       <r>    5.6516    0.0000 </r>
       <r>    5.7465    0.0000 </r>
       <r>    5.8497    0.0000 </r>
       <r>    5.9234    0.0000 </r>
       <r>    6.0354    0.0000 </r>
       <r>    6.1835    0.0000 </r>
       <r>    6.2203    0.0000 </r>
       <r>    6.3186    0.0000 </r>
       <r>    6.3553    0.0000 </r>
       <r>    6.6256    0.0000 </r>
       <r>    6.7244    0.0000 </r>
       <r>    6.7257    0.0000 </r>
       <r>    6.7821    0.0000 </r>
       <r>    6.8578    0.0000 </r>
       <r>    6.9133    0.0000 </r>
       <r>    7.0509    0.0000 </r>
       <r>    7.2277    0.0000 </r>
       <r>    7.5067    0.0000 </r>
       <r>    7.5543    0.0000 </r>
       <r>    7.6179    0.0000 </r>
      </set>
      <set comment="kpoint 3">
       <r>   -8.7261    1.0000 </r>
       <r>   -7.4637    1.0000 </r>
       <r>   -6.9618    1.0000 </r>
       <r>   -6.5693    1.0000 </r>
       <r>   -6.5477    1.0000 </r>
       <r>   -6.3892    1.0000 </r>
       <r>   -6.3292    1.0000 </r>
       <r>   -6.2703    1.0000 </r>
       <r>   -6.2220    1.0000 </r>
       <r>   -6.2024    1.0000 </r>
       <r>   -6.0608    1.0000 </r>
       <r>   -5.9923    1.0000 </r>
       <r>   -5.8915    1.0000 </r>
       <r>   -5.8345    1.0000 </r>
       <r>   -5.8319    1.0000 </r>
       <r>   -5.8185    1.0000 </r>
       <r>   -5.5702    1.0000 </r>
       <r>   -5.4781    1.0000 </r>
       <r>   -5.4083    1.0000 </r>
       <r>   -5.4015    1.0000 </r>
       <r>   -5.3956    1.0000 </r>
       <r>   -5.3569    1.0000 </r>
       <r>   -5.3181    1.0000 </r>
       <r>   -5.3024    1.0000 </r>
       <r>   -5.2599    1.0000 </r>
       <r>   -5.2269    1.0000 </r>
       <r>   -5.2097    1.0000 </r>
       <r>   -5.2004    1.0000 </r>
       <r>   -5.1555    1.0000 </r>
       <r>   -5.1063    1.0000 </r>
       <r>   -5.0745    1.0000 </r>
       <r>   -5.0266    1.0000 </r>
       <r>   -5.0064    1.0000 </r>
       <r>   -4.9937    1.0000 </r>
       <r>   -4.9882    1.0000 </r>
       <r>   -4.8791    1.0000 </r>
       <r>   -4.7925    1.0000 </r>
       <r>   -4.7841    1.0000 </r>
       <r>   -4.7681    1.0000 </r>
       <r>   -4.7524    1.0000 </r>
       <r>   -4.7008    1.0000 </r>
       <r>   -4.4920    1.0000 </r>
       <r>   -4.4781    1.0000 </r>
       <r>   -4.4460    1.0000 </r>
       <r>   -4.4154    1.0000 </r>
       <r>   -4.4022    1.0000 </r>
       <r>   -4.3819    1.0000 </r>
       <r>   -4.3330    1.0000 </r>
       <r>   -4.1975    1.0000 </r>
       <r>   -4.1874    1.0000 </r>
       <r>   -4.1205    1.0000 </r>
       <r>   -4.1072    1.0000 </r>
       <r>   -4.0788    1.0000 </r>
       <r>   -4.0504    1.0000 </r>
       <r>   -3.9749    1.0000 </r>
       <r>   -3.8010    1.0000 </r>
       <r>   -3.7325    1.0000 </r>
       <r>   -3.7056    1.0000 </r>
       <r>   -3.6683    1.0000 </r>
       <r>   -3.6644    1.0000 </r>
       <r>   -3.6303    1.0000 </r>
       <r>   -3.5708    1.0000 </r>
       <r>   -3.5653    1.0000 </r>
       <r>   -3.5296    1.0000 </r>
       <r>   -3.5224    1.0000 </r>
       <r>   -3.5159    1.0000 </r>
       <r>   -3.4879    1.0000 </r>
       <r>   -3.4398    1.0000 </r>
       <r>   -3.3984    1.0000 </r>
       <r>   -3.3700    1.0000 </r>
       <r>   -3.3541    1.0000 </r>
       <r>   -3.3373    1.0000 </r>
       <r>   -3.2800    1.0000 </r>
       <r>   -3.2589    1.0000 </r>
       <r>   -3.2560    1.0000 </r>
       <r>   -3.1770    1.0000 </r>
       <r>   -3.1660    1.0000 </r>
       <r>   -3.1490    1.0000 </r>
       <r>   -3.0994    1.0000 </r>
       <r>   -3.0760    1.0000 </r>
       <r>   -3.0617    1.0000 </r>
       <r>   -3.0345    1.0000 </r>
       <r>   -3.0138    1.0000 </r>
       <r>   -2.9778    1.0000 </r>
       <r>   -2.9623    1.0000 </r>
       <r>   -2.9511    1.0000 </r>
       <r>   -2.9339    1.0000 </r>
       <r>   -2.9176    1.0000 </r>
       <r>   -2.9078    1.0000 </r>
       <r>   -2.8883    1.0000 </r>
       <r>   -2.8480    1.0000 </r>
       <r>   -2.8080    1.0000 </r>
       <r>   -2.7940    1.0000 </r>
       <r>   -2.7800    1.0000 </r>
       <r>   -2.7581    1.0000 </r>
       <r>   -2.7512    1.0000 </r>
       <r>   -2.7255    1.0000 </r>
       <r>   -2.7034    1.0000 </r>
       <r>   -2.6955    1.0000 </r>
       <r>   -2.6819    1.0000 </r>
       <r>   -2.5728    1.0000 </r>
       <r>   -2.5359    1.0000 </r>
       <r>   -2.5252    1.0000 </r>
       <r>   -2.5141    1.0000 </r>
       <r>   -2.5050    1.0000 </r>
       <r>   -2.4925    1.0000 </r>
       <r>   -2.4885    1.0000 </r>
       <r>   -2.4732    1.0000 </r>
       <r>   -2.4248    1.0000 </r>
       <r>   -2.4188    1.0000 </r>
       <r>   -2.4096    1.0000 </r>
       <r>   -2.3946    1.0000 </r>
       <r>   -2.2772    1.0000 </r>
       <r>   -2.1179    1.0000 </r>
       <r>   -2.0705    1.0000 </r>
       <r>   -2.0347    1.0000 </r>
       <r>   -2.0044    1.0000 </r>
       <r>   -1.9902    1.0000 </r>
       <r>   -1.9696    1.0000 </r>
       <r>   -1.9644    1.0000 </r>
       <r>   -1.9332    1.0000 </r>
       <r>   -1.9229    1.0000 </r>
       <r>   -1.8007    1.0000 </r>
       <r>   -1.7848    1.0000 </r>
       <r>   -1.7762    1.0000 </r>
       <r>   -1.6751    1.0000 </r>
       <r>   -1.6460    1.0000 </r>
       <r>   -1.5907    1.0000 </r>
       <r>   -1.5772    1.0000 </r>
       <r>   -1.5642    1.0000 </r>
       <r>   -1.5347    1.0000 </r>
       <r>   -1.5238    1.0000 </r>
       <r>   -1.5053    1.0000 </r>
       <r>   -1.4934    1.0000 </r>
       <r>   -1.4236    1.0000 </r>
       <r>   -1.3946    1.0000 </r>
       <r>   -1.3833    1.0000 </r>
       <r>   -1.3710    1.0000 </r>
       <r>   -1.3610    1.0000 </r>
       <r>   -1.1950    1.0000 </r>
       <r>   -1.1789    1.0000 </r>
       <r>   -1.1679    1.0000 </r>
       <r>   -1.1371    1.0000 </r>
       <r>   -1.1240    1.0000 </r>
       <r>   -1.1043    1.0000 </r>
       <r>   -1.0698    1.0000 </r>
       <r>   -1.0227    1.0000 </r>
       <r>   -0.9923    1.0000 </r>
       <r>   -0.9851    1.0000 </r>
       <r>   -0.9744    1.0000 </r>
       <r>   -0.9413    1.0000 </r>
       <r>   -0.9040    1.0000 </r>
       <r>   -0.8932    1.0000 </r>
       <r>   -0.8859    1.0000 </r>
       <r>   -0.8552    1.0000 </r>
       <r>   -0.7715    1.0000 </r>
       <r>   -0.7654    1.0000 </r>
       <r>   -0.7385    1.0000 </r>
       <r>   -0.6952    1.0000 </r>
       <r>   -0.6467    1.0000 </r>
       <r>   -0.6221    1.0000 </r>
       <r>   -0.6188    1.0000 </r>
       <r>   -0.6091    1.0000 </r>
       <r>   -0.5780    1.0000 </r>
       <r>   -0.5738    1.0000 </r>
       <r>   -0.5321    1.0000 </r>
       <r>   -0.4801    1.0000 </r>
       <r>   -0.4533    1.0000 </r>
       <r>   -0.4484    1.0000 </r>
       <r>   -0.3886    1.0000 </r>
       <r>   -0.3820    1.0000 </r>
       <r>   -0.3737    1.0001 </r>
       <r>   -0.3388    1.0004 </r>
       <r>   -0.3358    1.0004 </r>
       <r>   -0.3319    1.0005 </r>
       <r>   -0.3301    1.0006 </r>
       <r>   -0.3184    1.0010 </r>
       <r>   -0.2705    1.0065 </r>
       <r>   -0.2596    1.0093 </r>
       <r>   -0.1316    0.9496 </r>
       <r>   -0.1155    0.8759 </r>
       <r>   -0.0826    0.6509 </r>
       <r>   -0.0707    0.5531 </r>
       <r>   -0.0667    0.5188 </r>
       <r>   -0.0494    0.3743 </r>
       <r>   -0.0164    0.1407 </r>
       <r>    0.0033    0.0483 </r>
       <r>    0.0062    0.0380 </r>
       <r>    0.0246   -0.0096 </r>
       <r>    0.0901   -0.0256 </r>
       <r>    0.1233   -0.0117 </r>
       <r>    0.1402   -0.0069 </r>
       <r>    0.1447   -0.0059 </r>
       <r>    0.3026   -0.0000 </r>
       <r>    0.3115   -0.0000 </r>
       <r>    0.3237   -0.0000 </r>
       <r>    0.3628   -0.0000 </r>
       <r>    0.6608   -0.0000 </r>
       <r>    0.7813   -0.0000 </r>
       <r>    1.1801   -0.0000 </r>
       <r>    1.4867   -0.0000 </r>
       <r>    1.4929   -0.0000 </r>
       <r>    1.6213   -0.0000 </r>
       <r>    2.2507   -0.0000 </r>
       <r>    2.7224    0.0000 </r>
       <r>    2.9341    0.0000 </r>
       <r>    3.4298    0.0000 </r>
       <r>    3.6604    0.0000 </r>
       <r>    3.6655    0.0000 </r>
       <r>    3.7697    0.0000 </r>
       <r>    3.9667    0.0000 </r>
       <r>    4.3434    0.0000 </r>
       <r>    4.6254    0.0000 </r>
       <r>    4.6558    0.0000 </r>
       <r>    4.9397    0.0000 </r>
       <r>    4.9995    0.0000 </r>
       <r>    5.0169    0.0000 </r>
       <r>    5.1175    0.0000 </r>
       <r>    5.2307    0.0000 </r>
       <r>    5.4945    0.0000 </r>
       <r>    5.6552    0.0000 </r>
       <r>    5.7352    0.0000 </r>
       <r>    5.8730    0.0000 </r>
       <r>    5.9345    0.0000 </r>
       <r>    6.0235    0.0000 </r>
       <r>    6.1754    0.0000 </r>
       <r>    6.2081    0.0000 </r>
       <r>    6.3233    0.0000 </r>
       <r>    6.3733    0.0000 </r>
       <r>    6.6092    0.0000 </r>
       <r>    6.7246    0.0000 </r>
       <r>    6.7275    0.0000 </r>
       <r>    6.7773    0.0000 </r>
       <r>    6.8631    0.0000 </r>
       <r>    6.9126    0.0000 </r>
       <r>    7.0479    0.0000 </r>
       <r>    7.2241    0.0000 </r>
       <r>    7.5009    0.0000 </r>
       <r>    7.5511    0.0000 </r>
       <r>    7.6164    0.0000 </r>
      </set>
      <set comment="kpoint 4">
       <r>   -8.7260    1.0000 </r>
       <r>   -7.4637    1.0000 </r>
       <r>   -6.9585    1.0000 </r>
       <r>   -6.5709    1.0000 </r>
       <r>   -6.5501    1.0000 </r>
       <r>   -6.3890    1.0000 </r>
       <r>   -6.3289    1.0000 </r>
       <r>   -6.2651    1.0000 </r>
       <r>   -6.2252    1.0000 </r>
       <r>   -6.2050    1.0000 </r>
       <r>   -6.0635    1.0000 </r>
       <r>   -5.9921    1.0000 </r>
       <r>   -5.8864    1.0000 </r>
       <r>   -5.8347    1.0000 </r>
       <r>   -5.8329    1.0000 </r>
       <r>   -5.8163    1.0000 </r>
       <r>   -5.5714    1.0000 </r>
       <r>   -5.4797    1.0000 </r>
       <r>   -5.4075    1.0000 </r>
       <r>   -5.4013    1.0000 </r>
       <r>   -5.3916    1.0000 </r>
       <r>   -5.3578    1.0000 </r>
       <r>   -5.3202    1.0000 </r>
       <r>   -5.3022    1.0000 </r>
       <r>   -5.2606    1.0000 </r>
       <r>   -5.2259    1.0000 </r>
       <r>   -5.2087    1.0000 </r>
       <r>   -5.1989    1.0000 </r>
       <r>   -5.1589    1.0000 </r>
       <r>   -5.1093    1.0000 </r>
       <r>   -5.0730    1.0000 </r>
       <r>   -5.0211    1.0000 </r>
       <r>   -5.0064    1.0000 </r>
       <r>   -4.9944    1.0000 </r>
       <r>   -4.9892    1.0000 </r>
       <r>   -4.8766    1.0000 </r>
       <r>   -4.7933    1.0000 </r>
       <r>   -4.7861    1.0000 </r>
       <r>   -4.7699    1.0000 </r>
       <r>   -4.7517    1.0000 </r>
       <r>   -4.7036    1.0000 </r>
       <r>   -4.4937    1.0000 </r>
       <r>   -4.4810    1.0000 </r>
       <r>   -4.4468    1.0000 </r>
       <r>   -4.4162    1.0000 </r>
       <r>   -4.3972    1.0000 </r>
       <r>   -4.3803    1.0000 </r>
       <r>   -4.3342    1.0000 </r>
       <r>   -4.1990    1.0000 </r>
       <r>   -4.1890    1.0000 </r>
       <r>   -4.1237    1.0000 </r>
       <r>   -4.1050    1.0000 </r>
       <r>   -4.0770    1.0000 </r>
       <r>   -4.0495    1.0000 </r>
       <r>   -3.9755    1.0000 </r>
       <r>   -3.8045    1.0000 </r>
       <r>   -3.7323    1.0000 </r>
       <r>   -3.7073    1.0000 </r>
       <r>   -3.6762    1.0000 </r>
       <r>   -3.6691    1.0000 </r>
       <r>   -3.6336    1.0000 </r>
       <r>   -3.5662    1.0000 </r>
       <r>   -3.5597    1.0000 </r>
       <r>   -3.5327    1.0000 </r>
       <r>   -3.5177    1.0000 </r>
       <r>   -3.5154    1.0000 </r>
       <r>   -3.4884    1.0000 </r>
       <r>   -3.4394    1.0000 </r>
       <r>   -3.3996    1.0000 </r>
       <r>   -3.3790    1.0000 </r>
       <r>   -3.3588    1.0000 </r>
       <r>   -3.3361    1.0000 </r>
       <r>   -3.2671    1.0000 </r>
       <r>   -3.2553    1.0000 </r>
       <r>   -3.2437    1.0000 </r>
       <r>   -3.1782    1.0000 </r>
       <r>   -3.1674    1.0000 </r>
       <r>   -3.1512    1.0000 </r>
       <r>   -3.1002    1.0000 </r>
       <r>   -3.0825    1.0000 </r>
       <r>   -3.0664    1.0000 </r>
       <r>   -3.0259    1.0000 </r>
       <r>   -3.0174    1.0000 </r>
       <r>   -2.9782    1.0000 </r>
       <r>   -2.9637    1.0000 </r>
       <r>   -2.9489    1.0000 </r>
       <r>   -2.9352    1.0000 </r>
       <r>   -2.9182    1.0000 </r>
       <r>   -2.9090    1.0000 </r>
       <r>   -2.8878    1.0000 </r>
       <r>   -2.8484    1.0000 </r>
       <r>   -2.8082    1.0000 </r>
       <r>   -2.7938    1.0000 </r>
       <r>   -2.7752    1.0000 </r>
       <r>   -2.7600    1.0000 </r>
       <r>   -2.7503    1.0000 </r>
       <r>   -2.7269    1.0000 </r>
       <r>   -2.7028    1.0000 </r>
       <r>   -2.6927    1.0000 </r>
       <r>   -2.6789    1.0000 </r>
       <r>   -2.5727    1.0000 </r>
       <r>   -2.5357    1.0000 </r>
       <r>   -2.5262    1.0000 </r>
       <r>   -2.5143    1.0000 </r>
       <r>   -2.4997    1.0000 </r>
       <r>   -2.4923    1.0000 </r>
       <r>   -2.4888    1.0000 </r>
       <r>   -2.4718    1.0000 </r>
       <r>   -2.4272    1.0000 </r>
       <r>   -2.4237    1.0000 </r>
       <r>   -2.4081    1.0000 </r>
       <r>   -2.3917    1.0000 </r>
       <r>   -2.2794    1.0000 </r>
       <r>   -2.1223    1.0000 </r>
       <r>   -2.0734    1.0000 </r>
       <r>   -2.0337    1.0000 </r>
       <r>   -2.0041    1.0000 </r>
       <r>   -1.9878    1.0000 </r>
       <r>   -1.9726    1.0000 </r>
       <r>   -1.9616    1.0000 </r>
       <r>   -1.9321    1.0000 </r>
       <r>   -1.9185    1.0000 </r>
       <r>   -1.7996    1.0000 </r>
       <r>   -1.7814    1.0000 </r>
       <r>   -1.7755    1.0000 </r>
       <r>   -1.6732    1.0000 </r>
       <r>   -1.6442    1.0000 </r>
       <r>   -1.5972    1.0000 </r>
       <r>   -1.5726    1.0000 </r>
       <r>   -1.5601    1.0000 </r>
       <r>   -1.5327    1.0000 </r>
       <r>   -1.5229    1.0000 </r>
       <r>   -1.5047    1.0000 </r>
       <r>   -1.4923    1.0000 </r>
       <r>   -1.4229    1.0000 </r>
       <r>   -1.3952    1.0000 </r>
       <r>   -1.3823    1.0000 </r>
       <r>   -1.3747    1.0000 </r>
       <r>   -1.3615    1.0000 </r>
       <r>   -1.1938    1.0000 </r>
       <r>   -1.1759    1.0000 </r>
       <r>   -1.1678    1.0000 </r>
       <r>   -1.1372    1.0000 </r>
       <r>   -1.1260    1.0000 </r>
       <r>   -1.1037    1.0000 </r>
       <r>   -1.0736    1.0000 </r>
       <r>   -1.0233    1.0000 </r>
       <r>   -0.9937    1.0000 </r>
       <r>   -0.9870    1.0000 </r>
       <r>   -0.9729    1.0000 </r>
       <r>   -0.9452    1.0000 </r>
       <r>   -0.9050    1.0000 </r>
       <r>   -0.8932    1.0000 </r>
       <r>   -0.8865    1.0000 </r>
       <r>   -0.8536    1.0000 </r>
       <r>   -0.7714    1.0000 </r>
       <r>   -0.7671    1.0000 </r>
       <r>   -0.7402    1.0000 </r>
       <r>   -0.6938    1.0000 </r>
       <r>   -0.6446    1.0000 </r>
       <r>   -0.6215    1.0000 </r>
       <r>   -0.6187    1.0000 </r>
       <r>   -0.6063    1.0000 </r>
       <r>   -0.5777    1.0000 </r>
       <r>   -0.5694    1.0000 </r>
       <r>   -0.5310    1.0000 </r>
       <r>   -0.4794    1.0000 </r>
       <r>   -0.4538    1.0000 </r>
       <r>   -0.4462    1.0000 </r>
       <r>   -0.3900    1.0000 </r>
       <r>   -0.3825    1.0000 </r>
       <r>   -0.3716    1.0001 </r>
       <r>   -0.3423    1.0003 </r>
       <r>   -0.3355    1.0004 </r>
       <r>   -0.3306    1.0005 </r>
       <r>   -0.3279    1.0006 </r>
       <r>   -0.3216    1.0008 </r>
       <r>   -0.2669    1.0074 </r>
       <r>   -0.2553    1.0106 </r>
       <r>   -0.1274    0.9329 </r>
       <r>   -0.1153    0.8749 </r>
       <r>   -0.0856    0.6746 </r>
       <r>   -0.0722    0.5653 </r>
       <r>   -0.0696    0.5440 </r>
       <r>   -0.0521    0.3968 </r>
       <r>   -0.0216    0.1718 </r>
       <r>    0.0001    0.0607 </r>
       <r>    0.0036    0.0471 </r>
       <r>    0.0198   -0.0000 </r>
       <r>    0.0907   -0.0253 </r>
       <r>    0.1244   -0.0113 </r>
       <r>    0.1401   -0.0069 </r>
       <r>    0.1441   -0.0060 </r>
       <r>    0.3011   -0.0000 </r>
       <r>    0.3118   -0.0000 </r>
       <r>    0.3203   -0.0000 </r>
       <r>    0.3687   -0.0000 </r>
       <r>    0.6569   -0.0000 </r>
       <r>    0.7748   -0.0000 </r>
       <r>    1.1809   -0.0000 </r>
       <r>    1.4880   -0.0000 </r>
       <r>    1.4956   -0.0000 </r>
       <r>    1.6229   -0.0000 </r>
       <r>    2.2545   -0.0000 </r>
       <r>    2.7224    0.0000 </r>
       <r>    2.9286    0.0000 </r>
       <r>    3.4271    0.0000 </r>
       <r>    3.6604    0.0000 </r>
       <r>    3.6657    0.0000 </r>
       <r>    3.7685    0.0000 </r>
       <r>    3.9699    0.0000 </r>
       <r>    4.3447    0.0000 </r>
       <r>    4.6268    0.0000 </r>
       <r>    4.6585    0.0000 </r>
       <r>    4.9432    0.0000 </r>
       <r>    4.9985    0.0000 </r>
       <r>    5.0144    0.0000 </r>
       <r>    5.1197    0.0000 </r>
       <r>    5.2307    0.0000 </r>
       <r>    5.4875    0.0000 </r>
       <r>    5.6555    0.0000 </r>
       <r>    5.7399    0.0000 </r>
       <r>    5.8704    0.0000 </r>
       <r>    5.9288    0.0000 </r>
       <r>    6.0216    0.0000 </r>
       <r>    6.1791    0.0000 </r>
       <r>    6.2086    0.0000 </r>
       <r>    6.3197    0.0000 </r>
       <r>    6.3664    0.0000 </r>
       <r>    6.6069    0.0000 </r>
       <r>    6.7255    0.0000 </r>
       <r>    6.7280    0.0000 </r>
       <r>    6.7792    0.0000 </r>
       <r>    6.8659    0.0000 </r>
       <r>    6.9143    0.0000 </r>
       <r>    7.0497    0.0000 </r>
       <r>    7.2260    0.0000 </r>
       <r>    7.5054    0.0000 </r>
       <r>    7.5543    0.0000 </r>
       <r>    7.6150    0.0000 </r>
      </set>
      <set comment="kpoint 5">
       <r>   -8.2992    1.0000 </r>
       <r>   -7.6596    1.0000 </r>
       <r>   -7.0579    1.0000 </r>
       <r>   -6.6081    1.0000 </r>
       <r>   -6.5797    1.0000 </r>
       <r>   -6.4971    1.0000 </r>
       <r>   -6.2378    1.0000 </r>
       <r>   -6.0843    1.0000 </r>
       <r>   -5.9872    1.0000 </r>
       <r>   -5.9439    1.0000 </r>
       <r>   -5.8983    1.0000 </r>
       <r>   -5.8673    1.0000 </r>
       <r>   -5.7997    1.0000 </r>
       <r>   -5.7011    1.0000 </r>
       <r>   -5.6633    1.0000 </r>
       <r>   -5.6472    1.0000 </r>
       <r>   -5.6369    1.0000 </r>
       <r>   -5.5498    1.0000 </r>
       <r>   -5.5060    1.0000 </r>
       <r>   -5.4780    1.0000 </r>
       <r>   -5.4541    1.0000 </r>
       <r>   -5.4276    1.0000 </r>
       <r>   -5.4217    1.0000 </r>
       <r>   -5.3810    1.0000 </r>
       <r>   -5.3441    1.0000 </r>
       <r>   -5.3165    1.0000 </r>
       <r>   -5.3025    1.0000 </r>
       <r>   -5.1832    1.0000 </r>
       <r>   -5.0449    1.0000 </r>
       <r>   -5.0391    1.0000 </r>
       <r>   -5.0320    1.0000 </r>
       <r>   -5.0212    1.0000 </r>
       <r>   -5.0137    1.0000 </r>
       <r>   -4.9513    1.0000 </r>
       <r>   -4.7864    1.0000 </r>
       <r>   -4.7785    1.0000 </r>
       <r>   -4.7703    1.0000 </r>
       <r>   -4.7556    1.0000 </r>
       <r>   -4.7284    1.0000 </r>
       <r>   -4.6664    1.0000 </r>
       <r>   -4.5627    1.0000 </r>
       <r>   -4.4638    1.0000 </r>
       <r>   -4.4584    1.0000 </r>
       <r>   -4.4450    1.0000 </r>
       <r>   -4.4230    1.0000 </r>
       <r>   -4.3907    1.0000 </r>
       <r>   -4.3528    1.0000 </r>
       <r>   -4.3177    1.0000 </r>
       <r>   -4.2981    1.0000 </r>
       <r>   -4.2785    1.0000 </r>
       <r>   -4.2495    1.0000 </r>
       <r>   -4.1807    1.0000 </r>
       <r>   -4.0867    1.0000 </r>
       <r>   -4.0830    1.0000 </r>
       <r>   -4.0581    1.0000 </r>
       <r>   -4.0444    1.0000 </r>
       <r>   -3.9391    1.0000 </r>
       <r>   -3.8921    1.0000 </r>
       <r>   -3.8759    1.0000 </r>
       <r>   -3.8697    1.0000 </r>
       <r>   -3.8372    1.0000 </r>
       <r>   -3.7115    1.0000 </r>
       <r>   -3.6622    1.0000 </r>
       <r>   -3.6389    1.0000 </r>
       <r>   -3.6355    1.0000 </r>
       <r>   -3.6147    1.0000 </r>
       <r>   -3.5400    1.0000 </r>
       <r>   -3.5373    1.0000 </r>
       <r>   -3.4999    1.0000 </r>
       <r>   -3.4153    1.0000 </r>
       <r>   -3.4022    1.0000 </r>
       <r>   -3.3724    1.0000 </r>
       <r>   -3.3503    1.0000 </r>
       <r>   -3.2884    1.0000 </r>
       <r>   -3.2713    1.0000 </r>
       <r>   -3.2687    1.0000 </r>
       <r>   -3.2456    1.0000 </r>
       <r>   -3.2229    1.0000 </r>
       <r>   -3.1885    1.0000 </r>
       <r>   -3.1658    1.0000 </r>
       <r>   -3.1620    1.0000 </r>
       <r>   -3.1457    1.0000 </r>
       <r>   -3.1266    1.0000 </r>
       <r>   -3.1172    1.0000 </r>
       <r>   -3.0994    1.0000 </r>
       <r>   -3.0847    1.0000 </r>
       <r>   -3.0541    1.0000 </r>
       <r>   -2.9927    1.0000 </r>
       <r>   -2.9720    1.0000 </r>
       <r>   -2.9646    1.0000 </r>
       <r>   -2.9552    1.0000 </r>
       <r>   -2.9490    1.0000 </r>
       <r>   -2.9478    1.0000 </r>
       <r>   -2.8381    1.0000 </r>
       <r>   -2.7889    1.0000 </r>
       <r>   -2.7703    1.0000 </r>
       <r>   -2.7430    1.0000 </r>
       <r>   -2.7177    1.0000 </r>
       <r>   -2.7043    1.0000 </r>
       <r>   -2.6948    1.0000 </r>
       <r>   -2.6614    1.0000 </r>
       <r>   -2.6382    1.0000 </r>
       <r>   -2.5719    1.0000 </r>
       <r>   -2.5301    1.0000 </r>
       <r>   -2.4904    1.0000 </r>
       <r>   -2.4692    1.0000 </r>
       <r>   -2.4447    1.0000 </r>
       <r>   -2.4141    1.0000 </r>
       <r>   -2.3901    1.0000 </r>
       <r>   -2.2678    1.0000 </r>
       <r>   -2.2630    1.0000 </r>
       <r>   -2.2329    1.0000 </r>
       <r>   -2.1683    1.0000 </r>
       <r>   -2.1170    1.0000 </r>
       <r>   -2.0934    1.0000 </r>
       <r>   -2.0785    1.0000 </r>
       <r>   -2.0586    1.0000 </r>
       <r>   -2.0439    1.0000 </r>
       <r>   -2.0362    1.0000 </r>
       <r>   -2.0251    1.0000 </r>
       <r>   -1.9718    1.0000 </r>
       <r>   -1.9391    1.0000 </r>
       <r>   -1.9245    1.0000 </r>
       <r>   -1.9205    1.0000 </r>
       <r>   -1.9105    1.0000 </r>
       <r>   -1.8960    1.0000 </r>
       <r>   -1.8631    1.0000 </r>
       <r>   -1.8433    1.0000 </r>
       <r>   -1.8300    1.0000 </r>
       <r>   -1.7244    1.0000 </r>
       <r>   -1.6905    1.0000 </r>
       <r>   -1.6820    1.0000 </r>
       <r>   -1.6743    1.0000 </r>
       <r>   -1.6157    1.0000 </r>
       <r>   -1.5107    1.0000 </r>
       <r>   -1.4855    1.0000 </r>
       <r>   -1.4835    1.0000 </r>
       <r>   -1.3833    1.0000 </r>
       <r>   -1.3826    1.0000 </r>
       <r>   -1.3047    1.0000 </r>
       <r>   -1.2410    1.0000 </r>
       <r>   -1.2080    1.0000 </r>
       <r>   -1.1713    1.0000 </r>
       <r>   -1.1660    1.0000 </r>
       <r>   -1.1397    1.0000 </r>
       <r>   -1.1255    1.0000 </r>
       <r>   -1.1091    1.0000 </r>
       <r>   -1.0486    1.0000 </r>
       <r>   -1.0430    1.0000 </r>
       <r>   -1.0133    1.0000 </r>
       <r>   -0.9861    1.0000 </r>
       <r>   -0.9499    1.0000 </r>
       <r>   -0.8912    1.0000 </r>
       <r>   -0.8629    1.0000 </r>
       <r>   -0.8474    1.0000 </r>
       <r>   -0.8356    1.0000 </r>
       <r>   -0.8208    1.0000 </r>
       <r>   -0.7760    1.0000 </r>
       <r>   -0.7132    1.0000 </r>
       <r>   -0.6367    1.0000 </r>
       <r>   -0.5937    1.0000 </r>
       <r>   -0.5792    1.0000 </r>
       <r>   -0.5445    1.0000 </r>
       <r>   -0.5429    1.0000 </r>
       <r>   -0.5296    1.0000 </r>
       <r>   -0.4499    1.0000 </r>
       <r>   -0.4294    1.0000 </r>
       <r>   -0.4121    1.0000 </r>
       <r>   -0.3316    1.0005 </r>
       <r>   -0.3286    1.0006 </r>
       <r>   -0.3205    1.0009 </r>
       <r>   -0.2688    1.0069 </r>
       <r>   -0.2505    1.0122 </r>
       <r>   -0.2335    1.0190 </r>
       <r>   -0.2121    1.0287 </r>
       <r>   -0.1377    0.9708 </r>
       <r>   -0.1106    0.8483 </r>
       <r>   -0.0883    0.6958 </r>
       <r>   -0.0787    0.6191 </r>
       <r>   -0.0656    0.5102 </r>
       <r>   -0.0634    0.4911 </r>
       <r>   -0.0463    0.3490 </r>
       <r>   -0.0390    0.2923 </r>
       <r>    0.1375   -0.0075 </r>
       <r>    0.1389   -0.0072 </r>
       <r>    0.1611   -0.0032 </r>
       <r>    0.1745   -0.0019 </r>
       <r>    0.1821   -0.0013 </r>
       <r>    0.3429   -0.0000 </r>
       <r>    0.3842   -0.0000 </r>
       <r>    0.5637   -0.0000 </r>
       <r>    0.7748   -0.0000 </r>
       <r>    0.8435   -0.0000 </r>
       <r>    0.9625   -0.0000 </r>
       <r>    1.2268   -0.0000 </r>
       <r>    1.2385   -0.0000 </r>
       <r>    1.5574   -0.0000 </r>
[...]
       <r>    6.8589    0.0000 </r>
       <r>    6.8880    0.0000 </r>
       <r>    7.0657    0.0000 </r>
       <r>    7.2362    0.0000 </r>
       <r>    7.3091    0.0000 </r>
      </set>
     </set>
    </set>
   </array>
  </eigenvalues>
  <separator name="orbital magnetization" >
   <v name="MAGDIPOLOUT">      0.00000000      0.00000000      0.00000000</v>
  </separator>
  <dos>
   <i name="efermi">     -0.06443239 </i>
   <total>
    <array>
     <dimension dim="1">gridpoints</dimension>
     <dimension dim="2">spin</dimension>
     <field>energy</field>
     <field>total</field>
     <field>integrated</field>
     <set>
      <set comment="spin 1">
       <r>    -9.8742     0.0000     0.0000 </r>
       <r>    -9.8117     0.0000     0.0000 </r>
       <r>    -9.7492     0.0000     0.0000 </r>
       <r>    -9.6867    -0.0000    -0.0000 </r>
       <r>    -9.6242    -0.0000    -0.0000 </r>
       <r>    -9.5617    -0.0000    -0.0000 </r>
       <r>    -9.4993    -0.0000    -0.0000 </r>
       <r>    -9.4368    -0.0000    -0.0000 </r>
       <r>    -9.3743    -0.0000    -0.0000 </r>
       <r>    -9.3118    -0.0000    -0.0000 </r>
       <r>    -9.2493    -0.0000    -0.0000 </r>
       <r>    -9.1868    -0.0001    -0.0000 </r>
       <r>    -9.1243    -0.0014    -0.0001 </r>
       <r>    -9.0618    -0.0136    -0.0009 </r>
       <r>    -8.9993    -0.0332    -0.0030 </r>
       <r>    -8.9368     0.0933     0.0028 </r>
       <r>    -8.8744     0.3754     0.0263 </r>
       <r>    -8.8119     0.7426     0.0727 </r>
       <r>    -8.7494     2.5269     0.2306 </r>
       <r>    -8.6869     3.7752     0.4665 </r>
       <r>    -8.6244     1.6095     0.5671 </r>
       <r>    -8.5619    -0.2278     0.5529 </r>
       <r>    -8.4994     0.6430     0.5930 </r>
       <r>    -8.4369     3.1326     0.7888 </r>
       <r>    -8.3744     3.7137     1.0209 </r>
       <r>    -8.3119     3.6288     1.2476 </r>
       <r>    -8.2494     3.4586     1.4638 </r>
       <r>    -8.1870     1.1651     1.5366 </r>
       <r>    -8.1245    -0.1902     1.5247 </r>
       <r>    -8.0620    -0.3952     1.5000 </r>
       <r>    -7.9995    -0.0587     1.4963 </r>
       <r>    -7.9370     3.5294     1.7169 </r>
       <r>    -7.8745     7.5883     2.1911 </r>
       <r>    -7.8120     4.4878     2.4715 </r>
       <r>    -7.7495     0.4535     2.4999 </r>
       <r>    -7.6870     1.9687     2.6229 </r>
       <r>    -7.6245     4.0620     2.8767 </r>
       <r>    -7.5620     2.4235     3.0282 </r>
       <r>    -7.4996     2.0205     3.1544 </r>
       <r>    -7.4371     3.4466     3.3698 </r>
       <r>    -7.3746     2.0642     3.4988 </r>
       <r>    -7.3121     2.2685     3.6406 </r>
       <r>    -7.2496     7.4719     4.1075 </r>
       <r>    -7.1871    11.9447     4.8539 </r>
       <r>    -7.1246     8.8760     5.4086 </r>
       <r>    -7.0621     4.5605     5.6936 </r>
       <r>    -6.9996     4.5606     5.9786 </r>
       <r>    -6.9371     4.5254     6.2614 </r>
       <r>    -6.8747     2.0755     6.3911 </r>
       <r>    -6.8122    -0.0724     6.3865 </r>
       <r>    -6.7497     1.6148     6.4875 </r>
       <r>    -6.6872     6.0288     6.8642 </r>
       <r>    -6.6247    11.1281     7.5596 </r>
       <r>    -6.5622    16.5464     8.5936 </r>
       <r>    -6.4997    15.7345     9.5768 </r>
       <r>    -6.4372    10.4310    10.2287 </r>
       <r>    -6.3747     7.6547    10.7070 </r>
       <r>    -6.3122     8.2011    11.2195 </r>
       <r>    -6.2497    15.1156    12.1641 </r>
       <r>    -6.1873    24.3333    13.6847 </r>
       <r>    -6.1248    30.2026    15.5721 </r>
       <r>    -6.0623    33.8060    17.6846 </r>
       <r>    -5.9998    33.1379    19.7555 </r>
       <r>    -5.9373    34.2109    21.8933 </r>
       <r>    -5.8748    36.4979    24.1741 </r>
       <r>    -5.8123    32.2576    26.1899 </r>
       <r>    -5.7498    22.3445    27.5862 </r>
       <r>    -5.6873    23.7463    29.0701 </r>
       <r>    -5.6248    37.1876    31.3940 </r>
       <r>    -5.5623    46.5395    34.3023 </r>
       <r>    -5.4999    47.8183    37.2905 </r>
       <r>    -5.4374    51.0358    40.4798 </r>
       <r>    -5.3749    61.1178    44.2990 </r>
       <r>    -5.3124    64.6222    48.3373 </r>
       <r>    -5.2499    54.0406    51.7143 </r>
       <r>    -5.1874    47.4704    54.6808 </r>
       <r>    -5.1249    48.0061    57.6807 </r>
       <r>    -5.0624    54.4064    61.0806 </r>
       <r>    -4.9999    71.4585    65.5461 </r>
       <r>    -4.9374    59.2484    69.2486 </r>
       <r>    -4.8750    30.7851    71.1724 </r>
       <r>    -4.8125    29.1472    72.9938 </r>
       <r>    -4.7500    42.4751    75.6481 </r>
       <r>    -4.6875    35.3548    77.8574 </r>
       <r>    -4.6250    19.7102    79.0891 </r>
       <r>    -4.5625    25.5004    80.6827 </r>
       <r>    -4.5000    46.6427    83.5974 </r>
       <r>    -4.4375    62.2543    87.4877 </r>
       <r>    -4.3750    60.6793    91.2796 </r>
       <r>    -4.3125    48.4186    94.3053 </r>
       <r>    -4.2500    42.7742    96.9783 </r>
       <r>    -4.1876    44.1510    99.7373 </r>
       <r>    -4.1251    51.3296   102.9449 </r>
       <r>    -4.0626    59.5739   106.6677 </r>
       <r>    -4.0001    51.3082   109.8740 </r>
       <r>    -3.9376    43.4109   112.5868 </r>
       <r>    -3.8751    44.1785   115.3475 </r>
       <r>    -3.8126    39.3978   117.8095 </r>
       <r>    -3.7501    36.7864   120.1083 </r>
       <r>    -3.6876    51.1464   123.3045 </r>
       <r>    -3.6251    63.6254   127.2805 </r>
       <r>    -3.5626    59.7209   131.0125 </r>
       <r>    -3.5002    56.3637   134.5347 </r>
       <r>    -3.4377    61.4600   138.3754 </r>
       <r>    -3.3752    72.5663   142.9101 </r>
       <r>    -3.3127    77.3934   147.7464 </r>
       <r>    -3.2502    72.0732   152.2503 </r>
       <r>    -3.1877    66.3029   156.3936 </r>
       <r>    -3.1252    78.3842   161.2919 </r>
       <r>    -3.0627    86.7440   166.7126 </r>
       <r>    -3.0002    78.2121   171.6001 </r>
       <r>    -2.9377    76.8302   176.4013 </r>
       <r>    -2.8753    76.2026   181.1632 </r>
       <r>    -2.8128    79.3695   186.1231 </r>
       <r>    -2.7503    97.5687   192.2202 </r>
       <r>    -2.6878   107.3364   198.9277 </r>
       <r>    -2.6253    89.6903   204.5325 </r>
       <r>    -2.5628    66.1951   208.6691 </r>
       <r>    -2.5003    65.0957   212.7370 </r>
       <r>    -2.4378    66.2924   216.8796 </r>
       <r>    -2.3753    51.3415   220.0880 </r>
       <r>    -2.3128    35.7901   222.3245 </r>
       <r>    -2.2503    31.1040   224.2683 </r>
       <r>    -2.1879    27.3838   225.9795 </r>
       <r>    -2.1254    35.4527   228.1950 </r>
       <r>    -2.0629    61.1828   232.0183 </r>
       <r>    -2.0004    84.2591   237.2837 </r>
       <r>    -1.9379    91.9102   243.0272 </r>
       <r>    -1.8754    81.7505   248.1359 </r>
       <r>    -1.8129    62.3486   252.0321 </r>
       <r>    -1.7504    48.1962   255.0439 </r>
       <r>    -1.6879    42.9196   257.7260 </r>
       <r>    -1.6254    41.9319   260.3463 </r>
       <r>    -1.5629    51.1608   263.5434 </r>
       <r>    -1.5005    65.0284   267.6070 </r>
       <r>    -1.4380    63.3231   271.5641 </r>
       <r>    -1.3755    56.4865   275.0940 </r>
       <r>    -1.3130    55.2795   278.5485 </r>
       <r>    -1.2505    51.1504   281.7449 </r>
       <r>    -1.1880    54.4444   285.1472 </r>
       <r>    -1.1255    69.3836   289.4830 </r>
       <r>    -1.0630    81.1432   294.5537 </r>
       <r>    -1.0005    85.1461   299.8745 </r>
       <r>    -0.9380    73.4378   304.4637 </r>
       <r>    -0.8756    57.4424   308.0533 </r>
       <r>    -0.8131    54.0948   311.4337 </r>
       <r>    -0.7506    49.3446   314.5173 </r>
       <r>    -0.6881    43.2848   317.2222 </r>
       <r>    -0.6256    53.9419   320.5930 </r>
       <r>    -0.5631    66.3277   324.7379 </r>
       <r>    -0.5006    60.9946   328.5495 </r>
       <r>    -0.4381    58.8202   332.2252 </r>
       <r>    -0.3756    66.9563   336.4093 </r>
       <r>    -0.3131    84.3391   341.6797 </r>
       <r>    -0.2506    92.2132   347.4422 </r>
       <r>    -0.1882    70.3932   351.8411 </r>
       <r>    -0.1257    60.7011   355.6344 </r>
       <r>    -0.0632    87.8478   361.1240 </r>
       <r>    -0.0007    89.2204   366.6995 </r>
       <r>     0.0618    49.9679   369.8220 </r>
       <r>     0.1243    38.9231   372.2543 </r>
       <r>     0.1868    55.3569   375.7136 </r>
       <r>     0.2493    49.3370   378.7967 </r>
       <r>     0.3118    39.9466   381.2930 </r>
       <r>     0.3743    35.6680   383.5219 </r>
       <r>     0.4368    23.0694   384.9635 </r>
       <r>     0.4992    11.8449   385.7037 </r>
       <r>     0.5617     6.1105   386.0856 </r>
       <r>     0.6242     4.9585   386.3954 </r>
       <r>     0.6867     6.7051   386.8144 </r>
       <r>     0.7492     9.9725   387.4376 </r>
       <r>     0.8117    11.8921   388.1808 </r>
       <r>     0.8742     9.6630   388.7846 </r>
       <r>     0.9367     9.9420   389.4059 </r>
       <r>     0.9992    12.8934   390.2116 </r>
       <r>     1.0617     9.3798   390.7978 </r>
       <r>     1.1241     4.8653   391.1018 </r>
       <r>     1.1866     6.6112   391.5149 </r>
       <r>     1.2491    10.3898   392.1642 </r>
       <r>     1.3116    11.4268   392.8783 </r>
       <r>     1.3741    10.9183   393.5606 </r>
       <r>     1.4366     7.9943   394.0601 </r>
       <r>     1.4991    15.9766   395.0585 </r>
       <r>     1.5616    28.1843   396.8198 </r>
       <r>     1.6241    25.9948   398.4442 </r>
       <r>     1.6866    17.8655   399.5606 </r>
       <r>     1.7491    12.9399   400.3693 </r>
       <r>     1.8115     7.5349   400.8401 </r>
       <r>     1.8740     4.1395   401.0988 </r>
       <r>     1.9365     4.8160   401.3997 </r>
       <r>     1.9990     6.5548   401.8094 </r>
       <r>     2.0615     5.0565   402.1253 </r>
       <r>     2.1240     3.4483   402.3408 </r>
       <r>     2.1865     6.1545   402.7254 </r>
       <r>     2.2490    11.0478   403.4158 </r>
       <r>     2.3115    11.3916   404.1277 </r>
       <r>     2.3740    10.8232   404.8040 </r>
       <r>     2.4365    18.2925   405.9471 </r>
       <r>     2.4989    23.0669   407.3886 </r>
       <r>     2.5614    13.6533   408.2418 </r>
       <r>     2.6239     6.5104   408.6487 </r>
       <r>     2.6864     8.3283   409.1691 </r>
       <r>     2.7489    13.0185   409.9826 </r>
       <r>     2.8114    15.5434   410.9539 </r>
       <r>     2.8739    13.8035   411.8165 </r>
       <r>     2.9364    13.3164   412.6487 </r>
       <r>     2.9989    12.2654   413.4152 </r>
       <r>     3.0614    10.0696   414.0444 </r>
       <r>     3.1238    13.7801   414.9055 </r>
       <r>     3.1863    13.1532   415.7275 </r>
       <r>     3.2488    10.8233   416.4038 </r>
       <r>     3.3113    10.9174   417.0861 </r>
       <r>     3.3738     7.5358   417.5570 </r>
       <r>     3.4363     6.5947   417.9691 </r>
       <r>     3.4988     6.5928   418.3811 </r>
       <r>     3.5613     5.0291   418.6954 </r>
       <r>     3.6238     9.6313   419.2972 </r>
       <r>     3.6863    18.3592   420.4445 </r>
       <r>     3.7488    20.1990   421.7068 </r>
       <r>     3.8112    13.8762   422.5739 </r>
       <r>     3.8737     6.7400   422.9951 </r>
       <r>     3.9362     7.8419   423.4851 </r>
       <r>     3.9987    11.8545   424.2259 </r>
       <r>     4.0612    10.7675   424.8988 </r>
       <r>     4.1237     4.7377   425.1949 </r>
       <r>     4.1862     0.1102   425.2017 </r>
       <r>     4.2487     1.0625   425.2681 </r>
       <r>     4.3112     6.1376   425.6517 </r>
       <r>     4.3737    16.4967   426.6826 </r>
       <r>     4.4362    27.4952   428.4008 </r>
       <r>     4.4986    23.0435   429.8408 </r>
       <r>     4.5611    10.2220   430.4795 </r>
       <r>     4.6236     6.6018   430.8921 </r>
       <r>     4.6861     8.3053   431.4111 </r>
       <r>     4.7486     9.7690   432.0216 </r>
       <r>     4.8111    10.1032   432.6529 </r>
       <r>     4.8736     9.1515   433.2248 </r>
       <r>     4.9361    11.1889   433.9240 </r>
       <r>     4.9986    13.8782   434.7913 </r>
       <r>     5.0611    13.7409   435.6499 </r>
       <r>     5.1235    12.7067   436.4440 </r>
       <r>     5.1860     8.8630   436.9978 </r>
       <r>     5.2485     8.4437   437.5255 </r>
       <r>     5.3110    11.5476   438.2471 </r>
       <r>     5.3735     7.8915   438.7403 </r>
       <r>     5.4360     5.6149   439.0911 </r>
       <r>     5.4985    14.6028   440.0037 </r>
       <r>     5.5610    22.7360   441.4245 </r>
       <r>     5.6235    21.2985   442.7554 </r>
       <r>     5.6860    21.1402   444.0765 </r>
       <r>     5.7485    25.3596   445.6612 </r>
       <r>     5.8109    20.9462   446.9702 </r>
       <r>     5.8734    15.0965   447.9136 </r>
       <r>     5.9359    19.2702   449.1178 </r>
       <r>     5.9984    27.7603   450.8525 </r>
       <r>     6.0609    30.4777   452.7571 </r>
       <r>     6.1234    23.0440   454.1971 </r>
       <r>     6.1859    16.0751   455.2017 </r>
       <r>     6.2484    16.0237   456.2030 </r>
       <r>     6.3109    20.6656   457.4944 </r>
       <r>     6.3734    30.1459   459.3782 </r>
       <r>     6.4359    25.3102   460.9599 </r>
       <r>     6.4983    12.3339   461.7306 </r>
       <r>     6.5608    16.5703   462.7661 </r>
       <r>     6.6233    28.3813   464.5397 </r>
       <r>     6.6858    30.1358   466.4229 </r>
       <r>     6.7483    27.0451   468.1130 </r>
       <r>     6.8108    21.0357   469.4275 </r>
       <r>     6.8733    20.8341   470.7294 </r>
       <r>     6.9358    20.3824   472.0031 </r>
       <r>     6.9983    10.9481   472.6873 </r>
       <r>     7.0608    10.6955   473.3557 </r>
       <r>     7.1232    19.3383   474.5641 </r>
       <r>     7.1857    22.0708   475.9433 </r>
       <r>     7.2482    20.6710   477.2351 </r>
       <r>     7.3107    14.6858   478.1528 </r>
       <r>     7.3732     5.2278   478.4795 </r>
       <r>     7.4357     0.5848   478.5160 </r>
       <r>     7.4982     3.5273   478.7365 </r>
       <r>     7.5607     7.9318   479.2321 </r>
       <r>     7.6232     7.5614   479.7046 </r>
       <r>     7.6857     3.4705   479.9215 </r>
       <r>     7.7482     0.2776   479.9389 </r>
       <r>     7.8106    -0.1321   479.9306 </r>
       <r>     7.8731     0.4786   479.9605 </r>
       <r>     7.9356     0.5442   479.9945 </r>
       <r>     7.9981     0.1327   480.0028 </r>
       <r>     8.0606    -0.0303   480.0009 </r>
       <r>     8.1231    -0.0135   480.0001 </r>
       <r>     8.1856    -0.0014   480.0000 </r>
       <r>     8.2481    -0.0001   480.0000 </r>
       <r>     8.3106    -0.0000   480.0000 </r>
       <r>     8.3731    -0.0000   480.0000 </r>
       <r>     8.4356    -0.0000   480.0000 </r>
       <r>     8.4980    -0.0000   480.0000 </r>
       <r>     8.5605     0.0000   480.0000 </r>
       <r>     8.6230     0.0000   480.0000 </r>
       <r>     8.6855     0.0000   480.0000 </r>
       <r>     8.7480     0.0000   480.0000 </r>
       <r>     8.8105     0.0000   480.0000 </r>
       <r>     8.8730     0.0000   480.0000 </r>
      </set>
     </set>
    </array>
   </total>
  </dos>
 </calculation>
 <structure name="finalpos" >
  <crystal>
   <varray name="basis" >
    <v>       8.46831000       0.00000000       0.00000000 </v>
    <v>       4.23415500       7.33377159       0.00000000 </v>
    <v>       0.00000000       0.00000000      24.96566199 </v>
   </varray>
   <i name="volume">   1550.48373159 </i>
   <varray name="rec_basis" >
    <v>       0.11808732      -0.06817774       0.00000000 </v>
    <v>       0.00000000       0.13635549       0.00000000 </v>
    <v>       0.00000000       0.00000000       0.04005502 </v>
   </varray>
  </crystal>
  <varray name="positions" >
   <v>       0.00000000       0.00000000       0.34046764 </v>
   <v>       0.33400137       0.00000000       0.34046764 </v>
   <v>       0.66800274       0.00000000       0.34046764 </v>
   <v>       0.00000000       0.33400137       0.34046764 </v>
   <v>       0.33400137       0.33400137       0.34046764 </v>
   <v>       0.66800274       0.33400137       0.34046764 </v>
   <v>       0.00000000       0.66800274       0.34046764 </v>
   <v>       0.33400137       0.66800274       0.34046764 </v>
   <v>       0.66800274       0.66800274       0.34046764 </v>
   <v>       0.11133379       0.11133379       0.43297074 </v>
   <v>       0.44533516       0.11133379       0.43297074 </v>
   <v>       0.77933653       0.11133379       0.43297074 </v>
   <v>       0.11133379       0.44533516       0.43297074 </v>
   <v>       0.44533516       0.44533516       0.43297074 </v>
   <v>       0.77933653       0.44533516       0.43297074 </v>
   <v>       0.11133379       0.77933653       0.43297074 </v>
   <v>       0.44533516       0.77933653       0.43297074 </v>
   <v>       0.77933653       0.77933653       0.43297074 </v>
   <v>       0.89262475       0.22430388       0.52582391 </v>
   <v>       0.22391114       0.22344737       0.52526575 </v>
   <v>       0.55860849       0.22326757       0.52419136 </v>
   <v>       0.89287522       0.55409569       0.52588828 </v>
   <v>       0.22487354       0.55629951       0.52437854 </v>
   <v>       0.55854890       0.55642490       0.52444411 </v>
   <v>       0.89222057       0.88966545       0.52441980 </v>
   <v>       0.22507918       0.88982059       0.52457283 </v>
   <v>       0.55887629       0.88930426       0.52432605 </v>
   <v>       0.00459347       0.99988028       0.61782440 </v>
   <v>       0.33931201       0.99939876       0.61770988 </v>
   <v>       0.67144770       0.00057403       0.61752647 </v>
   <v>       0.00684756       0.33264400       0.62337174 </v>
   <v>       0.33942366       0.33360428       0.61750772 </v>
   <v>       0.67141990       0.33360654       0.61776849 </v>
   <v>       0.00451132       0.66787343       0.61773483 </v>
   <v>       0.33828730       0.66690511       0.61741102 </v>
   <v>       0.67127052       0.66764965       0.61783739 </v>
   <v>       0.03277683       0.31991704       0.68512739 </v>
  </varray>
  <varray name="selective"  type="logical" >
   <v type="logical" >  F  F  F </v>
   <v type="logical" >  F  F  F </v>
   <v type="logical" >  F  F  F </v>
   <v type="logical" >  F  F  F </v>
   <v type="logical" >  F  F  F </v>
   <v type="logical" >  F  F  F </v>
   <v type="logical" >  F  F  F </v>
   <v type="logical" >  F  F  F </v>
   <v type="logical" >  F  F  F </v>
   <v type="logical" >  F  F  F </v>
   <v type="logical" >  F  F  F </v>
   <v type="logical" >  F  F  F </v>
   <v type="logical" >  F  F  F </v>
   <v type="logical" >  F  F  F </v>
   <v type="logical" >  F  F  F </v>
   <v type="logical" >  F  F  F </v>
   <v type="logical" >  F  F  F </v>
   <v type="logical" >  F  F  F </v>
   <v type="logical" >  T  T  T </v>
   <v type="logical" >  T  T  T </v>
   <v type="logical" >  T  T  T </v>
   <v type="logical" >  T  T  T </v>
   <v type="logical" >  T  T  T </v>
   <v type="logical" >  T  T  T </v>
   <v type="logical" >  T  T  T </v>
   <v type="logical" >  T  T  T </v>
   <v type="logical" >  T  T  T </v>
   <v type="logical" >  T  T  T </v>
   <v type="logical" >  T  T  T </v>
   <v type="logical" >  T  T  T </v>
   <v type="logical" >  T  T  T </v>
   <v type="logical" >  T  T  T </v>
   <v type="logical" >  T  T  T </v>
   <v type="logical" >  T  T  T </v>
   <v type="logical" >  T  T  T </v>
   <v type="logical" >  T  T  T </v>
   <v type="logical" >  T  T  T </v>
  </varray>
  <nose>
   <v>      -3.00000000       0.00000000       0.00010000       0.00010000 </v>
  </nose>
 </structure>
</modeling>
