unknown system                          
           1
     8.468310    0.000000    0.000000
     4.234155    7.333772    0.000000
     0.000000    0.000000   24.965662
   Pt   H 
    36     1
Direct configuration=     1
   0.00000000  0.00000000  0.34046764
   0.33400137  0.00000000  0.34046764
   0.66800274  0.00000000  0.34046764
   0.00000000  0.33400137  0.34046764
   0.33400137  0.33400137  0.34046764
   0.66800274  0.33400137  0.34046764
   0.00000000  0.66800274  0.34046764
   0.33400137  0.66800274  0.34046764
   0.66800274  0.66800274  0.34046764
   0.11133379  0.11133379  0.43297074
   0.44533516  0.11133379  0.43297074
   0.77933653  0.11133379  0.43297074
   0.11133379  0.44533516  0.43297074
   0.44533516  0.44533516  0.43297074
   0.77933653  0.44533516  0.43297074
   0.11133379  0.77933653  0.43297074
   0.44533516  0.77933653  0.43297074
   0.77933653  0.77933653  0.43297074
   0.89262475  0.22430388  0.52582391
   0.22391114  0.22344737  0.52526575
   0.55860849  0.22326757  0.52419136
   0.89287522  0.55409569  0.52588828
   0.22487354  0.55629951  0.52437854
   0.55854890  0.55642490  0.52444411
   0.89222057  0.88966545  0.52441980
   0.22507918  0.88982059  0.52457283
   0.55887629  0.88930426  0.52432605
   0.00459347  0.99988028  0.61782440
   0.33931201  0.99939876  0.61770988
   0.67144770  0.00057403  0.61752647
   0.00684756  0.33264400  0.62337174
   0.33942366  0.33360428  0.61750772
   0.67141990  0.33360654  0.61776849
   0.00451132  0.66787343  0.61773483
   0.33828730  0.66690511  0.61741102
   0.67127052  0.66764965  0.61783739
   0.03277683  0.31991704  0.68512739
