
     Program PWSCF v.7.1 starts on  6Dec2025 at 15: 0:37 
        Git branch: heads/qe-7.1
        Last git commit: 48ba0178f8fede6d020eb786884699a9f063f55d-dirty
        Last git commit date: Fri Jan 27 14:22:33 2023 +0000
        Last git commit subject: Merge branch 'fix_hubbard' into 'develop'

     This program is part of the open-source Quantum ESPRESSO suite
     for quantum simulation of materials; please cite
         "P. Giannozzi et al., J. Phys.:Condens. Matter 21 395502 (2009);
         "P. Giannozzi et al., J. Phys.:Condens. Matter 29 465901 (2017);
         "P. Giannozzi et al., J. Chem. Phys. 152 154105 (2020);
          URL http://www.quantum-espresso.org", 
     in publications or presentations arising from this work. More details at
     http://www.quantum-espresso.org/quote

     Parallel version (MPI), running on    96 processors

     MPI processes distributed on     2 nodes
     82960 MiB available memory on the printing compute node when the environment starts

     Reading input from espresso.pwi
Warning: card &CELL ignored
Warning: card / ignored
Warning: card &FCP ignored
Warning: card / ignored
Warning: card &RISM ignored
Warning: card / ignored

     Current dimensions of program PWSCF are:
     Max number of different atomic species (ntypx) = 10
     Max number of k-points (npk) =  40000
     Max angular momentum in pseudopotentials (lmaxx) =  4
     file Co.pbe-n-kjpaw_psl.1.0.0.UPF: wavefunction(s)  4S 3D renormalized
     file C.pbe-n-kjpaw_psl.1.0.0.UPF: wavefunction(s)  2S 2P renormalized
     file O.pbe-nl-kjpaw_psl.1.0.0.UPF: wavefunction(s)  2S 2P renormalized
     file H.pbe-kjpaw_psl.1.0.0.UPF: wavefunction(s)  1S renormalized

     **************************************************************************
     Initializing libbeef V0.1.2 with the BEEF-vdW functional.
     Citation: Wellendorff et al., PRB 85, 235149 (2012).
     **************************************************************************


     IMPORTANT: XC functional enforced from input :
     Exchange-correlation= BEEF-VDW
                           (   1   4  43  14   2   0   0)
     Any further DFT definition will be discarded
     Please, verify this is what you really want


     R & G space division:  proc/nbgrp/npool/nimage =      96
     Subspace diagonalization in iterative solution of the eigenvalue problem:
     one sub-group per band group will be used
     custom distributed-memory algorithm (size of sub-group:  2*  2 procs)


     Parallelization info
     --------------------
     sticks:   dense  smooth     PW     G-vecs:    dense   smooth      PW
     Min          43      23      6                 7829     3049     440
     Max          44      24      7                 7845     3068     465
     Sum        4153    2221    613               752179   293251   42993

     Using Slab Decomposition



     bravais-lattice index     =            0
     lattice parameter (alat)  =      14.1729  a.u.
     unit-cell volume          =    8574.3059 (a.u.)^3
     number of atoms/cell      =           39
     number of atomic types    =            4
     number of electrons       =       335.00
     number of Kohn-Sham states=          202
     kinetic-energy cutoff     =      40.0000  Ry
     charge density cutoff     =     300.0000  Ry
     scf convergence threshold =      1.0E-06
     mixing beta               =       0.7000
     number of iterations used =            8  local-TF  mixing
     Exchange-correlation= BEEF-VDW
                           (   1   4  43  14   2   0   0)

     celldm(1)=  14.172946  celldm(2)=   0.000000  celldm(3)=   0.000000
     celldm(4)=   0.000000  celldm(5)=   0.000000  celldm(6)=   0.000000

     crystal axes: (cart. coord. in units of alat)
               a(1) = (   1.000000   0.000000   0.000000 )  
               a(2) = (   0.500000   0.866025   0.000000 )  
               a(3) = (   0.000000   0.000000   3.477667 )  

     reciprocal axes: (cart. coord. in units 2 pi/alat)
               b(1) = (  1.000000 -0.577350  0.000000 )  
               b(2) = (  0.000000  1.154701  0.000000 )  
               b(3) = (  0.000000  0.000000  0.287549 )  


     PseudoPot. # 1 for Co read from file:
     /users/kbadger1/espresso/pseudo/pslibrary.1.0.0/pbe/PSEUDOPOTENTIALS/Co.pbe-n-kjpaw_psl.1.0.0.UPF
     MD5 check sum: 88af6ec42553d4236c267fdfcb472151
     Pseudo is Projector augmented-wave + core cor, Zval =  9.0
     Generated using 'atomic' code by A. Dal Corso  v.7.0
     Shape of augmentation charge: PSQ
     Using radial grid of 1193 points,  6 beta functions with: 
                l(1) =   0
                l(2) =   0
                l(3) =   1
                l(4) =   1
                l(5) =   2
                l(6) =   2
     Q(r) pseudized with 0 coefficients 


     PseudoPot. # 2 for C  read from file:
     /users/kbadger1/espresso/pseudo/pslibrary.1.0.0/pbe/PSEUDOPOTENTIALS/C.pbe-n-kjpaw_psl.1.0.0.UPF
     MD5 check sum: 6408e75cdba28732cea38a4db8498ce4
     Pseudo is Projector augmented-wave + core cor, Zval =  4.0
     Generated using 'atomic' code by A. Dal Corso  v.7.0
     Shape of augmentation charge: PSQ
     Using radial grid of 1073 points,  4 beta functions with: 
                l(1) =   0
                l(2) =   0
                l(3) =   1
                l(4) =   1
     Q(r) pseudized with 0 coefficients 


     PseudoPot. # 3 for O  read from file:
     /users/kbadger1/espresso/pseudo/pslibrary.1.0.0/pbe/PSEUDOPOTENTIALS/O.pbe-nl-kjpaw_psl.1.0.0.UPF
     MD5 check sum: f0439fab3598ca4e468f064226030408
     Pseudo is Projector augmented-wave + core cor, Zval =  6.0
     Generated using 'atomic' code by A. Dal Corso  v.7.0
     Shape of augmentation charge: PSQ
     Using radial grid of 1095 points,  4 beta functions with: 
                l(1) =   0
                l(2) =   0
                l(3) =   1
                l(4) =   1
     Q(r) pseudized with 0 coefficients 


     PseudoPot. # 4 for H  read from file:
     /users/kbadger1/espresso/pseudo/pslibrary.1.0.0/pbe/PSEUDOPOTENTIALS/H.pbe-kjpaw_psl.1.0.0.UPF
     MD5 check sum: fe4c6fa958fa6d3815bf5d2419cbf1df
     Pseudo is Projector augmented-wave, Zval =  1.0
     Generated using 'atomic' code by A. Dal Corso  v.7.0
     Shape of augmentation charge: PSQ
     Using radial grid of  929 points,  2 beta functions with: 
                l(1) =   0
                l(2) =   0
     Q(r) pseudized with 0 coefficients 


     atomic species   valence    mass     pseudopotential
        Co             9.00    58.93319     Co( 1.00)
        C              4.00    12.01100     C ( 1.00)
        O              6.00    15.99900     O ( 1.00)
        H              1.00     1.00800     H ( 1.00)

     Starting magnetic structure 
     atomic species   magnetization
        Co           1.000
        C            1.000
        O            0.000
        H            0.000

     No symmetry found



   Cartesian axes

     site n.     atom                  positions (alat units)
         1           Co  tau(   1) = (   0.0000000   0.1924501   1.3333333  )
         2           Co  tau(   2) = (   0.3333333   0.1924501   1.3333333  )
         3           Co  tau(   3) = (   0.6666667   0.1924501   1.3333333  )
         4           Co  tau(   4) = (   0.1666667   0.4811252   1.3333333  )
         5           Co  tau(   5) = (   0.5000000   0.4811252   1.3333333  )
         6           Co  tau(   6) = (   0.8333333   0.4811252   1.3333333  )
         7           Co  tau(   7) = (   0.3333333   0.7698004   1.3333333  )
         8           Co  tau(   8) = (   0.6666667   0.7698004   1.3333333  )
         9           Co  tau(   9) = (   1.0000000   0.7698004   1.3333333  )
        10           Co  tau(  10) = (   0.0000000   0.0000000   1.6036667  )
        11           Co  tau(  11) = (   0.3333333   0.0000000   1.6036667  )
        12           Co  tau(  12) = (   0.6666667   0.0000000   1.6036667  )
        13           Co  tau(  13) = (   0.1666667   0.2886751   1.6036667  )
        14           Co  tau(  14) = (   0.5000000   0.2886751   1.6036667  )
        15           Co  tau(  15) = (   0.8333333   0.2886751   1.6036667  )
        16           Co  tau(  16) = (   0.3333333   0.5773503   1.6036667  )
        17           Co  tau(  17) = (   0.6666667   0.5773503   1.6036667  )
        18           Co  tau(  18) = (   1.0000000   0.5773503   1.6036667  )
        19           Co  tau(  19) = (   0.0000000   0.1924501   1.8740000  )
        20           Co  tau(  20) = (   0.3333333   0.1924501   1.8740000  )
        21           Co  tau(  21) = (   0.6666667   0.1924501   1.8740000  )
        22           Co  tau(  22) = (   0.1666667   0.4811252   1.8740000  )
        23           Co  tau(  23) = (   0.5000000   0.4811252   1.8740000  )
        24           Co  tau(  24) = (   0.8333333   0.4811252   1.8740000  )
        25           Co  tau(  25) = (   0.3333333   0.7698004   1.8740000  )
        26           Co  tau(  26) = (   0.6666667   0.7698004   1.8740000  )
        27           Co  tau(  27) = (   1.0000000   0.7698004   1.8740000  )
        28           Co  tau(  28) = (   0.0000000   0.0000000   2.1443333  )
        29           Co  tau(  29) = (   0.3333333   0.0000000   2.1443333  )
        30           Co  tau(  30) = (   0.6666667   0.0000000   2.1443333  )
        31           Co  tau(  31) = (   0.1666667   0.2886751   2.1443333  )
        32           Co  tau(  32) = (   0.5000000   0.2886751   2.1443333  )
        33           Co  tau(  33) = (   0.8333333   0.2886751   2.1443333  )
        34           Co  tau(  34) = (   0.3333333   0.5773503   2.1443333  )
        35           Co  tau(  35) = (   0.6666667   0.5773503   2.1443333  )
        36           Co  tau(  36) = (   1.0000000   0.5773503   2.1443333  )
        37           C   tau(  37) = (   0.2322475   0.0266739   2.3695293  )
        38           O   tau(  38) = (   0.0753802   0.0371745   2.4260654  )
        39           H   tau(  39) = (   0.3420625   0.0222541   2.4670843  )

     number of k points=    13  Marzari-Vanderbilt smearing, width (Ry)=  0.0010
                       cart. coord. in units 2pi/alat
        k(    1) = (   0.0000000   0.0000000   0.0000000), wk =   0.0400000
        k(    2) = (   0.0000000   0.2309401   0.0000000), wk =   0.0800000
        k(    3) = (   0.0000000   0.4618802   0.0000000), wk =   0.0800000
        k(    4) = (   0.2000000  -0.1154701   0.0000000), wk =   0.0800000
        k(    5) = (   0.2000000   0.1154701   0.0000000), wk =   0.0800000
        k(    6) = (   0.2000000   0.3464102   0.0000000), wk =   0.0800000
        k(    7) = (   0.2000000  -0.5773503   0.0000000), wk =   0.0800000
        k(    8) = (   0.2000000  -0.3464102   0.0000000), wk =   0.0800000
        k(    9) = (   0.4000000  -0.2309401   0.0000000), wk =   0.0800000
        k(   10) = (   0.4000000   0.0000000   0.0000000), wk =   0.0800000
        k(   11) = (   0.4000000   0.2309401   0.0000000), wk =   0.0800000
        k(   12) = (   0.4000000  -0.6928203   0.0000000), wk =   0.0800000
        k(   13) = (   0.4000000  -0.4618802   0.0000000), wk =   0.0800000

     Dense  grid:   752179 G-vectors     FFT dimensions: (  80,  80, 288)

     Smooth grid:   293251 G-vectors     FFT dimensions: (  60,  60, 200)

     Estimated max dynamical RAM per process >      84.82 MB

     Estimated total dynamical RAM >       7.95 GB
     Generating pointlists ...
     new r_m :   0.1024 (alat units)  1.4515 (a.u.) for type    1
     new r_m :   0.0606 (alat units)  0.8592 (a.u.) for type    2
     new r_m :   0.0689 (alat units)  0.9768 (a.u.) for type    3
     new r_m :   0.0606 (alat units)  0.8592 (a.u.) for type    4

     Initial potential from superposition of free atoms

     starting charge     334.9897, renormalised to     335.0000

     negative rho (up, down):  3.002E-03 4.710E-04


     %%%%%%%%%%%%%%%%%%%%%%%%%%%%%%%%%%%%%%%%%%%%%%%%%%%%%%%%%%%%%%%%%%%%%%%%
     %                                                                      %
     % You are using vdW-DF, which was implemented by the Thonhauser group. %
     % Please cite the following two papers that made this development      %
     % possible and the two reviews that describe the various versions:     %
     %                                                                      %
     %   T. Thonhauser et al., PRL 115, 136402 (2015).                      %
     %   T. Thonhauser et al., PRB 76, 125112 (2007).                       %
     %   K. Berland et al., Rep. Prog. Phys. 78, 066501 (2015).             %
     %   D.C. Langreth et al., J. Phys.: Condens. Matter 21, 084203 (2009). %
     %                                                                      %
     % If you are calculating stress with vdW-DF, please also cite:         %
     %                                                                      %
     %   R. Sabatini et al., J. Phys.: Condens. Matter 24, 424209 (2012).   %
     %   C.M. Frostenson et al., Electr. Struct. 4, 014001 (2022).          %
     %                                                                      %
     %%%%%%%%%%%%%%%%%%%%%%%%%%%%%%%%%%%%%%%%%%%%%%%%%%%%%%%%%%%%%%%%%%%%%%%%

     %%%%%%%%%%%%%%%%%%%%%%%%%%%%%%%%%%%%%%%%%%%%%%%%%%%%%%%%%%%%%%%%%%%%%%%%
     %                                                                      %
     %  vdW-DF NEWS:                                                        %
     %                                                                      %
     %  * vdW-DF3 is now available. DOI: 10.1021/acs.jctc.0c00471           %
     %    use with input_dft = 'vdW-DF3-opt1' or 'vdW-DF3-opt2'             %
     %                                                                      %
     %  * Unscreened and range-separated hybrid vdW-DF-cx functionals       %
     %    DOI: 10.1063/1.4986522 and 10.1088/1361-648X/ac2ad2               %
     %    use with input_dft = 'vdW-DF-cx0'    and 'vdW-DF-ahcx'            %
     %  * Unscreened and range-separated hybrid vdW-DF2-b86r functionals    %
     %    DOI: 10.1063/1.4986522 and DOI: 10.1103/PhysRevX.12.041003        %
     %    use with input_dft = 'vdW-DF2-br0' and 'vdW-DF2-ahbr'             %
     %                                                                      %
     %%%%%%%%%%%%%%%%%%%%%%%%%%%%%%%%%%%%%%%%%%%%%%%%%%%%%%%%%%%%%%%%%%%%%%%%


     Starting wfcs are  333 randomized atomic wfcs
     Checking if some PAW data can be deallocated... 

     total cpu time spent up to now is       19.4 secs

     per-process dynamical memory:   212.4 Mb

     Self-consistent Calculation

     iteration #  1     ecut=    40.00 Ry     beta= 0.70
     Davidson diagonalization with overlap
     ethr =  1.00E-02,  avg # of iterations =  2.0

     negative rho (up, down):  4.756E-05 8.118E-07

     total cpu time spent up to now is       43.4 secs

     total energy              =   -6052.95131981 Ry
     estimated scf accuracy    <      39.90127641 Ry

     total magnetization       =    69.00 Bohr mag/cell
     absolute magnetization    =    81.27 Bohr mag/cell

     iteration #  2     ecut=    40.00 Ry     beta= 0.70
     Davidson diagonalization with overlap
     ethr =  1.00E-02,  avg # of iterations =  1.0

     negative rho (up, down):  1.990E-05 5.210E-07

     total cpu time spent up to now is       55.0 secs

     total energy              =   -6052.35604051 Ry
     estimated scf accuracy    <      25.43299637 Ry

     total magnetization       =    68.85 Bohr mag/cell
     absolute magnetization    =    76.82 Bohr mag/cell

     iteration #  3     ecut=    40.00 Ry     beta= 0.70
     Davidson diagonalization with overlap
     ethr =  7.59E-03,  avg # of iterations =  1.0

     negative rho (up, down):  8.072E-07 1.308E-06

     total cpu time spent up to now is       75.7 secs

     total energy              =   -6055.01875219 Ry
     estimated scf accuracy    <      85.23662801 Ry

     total magnetization       =    65.96 Bohr mag/cell
     absolute magnetization    =    73.23 Bohr mag/cell

     iteration #  4     ecut=    40.00 Ry     beta= 0.70
     Davidson diagonalization with overlap
     ethr =  7.59E-03,  avg # of iterations =  1.0

     negative rho (up, down):  8.686E-07 3.014E-07

     total cpu time spent up to now is       87.9 secs

     total energy              =   -6056.21746008 Ry
     estimated scf accuracy    <       5.46844314 Ry

     total magnetization       =    60.63 Bohr mag/cell
     absolute magnetization    =    70.55 Bohr mag/cell

     iteration #  5     ecut=    40.00 Ry     beta= 0.70
     Davidson diagonalization with overlap
     ethr =  1.63E-03,  avg # of iterations =  1.4

     negative rho (up, down):  6.799E-07 2.755E-07

     total cpu time spent up to now is      109.4 secs

     total energy              =   -6056.27280992 Ry
     estimated scf accuracy    <       3.18086604 Ry

     total magnetization       =    60.36 Bohr mag/cell
     absolute magnetization    =    69.89 Bohr mag/cell

     iteration #  6     ecut=    40.00 Ry     beta= 0.70
     Davidson diagonalization with overlap
     ethr =  9.50E-04,  avg # of iterations =  1.3

     negative rho (up, down):  5.823E-07 3.360E-07

     total cpu time spent up to now is      121.1 secs

     total energy              =   -6056.36604302 Ry
     estimated scf accuracy    <       0.51370190 Ry

     total magnetization       =    60.37 Bohr mag/cell
     absolute magnetization    =    69.70 Bohr mag/cell

     iteration #  7     ecut=    40.00 Ry     beta= 0.70
     Davidson diagonalization with overlap
     ethr =  1.53E-04,  avg # of iterations =  6.4

     negative rho (up, down):  4.619E-07 2.803E-07

     total cpu time spent up to now is      147.8 secs

     total energy              =   -6056.40348635 Ry
     estimated scf accuracy    <       0.66118199 Ry

     total magnetization       =    60.88 Bohr mag/cell
     absolute magnetization    =    69.57 Bohr mag/cell

     iteration #  8     ecut=    40.00 Ry     beta= 0.70
     Davidson diagonalization with overlap
     ethr =  1.53E-04,  avg # of iterations =  2.2

     negative rho (up, down):  1.713E-07 9.345E-08

     total cpu time spent up to now is      169.1 secs

     total energy              =   -6056.41440654 Ry
     estimated scf accuracy    <       0.16482324 Ry

     total magnetization       =    60.92 Bohr mag/cell
     absolute magnetization    =    69.45 Bohr mag/cell

     iteration #  9     ecut=    40.00 Ry     beta= 0.70
     Davidson diagonalization with overlap
     c_bands:  2 eigenvalues not converged
     ethr =  4.92E-05,  avg # of iterations =  8.2

     negative rho (up, down):  1.466E-07 6.733E-08

     total cpu time spent up to now is      197.7 secs

     total energy              =   -6056.42314350 Ry
     estimated scf accuracy    <       0.17595081 Ry

     total magnetization       =    61.23 Bohr mag/cell
     absolute magnetization    =    69.42 Bohr mag/cell

     iteration # 10     ecut=    40.00 Ry     beta= 0.70
     Davidson diagonalization with overlap
     ethr =  4.92E-05,  avg # of iterations =  2.0

     negative rho (up, down):  1.068E-07 4.513E-08

     total cpu time spent up to now is      210.3 secs

     total energy              =   -6056.42103499 Ry
     estimated scf accuracy    <       0.18449915 Ry

     total magnetization       =    61.31 Bohr mag/cell
     absolute magnetization    =    69.31 Bohr mag/cell

     iteration # 11     ecut=    40.00 Ry     beta= 0.70
     Davidson diagonalization with overlap
     ethr =  4.92E-05,  avg # of iterations =  1.7

     negative rho (up, down):  3.229E-08 1.628E-08

     total cpu time spent up to now is      231.9 secs

     total energy              =   -6056.42291551 Ry
     estimated scf accuracy    <       0.09561380 Ry

     total magnetization       =    61.20 Bohr mag/cell
     absolute magnetization    =    69.07 Bohr mag/cell

     iteration # 12     ecut=    40.00 Ry     beta= 0.70
     Davidson diagonalization with overlap
     c_bands:  1 eigenvalues not converged
     ethr =  2.85E-05,  avg # of iterations =  3.2

     negative rho (up, down):  5.936E-07 8.164E-09

     total cpu time spent up to now is      255.0 secs

     total energy              =   -6056.42406758 Ry
     estimated scf accuracy    <       0.08403925 Ry

     total magnetization       =    61.15 Bohr mag/cell
     absolute magnetization    =    68.92 Bohr mag/cell

     iteration # 13     ecut=    40.00 Ry     beta= 0.70
     Davidson diagonalization with overlap
     ethr =  2.51E-05,  avg # of iterations =  2.0

     negative rho (up, down):  7.571E-08 1.227E-08

     total cpu time spent up to now is      267.3 secs

     total energy              =   -6056.42264010 Ry
     estimated scf accuracy    <       0.09704746 Ry

     total magnetization       =    61.20 Bohr mag/cell
     absolute magnetization    =    68.88 Bohr mag/cell

     iteration # 14     ecut=    40.00 Ry     beta= 0.70
     Davidson diagonalization with overlap
     ethr =  2.51E-05,  avg # of iterations =  2.5

     negative rho (up, down):  3.631E-03 2.225E-03

     total cpu time spent up to now is      288.9 secs

     total energy              =   -6056.41810414 Ry
     estimated scf accuracy    <       0.07297103 Ry

     total magnetization       =    61.28 Bohr mag/cell
     absolute magnetization    =    68.94 Bohr mag/cell

     iteration # 15     ecut=    40.00 Ry     beta= 0.70
     Davidson diagonalization with overlap
     ethr =  2.18E-05,  avg # of iterations =  2.3

     negative rho (up, down):  6.060E-03 4.416E-03

     total cpu time spent up to now is      311.4 secs

     total energy              =   -6056.41682131 Ry
     estimated scf accuracy    <       0.05979542 Ry

     total magnetization       =    61.32 Bohr mag/cell
     absolute magnetization    =    68.94 Bohr mag/cell

     iteration # 16     ecut=    40.00 Ry     beta= 0.70
     Davidson diagonalization with overlap
     c_bands:  1 eigenvalues not converged
     ethr =  1.78E-05,  avg # of iterations =  2.3

     negative rho (up, down):  1.721E-02 1.518E-02

     total cpu time spent up to now is      323.9 secs

     total energy              =   -6056.41661505 Ry
     estimated scf accuracy    <       0.03675872 Ry

     total magnetization       =    61.29 Bohr mag/cell
     absolute magnetization    =    68.89 Bohr mag/cell

     iteration # 17     ecut=    40.00 Ry     beta= 0.70
     Davidson diagonalization with overlap
     c_bands:  3 eigenvalues not converged
     ethr =  1.10E-05,  avg # of iterations =  3.3

     negative rho (up, down):  1.203E-02 1.038E-02

     total cpu time spent up to now is      346.3 secs

     total energy              =   -6056.41602392 Ry
     estimated scf accuracy    <       0.01855217 Ry

     total magnetization       =    61.27 Bohr mag/cell
     absolute magnetization    =    68.83 Bohr mag/cell

     iteration # 18     ecut=    40.00 Ry     beta= 0.70
     Davidson diagonalization with overlap
     c_bands:  1 eigenvalues not converged
     c_bands:  1 eigenvalues not converged
     c_bands:  3 eigenvalues not converged
     c_bands:  4 eigenvalues not converged
     ethr =  5.54E-06,  avg # of iterations =  7.5

     negative rho (up, down):  1.550E-02 1.406E-02

     total cpu time spent up to now is      372.8 secs

     total energy              =   -6056.41561124 Ry
     estimated scf accuracy    <       0.01645615 Ry

     total magnetization       =    61.32 Bohr mag/cell
     absolute magnetization    =    68.86 Bohr mag/cell

     iteration # 19     ecut=    40.00 Ry     beta= 0.70
     Davidson diagonalization with overlap
     ethr =  4.91E-06,  avg # of iterations =  1.8

     negative rho (up, down):  1.971E-02 1.808E-02

     total cpu time spent up to now is      385.0 secs

     total energy              =   -6056.41498218 Ry
     estimated scf accuracy    <       0.02472994 Ry

     total magnetization       =    61.31 Bohr mag/cell
     absolute magnetization    =    68.83 Bohr mag/cell

     iteration # 20     ecut=    40.00 Ry     beta= 0.70
     Davidson diagonalization with overlap
     ethr =  4.91E-06,  avg # of iterations =  2.3

     negative rho (up, down):  1.608E-02 1.485E-02

     total cpu time spent up to now is      406.4 secs

     total energy              =   -6056.41519091 Ry
     estimated scf accuracy    <       0.01176607 Ry

     total magnetization       =    61.30 Bohr mag/cell
     absolute magnetization    =    68.82 Bohr mag/cell

     iteration # 21     ecut=    40.00 Ry     beta= 0.70
     Davidson diagonalization with overlap
     ethr =  3.51E-06,  avg # of iterations =  1.7

     negative rho (up, down):  2.134E-02 2.006E-02

     total cpu time spent up to now is      419.5 secs

     total energy              =   -6056.41523541 Ry
     estimated scf accuracy    <       0.01348243 Ry

     total magnetization       =    61.31 Bohr mag/cell
     absolute magnetization    =    68.82 Bohr mag/cell

     iteration # 22     ecut=    40.00 Ry     beta= 0.70
     Davidson diagonalization with overlap
     ethr =  3.51E-06,  avg # of iterations =  1.4

     negative rho (up, down):  1.862E-02 1.750E-02

     total cpu time spent up to now is      440.1 secs

     total energy              =   -6056.41543276 Ry
     estimated scf accuracy    <       0.00542274 Ry

     total magnetization       =    61.31 Bohr mag/cell
     absolute magnetization    =    68.82 Bohr mag/cell

     iteration # 23     ecut=    40.00 Ry     beta= 0.70
     Davidson diagonalization with overlap
     c_bands:  1 eigenvalues not converged
     ethr =  1.62E-06,  avg # of iterations =  4.7

     negative rho (up, down):  1.438E-02 1.352E-02

     total cpu time spent up to now is      463.8 secs

     total energy              =   -6056.41575549 Ry
     estimated scf accuracy    <       0.00270327 Ry

     total magnetization       =    61.31 Bohr mag/cell
     absolute magnetization    =    68.82 Bohr mag/cell

     iteration # 24     ecut=    40.00 Ry     beta= 0.70
     Davidson diagonalization with overlap
     ethr =  8.07E-07,  avg # of iterations =  3.8

     negative rho (up, down):  8.819E-03 8.105E-03

     total cpu time spent up to now is      478.5 secs

     total energy              =   -6056.41592280 Ry
     estimated scf accuracy    <       0.00254295 Ry

     total magnetization       =    61.32 Bohr mag/cell
     absolute magnetization    =    68.82 Bohr mag/cell

     iteration # 25     ecut=    40.00 Ry     beta= 0.70
     Davidson diagonalization with overlap
     ethr =  7.59E-07,  avg # of iterations =  1.5

     negative rho (up, down):  4.244E-03 3.447E-03

     total cpu time spent up to now is      499.6 secs

     total energy              =   -6056.41592380 Ry
     estimated scf accuracy    <       0.00032130 Ry

     total magnetization       =    61.33 Bohr mag/cell
     absolute magnetization    =    68.83 Bohr mag/cell

     iteration # 26     ecut=    40.00 Ry     beta= 0.70
     Davidson diagonalization with overlap
     ethr =  9.59E-08,  avg # of iterations =  6.7

     negative rho (up, down):  5.528E-03 4.725E-03

     total cpu time spent up to now is      527.0 secs

     total energy              =   -6056.41608222 Ry
     estimated scf accuracy    <       0.00125827 Ry

     total magnetization       =    61.32 Bohr mag/cell
     absolute magnetization    =    68.83 Bohr mag/cell

     iteration # 27     ecut=    40.00 Ry     beta= 0.70
     Davidson diagonalization with overlap
     ethr =  9.59E-08,  avg # of iterations =  1.6

     negative rho (up, down):  5.093E-03 4.245E-03

     total cpu time spent up to now is      539.9 secs

     total energy              =   -6056.41611924 Ry
     estimated scf accuracy    <       0.00015241 Ry

     total magnetization       =    61.32 Bohr mag/cell
     absolute magnetization    =    68.83 Bohr mag/cell

     iteration # 28     ecut=    40.00 Ry     beta= 0.70
     Davidson diagonalization with overlap
     ethr =  4.55E-08,  avg # of iterations =  1.7

     negative rho (up, down):  3.545E-03 2.670E-03

     total cpu time spent up to now is      561.1 secs

     total energy              =   -6056.41603424 Ry
     estimated scf accuracy    <       0.00015587 Ry

     total magnetization       =    61.32 Bohr mag/cell
     absolute magnetization    =    68.83 Bohr mag/cell

     iteration # 29     ecut=    40.00 Ry     beta= 0.70
     Davidson diagonalization with overlap
     ethr =  4.55E-08,  avg # of iterations =  1.3

     negative rho (up, down):  2.899E-03 1.814E-03

     total cpu time spent up to now is      582.3 secs

     total energy              =   -6056.41610816 Ry
     estimated scf accuracy    <       0.00009555 Ry

     total magnetization       =    61.32 Bohr mag/cell
     absolute magnetization    =    68.82 Bohr mag/cell

     iteration # 30     ecut=    40.00 Ry     beta= 0.70
     Davidson diagonalization with overlap
     ethr =  2.85E-08,  avg # of iterations =  2.0

     negative rho (up, down):  2.413E-03 1.295E-03

     total cpu time spent up to now is      594.9 secs

     total energy              =   -6056.41611396 Ry
     estimated scf accuracy    <       0.00011086 Ry

     total magnetization       =    61.32 Bohr mag/cell
     absolute magnetization    =    68.82 Bohr mag/cell

     iteration # 31     ecut=    40.00 Ry     beta= 0.70
     Davidson diagonalization with overlap
     ethr =  2.85E-08,  avg # of iterations =  1.8

     negative rho (up, down):  2.022E-03 9.247E-04

     total cpu time spent up to now is      617.2 secs

     total energy              =   -6056.41610864 Ry
     estimated scf accuracy    <       0.00032369 Ry

     total magnetization       =    61.32 Bohr mag/cell
     absolute magnetization    =    68.82 Bohr mag/cell

     iteration # 32     ecut=    40.00 Ry     beta= 0.70
     Davidson diagonalization with overlap
     ethr =  2.85E-08,  avg # of iterations =  1.1

     negative rho (up, down):  2.023E-03 9.456E-04

     total cpu time spent up to now is      628.5 secs

     total energy              =   -6056.41612182 Ry
     estimated scf accuracy    <       0.00005109 Ry

     total magnetization       =    61.32 Bohr mag/cell
     absolute magnetization    =    68.82 Bohr mag/cell

     iteration # 33     ecut=    40.00 Ry     beta= 0.70
     Davidson diagonalization with overlap
     ethr =  1.53E-08,  avg # of iterations =  1.5

     negative rho (up, down):  2.409E-03 1.341E-03

     total cpu time spent up to now is      649.7 secs

     total energy              =   -6056.41612473 Ry
     estimated scf accuracy    <       0.00001805 Ry

     total magnetization       =    61.32 Bohr mag/cell
     absolute magnetization    =    68.82 Bohr mag/cell

     iteration # 34     ecut=    40.00 Ry     beta= 0.70
     Davidson diagonalization with overlap
     ethr =  5.39E-09,  avg # of iterations =  4.7

     negative rho (up, down):  2.315E-03 1.194E-03

     total cpu time spent up to now is      674.3 secs

     total energy              =   -6056.41612419 Ry
     estimated scf accuracy    <       0.00000917 Ry

     total magnetization       =    61.32 Bohr mag/cell
     absolute magnetization    =    68.82 Bohr mag/cell

     iteration # 35     ecut=    40.00 Ry     beta= 0.70
     Davidson diagonalization with overlap
     ethr =  2.74E-09,  avg # of iterations =  3.1

     negative rho (up, down):  2.275E-03 1.193E-03

     total cpu time spent up to now is      687.6 secs

     total energy              =   -6056.41612558 Ry
     estimated scf accuracy    <       0.00001142 Ry

     total magnetization       =    61.32 Bohr mag/cell
     absolute magnetization    =    68.82 Bohr mag/cell

     iteration # 36     ecut=    40.00 Ry     beta= 0.70
     Davidson diagonalization with overlap
     ethr =  2.74E-09,  avg # of iterations =  2.0

     negative rho (up, down):  2.342E-03 1.252E-03

     total cpu time spent up to now is      709.3 secs

     total energy              =   -6056.41612636 Ry
     estimated scf accuracy    <       0.00000643 Ry

     total magnetization       =    61.32 Bohr mag/cell
     absolute magnetization    =    68.82 Bohr mag/cell

     iteration # 37     ecut=    40.00 Ry     beta= 0.70
     Davidson diagonalization with overlap
     ethr =  1.92E-09,  avg # of iterations =  1.2

     negative rho (up, down):  2.377E-03 1.284E-03

     total cpu time spent up to now is      721.0 secs

     total energy              =   -6056.41612663 Ry
     estimated scf accuracy    <       0.00000153 Ry

     total magnetization       =    61.32 Bohr mag/cell
     absolute magnetization    =    68.82 Bohr mag/cell

     iteration # 38     ecut=    40.00 Ry     beta= 0.70
     Davidson diagonalization with overlap
     ethr =  4.56E-10,  avg # of iterations =  5.8

     negative rho (up, down):  2.381E-03 1.288E-03

     total cpu time spent up to now is      746.3 secs

     total energy              =   -6056.41612678 Ry
     estimated scf accuracy    <       0.00000134 Ry

     total magnetization       =    61.32 Bohr mag/cell
     absolute magnetization    =    68.82 Bohr mag/cell

     iteration # 39     ecut=    40.00 Ry     beta= 0.70
     Davidson diagonalization with overlap
     ethr =  3.99E-10,  avg # of iterations =  1.6

     negative rho (up, down):  2.222E-03 1.120E-03

     Magnetic moment per site  (integrated on atomic sphere of radius R)
     atom   1 (R=0.102)  charge=  6.2169  magn=  1.7638
     atom   2 (R=0.102)  charge=  6.2167  magn=  1.7669
     atom   3 (R=0.102)  charge=  6.2168  magn=  1.7663
     atom   4 (R=0.102)  charge=  6.2172  magn=  1.7686
     atom   5 (R=0.102)  charge=  6.2168  magn=  1.7686
     atom   6 (R=0.102)  charge=  6.2171  magn=  1.7677
     atom   7 (R=0.102)  charge=  6.2170  magn=  1.7686
     atom   8 (R=0.102)  charge=  6.2173  magn=  1.7631
     atom   9 (R=0.102)  charge=  6.2175  magn=  1.7624
     atom  10 (R=0.102)  charge=  6.2232  magn=  1.7028
     atom  11 (R=0.102)  charge=  6.2230  magn=  1.6836
     atom  12 (R=0.102)  charge=  6.2233  magn=  1.6996
     atom  13 (R=0.102)  charge=  6.2231  magn=  1.7000
     atom  14 (R=0.102)  charge=  6.2239  magn=  1.6930
     atom  15 (R=0.102)  charge=  6.2233  magn=  1.6920
     atom  16 (R=0.102)  charge=  6.2228  magn=  1.6867
     atom  17 (R=0.102)  charge=  6.2235  magn=  1.6971
     atom  18 (R=0.102)  charge=  6.2236  magn=  1.6944
     atom  19 (R=0.102)  charge=  6.2206  magn=  1.7093
     atom  20 (R=0.102)  charge=  6.2228  magn=  1.6831
     atom  21 (R=0.102)  charge=  6.2223  magn=  1.7014
     atom  22 (R=0.102)  charge=  6.2233  magn=  1.6895
     atom  23 (R=0.102)  charge=  6.2236  magn=  1.6893
     atom  24 (R=0.102)  charge=  6.2231  magn=  1.6980
     atom  25 (R=0.102)  charge=  6.2227  magn=  1.6757
     atom  26 (R=0.102)  charge=  6.2196  magn=  1.7065
     atom  27 (R=0.102)  charge=  6.2257  magn=  1.6538
     atom  28 (R=0.102)  charge=  6.2230  magn=  1.6958
     atom  29 (R=0.102)  charge=  6.2480  magn=  1.1261
     atom  30 (R=0.102)  charge=  6.2188  magn=  1.7669
     atom  31 (R=0.102)  charge=  6.2251  magn=  1.7443
     atom  32 (R=0.102)  charge=  6.2184  magn=  1.7667
     atom  33 (R=0.102)  charge=  6.2196  magn=  1.7774
     atom  34 (R=0.102)  charge=  6.2176  magn=  1.7870
     atom  35 (R=0.102)  charge=  6.2214  magn=  1.7629
     atom  36 (R=0.102)  charge=  6.2170  magn=  1.7584
     atom  37 (R=0.061)  charge=  0.8433  magn= -0.0189
     atom  38 (R=0.069)  charge=  3.1667  magn= -0.0144
     atom  39 (R=0.061)  charge=  0.5058  magn= -0.0032

     total cpu time spent up to now is      767.2 secs

     End of self-consistent calculation

 ------ SPIN UP ------------


          k = 0.0000 0.0000 0.0000 ( 36693 PWs)   bands (ev):

   -21.3786  -9.9823  -7.5112  -6.6060  -6.1386  -5.5600  -5.0319  -4.6422
    -4.6084  -4.6069  -4.6050  -4.6028  -4.5909  -4.5420  -4.2445  -4.0756
    -4.0713  -4.0707  -4.0662  -4.0464  -4.0069  -3.5589  -3.5551  -3.5502
    -3.5433  -3.5273  -3.5117  -3.4227  -3.4180  -3.4096  -3.4077  -3.4041
    -3.3883  -3.3461  -3.3384  -3.0309  -3.0293  -3.0277  -3.0265  -2.9748
    -2.9662  -2.9626  -2.9587  -2.9535  -2.9511  -2.9484  -2.9397  -2.8007
    -2.7972  -2.7392  -2.7297  -2.7271  -2.7232  -2.7121  -2.7109  -2.6937
    -2.6914  -2.6878  -2.6818  -2.6004  -2.5897  -2.5877  -2.5785  -2.5565
    -2.5367  -2.1001  -2.0601  -2.0496  -2.0471  -2.0463  -1.9911  -1.9537
    -1.9386  -1.9158  -1.8981  -1.8931  -1.8903  -1.8678  -1.8643  -1.8606
    -1.8209  -1.8150  -1.8102  -1.7689  -1.7650  -1.7410  -1.7374  -1.7350
    -1.7345  -1.7226  -1.7186  -1.7096  -1.7061  -1.6913  -1.6851  -1.6817
    -1.6793  -1.6749  -1.6733  -1.6724  -1.6698  -1.6669  -1.6633  -1.6596
    -1.6583  -1.6197  -1.6068  -1.5837  -1.5807  -1.5099  -1.5042  -1.4319
    -1.3240  -1.2243  -1.2222  -1.2204  -1.2157  -1.2074  -1.1917  -1.1804
    -1.1757  -1.1652  -1.1459  -1.1327  -1.1263  -1.0760  -1.0097  -1.0028
    -0.9856  -0.9756  -0.8854  -0.8216  -0.8093  -0.7931  -0.7886  -0.7656
    -0.7477  -0.7367  -0.7280  -0.7272  -0.7253  -0.7122  -0.6396  -0.6084
    -0.5417  -0.4860  -0.4845  -0.4798  -0.4457  -0.4335  -0.4220  -0.4174
    -0.4123  -0.4111  -0.4083  -0.3997  -0.3956  -0.3946  -0.3935  -0.3841
    -0.3764  -0.3733  -0.3487  -0.3445  -0.3367  -0.3353  -0.3336  -0.3284
    -0.3094  -0.3068  -0.2882  -0.2845  -0.2810  -0.2676  -0.2601  -0.2546
    -0.2524  -0.2509  -0.2364  -0.2153  -0.1965  -0.1817  -0.1776  -0.1740
    -0.1713  -0.1700  -0.1622  -0.1485  -0.1477  -0.1342  -0.0880  -0.0867
    -0.0836  -0.0804  -0.0191  -0.0170  -0.0139  -0.0104   0.0065   0.0409
     0.3647   0.9668

          k = 0.0000 0.2309 0.0000 ( 36641 PWs)   bands (ev):

   -21.3785  -9.9818  -7.3644  -6.5724  -6.0622  -5.5776  -5.3137  -5.0294
    -4.8610  -4.8483  -4.4852  -4.3383  -4.2667  -4.2629  -4.1942  -4.1419
    -4.1207  -4.0893  -3.9865  -3.9489  -3.9319  -3.6741  -3.5688  -3.5534
    -3.4754  -3.4517  -3.4418  -3.4289  -3.4239  -3.4064  -3.4009  -3.3886
    -3.3486  -3.3057  -3.3023  -3.2779  -3.2724  -3.0729  -3.0479  -3.0431
    -2.9932  -2.9908  -2.9831  -2.9729  -2.8950  -2.8642  -2.8537  -2.8277
    -2.8194  -2.8141  -2.7881  -2.7694  -2.6958  -2.6823  -2.6542  -2.6278
    -2.6046  -2.5864  -2.5762  -2.5686  -2.5454  -2.5312  -2.5110  -2.5058
    -2.4421  -2.1758  -2.1663  -2.1444  -2.1320  -2.1129  -2.0500  -2.0252
    -2.0143  -2.0118  -1.9943  -1.9879  -1.9735  -1.9469  -1.9318  -1.8871
    -1.8741  -1.8598  -1.8505  -1.8363  -1.8036  -1.8010  -1.8000  -1.7834
    -1.7719  -1.7663  -1.7612  -1.7576  -1.7476  -1.7183  -1.6822  -1.6662
    -1.6542  -1.6028  -1.5853  -1.5821  -1.5672  -1.5643  -1.5553  -1.5417
    -1.5322  -1.5273  -1.5237  -1.5170  -1.5069  -1.4841  -1.4782  -1.4648
    -1.4511  -1.4425  -1.4122  -1.3717  -1.3496  -1.3228  -1.2564  -1.2459
    -1.2392  -1.2333  -1.2186  -1.2124  -1.2063  -1.2015  -1.1039  -1.0570
    -1.0505  -1.0304  -0.9700  -0.9556  -0.9398  -0.8840  -0.8746  -0.8574
    -0.8199  -0.7618  -0.7489  -0.7330  -0.7150  -0.7097  -0.6892  -0.6783
    -0.6672  -0.6469  -0.6386  -0.5904  -0.5796  -0.5733  -0.5628  -0.5492
    -0.5214  -0.5093  -0.4834  -0.4772  -0.4555  -0.4349  -0.4206  -0.4098
    -0.4060  -0.3994  -0.3890  -0.3802  -0.3707  -0.3550  -0.3471  -0.3394
    -0.2896  -0.2754  -0.2676  -0.2343  -0.2221  -0.2164  -0.1887  -0.1668
    -0.1584  -0.1515  -0.1455  -0.1291  -0.1219  -0.1080  -0.0974  -0.0834
    -0.0619  -0.0212  -0.0117  -0.0052   0.0180   0.0218   0.0601   0.0716
     0.0808   0.1256   0.3557   0.3696   0.4711   0.5759   0.6174   0.6374
     0.7177   0.7834

          k = 0.0000 0.4619 0.0000 ( 36606 PWs)   bands (ev):

   -21.3785  -9.9810  -6.9497  -6.5391  -6.1877  -5.8536  -5.4306  -5.0491
    -4.9986  -4.9857  -4.8073  -4.1492  -4.1231  -4.0955  -4.0739  -4.0076
    -3.9067  -3.9031  -3.8590  -3.7744  -3.7655  -3.7564  -3.6711  -3.5888
    -3.5810  -3.5779  -3.5732  -3.5207  -3.4729  -3.4628  -3.4556  -3.3108
    -3.2962  -3.2904  -3.2827  -3.2555  -3.2507  -3.1475  -3.1389  -3.1261
    -3.1234  -3.1186  -2.9977  -2.9193  -2.9052  -2.8262  -2.8101  -2.7928
    -2.7731  -2.7443  -2.7342  -2.7276  -2.7159  -2.6954  -2.6433  -2.6303
    -2.6009  -2.5784  -2.5617  -2.4358  -2.4233  -2.4157  -2.3952  -2.3584
    -2.3057  -2.2989  -2.2828  -2.2696  -2.2091  -2.1706  -2.1426  -2.1344
    -2.1315  -2.1224  -2.1046  -2.1026  -2.0932  -2.0735  -2.0379  -2.0105
    -1.9947  -1.9777  -1.9625  -1.9347  -1.9212  -1.8971  -1.8462  -1.8178
    -1.8092  -1.7860  -1.7803  -1.7609  -1.7150  -1.7051  -1.6974  -1.6942
    -1.6773  -1.6631  -1.6513  -1.6283  -1.6107  -1.6098  -1.5959  -1.5850
    -1.5709  -1.5544  -1.5105  -1.4773  -1.4333  -1.4305  -1.4218  -1.3920
    -1.3685  -1.3470  -1.3308  -1.3046  -1.2785  -1.2670  -1.2608  -1.2573
    -1.2536  -1.2490  -1.2363  -1.2277  -1.2184  -1.2102  -1.2004  -1.1933
    -1.1701  -1.1396  -1.0766  -1.0679  -1.0291  -1.0203  -1.0025  -0.9761
    -0.9488  -0.9296  -0.8973  -0.8914  -0.8728  -0.8388  -0.8153  -0.7732
    -0.7574  -0.7402  -0.7038  -0.6938  -0.6711  -0.6611  -0.6409  -0.5770
    -0.5325  -0.5082  -0.4961  -0.4839  -0.4793  -0.4748  -0.4619  -0.4513
    -0.4427  -0.4334  -0.3723  -0.3370  -0.3184  -0.3156  -0.3088  -0.3022
    -0.2901  -0.2710  -0.2569  -0.2424  -0.2328  -0.2183  -0.1540  -0.1316
    -0.1259  -0.1147  -0.1019  -0.0607  -0.0322  -0.0118   0.0052   0.0294
     0.0487   0.0883   0.0952   0.1134   0.1172   0.1208   0.1437   0.1493
     0.2221   0.2515   0.3517   0.8825   1.1494   1.3277   1.3555   1.3784
     1.6443   1.7211

          k = 0.2000-0.1155 0.0000 ( 36641 PWs)   bands (ev):

   -21.3785  -9.9827  -7.3631  -6.5724  -6.0551  -5.5570  -5.3385  -5.0447
    -4.8459  -4.8367  -4.4932  -4.3697  -4.2652  -4.2608  -4.1969  -4.1490
    -4.1069  -4.0693  -3.9995  -3.9437  -3.9264  -3.6775  -3.5668  -3.5548
    -3.4772  -3.4596  -3.4316  -3.4270  -3.4239  -3.4156  -3.3994  -3.3842
    -3.3502  -3.3030  -3.3023  -3.2752  -3.2729  -3.0769  -3.0472  -3.0422
    -2.9956  -2.9917  -2.9803  -2.9740  -2.9065  -2.8632  -2.8542  -2.8276
    -2.8181  -2.8163  -2.7798  -2.7702  -2.6971  -2.6816  -2.6633  -2.6221
    -2.6129  -2.5809  -2.5771  -2.5506  -2.5489  -2.5225  -2.5105  -2.5057
    -2.4517  -2.1761  -2.1677  -2.1542  -2.1328  -2.1122  -2.0523  -2.0239
    -2.0178  -2.0094  -2.0040  -1.9874  -1.9711  -1.9458  -1.9282  -1.8846
    -1.8710  -1.8586  -1.8517  -1.8306  -1.8072  -1.7997  -1.7971  -1.7839
    -1.7738  -1.7689  -1.7609  -1.7581  -1.7543  -1.7162  -1.6842  -1.6647
    -1.6503  -1.5980  -1.5883  -1.5788  -1.5707  -1.5661  -1.5559  -1.5509
    -1.5417  -1.5274  -1.5207  -1.5172  -1.5046  -1.4889  -1.4749  -1.4653
    -1.4461  -1.4353  -1.4232  -1.3742  -1.3259  -1.3184  -1.2541  -1.2421
    -1.2386  -1.2307  -1.2168  -1.2154  -1.2056  -1.2014  -1.0740  -1.0562
    -1.0347  -1.0229  -0.9743  -0.9586  -0.9345  -0.9013  -0.8809  -0.8558
    -0.8257  -0.7820  -0.7542  -0.7436  -0.7270  -0.7083  -0.6794  -0.6695
    -0.6668  -0.6477  -0.6274  -0.5889  -0.5815  -0.5708  -0.5603  -0.5567
    -0.5453  -0.4988  -0.4826  -0.4791  -0.4669  -0.4329  -0.4173  -0.4054
    -0.4036  -0.3993  -0.3921  -0.3871  -0.3703  -0.3595  -0.3521  -0.3251
    -0.2905  -0.2690  -0.2658  -0.2354  -0.2233  -0.2068  -0.1888  -0.1642
    -0.1596  -0.1534  -0.1470  -0.1317  -0.1169  -0.1066  -0.0984  -0.0846
    -0.0563  -0.0184  -0.0069  -0.0030   0.0191   0.0206   0.0639   0.0704
     0.0930   0.1322   0.3634   0.3656   0.4266   0.5368   0.6211   0.6319
     0.6773   0.8083

          k = 0.2000 0.1155 0.0000 ( 36641 PWs)   bands (ev):

   -21.3785  -9.9827  -7.3633  -6.5723  -6.0560  -5.5598  -5.3360  -5.0391
    -4.8515  -4.8365  -4.4937  -4.3640  -4.2656  -4.2611  -4.1970  -4.1480
    -4.1100  -4.0716  -3.9978  -3.9441  -3.9270  -3.6793  -3.5639  -3.5567
    -3.4796  -3.4601  -3.4319  -3.4289  -3.4208  -3.4136  -3.3997  -3.3836
    -3.3511  -3.3046  -3.3003  -3.2765  -3.2728  -3.0728  -3.0466  -3.0412
    -2.9944  -2.9904  -2.9801  -2.9757  -2.8967  -2.8607  -2.8551  -2.8308
    -2.8203  -2.8145  -2.7856  -2.7748  -2.6933  -2.6821  -2.6665  -2.6185
    -2.6113  -2.5802  -2.5785  -2.5553  -2.5442  -2.5302  -2.5127  -2.5062
    -2.4480  -2.1766  -2.1682  -2.1431  -2.1329  -2.1123  -2.0493  -2.0230
    -2.0128  -2.0098  -2.0041  -1.9881  -1.9755  -1.9521  -1.9276  -1.8821
    -1.8742  -1.8588  -1.8501  -1.8267  -1.8063  -1.8007  -1.7937  -1.7765
    -1.7750  -1.7712  -1.7597  -1.7560  -1.7498  -1.7257  -1.6874  -1.6647
    -1.6511  -1.6112  -1.5851  -1.5794  -1.5693  -1.5657  -1.5558  -1.5456
    -1.5366  -1.5284  -1.5241  -1.5194  -1.5043  -1.4861  -1.4714  -1.4586
    -1.4476  -1.4429  -1.4236  -1.3804  -1.3420  -1.3158  -1.2558  -1.2449
    -1.2377  -1.2263  -1.2184  -1.2133  -1.2076  -1.2028  -1.1051  -1.0598
    -1.0382  -1.0244  -0.9681  -0.9570  -0.9324  -0.8953  -0.8763  -0.8595
    -0.8120  -0.7619  -0.7566  -0.7378  -0.7221  -0.7106  -0.6918  -0.6794
    -0.6674  -0.6473  -0.6290  -0.5843  -0.5776  -0.5747  -0.5579  -0.5539
    -0.5314  -0.5070  -0.4828  -0.4774  -0.4572  -0.4335  -0.4191  -0.4125
    -0.4049  -0.3988  -0.3896  -0.3829  -0.3652  -0.3601  -0.3504  -0.3290
    -0.2878  -0.2731  -0.2689  -0.2388  -0.2196  -0.2130  -0.1830  -0.1731
    -0.1555  -0.1518  -0.1377  -0.1276  -0.1168  -0.1056  -0.0987  -0.0778
    -0.0613  -0.0201  -0.0090  -0.0059   0.0191   0.0216   0.0606   0.0663
     0.0813   0.1237   0.3511   0.3686   0.4564   0.5431   0.6167   0.6601
     0.6660   0.8086

          k = 0.2000 0.3464 0.0000 ( 36608 PWs)   bands (ev):

   -21.3785  -9.9820  -7.0805  -6.5368  -5.9264  -5.7171  -5.6877  -5.3920
    -5.0225  -4.5959  -4.4910  -4.2728  -4.2699  -4.2246  -4.0490  -4.0452
    -3.9536  -3.9459  -3.9300  -3.8185  -3.8110  -3.6776  -3.6649  -3.6029
    -3.5586  -3.4727  -3.4627  -3.4416  -3.4226  -3.4093  -3.4022  -3.3811
    -3.3667  -3.3380  -3.3319  -3.2906  -3.2552  -3.2065  -3.2010  -3.0741
    -3.0655  -2.9871  -2.9778  -2.9518  -2.9228  -2.9181  -2.8313  -2.7819
    -2.7748  -2.7580  -2.7449  -2.7331  -2.6951  -2.6905  -2.6689  -2.6565
    -2.6381  -2.5260  -2.5195  -2.4678  -2.4609  -2.4397  -2.4059  -2.4006
    -2.3889  -2.2966  -2.2024  -2.2014  -2.1754  -2.1518  -2.1284  -2.1154
    -2.1059  -2.0895  -2.0751  -2.0594  -2.0523  -2.0367  -2.0269  -2.0144
    -1.9930  -1.9739  -1.9231  -1.8872  -1.8445  -1.8314  -1.8120  -1.7982
    -1.7843  -1.7772  -1.7430  -1.7317  -1.6988  -1.6892  -1.6786  -1.6764
    -1.6677  -1.6573  -1.6479  -1.6373  -1.6246  -1.6192  -1.5976  -1.5770
    -1.5735  -1.5523  -1.5328  -1.5069  -1.4890  -1.4767  -1.4528  -1.4385
    -1.4317  -1.4179  -1.4013  -1.3775  -1.3498  -1.3309  -1.3115  -1.2786
    -1.2695  -1.2643  -1.2529  -1.2362  -1.2281  -1.2112  -1.2013  -1.1581
    -1.1110  -1.0973  -1.0783  -1.0582  -0.9855  -0.9649  -0.9494  -0.8813
    -0.8440  -0.8334  -0.8256  -0.8084  -0.8022  -0.7802  -0.7786  -0.7478
    -0.7417  -0.7218  -0.7042  -0.6895  -0.6645  -0.6487  -0.6305  -0.6253
    -0.6022  -0.5848  -0.5649  -0.5464  -0.5429  -0.5304  -0.4679  -0.4033
    -0.3789  -0.3593  -0.3451  -0.3379  -0.3273  -0.3019  -0.2945  -0.2890
    -0.2864  -0.2628  -0.2040  -0.1884  -0.1809  -0.1736  -0.1416  -0.1199
    -0.1072  -0.1042  -0.0959  -0.0766  -0.0715  -0.0597  -0.0530  -0.0489
    -0.0265   0.0211   0.0562   0.0697   0.0754   0.1156   0.1248   0.1339
     0.4307   0.4598   0.4815   0.6309   0.7511   0.8099   1.1178   1.3342
     1.3592   1.5759

          k = 0.2000-0.5774 0.0000 ( 36660 PWs)   bands (ev):

   -21.3785  -9.9817  -6.6981  -6.4708  -6.3445  -5.8455  -5.7217  -5.3207
    -4.9923  -4.9099  -4.6148  -4.2613  -4.0097  -3.9621  -3.8559  -3.8343
    -3.8316  -3.8047  -3.7993  -3.7828  -3.7406  -3.7226  -3.7203  -3.7155
    -3.6281  -3.6154  -3.5703  -3.5673  -3.5390  -3.5328  -3.4412  -3.3960
    -3.3847  -3.3745  -3.3561  -3.3129  -3.2331  -3.2133  -3.0938  -3.0851
    -3.0825  -3.0052  -2.9904  -2.9765  -2.9540  -2.8776  -2.8704  -2.8603
    -2.8011  -2.7891  -2.7118  -2.6811  -2.6484  -2.6430  -2.6001  -2.5859
    -2.5088  -2.5022  -2.4921  -2.4808  -2.4685  -2.4399  -2.4276  -2.3658
    -2.2932  -2.2896  -2.2740  -2.2652  -2.2260  -2.2058  -2.1622  -2.1452
    -2.1219  -2.1053  -2.0944  -2.0876  -2.0761  -2.0442  -2.0256  -2.0138
    -2.0046  -2.0001  -1.9706  -1.9567  -1.9496  -1.9188  -1.8789  -1.8594
    -1.8530  -1.8051  -1.7825  -1.7631  -1.7338  -1.7118  -1.6980  -1.6825
    -1.6738  -1.6643  -1.6589  -1.6479  -1.6437  -1.6156  -1.6044  -1.6008
    -1.5447  -1.5199  -1.5080  -1.5030  -1.4883  -1.4830  -1.4738  -1.4682
    -1.4639  -1.4491  -1.4322  -1.4072  -1.3925  -1.3623  -1.3469  -1.3245
    -1.2748  -1.2559  -1.2432  -1.2071  -1.1939  -1.1909  -1.1711  -1.1177
    -1.0989  -1.0906  -1.0829  -1.0172  -1.0022  -0.9670  -0.9531  -0.9382
    -0.9170  -0.9131  -0.8966  -0.8885  -0.8504  -0.8401  -0.8137  -0.7940
    -0.7712  -0.7509  -0.7298  -0.7202  -0.7126  -0.6783  -0.6450  -0.6343
    -0.6250  -0.6084  -0.5930  -0.5796  -0.5534  -0.5285  -0.5208  -0.4520
    -0.3709  -0.3388  -0.3291  -0.3185  -0.3172  -0.3100  -0.3028  -0.2920
    -0.2580  -0.2474  -0.2315  -0.2279  -0.1849  -0.1725  -0.1097  -0.1074
    -0.0861  -0.0723  -0.0684  -0.0495  -0.0096  -0.0018   0.0044   0.0137
     0.0222   0.0840   0.0959   0.1007   0.1174   0.1278   0.1493   0.1834
     0.2678   0.4940   0.5341   0.8394   1.3675   1.3977   1.4976   1.6908
     1.8824   1.9481

          k = 0.2000-0.3464 0.0000 ( 36608 PWs)   bands (ev):

   -21.3785  -9.9821  -7.0800  -6.5371  -5.9248  -5.7165  -5.6869  -5.3937
    -5.0249  -4.5950  -4.4918  -4.2752  -4.2706  -4.2217  -4.0486  -4.0451
    -3.9522  -3.9482  -3.9300  -3.8201  -3.8082  -3.6726  -3.6678  -3.6028
    -3.5587  -3.4726  -3.4625  -3.4371  -3.4221  -3.4125  -3.4038  -3.3790
    -3.3654  -3.3419  -3.3252  -3.2927  -3.2558  -3.2130  -3.1974  -3.0796
    -3.0666  -2.9883  -2.9788  -2.9495  -2.9341  -2.9154  -2.8297  -2.7922
    -2.7722  -2.7542  -2.7449  -2.7299  -2.6958  -2.6843  -2.6658  -2.6541
    -2.6423  -2.5329  -2.5128  -2.4678  -2.4580  -2.4367  -2.4102  -2.4000
    -2.3915  -2.2924  -2.2137  -2.2023  -2.1803  -2.1515  -2.1300  -2.1148
    -2.1111  -2.0887  -2.0736  -2.0582  -2.0454  -2.0382  -2.0317  -2.0150
    -1.9979  -1.9864  -1.9168  -1.8682  -1.8402  -1.8303  -1.8225  -1.8049
    -1.7869  -1.7617  -1.7498  -1.7288  -1.7109  -1.6868  -1.6825  -1.6757
    -1.6722  -1.6557  -1.6447  -1.6313  -1.6220  -1.6018  -1.5960  -1.5795
    -1.5671  -1.5504  -1.5198  -1.5069  -1.4899  -1.4828  -1.4454  -1.4375
    -1.4258  -1.4135  -1.4042  -1.3604  -1.3432  -1.3237  -1.3097  -1.2942
    -1.2704  -1.2650  -1.2564  -1.2419  -1.2238  -1.2139  -1.1938  -1.1581
    -1.1199  -1.0981  -1.0850  -1.0429  -0.9845  -0.9676  -0.9529  -0.9068
    -0.8465  -0.8307  -0.8264  -0.8098  -0.8041  -0.7948  -0.7624  -0.7536
    -0.7469  -0.7215  -0.7043  -0.6910  -0.6574  -0.6516  -0.6353  -0.6212
    -0.6144  -0.5990  -0.5572  -0.5462  -0.5390  -0.5282  -0.4612  -0.3997
    -0.3830  -0.3607  -0.3402  -0.3358  -0.3319  -0.3037  -0.2962  -0.2911
    -0.2741  -0.2612  -0.2001  -0.1931  -0.1867  -0.1747  -0.1426  -0.1266
    -0.1104  -0.1025  -0.0967  -0.0847  -0.0709  -0.0625  -0.0538  -0.0433
    -0.0258   0.0186   0.0577   0.0724   0.0738   0.1154   0.1237   0.1511
     0.4525   0.4593   0.4746   0.6278   0.7694   0.8064   1.1000   1.3304
     1.3476   1.5453

          k = 0.4000-0.2309 0.0000 ( 36606 PWs)   bands (ev):

   -21.3785  -9.9833  -6.9442  -6.5375  -6.1789  -5.8385  -5.4186  -5.0979
    -4.9993  -4.9356  -4.8616  -4.1710  -4.1051  -4.0904  -4.0528  -4.0202
    -3.9043  -3.9024  -3.8618  -3.7717  -3.7637  -3.7623  -3.6817  -3.5854
    -3.5820  -3.5746  -3.5734  -3.5213  -3.4761  -3.4664  -3.4597  -3.3011
    -3.2962  -3.2910  -3.2735  -3.2537  -3.2505  -3.1451  -3.1402  -3.1307
    -3.1247  -3.1176  -3.0129  -2.9148  -2.9093  -2.8252  -2.8163  -2.7850
    -2.7754  -2.7452  -2.7371  -2.7293  -2.7069  -2.7052  -2.6373  -2.6318
    -2.6070  -2.5761  -2.5653  -2.4314  -2.4258  -2.4085  -2.3996  -2.3587
    -2.3108  -2.2926  -2.2865  -2.2706  -2.2073  -2.1632  -2.1432  -2.1349
    -2.1345  -2.1182  -2.1020  -2.0978  -2.0893  -2.0657  -2.0500  -2.0176
    -1.9905  -1.9728  -1.9602  -1.9309  -1.9250  -1.8832  -1.8420  -1.8166
    -1.8066  -1.8053  -1.7826  -1.7724  -1.7293  -1.7047  -1.7004  -1.6924
    -1.6797  -1.6659  -1.6515  -1.6264  -1.6216  -1.6109  -1.5913  -1.5828
    -1.5733  -1.5569  -1.5073  -1.4505  -1.4441  -1.4282  -1.3970  -1.3850
    -1.3721  -1.3429  -1.3216  -1.2859  -1.2799  -1.2694  -1.2641  -1.2586
    -1.2572  -1.2457  -1.2394  -1.2277  -1.2207  -1.2108  -1.1906  -1.1846
    -1.1627  -1.1338  -1.0974  -1.0590  -1.0224  -1.0153  -0.9953  -0.9747
    -0.9565  -0.9336  -0.9005  -0.8920  -0.8765  -0.8464  -0.8321  -0.7836
    -0.7558  -0.7237  -0.6990  -0.6888  -0.6698  -0.6591  -0.6357  -0.6231
    -0.5551  -0.5041  -0.4913  -0.4819  -0.4759  -0.4722  -0.4588  -0.4576
    -0.4400  -0.4313  -0.3595  -0.3372  -0.3257  -0.3064  -0.3014  -0.2947
    -0.2832  -0.2729  -0.2625  -0.2554  -0.2339  -0.2174  -0.1487  -0.1299
    -0.1260  -0.1121  -0.0912  -0.0814  -0.0313  -0.0145   0.0064   0.0311
     0.0492   0.0925   0.0953   0.1132   0.1182   0.1243   0.1387   0.1609
     0.2221   0.2590   0.3052   0.9626   1.1222   1.2762   1.3508   1.3624
     1.5858   1.7454

          k = 0.4000 0.0000 0.0000 ( 36608 PWs)   bands (ev):

   -21.3785  -9.9834  -7.0768  -6.5374  -5.9118  -5.6998  -5.6953  -5.4030
    -5.0376  -4.5582  -4.5310  -4.2803  -4.2716  -4.2198  -4.0507  -4.0456
    -3.9511  -3.9487  -3.9439  -3.8170  -3.7963  -3.6766  -3.6689  -3.5997
    -3.5572  -3.4669  -3.4603  -3.4406  -3.4212  -3.4129  -3.3980  -3.3906
    -3.3629  -3.3374  -3.3328  -3.2924  -3.2532  -3.2097  -3.1993  -3.0801
    -3.0634  -2.9895  -2.9732  -2.9471  -2.9362  -2.9200  -2.8379  -2.7880
    -2.7778  -2.7506  -2.7444  -2.7305  -2.6860  -2.6821  -2.6748  -2.6578
    -2.6423  -2.5309  -2.5162  -2.4636  -2.4604  -2.4483  -2.4057  -2.4005
    -2.3928  -2.2793  -2.2165  -2.1993  -2.1782  -2.1577  -2.1238  -2.1116
    -2.1028  -2.0887  -2.0779  -2.0642  -2.0536  -2.0392  -2.0363  -2.0160
    -1.9971  -1.9594  -1.9194  -1.8845  -1.8486  -1.8350  -1.8182  -1.7968
    -1.7863  -1.7654  -1.7470  -1.7374  -1.7070  -1.6869  -1.6795  -1.6757
    -1.6715  -1.6582  -1.6476  -1.6288  -1.6257  -1.6091  -1.5933  -1.5808
    -1.5688  -1.5381  -1.5150  -1.5006  -1.4869  -1.4751  -1.4558  -1.4391
    -1.4237  -1.4048  -1.3941  -1.3786  -1.3605  -1.3284  -1.3122  -1.2859
    -1.2715  -1.2609  -1.2575  -1.2324  -1.2272  -1.2105  -1.1943  -1.1587
    -1.1075  -1.0947  -1.0879  -1.0530  -0.9812  -0.9712  -0.9497  -0.9056
    -0.8480  -0.8293  -0.8270  -0.8041  -0.7998  -0.7848  -0.7771  -0.7602
    -0.7443  -0.7308  -0.7077  -0.6889  -0.6630  -0.6525  -0.6320  -0.6237
    -0.6107  -0.5903  -0.5565  -0.5487  -0.5371  -0.5240  -0.4519  -0.4131
    -0.3808  -0.3556  -0.3478  -0.3365  -0.3295  -0.3032  -0.2968  -0.2903
    -0.2719  -0.2669  -0.2041  -0.1931  -0.1754  -0.1730  -0.1360  -0.1303
    -0.1044  -0.0999  -0.0978  -0.0861  -0.0660  -0.0611  -0.0562  -0.0372
    -0.0255   0.0152   0.0559   0.0697   0.0749   0.1156   0.1202   0.1466
     0.4560   0.4601   0.5187   0.5402   0.7881   0.8012   1.0925   1.3255
     1.3513   1.5616

          k = 0.4000 0.2309 0.0000 ( 36606 PWs)   bands (ev):

   -21.3785  -9.9832  -6.9450  -6.5373  -6.1807  -5.8398  -5.4190  -5.0929
    -4.9993  -4.9416  -4.8529  -4.1685  -4.1083  -4.0926  -4.0552  -4.0186
    -3.9045  -3.9025  -3.8630  -3.7725  -3.7673  -3.7593  -3.6814  -3.5856
    -3.5821  -3.5756  -3.5734  -3.5233  -3.4785  -3.4672  -3.4566  -3.3020
    -3.2957  -3.2894  -3.2739  -3.2540  -3.2496  -3.1444  -3.1375  -3.1250
    -3.1219  -3.1189  -3.0014  -2.9161  -2.9068  -2.8265  -2.8150  -2.7916
    -2.7770  -2.7464  -2.7361  -2.7290  -2.7102  -2.7057  -2.6385  -2.6289
    -2.6044  -2.5724  -2.5667  -2.4310  -2.4236  -2.4141  -2.3975  -2.3600
    -2.3123  -2.2985  -2.2873  -2.2684  -2.2092  -2.1697  -2.1387  -2.1366
    -2.1329  -2.1186  -2.1030  -2.0922  -2.0864  -2.0752  -2.0584  -2.0200
    -1.9828  -1.9750  -1.9576  -1.9343  -1.9110  -1.8841  -1.8475  -1.8170
    -1.8051  -1.7913  -1.7770  -1.7663  -1.7203  -1.7023  -1.6993  -1.6888
    -1.6805  -1.6635  -1.6508  -1.6254  -1.6178  -1.6103  -1.5986  -1.5839
    -1.5695  -1.5533  -1.5092  -1.4920  -1.4450  -1.4247  -1.4019  -1.3928
    -1.3686  -1.3424  -1.3317  -1.3093  -1.2789  -1.2693  -1.2650  -1.2591
    -1.2553  -1.2502  -1.2379  -1.2310  -1.2162  -1.2101  -1.1962  -1.1860
    -1.1716  -1.1317  -1.0953  -1.0567  -1.0259  -1.0174  -1.0065  -0.9809
    -0.9519  -0.9387  -0.9013  -0.8906  -0.8782  -0.8267  -0.8184  -0.7769
    -0.7590  -0.7167  -0.6977  -0.6827  -0.6730  -0.6509  -0.6373  -0.5927
    -0.5631  -0.5034  -0.4930  -0.4840  -0.4751  -0.4714  -0.4596  -0.4549
    -0.4439  -0.4274  -0.3662  -0.3303  -0.3194  -0.3138  -0.3035  -0.3009
    -0.2875  -0.2633  -0.2598  -0.2504  -0.2349  -0.2222  -0.1473  -0.1311
    -0.1233  -0.1208  -0.0950  -0.0652  -0.0316  -0.0136   0.0068   0.0326
     0.0492   0.0905   0.0950   0.1144   0.1175   0.1209   0.1349   0.1551
     0.2222   0.2511   0.3100   0.9407   1.1098   1.2745   1.3518   1.3699
     1.6700   1.7124

          k = 0.4000-0.6928 0.0000 ( 36660 PWs)   bands (ev):

   -21.3785  -9.9830  -6.6934  -6.4641  -6.3460  -5.8659  -5.6990  -5.2603
    -5.0740  -4.9346  -4.5744  -4.2569  -4.0131  -3.9661  -3.8769  -3.8360
    -3.8271  -3.8108  -3.8007  -3.7850  -3.7305  -3.7223  -3.7204  -3.7143
    -3.6352  -3.6120  -3.5708  -3.5667  -3.5362  -3.5347  -3.4276  -3.3984
    -3.3870  -3.3802  -3.3532  -3.3121  -3.2253  -3.2101  -3.0953  -3.0849
    -3.0827  -3.0041  -2.9930  -2.9742  -2.9511  -2.8827  -2.8719  -2.8561
    -2.8055  -2.7902  -2.7078  -2.6902  -2.6507  -2.6429  -2.5925  -2.5883
    -2.5130  -2.4996  -2.4897  -2.4846  -2.4682  -2.4432  -2.4282  -2.3625
    -2.3007  -2.2853  -2.2774  -2.2659  -2.2305  -2.2037  -2.1629  -2.1454
    -2.1144  -2.1012  -2.0933  -2.0783  -2.0770  -2.0590  -2.0265  -2.0093
    -1.9992  -1.9966  -1.9668  -1.9538  -1.9485  -1.9238  -1.8810  -1.8610
    -1.8422  -1.8054  -1.7820  -1.7636  -1.7363  -1.7205  -1.7002  -1.6885
    -1.6723  -1.6656  -1.6570  -1.6522  -1.6374  -1.6084  -1.6012  -1.5834
    -1.5423  -1.5173  -1.5118  -1.5031  -1.4883  -1.4813  -1.4780  -1.4685
    -1.4601  -1.4516  -1.4346  -1.4148  -1.3871  -1.3688  -1.3495  -1.3340
    -1.2946  -1.2616  -1.2191  -1.2090  -1.1945  -1.1874  -1.1793  -1.1112
    -1.0987  -1.0969  -1.0818  -1.0426  -0.9823  -0.9654  -0.9471  -0.9350
    -0.9181  -0.9089  -0.8977  -0.8921  -0.8495  -0.8360  -0.8057  -0.7901
    -0.7779  -0.7478  -0.7364  -0.7278  -0.7005  -0.6788  -0.6480  -0.6293
    -0.6188  -0.6075  -0.5938  -0.5804  -0.5630  -0.5341  -0.5152  -0.4490
    -0.3728  -0.3345  -0.3290  -0.3249  -0.3164  -0.3079  -0.2991  -0.2800
    -0.2611  -0.2503  -0.2349  -0.2242  -0.1878  -0.1720  -0.1101  -0.1028
    -0.0833  -0.0728  -0.0651  -0.0445  -0.0171  -0.0002   0.0064   0.0095
     0.0214   0.0652   0.0980   0.1000   0.1171   0.1282   0.1487   0.1829
     0.2541   0.4967   0.5643   0.8287   1.3153   1.4012   1.4613   1.7865
     1.8764   1.9267

          k = 0.4000-0.4619 0.0000 ( 36660 PWs)   bands (ev):

   -21.3785  -9.9831  -6.6925  -6.4641  -6.3451  -5.8713  -5.6938  -5.2493
    -5.0834  -4.9454  -4.5672  -4.2562  -4.0128  -3.9666  -3.8744  -3.8365
    -3.8278  -3.8140  -3.8001  -3.7860  -3.7311  -3.7213  -3.7194  -3.7120
    -3.6318  -3.6157  -3.5710  -3.5655  -3.5382  -3.5337  -3.4243  -3.3987
    -3.3849  -3.3812  -3.3536  -3.3131  -3.2252  -3.2108  -3.1047  -3.0881
    -3.0829  -2.9989  -2.9903  -2.9877  -2.9523  -2.8710  -2.8656  -2.8625
    -2.8001  -2.7906  -2.7109  -2.6891  -2.6577  -2.6418  -2.5971  -2.5888
    -2.5106  -2.4991  -2.4918  -2.4817  -2.4714  -2.4399  -2.4283  -2.3633
    -2.2961  -2.2846  -2.2786  -2.2665  -2.2172  -2.2081  -2.1690  -2.1450
    -2.1231  -2.1084  -2.0943  -2.0852  -2.0650  -2.0450  -2.0284  -2.0052
    -2.0028  -1.9961  -1.9692  -1.9533  -1.9460  -1.9118  -1.8899  -1.8569
    -1.8494  -1.8245  -1.7809  -1.7708  -1.7366  -1.7138  -1.7008  -1.6906
    -1.6705  -1.6645  -1.6540  -1.6502  -1.6394  -1.6136  -1.5906  -1.5743
    -1.5306  -1.5135  -1.5089  -1.5048  -1.4968  -1.4841  -1.4782  -1.4717
    -1.4634  -1.4533  -1.4351  -1.4095  -1.3906  -1.3607  -1.3493  -1.3320
    -1.2801  -1.2598  -1.2310  -1.2047  -1.1920  -1.1850  -1.1752  -1.1207
    -1.1025  -1.0910  -1.0748  -1.0280  -0.9944  -0.9613  -0.9380  -0.9357
    -0.9215  -0.9122  -0.9026  -0.8834  -0.8646  -0.8420  -0.8089  -0.7885
    -0.7740  -0.7499  -0.7305  -0.7267  -0.7022  -0.6805  -0.6559  -0.6365
    -0.6191  -0.6070  -0.6056  -0.5889  -0.5546  -0.5426  -0.5070  -0.4434
    -0.3741  -0.3359  -0.3287  -0.3209  -0.3143  -0.3072  -0.2975  -0.2867
    -0.2571  -0.2470  -0.2324  -0.2268  -0.1913  -0.1718  -0.1123  -0.1025
    -0.0929  -0.0736  -0.0592  -0.0528  -0.0105  -0.0001   0.0037   0.0126
     0.0233   0.0624   0.0947   0.1029   0.1152   0.1281   0.1501   0.1887
     0.2429   0.4991   0.5823   0.8520   1.3003   1.4008   1.4507   1.7665
     1.8795   1.9292

 ------ SPIN DOWN ----------


          k = 0.0000 0.0000 0.0000 ( 36693 PWs)   bands (ev):

   -21.4164 -10.0726  -7.6351  -6.6438  -6.1958  -5.5599  -5.0643  -4.4336
    -4.4057  -4.4033  -4.4018  -4.3956  -4.3838  -4.2753  -3.5349  -3.5290
    -3.5256  -3.5236  -3.5010  -3.4890  -3.3750  -2.5849  -2.5771  -2.5765
    -2.5715  -2.5501  -2.5080  -2.1195  -2.1095  -2.1045  -2.1038  -2.1012
    -2.0911  -1.9088  -1.9055  -1.8403  -1.8240  -1.8174  -1.8135  -1.7219
    -1.7163  -1.6767  -1.6680  -1.6381  -1.5812  -1.5639  -1.5613  -1.5582
    -1.5473  -1.4788  -1.3171  -1.2977  -1.2910  -1.2891  -1.2832  -1.2779
    -1.2760  -1.2696  -1.2569  -1.2223  -1.2056  -1.1993  -1.1966  -1.1886
    -1.1543  -0.9384  -0.6641  -0.6324  -0.6188  -0.6117  -0.6028  -0.4674
    -0.4180  -0.3195  -0.2941  -0.2913  -0.2855  -0.2770  -0.2664  -0.2480
    -0.2369  -0.2115  -0.1993  -0.1975  -0.1949  -0.1862  -0.1726  -0.1266
    -0.1098  -0.0902  -0.0890  -0.0691  -0.0595  -0.0409  -0.0335  -0.0291
    -0.0288  -0.0213  -0.0042  -0.0023   0.0072   0.0078   0.0647   0.1141
     0.1387   0.1633   0.1804   0.2102   0.2229   0.2262   0.2294   0.2309
     0.2339   0.2351   0.2362   0.2417   0.3037   0.3051   0.3509   0.3940
     0.3954   0.4121   0.4199   0.4433   0.5949   0.6138   0.6193   0.6757
     0.7002   0.7080   0.7110   0.7154   0.7325   0.8823   1.0154   1.0407
     1.0622   1.0653   1.2069   1.2419   1.2644   1.2734   1.2767   1.2801
     1.2816   1.4297   1.4387   1.4422   1.4484   1.4600   1.4734   1.4777
     1.4855   1.5126   1.5280   1.5353   1.5522   1.5791   1.5927   1.5942
     1.6022   1.6051   1.6083   1.6334   1.6589   1.6768   1.6854   1.6995
     1.7114   1.7214   1.7260   1.7281   1.7316   1.7384   1.7426   1.7793
     1.7839   1.8046   1.8087   1.8193   1.8226   1.8256   1.8325   1.8540
     1.8669   1.8717   1.8758   1.8774   1.8830   1.8843   1.8914   1.8950
     1.8989   1.9365   1.9540   1.9617   2.1035   2.1091   2.1118   2.1135
     2.1157   2.1184

          k = 0.0000 0.2309 0.0000 ( 36641 PWs)   bands (ev):

   -21.4164 -10.0721  -7.4868  -6.6044  -6.1209  -5.5972  -5.3251  -5.0521
    -4.7938  -4.7788  -4.2616  -4.1214  -3.8588  -3.8509  -3.7743  -3.7365
    -3.5578  -3.3132  -3.1886  -3.1688  -3.0662  -2.7915  -2.6017  -2.5727
    -2.5109  -2.4825  -2.4595  -2.2307  -2.1507  -2.1429  -2.1348  -2.1031
    -2.0955  -2.0586  -2.0499  -2.0179  -2.0105  -1.8871  -1.8631  -1.7879
    -1.7814  -1.7341  -1.6458  -1.6120  -1.5929  -1.5827  -1.5003  -1.4675
    -1.4414  -1.4076  -1.3717  -1.3421  -1.3286  -1.3083  -1.2956  -1.2815
    -1.2739  -1.2262  -1.1904  -1.1715  -1.1437  -1.1094  -1.0947  -1.0757
    -0.9608  -0.9354  -0.7334  -0.6762  -0.6635  -0.6505  -0.6102  -0.5679
    -0.5246  -0.4844  -0.4778  -0.4362  -0.3361  -0.3127  -0.2991  -0.2856
    -0.2713  -0.2563  -0.2518  -0.2296  -0.2196  -0.2024  -0.1655  -0.1222
    -0.1038  -0.0889  -0.0850  -0.0637  -0.0513  -0.0306  -0.0188  -0.0006
     0.0042   0.0106   0.0162   0.0201   0.0266   0.0332   0.0619   0.0753
     0.0994   0.1162   0.1243   0.1264   0.1633   0.1679   0.1880   0.2025
     0.2273   0.2424   0.2814   0.2973   0.3324   0.3396   0.3453   0.3710
     0.4524   0.5301   0.5758   0.5815   0.5977   0.6371   0.6447   0.6634
     0.6813   0.6858   0.6926   0.6937   0.7746   0.8982   1.0026   1.0243
     1.0308   1.0430   1.0573   1.0656   1.0921   1.1433   1.1818   1.2147
     1.2285   1.2458   1.3067   1.3147   1.3431   1.3669   1.3934   1.4059
     1.4429   1.4582   1.4950   1.5098   1.5208   1.5347   1.5530   1.5600
     1.5904   1.6040   1.6475   1.6570   1.6866   1.6938   1.7073   1.7218
     1.7598   1.7653   1.7744   1.7762   1.7958   1.8166   1.8544   1.8563
     1.8611   1.8654   1.8992   1.9133   1.9227   1.9348   1.9522   1.9612
     1.9723   2.0048   2.0122   2.0187   2.0379   2.0443   2.0493   2.0730
     2.0845   2.0990   2.1077   2.1310   2.1850   2.2083   2.2174   2.2427
     2.2826   2.3047

          k = 0.0000 0.4619 0.0000 ( 36606 PWs)   bands (ev):

   -21.4164 -10.0714  -7.0602  -6.5797  -6.2743  -5.8969  -5.4685  -5.0720
    -5.0004  -4.9847  -4.7999  -3.9134  -3.9021  -3.7996  -3.2965  -3.2364
    -3.2304  -3.1107  -2.9740  -2.9063  -2.7954  -2.7793  -2.6352  -2.6274
    -2.5854  -2.5624  -2.5042  -2.4830  -2.3968  -2.3831  -2.3259  -2.3176
    -2.2988  -2.1105  -2.0901  -2.0140  -2.0093  -1.8994  -1.8906  -1.8788
    -1.8748  -1.8473  -1.6065  -1.5846  -1.5686  -1.5492  -1.5320  -1.4699
    -1.3626  -1.3541  -1.3368  -1.3279  -1.3062  -1.2958  -1.2933  -1.2712
    -1.2165  -1.1767  -1.1704  -1.1582  -1.1292  -1.0912  -0.9983  -0.9372
    -0.8482  -0.8200  -0.7411  -0.7044  -0.6801  -0.6676  -0.6302  -0.6150
    -0.5957  -0.5849  -0.5647  -0.5263  -0.4914  -0.4569  -0.4443  -0.4105
    -0.3914  -0.3582  -0.3345  -0.3290  -0.3194  -0.2759  -0.2081  -0.1886
    -0.1382  -0.1236  -0.1145  -0.0578  -0.0416  -0.0338  -0.0091   0.0188
     0.0426   0.0517   0.0637   0.0746   0.0834   0.0960   0.1070   0.1260
     0.1414   0.1643   0.1765   0.1800   0.1853   0.1963   0.2140   0.2267
     0.2473   0.2586   0.2981   0.3583   0.3928   0.4070   0.4265   0.4414
     0.4484   0.4563   0.4779   0.5110   0.5446   0.5585   0.5692   0.6012
     0.6278   0.6399   0.6583   0.6641   0.6956   0.7070   0.8133   0.8502
     0.8994   0.9521   0.9876   1.0126   1.0841   1.1031   1.1176   1.1336
     1.1420   1.1517   1.1949   1.2277   1.2414   1.2814   1.3726   1.4032
     1.4133   1.4280   1.4834   1.4989   1.5242   1.5293   1.5614   1.5677
     1.6078   1.6183   1.6513   1.7057   1.7282   1.7451   1.7532   1.7749
     1.7868   1.7891   1.8137   1.8427   1.8607   1.8622   1.8771   1.9008
     1.9146   1.9336   2.0072   2.0081   2.0214   2.0386   2.0468   2.0601
     2.0679   2.0930   2.1028   2.1121   2.1171   2.1337   2.1412   2.1441
     2.1596   2.1914   2.3029   2.3299   2.3545   2.4646   2.6058   2.8000
     2.8751   2.9076

          k = 0.2000-0.1155 0.0000 ( 36641 PWs)   bands (ev):

   -21.4164 -10.0730  -7.4857  -6.6044  -6.1137  -5.5720  -5.3524  -5.0750
    -4.7754  -4.7655  -4.2703  -4.1648  -3.8574  -3.8514  -3.7563  -3.7064
    -3.5636  -3.3146  -3.1826  -3.1602  -3.0815  -2.8143  -2.5893  -2.5622
    -2.5214  -2.4769  -2.4559  -2.2324  -2.1535  -2.1405  -2.1371  -2.1039
    -2.0973  -2.0593  -2.0504  -2.0147  -2.0100  -1.8719  -1.8649  -1.7924
    -1.7823  -1.7583  -1.6383  -1.6099  -1.5955  -1.5836  -1.5350  -1.4506
    -1.4366  -1.4060  -1.3592  -1.3434  -1.3319  -1.3083  -1.2917  -1.2825
    -1.2738  -1.2045  -1.1909  -1.1746  -1.1447  -1.1085  -1.0916  -1.0741
    -1.0044  -0.9090  -0.7228  -0.6759  -0.6650  -0.6387  -0.6249  -0.5745
    -0.5151  -0.5011  -0.4541  -0.4371  -0.3369  -0.3099  -0.3004  -0.2841
    -0.2734  -0.2562  -0.2513  -0.2260  -0.2183  -0.1991  -0.1527  -0.1301
    -0.1116  -0.0889  -0.0853  -0.0609  -0.0435  -0.0306  -0.0193   0.0014
     0.0056   0.0100   0.0163   0.0186   0.0272   0.0358   0.0602   0.0751
     0.0982   0.1146   0.1221   0.1299   0.1528   0.1767   0.1883   0.2053
     0.2338   0.2657   0.2871   0.3000   0.3245   0.3417   0.3456   0.3715
     0.4142   0.5214   0.5512   0.5834   0.5857   0.6370   0.6432   0.6649
     0.6703   0.6877   0.6909   0.6946   0.8014   0.9070   0.9963   1.0151
     1.0276   1.0493   1.0549   1.0640   1.0748   1.1310   1.1930   1.2145
     1.2247   1.2658   1.3068   1.3134   1.3369   1.3643   1.3740   1.3965
     1.4571   1.4840   1.5001   1.5101   1.5203   1.5328   1.5488   1.5603
     1.5830   1.6098   1.6465   1.6658   1.6798   1.6991   1.7082   1.7376
     1.7569   1.7651   1.7704   1.7796   1.7918   1.8128   1.8459   1.8592
     1.8635   1.8660   1.9049   1.9130   1.9231   1.9378   1.9485   1.9668
     1.9720   2.0052   2.0116   2.0178   2.0374   2.0404   2.0506   2.0715
     2.0781   2.1013   2.1076   2.1273   2.1937   2.2078   2.2195   2.2285
     2.2872   2.3053

          k = 0.2000 0.1155 0.0000 ( 36641 PWs)   bands (ev):

   -21.4164 -10.0730  -7.4859  -6.6044  -6.1145  -5.5749  -5.3495  -5.0703
    -4.7814  -4.7645  -4.2715  -4.1566  -3.8575  -3.8504  -3.7615  -3.7084
    -3.5641  -3.3146  -3.1836  -3.1594  -3.0811  -2.8133  -2.5902  -2.5612
    -2.5232  -2.4774  -2.4553  -2.2378  -2.1524  -2.1414  -2.1355  -2.0988
    -2.0954  -2.0584  -2.0502  -2.0157  -2.0077  -1.8791  -1.8635  -1.7877
    -1.7815  -1.7348  -1.6709  -1.6122  -1.5963  -1.5844  -1.4897  -1.4598
    -1.4417  -1.4134  -1.3738  -1.3418  -1.3226  -1.3099  -1.2880  -1.2853
    -1.2742  -1.2160  -1.1924  -1.1787  -1.1449  -1.1068  -1.0951  -1.0841
    -0.9638  -0.9307  -0.7180  -0.6765  -0.6644  -0.6441  -0.6231  -0.5765
    -0.5171  -0.5077  -0.4519  -0.4331  -0.3396  -0.3086  -0.3000  -0.2895
    -0.2625  -0.2521  -0.2449  -0.2339  -0.2247  -0.2080  -0.1655  -0.1323
    -0.1074  -0.0886  -0.0842  -0.0692  -0.0491  -0.0263  -0.0188  -0.0043
     0.0052   0.0083   0.0165   0.0206   0.0302   0.0355   0.0654   0.0771
     0.0991   0.1152   0.1263   0.1285   0.1528   0.1677   0.1936   0.2038
     0.2319   0.2427   0.2918   0.2977   0.3319   0.3409   0.3459   0.3705
     0.4611   0.5348   0.5657   0.5855   0.6003   0.6270   0.6432   0.6688
     0.6770   0.6865   0.6917   0.6935   0.7706   0.8965   1.0009   1.0162
     1.0292   1.0487   1.0589   1.0636   1.0860   1.1352   1.1816   1.2106
     1.2273   1.2523   1.3066   1.3134   1.3383   1.3642   1.3863   1.3974
     1.4547   1.4652   1.4944   1.5099   1.5209   1.5340   1.5488   1.5590
     1.5882   1.6163   1.6491   1.6561   1.6781   1.6999   1.7102   1.7391
     1.7555   1.7671   1.7717   1.7783   1.7956   1.8116   1.8526   1.8591
     1.8612   1.8697   1.8964   1.9145   1.9234   1.9351   1.9481   1.9666
     1.9719   2.0037   2.0103   2.0187   2.0387   2.0434   2.0491   2.0716
     2.0760   2.1005   2.1060   2.1292   2.1905   2.2079   2.2214   2.2253
     2.2940   2.3048

          k = 0.2000 0.3464 0.0000 ( 36608 PWs)   bands (ev):

   -21.4164 -10.0723  -7.1972  -6.5667  -5.9712  -5.7890  -5.7587  -5.4088
    -5.0516  -4.5402  -4.4081  -4.0484  -4.0423  -3.9400  -3.2228  -3.2104
    -3.1992  -3.1950  -3.0870  -3.0099  -2.9282  -2.8948  -2.8612  -2.5324
    -2.4531  -2.4477  -2.4312  -2.3736  -2.3546  -2.3340  -2.2457  -2.2372
    -2.2277  -2.2235  -2.2051  -2.0845  -2.0244  -1.8637  -1.8496  -1.8390
    -1.7667  -1.7589  -1.7274  -1.7149  -1.5822  -1.5123  -1.4966  -1.4587
    -1.3868  -1.3608  -1.3394  -1.3278  -1.3119  -1.3089  -1.2730  -1.2627
    -1.2508  -1.2142  -1.1662  -1.1525  -1.0839  -1.0239  -0.9866  -0.9364
    -0.8731  -0.8613  -0.7514  -0.7203  -0.6416  -0.6281  -0.6027  -0.5723
    -0.5596  -0.5540  -0.5319  -0.5165  -0.4687  -0.4422  -0.4225  -0.4021
    -0.3947  -0.3703  -0.3556  -0.3396  -0.2860  -0.2551  -0.1965  -0.1801
    -0.1591  -0.1330  -0.1211  -0.0847  -0.0642  -0.0492  -0.0353  -0.0174
    -0.0079   0.0073   0.0197   0.0388   0.0468   0.0661   0.0860   0.1034
     0.1190   0.1282   0.1411   0.1682   0.1755   0.1887   0.1980   0.2002
     0.2165   0.2828   0.3045   0.3126   0.4078   0.4325   0.4467   0.4614
     0.4861   0.5069   0.5291   0.5624   0.6015   0.6045   0.6183   0.6337
     0.6414   0.6666   0.6955   0.7395   0.7516   0.7930   0.8971   0.9332
     0.9490   1.0363   1.0489   1.0768   1.0895   1.1013   1.1121   1.1333
     1.1511   1.1605   1.1700   1.1855   1.2244   1.2444   1.3065   1.3471
     1.3665   1.3837   1.3936   1.4306   1.4487   1.4725   1.5006   1.5299
     1.5529   1.6066   1.6859   1.7268   1.7439   1.7549   1.7729   1.7898
     1.8081   1.8160   1.8369   1.8441   1.8541   1.8883   1.9100   1.9165
     1.9290   1.9525   1.9644   1.9756   1.9918   2.0137   2.0201   2.0389
     2.0552   2.0608   2.0615   2.0915   2.0972   2.1035   2.1401   2.1759
     2.1943   2.2114   2.2994   2.3194   2.3703   2.4400   2.4788   2.6204
     2.7534   2.7710

          k = 0.2000-0.5774 0.0000 ( 36660 PWs)   bands (ev):

   -21.4164 -10.0720  -6.7611  -6.5842  -6.4094  -5.9080  -5.7655  -5.3729
    -5.0026  -4.9379  -4.5773  -4.1076  -3.5576  -3.4525  -3.2377  -3.2362
    -3.2176  -3.0304  -2.9769  -2.8253  -2.8143  -2.8110  -2.6831  -2.6773
    -2.6670  -2.6529  -2.6358  -2.6279  -2.4246  -2.3081  -2.2657  -2.2607
    -2.2553  -2.2397  -2.2021  -2.1938  -2.0895  -2.0791  -1.8333  -1.7610
    -1.7363  -1.7290  -1.7202  -1.6524  -1.5647  -1.5385  -1.4959  -1.4726
    -1.4368  -1.4305  -1.3436  -1.3070  -1.2834  -1.2600  -1.2437  -1.2178
    -1.1672  -1.1385  -1.0997  -1.0875  -1.0326  -1.0188  -1.0068  -0.9048
    -0.8819  -0.7920  -0.7270  -0.7157  -0.6893  -0.6736  -0.6328  -0.6306
    -0.5868  -0.5610  -0.5338  -0.5118  -0.4756  -0.4578  -0.4229  -0.4008
    -0.3918  -0.3798  -0.3537  -0.3491  -0.3345  -0.3311  -0.2959  -0.2842
    -0.2740  -0.2494  -0.2229  -0.1928  -0.1506  -0.1068  -0.0896  -0.0780
    -0.0304   0.0073   0.0303   0.0526   0.0658   0.0827   0.0973   0.1120
     0.1321   0.1592   0.1916   0.1988   0.2267   0.2318   0.2872   0.3131
     0.3425   0.3462   0.3663   0.3793   0.3945   0.4376   0.4632   0.4757
     0.4891   0.5117   0.5480   0.5702   0.5873   0.5947   0.6360   0.6493
     0.6628   0.6724   0.6816   0.7224   0.7317   0.7460   0.7541   0.7692
     0.8706   0.9101   0.9236   1.0179   1.0342   1.0620   1.0767   1.0875
     1.0974   1.1145   1.1238   1.1448   1.2298   1.2586   1.2909   1.3131
     1.3421   1.3541   1.3911   1.4255   1.4393   1.4503   1.4899   1.5104
     1.5555   1.6384   1.6888   1.6943   1.7586   1.7839   1.8123   1.8253
     1.8321   1.8473   1.8667   1.8697   1.9050   1.9089   1.9206   1.9319
     1.9514   1.9932   2.0068   2.0190   2.0246   2.0264   2.0344   2.0392
     2.0509   2.0899   2.1030   2.1227   2.1287   2.1483   2.1553   2.1887
     2.2155   2.2462   2.3480   2.5104   2.6935   2.7168   2.9118   3.0318
     3.0462   3.0982

          k = 0.2000-0.3464 0.0000 ( 36608 PWs)   bands (ev):

   -21.4164 -10.0724  -7.1967  -6.5671  -5.9694  -5.7896  -5.7568  -5.4108
    -5.0542  -4.5375  -4.4107  -4.0490  -4.0449  -3.9381  -3.2209  -3.2076
    -3.1990  -3.1963  -3.0863  -3.0074  -2.9269  -2.8973  -2.8618  -2.5335
    -2.4548  -2.4440  -2.4363  -2.3709  -2.3529  -2.3345  -2.2467  -2.2342
    -2.2273  -2.2215  -2.2065  -2.0862  -2.0281  -1.8652  -1.8556  -1.8434
    -1.7777  -1.7630  -1.7174  -1.6984  -1.5932  -1.5430  -1.5014  -1.4233
    -1.3938  -1.3682  -1.3311  -1.3273  -1.3166  -1.2966  -1.2749  -1.2709
    -1.2507  -1.2137  -1.1509  -1.1461  -1.0688  -1.0321  -0.9805  -0.9540
    -0.8771  -0.8434  -0.7483  -0.7395  -0.6431  -0.6229  -0.6063  -0.5712
    -0.5631  -0.5496  -0.5331  -0.5076  -0.4658  -0.4351  -0.4213  -0.4021
    -0.3926  -0.3641  -0.3499  -0.3370  -0.2942  -0.2253  -0.1901  -0.1795
    -0.1697  -0.1501  -0.1098  -0.0926  -0.0653  -0.0492  -0.0365  -0.0305
    -0.0090   0.0102   0.0220   0.0381   0.0532   0.0599   0.0898   0.1120
     0.1189   0.1260   0.1460   0.1663   0.1745   0.1815   0.1963   0.2021
     0.2184   0.2788   0.3064   0.3121   0.3660   0.4364   0.4433   0.4561
     0.4832   0.4876   0.5286   0.5867   0.5993   0.6032   0.6160   0.6275
     0.6433   0.6517   0.6787   0.7388   0.7645   0.8236   0.8806   0.9309
     0.9697   1.0186   1.0455   1.0712   1.0998   1.1059   1.1194   1.1331
     1.1461   1.1662   1.1709   1.2001   1.2141   1.2489   1.3239   1.3441
     1.3569   1.3844   1.3930   1.4333   1.4433   1.4615   1.5075   1.5270
     1.5606   1.6167   1.6748   1.7280   1.7407   1.7565   1.7727   1.7924
     1.8081   1.8162   1.8271   1.8443   1.8474   1.8960   1.9079   1.9160
     1.9287   1.9542   1.9698   1.9779   1.9934   2.0142   2.0155   2.0441
     2.0550   2.0596   2.0624   2.0930   2.0983   2.1031   2.1403   2.1769
     2.1923   2.2119   2.3097   2.3209   2.3729   2.4477   2.4732   2.6176
     2.7138   2.7840

          k = 0.4000-0.2309 0.0000 ( 36606 PWs)   bands (ev):

   -21.4164 -10.0737  -7.0554  -6.5777  -6.2667  -5.8773  -5.4565  -5.1288
    -5.0074  -4.9328  -4.8517  -3.9320  -3.8767  -3.7774  -3.3213  -3.2349
    -3.2270  -3.1129  -2.9757  -2.9202  -2.7909  -2.7782  -2.6323  -2.6286
    -2.5679  -2.5485  -2.4964  -2.4939  -2.3938  -2.3812  -2.3293  -2.3160
    -2.3035  -2.0986  -2.0934  -2.0194  -2.0101  -1.9079  -1.8928  -1.8852
    -1.8726  -1.8633  -1.6665  -1.5759  -1.5685  -1.5371  -1.5330  -1.4341
    -1.3680  -1.3590  -1.3376  -1.3269  -1.3030  -1.2991  -1.2908  -1.2783
    -1.1946  -1.1802  -1.1702  -1.1601  -1.1337  -1.0482  -0.9896  -0.9701
    -0.8430  -0.8119  -0.7562  -0.7049  -0.6817  -0.6566  -0.6231  -0.6116
    -0.6063  -0.5836  -0.5537  -0.5090  -0.4968  -0.4567  -0.4499  -0.4111
    -0.3929  -0.3521  -0.3342  -0.3256  -0.3204  -0.2486  -0.2148  -0.1937
    -0.1349  -0.1250  -0.1039  -0.0644  -0.0398  -0.0310   0.0035   0.0145
     0.0429   0.0523   0.0625   0.0763   0.0809   0.0937   0.1167   0.1316
     0.1402   0.1657   0.1763   0.1788   0.1876   0.1987   0.2123   0.2369
     0.2473   0.2559   0.2936   0.3451   0.3939   0.3999   0.4261   0.4440
     0.4474   0.4585   0.4781   0.4886   0.5521   0.5577   0.5631   0.5989
     0.6151   0.6368   0.6582   0.6653   0.6915   0.7031   0.7712   0.8493
     0.8793   0.9227   0.9781   1.0569   1.0829   1.1123   1.1205   1.1336
     1.1429   1.1654   1.1879   1.2203   1.2438   1.2542   1.3737   1.4105
     1.4251   1.4412   1.4827   1.5023   1.5237   1.5357   1.5605   1.5800
     1.6055   1.6234   1.6418   1.6975   1.7273   1.7516   1.7587   1.7781
     1.7872   1.7894   1.8062   1.8362   1.8567   1.8645   1.8731   1.8886
     1.9136   1.9406   1.9981   2.0067   2.0189   2.0456   2.0517   2.0598
     2.0697   2.0823   2.1071   2.1105   2.1173   2.1328   2.1413   2.1450
     2.1532   2.1904   2.2996   2.3545   2.3934   2.4609   2.5467   2.8091
     2.8869   2.9266

          k = 0.4000 0.0000 0.0000 ( 36608 PWs)   bands (ev):

   -21.4164 -10.0737  -7.1939  -6.5674  -5.9549  -5.7711  -5.7671  -5.4201
    -5.0708  -4.5041  -4.4492  -4.0536  -4.0423  -3.9405  -3.2130  -3.2043
    -3.1984  -3.1929  -3.0908  -2.9954  -2.9150  -2.8990  -2.8899  -2.5317
    -2.4563  -2.4456  -2.4423  -2.3578  -2.3502  -2.3295  -2.2492  -2.2338
    -2.2305  -2.2195  -2.2139  -2.0867  -2.0269  -1.8662  -1.8503  -1.8338
    -1.7899  -1.7623  -1.7191  -1.7022  -1.6169  -1.5364  -1.4965  -1.4209
    -1.3792  -1.3686  -1.3340  -1.3268  -1.3213  -1.3002  -1.2758  -1.2631
    -1.2506  -1.1948  -1.1587  -1.1509  -1.1080  -1.0069  -0.9851  -0.9442
    -0.8790  -0.8504  -0.7502  -0.7019  -0.6535  -0.6270  -0.5955  -0.5708
    -0.5659  -0.5453  -0.5361  -0.5159  -0.4672  -0.4417  -0.4172  -0.4005
    -0.3832  -0.3730  -0.3495  -0.3467  -0.3041  -0.2184  -0.2019  -0.1813
    -0.1583  -0.1366  -0.1144  -0.0862  -0.0623  -0.0497  -0.0382  -0.0291
[...]
     atom    8 type  1   force =    -0.00028935   -0.00135308   -0.10107928
     atom    9 type  1   force =     0.00341429   -0.00218586   -0.10452327
     atom   10 type  1   force =     0.00138391    0.00103342   -0.00882347
     atom   11 type  1   force =     0.00156304    0.00006002   -0.01352405
     atom   12 type  1   force =    -0.00296581    0.00093924   -0.01015891
     atom   13 type  1   force =     0.00013229   -0.00094525   -0.01025659
     atom   14 type  1   force =    -0.00002279   -0.00084338   -0.01000376
     atom   15 type  1   force =     0.00020212   -0.00029100   -0.01222606
     atom   16 type  1   force =     0.00106468   -0.00112313   -0.01698198
     atom   17 type  1   force =    -0.00078928   -0.00034955   -0.01076677
     atom   18 type  1   force =    -0.00041709    0.00151377   -0.01104655
     atom   19 type  1   force =     0.00057641    0.00741969    0.00404599
     atom   20 type  1   force =    -0.00268066    0.00867403    0.01047745
     atom   21 type  1   force =     0.00140761   -0.00074987    0.01616587
     atom   22 type  1   force =    -0.00111662   -0.00190149    0.01690667
     atom   23 type  1   force =     0.00183935   -0.00024222    0.01635679
     atom   24 type  1   force =     0.00036195   -0.00104094    0.01807943
     atom   25 type  1   force =    -0.00808566   -0.00143903    0.00581781
     atom   26 type  1   force =    -0.00157653   -0.00709952    0.00062333
     atom   27 type  1   force =     0.00610457   -0.00271202    0.01036236
     atom   28 type  1   force =     0.06080254    0.00883576    0.13424992
     atom   29 type  1   force =     0.00456734    0.00321456    0.04017725
     atom   30 type  1   force =     0.00204456    0.00138730    0.11688513
     atom   31 type  1   force =    -0.01764083   -0.04965805    0.16385317
     atom   32 type  1   force =    -0.00344027   -0.00181160    0.11080338
     atom   33 type  1   force =     0.01016163   -0.01224362    0.12058466
     atom   34 type  1   force =     0.00192661    0.00563163    0.10915876
     atom   35 type  1   force =    -0.00994683    0.02879206    0.13568764
     atom   36 type  1   force =     0.00009108   -0.00084663    0.10399480
     atom   37 type  2   force =    -0.35377425    0.05256922    0.20996467
     atom   38 type  3   force =     2.15908425   -0.17278667   -1.25579104
     atom   39 type  4   force =    -0.05908506    0.00270115   -0.05002590
     The ionic contribution  to forces
     atom    1 type  1   force =    -0.00630758    0.00692488 -111.16617882
     atom    2 type  1   force =     0.00648997    0.00693621 -111.16581866
     atom    3 type  1   force =    -0.00018237    0.00266003 -111.15324523
     atom    4 type  1   force =     0.00009616    0.00434315 -111.15287042
     atom    5 type  1   force =    -0.00051688   -0.00333578 -111.15367969
     atom    6 type  1   force =     0.00042072   -0.00318247 -111.15387430
     atom    7 type  1   force =    -0.00688824   -0.00370488 -111.15850839
     atom    8 type  1   force =     0.00007984   -0.00709517 -111.17216500
     atom    9 type  1   force =     0.00680837   -0.00354597 -111.15834317
     atom   10 type  1   force =    -0.05445004   -0.01230565  -40.20605454
     atom   11 type  1   force =     0.05543460   -0.01140479  -40.20439554
     atom   12 type  1   force =    -0.00097823   -0.00522697  -40.09615896
     atom   13 type  1   force =     0.00122447    0.07014162  -40.15728871
     atom   14 type  1   force =     0.03111803    0.02560803  -40.09227034
     atom   15 type  1   force =    -0.03234474    0.02603510  -40.09485752
     atom   16 type  1   force =    -0.02090719   -0.01504822  -40.08401097
     atom   17 type  1   force =    -0.00028839   -0.06399715  -40.12644053
     atom   18 type  1   force =     0.02119384   -0.01380418  -40.08443832
     atom   19 type  1   force =    -0.32443829    0.36423956   31.01042453
     atom   20 type  1   force =     0.33593938    0.36774718   31.02908787
     atom   21 type  1   force =    -0.01083343    0.11659756   31.63725300
     atom   22 type  1   force =     0.00413414    0.19582267   31.65495902
     atom   23 type  1   force =    -0.02636054   -0.15486728   31.62529579
     atom   24 type  1   force =     0.02226788   -0.14602247   31.61737520
     atom   25 type  1   force =    -0.33827381   -0.17837393   31.39424186
     atom   26 type  1   force =     0.00090239   -0.39482144   30.67780000
     atom   27 type  1   force =     0.33638443   -0.17109228   31.40455163
     atom   28 type  1   force =    -3.59453169   -0.94271634   98.10969698
     atom   29 type  1   force =     3.98960682   -0.89562063   97.87523378
     atom   30 type  1   force =    -0.07912783   -0.16021037  103.94938230
     atom   31 type  1   force =     0.08715303    3.53517209  101.82295594
     atom   32 type  1   force =     1.07754182    0.95332498  104.01049043
     atom   33 type  1   force =    -1.17409238    1.03127234  103.85562041
     atom   34 type  1   force =    -0.68233670   -0.59870226  104.19177216
     atom   35 type  1   force =    -0.00180243   -2.67941194  103.07057276
     atom   36 type  1   force =     0.67635601   -0.52545552  104.22020436
     atom   37 type  2   force =     5.93169489   -0.31382230   55.47417196
     atom   38 type  3   force =    -8.30147347    0.68446318   87.92262043
     atom   39 type  4   force =     2.07128745   -0.08752059   15.02688869
     The local contribution  to forces
     atom    1 type  1   force =     0.00342254   -0.00810007  111.26791492
     atom    2 type  1   force =    -0.00577735   -0.01010053  111.27130430
     atom    3 type  1   force =     0.00243061   -0.00178043  111.25782096
     atom    4 type  1   force =     0.00141286   -0.00368194  111.25922089
     atom    5 type  1   force =    -0.00124541    0.00486531  111.26119129
     atom    6 type  1   force =    -0.00060214    0.00060817  111.25945135
     atom    7 type  1   force =     0.00926851    0.00299767  111.26041312
     atom    8 type  1   force =     0.00048068    0.00897295  111.27564657
     atom    9 type  1   force =    -0.01036228    0.00591349  111.26550345
     atom   10 type  1   force =     0.05261383    0.01138951   40.19370523
     atom   11 type  1   force =    -0.05621318    0.01086187   40.19557937
     atom   12 type  1   force =     0.00412062    0.00436138   40.08530841
     atom   13 type  1   force =    -0.00115690   -0.06917572   40.14678058
     atom   14 type  1   force =    -0.03145338   -0.02403982   40.08134749
     atom   15 type  1   force =     0.03270710   -0.02588270   40.08506589
     atom   16 type  1   force =     0.01972239    0.01649287   40.07854556
     atom   17 type  1   force =     0.00006316    0.06423412   40.11629443
     atom   18 type  1   force =    -0.02046473    0.01247187   40.07372685
     atom   19 type  1   force =     0.32282724   -0.37305402  -30.99233565
     atom   20 type  1   force =    -0.33260043   -0.37643784  -31.01932916
     atom   21 type  1   force =     0.00942960   -0.11668313  -31.63046257
     atom   22 type  1   force =    -0.00324641   -0.19487808  -31.64589518
     atom   23 type  1   force =     0.02490663    0.15480784  -31.61840168
     atom   24 type  1   force =    -0.02151927    0.14657675  -31.61137513
     atom   25 type  1   force =     0.34881330    0.18155744  -31.37669974
     atom   26 type  1   force =     0.00022929    0.40247024  -30.65660529
     atom   27 type  1   force =    -0.34052157    0.17345832  -31.40012432
     atom   28 type  1   force =     3.51643874    0.93181412  -98.24359257
     atom   29 type  1   force =    -3.99521734    0.89242730  -97.90790546
     atom   30 type  1   force =     0.07547643    0.15853503 -104.07688810
     atom   31 type  1   force =    -0.06618652   -3.47399146 -101.99757740
     atom   32 type  1   force =    -1.06854104   -0.94599364 -104.12879643
     atom   33 type  1   force =     1.15877813   -1.01402604 -103.98714868
     atom   34 type  1   force =     0.67769284    0.59054145 -104.30752396
     atom   35 type  1   force =     0.01343128    2.64028782 -103.21612733
     atom   36 type  1   force =    -0.67463633    0.52388256 -104.33077956
     atom   37 type  2   force =    -5.57216500    0.25848648  -55.68017439
     atom   38 type  3   force =     6.15344431   -0.51481844  -86.68486301
     atom   39 type  4   force =    -2.01110265    0.08667782  -14.96267636
     The core correction contribution to forces
     atom    1 type  1   force =    -0.00022933   -0.00025470    0.01041226
     atom    2 type  1   force =    -0.00008289   -0.00026116    0.01058420
     atom    3 type  1   force =     0.00001973    0.00006552    0.01020024
     atom    4 type  1   force =    -0.00006422    0.00001429    0.01036432
     atom    5 type  1   force =    -0.00000580    0.00019382    0.01048923
     atom    6 type  1   force =    -0.00011153   -0.00014815    0.01033582
     atom    7 type  1   force =     0.00036616    0.00000211    0.01072268
     atom    8 type  1   force =    -0.00001833    0.00019062    0.01047366
     atom    9 type  1   force =    -0.00019355    0.00024769    0.01046472
     atom   10 type  1   force =     0.00003460   -0.00002736   -0.00151057
     atom   11 type  1   force =    -0.00015060    0.00009688   -0.00182682
     atom   12 type  1   force =     0.00016372    0.00015329   -0.00161609
     atom   13 type  1   force =     0.00009601   -0.00001676   -0.00184289
     atom   14 type  1   force =    -0.00010628   -0.00001312   -0.00164979
     atom   15 type  1   force =    -0.00001628   -0.00002591   -0.00192213
     atom   16 type  1   force =     0.00020771   -0.00001790   -0.00188806
     atom   17 type  1   force =     0.00003939    0.00014927   -0.00186680
     atom   18 type  1   force =    -0.00013911   -0.00010864   -0.00169892
     atom   19 type  1   force =    -0.00012431   -0.00009799    0.00102376
     atom   20 type  1   force =    -0.00045217    0.00051076    0.00095087
     atom   21 type  1   force =     0.00030680   -0.00002989    0.00171094
     atom   22 type  1   force =     0.00004178   -0.00035047    0.00211435
     atom   23 type  1   force =    -0.00021532   -0.00000264    0.00153764
     atom   24 type  1   force =    -0.00003197   -0.00024527    0.00206471
     atom   25 type  1   force =    -0.00002556    0.00006562    0.00148422
     atom   26 type  1   force =    -0.00019213   -0.00002808    0.00103705
     atom   27 type  1   force =     0.00127650   -0.00086816    0.00000391
     atom   28 type  1   force =     0.00971036    0.00206270    0.00160387
     atom   29 type  1   force =    -0.00317118    0.00242147   -0.00514149
     atom   30 type  1   force =    -0.00085138    0.00009297   -0.00969994
     atom   31 type  1   force =     0.00212189   -0.00592480   -0.00577330
     atom   32 type  1   force =    -0.00265223   -0.00256965   -0.00935911
     atom   33 type  1   force =     0.00018289   -0.00023914   -0.00982755
     atom   34 type  1   force =     0.00010182    0.00008299   -0.01033363
     atom   35 type  1   force =     0.00163688    0.00404499   -0.00793581
     atom   36 type  1   force =    -0.00160140    0.00137738   -0.00951225
     atom   37 type  2   force =     0.00334024   -0.00106434   -0.00301333
     atom   38 type  3   force =    -0.01729203    0.00142198    0.01102263
     atom   39 type  4   force =     0.00000000    0.00000000    0.00000000
     The Hubbard contrib.    to forces
     atom    1 type  1   force =     0.00000000    0.00000000    0.00000000
     atom    2 type  1   force =     0.00000000    0.00000000    0.00000000
     atom    3 type  1   force =     0.00000000    0.00000000    0.00000000
     atom    4 type  1   force =     0.00000000    0.00000000    0.00000000
     atom    5 type  1   force =     0.00000000    0.00000000    0.00000000
     atom    6 type  1   force =     0.00000000    0.00000000    0.00000000
     atom    7 type  1   force =     0.00000000    0.00000000    0.00000000
     atom    8 type  1   force =     0.00000000    0.00000000    0.00000000
     atom    9 type  1   force =     0.00000000    0.00000000    0.00000000
     atom   10 type  1   force =     0.00000000    0.00000000    0.00000000
     atom   11 type  1   force =     0.00000000    0.00000000    0.00000000
     atom   12 type  1   force =     0.00000000    0.00000000    0.00000000
     atom   13 type  1   force =     0.00000000    0.00000000    0.00000000
     atom   14 type  1   force =     0.00000000    0.00000000    0.00000000
     atom   15 type  1   force =     0.00000000    0.00000000    0.00000000
     atom   16 type  1   force =     0.00000000    0.00000000    0.00000000
     atom   17 type  1   force =     0.00000000    0.00000000    0.00000000
     atom   18 type  1   force =     0.00000000    0.00000000    0.00000000
     atom   19 type  1   force =     0.00000000    0.00000000    0.00000000
     atom   20 type  1   force =     0.00000000    0.00000000    0.00000000
     atom   21 type  1   force =     0.00000000    0.00000000    0.00000000
     atom   22 type  1   force =     0.00000000    0.00000000    0.00000000
     atom   23 type  1   force =     0.00000000    0.00000000    0.00000000
     atom   24 type  1   force =     0.00000000    0.00000000    0.00000000
     atom   25 type  1   force =     0.00000000    0.00000000    0.00000000
     atom   26 type  1   force =     0.00000000    0.00000000    0.00000000
     atom   27 type  1   force =     0.00000000    0.00000000    0.00000000
     atom   28 type  1   force =     0.00000000    0.00000000    0.00000000
     atom   29 type  1   force =     0.00000000    0.00000000    0.00000000
     atom   30 type  1   force =     0.00000000    0.00000000    0.00000000
     atom   31 type  1   force =     0.00000000    0.00000000    0.00000000
     atom   32 type  1   force =     0.00000000    0.00000000    0.00000000
     atom   33 type  1   force =     0.00000000    0.00000000    0.00000000
     atom   34 type  1   force =     0.00000000    0.00000000    0.00000000
     atom   35 type  1   force =     0.00000000    0.00000000    0.00000000
     atom   36 type  1   force =     0.00000000    0.00000000    0.00000000
     atom   37 type  2   force =     0.00000000    0.00000000    0.00000000
     atom   38 type  3   force =     0.00000000    0.00000000    0.00000000
     atom   39 type  4   force =     0.00000000    0.00000000    0.00000000
     The SCF correction term to forces
     atom    1 type  1   force =     0.00000000   -0.00000000    0.00000000
     atom    2 type  1   force =    -0.00000000   -0.00000000    0.00000000
     atom    3 type  1   force =    -0.00000000   -0.00000000    0.00000000
     atom    4 type  1   force =     0.00000000    0.00000000    0.00000000
     atom    5 type  1   force =    -0.00000000    0.00000000    0.00000000
     atom    6 type  1   force =     0.00000000    0.00000000    0.00000000
     atom    7 type  1   force =    -0.00000000   -0.00000000    0.00000000
     atom    8 type  1   force =     0.00000000    0.00000000    0.00000000
     atom    9 type  1   force =     0.00000000   -0.00000000    0.00000000
     atom   10 type  1   force =     0.00000000   -0.00000000    0.00000000
     atom   11 type  1   force =     0.00000000   -0.00000000    0.00000000
     atom   12 type  1   force =    -0.00000000   -0.00000000    0.00000000
     atom   13 type  1   force =     0.00000000    0.00000000    0.00000000
     atom   14 type  1   force =    -0.00000000   -0.00000000    0.00000000
     atom   15 type  1   force =     0.00000000    0.00000000    0.00000000
     atom   16 type  1   force =    -0.00000000    0.00000000    0.00000000
     atom   17 type  1   force =     0.00000000    0.00000000    0.00000000
     atom   18 type  1   force =     0.00000000    0.00000000    0.00000000
     atom   19 type  1   force =     0.00000000    0.00000000   -0.00000000
     atom   20 type  1   force =    -0.00000000    0.00000000   -0.00000000
     atom   21 type  1   force =     0.00000000    0.00000000   -0.00000000
     atom   22 type  1   force =    -0.00000000   -0.00000000   -0.00000000
     atom   23 type  1   force =    -0.00000000    0.00000000   -0.00000000
     atom   24 type  1   force =     0.00000000   -0.00000000   -0.00000000
     atom   25 type  1   force =     0.00000000   -0.00000000   -0.00000000
     atom   26 type  1   force =    -0.00000000   -0.00000000   -0.00000000
     atom   27 type  1   force =    -0.00000000   -0.00000000   -0.00000000
     atom   28 type  1   force =    -0.00000000   -0.00000000   -0.00000000
     atom   29 type  1   force =    -0.00000000   -0.00000000   -0.00000000
     atom   30 type  1   force =     0.00000000   -0.00000000   -0.00000000
     atom   31 type  1   force =    -0.00000000    0.00000000   -0.00000000
     atom   32 type  1   force =     0.00000000    0.00000000   -0.00000000
     atom   33 type  1   force =     0.00000000    0.00000000   -0.00000000
     atom   34 type  1   force =    -0.00000000    0.00000000   -0.00000000
     atom   35 type  1   force =     0.00000000   -0.00000000   -0.00000000
     atom   36 type  1   force =    -0.00000000   -0.00000000   -0.00000000
     atom   37 type  2   force =    -0.00007354   -0.00004608   -0.00004902
     atom   38 type  3   force =    -0.00007600   -0.00003478   -0.00018652
     atom   39 type  4   force =    -0.00000001   -0.00000757   -0.00001392

     Total force =     0.019976     Total SCF correction =     0.000228

     Writing all to output data dir ./pwscf.save/

     init_run     :     18.62s CPU     19.10s WALL (       1 calls)
     electrons    :    722.55s CPU    747.95s WALL (       1 calls)
     forces       :      3.01s CPU      3.10s WALL (       1 calls)

     Called by init_run:
     wfcinit      :      7.05s CPU      7.36s WALL (       1 calls)
     potinit      :     10.47s CPU     10.61s WALL (       1 calls)
     hinit0       :      0.85s CPU      0.86s WALL (       1 calls)

     Called by electrons:
     c_bands      :    617.22s CPU    640.77s WALL (      39 calls)
     sum_band     :     69.77s CPU     70.74s WALL (      39 calls)
     v_of_rho     :     21.30s CPU     21.76s WALL (      40 calls)
     newd         :      2.27s CPU      2.31s WALL (      40 calls)
     PAW_pot      :     10.02s CPU     10.14s WALL (      40 calls)
     mix_rho      :     11.65s CPU     11.83s WALL (      39 calls)
     vdW_kernel   :      9.44s CPU      9.50s WALL (       1 calls)

     Called by c_bands:
     init_us_2    :      5.03s CPU      5.14s WALL (    2080 calls)
     init_us_2:cp :      5.02s CPU      5.14s WALL (    2080 calls)
     cegterg      :    600.59s CPU    623.72s WALL (    1014 calls)

     Called by *egterg:
     cdiaghg      :    161.46s CPU    168.26s WALL (    3728 calls)
     h_psi        :    296.61s CPU    308.81s WALL (    3754 calls)
     s_psi        :     22.16s CPU     23.20s WALL (    3754 calls)
     g_psi        :      0.44s CPU      0.45s WALL (    2714 calls)

     Called by h_psi:
     h_psi:calbec :     46.30s CPU     48.08s WALL (    3754 calls)
     vloc_psi     :    226.01s CPU    234.89s WALL (    3754 calls)
     add_vuspsi   :     23.24s CPU     24.77s WALL (    3754 calls)

     General routines
     calbec       :     63.63s CPU     65.61s WALL (    4872 calls)
     fft          :      9.92s CPU     10.33s WALL (    3637 calls)
     ffts         :      6.90s CPU      7.01s WALL (   13564 calls)
     fftw         :    257.30s CPU    266.12s WALL ( 1058342 calls)
     interpolate  :      0.50s CPU      0.51s WALL (      80 calls)

     Parallel routines

     PWSCF        :  12m28.76s CPU  12m58.76s WALL


   This run was terminated on:  15:13:36   6Dec2025            

=------------------------------------------------------------------------------=
   JOB DONE.
=------------------------------------------------------------------------------=
