
     Program PWSCF v.7.1 starts on 22Feb2025 at 21:41:50 
        Git branch: heads/qe-7.1
        Last git commit: 48ba0178f8fede6d020eb786884699a9f063f55d-dirty
        Last git commit date: Fri Jan 27 14:22:33 2023 +0000
        Last git commit subject: Merge branch 'fix_hubbard' into 'develop'

     This program is part of the open-source Quantum ESPRESSO suite
     for quantum simulation of materials; please cite
         "P. Giannozzi et al., J. Phys.:Condens. Matter 21 395502 (2009);
         "P. Giannozzi et al., J. Phys.:Condens. Matter 29 465901 (2017);
         "P. Giannozzi et al., J. Chem. Phys. 152 154105 (2020);
          URL http://www.quantum-espresso.org", 
     in publications or presentations arising from this work. More details at
     http://www.quantum-espresso.org/quote

     Parallel version (MPI), running on    48 processors

     MPI processes distributed on     1 nodes
     17037 MiB available memory on the printing compute node when the environment starts

     Reading input from espresso.pwi
Warning: card &CELL ignored
Warning: card / ignored
Warning: card &FCP ignored
Warning: card / ignored
Warning: card &RISM ignored
Warning: card / ignored

     Current dimensions of program PWSCF are:
     Max number of different atomic species (ntypx) = 10
     Max number of k-points (npk) =  40000
     Max angular momentum in pseudopotentials (lmaxx) =  4
     file Pt.pbe-n-kjpaw_psl.1.0.0.UPF: wavefunction(s)  6S 5D renormalized
     file H.pbe-kjpaw_psl.1.0.0.UPF: wavefunction(s)  1S renormalized

     **************************************************************************
     Initializing libbeef V0.1.2 with the BEEF-vdW functional.
     Citation: Wellendorff et al., PRB 85, 235149 (2012).
     **************************************************************************


     IMPORTANT: XC functional enforced from input :
     Exchange-correlation= BEEF-VDW
                           (   1   4  43  14   2   0   0)
     Any further DFT definition will be discarded
     Please, verify this is what you really want


     R & G space division:  proc/nbgrp/npool/nimage =      48
     Subspace diagonalization in iterative solution of the eigenvalue problem:
     one sub-group per band group will be used
     custom distributed-memory algorithm (size of sub-group:  2*  2 procs)


     Parallelization info
     --------------------
     sticks:   dense  smooth     PW     G-vecs:    dense   smooth      PW
     Min         151      59     16                29407     7165    1028
     Max         152      60     17                29420     7176    1042
     Sum        7267    2839    769              1411785   344073   49691

     Using Slab Decomposition



     bravais-lattice index     =            0
     lattice parameter (alat)  =      16.0349  a.u.
     unit-cell volume          =   10068.6169 (a.u.)^3
     number of atoms/cell      =           37
     number of atomic types    =            2
     number of electrons       =       361.00
     number of Kohn-Sham states=          217
     kinetic-energy cutoff     =      40.0000  Ry
     charge density cutoff     =     410.0000  Ry
     scf convergence threshold =      1.0E-06
     mixing beta               =       0.7000
     number of iterations used =            8  local-TF  mixing
     Exchange-correlation= BEEF-VDW
                           (   1   4  43  14   2   0   0)

     celldm(1)=  16.034858  celldm(2)=   0.000000  celldm(3)=   0.000000
     celldm(4)=   0.000000  celldm(5)=   0.000000  celldm(6)=   0.000000

     crystal axes: (cart. coord. in units of alat)
               a(1) = (   1.000000   0.000000   0.000000 )  
               a(2) = (   0.500000   0.866025   0.000000 )  
               a(3) = (   0.000000   0.000000   2.819966 )  

     reciprocal axes: (cart. coord. in units 2 pi/alat)
               b(1) = (  1.000000 -0.577350  0.000000 )  
               b(2) = (  0.000000  1.154701  0.000000 )  
               b(3) = (  0.000000  0.000000  0.354614 )  


     PseudoPot. # 1 for Pt read from file:
     /users/kbadger1/espresso/pseudo/pslibrary.1.0.0/pbe/PSEUDOPOTENTIALS/Pt.pbe-n-kjpaw_psl.1.0.0.UPF
     MD5 check sum: 2e24a0b5bf98a4ed1a57fa81bca8c143
     Pseudo is Projector augmented-wave + core cor, Zval = 10.0
     Generated using 'atomic' code by A. Dal Corso  v.7.0
     Shape of augmentation charge: PSQ
     Using radial grid of 1277 points,  6 beta functions with: 
                l(1) =   0
                l(2) =   0
                l(3) =   1
                l(4) =   1
                l(5) =   2
                l(6) =   2
     Q(r) pseudized with 0 coefficients 


     PseudoPot. # 2 for H  read from file:
     /users/kbadger1/espresso/pseudo/pslibrary.1.0.0/pbe/PSEUDOPOTENTIALS/H.pbe-kjpaw_psl.1.0.0.UPF
     MD5 check sum: fe4c6fa958fa6d3815bf5d2419cbf1df
     Pseudo is Projector augmented-wave, Zval =  1.0
     Generated using 'atomic' code by A. Dal Corso  v.7.0
     Shape of augmentation charge: PSQ
     Using radial grid of  929 points,  2 beta functions with: 
                l(1) =   0
                l(2) =   0
     Q(r) pseudized with 0 coefficients 


     atomic species   valence    mass     pseudopotential
        Pt            10.00   195.08400     Pt( 1.00)
        H              1.00     1.00800     H ( 1.00)

     No symmetry found



   Cartesian axes

     site n.     atom                  positions (alat units)
         1           Pt  tau(   1) = (   0.0000000   0.0000000   1.0017346  )
         2           Pt  tau(   2) = (   0.3333333   0.0000000   1.0017346  )
         3           Pt  tau(   3) = (   0.6666667   0.0000000   1.0017346  )
         4           Pt  tau(   4) = (   0.1666667   0.2886751   1.0017346  )
         5           Pt  tau(   5) = (   0.5000000   0.2886751   1.0017346  )
         6           Pt  tau(   6) = (   0.8333333   0.2886751   1.0017346  )
         7           Pt  tau(   7) = (   0.3333333   0.5773503   1.0017346  )
         8           Pt  tau(   8) = (   0.6666667   0.5773503   1.0017346  )
         9           Pt  tau(   9) = (   1.0000000   0.5773503   1.0017346  )
        10           Pt  tau(  10) = (   0.1666667   0.0962250   1.2739001  )
        11           Pt  tau(  11) = (   0.5000000   0.0962250   1.2739001  )
        12           Pt  tau(  12) = (   0.8333333   0.0962250   1.2739001  )
        13           Pt  tau(  13) = (   0.3333333   0.3849002   1.2739001  )
        14           Pt  tau(  14) = (   0.6666667   0.3849002   1.2739001  )
        15           Pt  tau(  15) = (   1.0000000   0.3849002   1.2739001  )
        16           Pt  tau(  16) = (   0.5000000   0.6735753   1.2739001  )
        17           Pt  tau(  17) = (   0.8333333   0.6735753   1.2739001  )
        18           Pt  tau(  18) = (   1.1666667   0.6735753   1.2739001  )
        19           Pt  tau(  19) = (   0.0005796   0.1925593   1.5440636  )
        20           Pt  tau(  20) = (   0.3328876   0.1922692   1.5449503  )
        21           Pt  tau(  21) = (   0.6668099   0.1923820   1.5422916  )
        22           Pt  tau(  22) = (   0.1665087   0.4800014   1.5441738  )
        23           Pt  tau(  23) = (   0.4999527   0.4813933   1.5422820  )
        24           Pt  tau(  24) = (   0.8334345   0.4812535   1.5425218  )
        25           Pt  tau(  25) = (   0.3332078   0.7697973   1.5425125  )
        26           Pt  tau(  26) = (   0.6669891   0.7703526   1.5440678  )
        27           Pt  tau(  27) = (   0.9988832   0.7703318   1.5441776  )
        28           Pt  tau(  28) = (  -0.0036800  -0.0019644   1.8181390  )
        29           Pt  tau(  29) = (   0.3366999  -0.0017078   1.8244778  )
        30           Pt  tau(  30) = (   0.6671505   0.0004085   1.8172330  )
        31           Pt  tau(  31) = (   0.1667302   0.2926777   1.8244694  )
        32           Pt  tau(  32) = (   0.5029081   0.2905259   1.8162679  )
        33           Pt  tau(  33) = (   0.8328645   0.2893861   1.8168473  )
        34           Pt  tau(  34) = (   0.3337928   0.5778016   1.8172229  )
        35           Pt  tau(  35) = (   0.6669063   0.5768265   1.8168490  )
        36           Pt  tau(  36) = (   1.0001856   0.5776139   1.8172050  )
        37           H   tau(  37) = (   0.2074671   0.1199409   1.9361648  )

     number of k points=    13  Marzari-Vanderbilt smearing, width (Ry)=  0.0200
                       cart. coord. in units 2pi/alat
        k(    1) = (   0.0000000   0.0000000   0.0000000), wk =   0.0800000
        k(    2) = (   0.0000000   0.2309401   0.0000000), wk =   0.1600000
        k(    3) = (   0.0000000   0.4618802   0.0000000), wk =   0.1600000
        k(    4) = (   0.2000000  -0.1154701   0.0000000), wk =   0.1600000
        k(    5) = (   0.2000000   0.1154701   0.0000000), wk =   0.1600000
        k(    6) = (   0.2000000   0.3464102   0.0000000), wk =   0.1600000
        k(    7) = (   0.2000000  -0.5773503   0.0000000), wk =   0.1600000
        k(    8) = (   0.2000000  -0.3464102   0.0000000), wk =   0.1600000
        k(    9) = (   0.4000000  -0.2309401   0.0000000), wk =   0.1600000
        k(   10) = (   0.4000000  -0.0000000   0.0000000), wk =   0.1600000
        k(   11) = (   0.4000000   0.2309401   0.0000000), wk =   0.1600000
        k(   12) = (   0.4000000  -0.6928203   0.0000000), wk =   0.1600000
        k(   13) = (   0.4000000  -0.4618802   0.0000000), wk =   0.1600000

     Dense  grid:  1411785 G-vectors     FFT dimensions: ( 108, 108, 300)

     Smooth grid:   344073 G-vectors     FFT dimensions: (  72,  72, 192)

     Estimated max dynamical RAM per process >     203.68 MB

     Estimated total dynamical RAM >       9.55 GB

     Initial potential from superposition of free atoms

     starting charge     360.9939, renormalised to     361.0000

     negative rho (up, down):  3.363E-03 0.000E+00


     %%%%%%%%%%%%%%%%%%%%%%%%%%%%%%%%%%%%%%%%%%%%%%%%%%%%%%%%%%%%%%%%%%%%%%%%
     %                                                                      %
     % You are using vdW-DF, which was implemented by the Thonhauser group. %
     % Please cite the following two papers that made this development      %
     % possible and the two reviews that describe the various versions:     %
     %                                                                      %
     %   T. Thonhauser et al., PRL 115, 136402 (2015).                      %
     %   T. Thonhauser et al., PRB 76, 125112 (2007).                       %
     %   K. Berland et al., Rep. Prog. Phys. 78, 066501 (2015).             %
     %   D.C. Langreth et al., J. Phys.: Condens. Matter 21, 084203 (2009). %
     %                                                                      %
     % If you are calculating stress with vdW-DF, please also cite:         %
     %                                                                      %
     %   R. Sabatini et al., J. Phys.: Condens. Matter 24, 424209 (2012).   %
     %                                                                      %
     %%%%%%%%%%%%%%%%%%%%%%%%%%%%%%%%%%%%%%%%%%%%%%%%%%%%%%%%%%%%%%%%%%%%%%%%

     %%%%%%%%%%%%%%%%%%%%%%%%%%%%%%%%%%%%%%%%%%%%%%%%%%%%%%%%%%%%%%%%%%%%%%%%
     %                                                                      %
     %  vdW-DF NEWS:                                                        %
     %                                                                      %
     %  * vdW-DF3 is now available. DOI: 10.1021/acs.jctc.0c00471           %
     %    use with input_dft = 'vdW-DF3-opt1' or 'vdW-DF3-opt2'             %
     %                                                                      %
     %  * Unscreened and range-separated hybrid vdW-DF-cx functionals       %
     %    DOI: 10.1063/1.4986522 and 10.1088/1361-648X/ac2ad2               %
     %    use with input_dft = 'vdW-DF-cx0'    and 'vdW-DF-ahcx'            %
     %  * Unscreened and range-separated hybrid vdW-DF2-b86r functionals    %
     %    DOI: 10.1063/1.4986522 and DOI: 10.1103/PhysRevX.12.041003        %
     %    use with input_dft = 'vdW-DF2-br0' and 'vdW-DF2-ahbr'             %
     %                                                                      %
     %%%%%%%%%%%%%%%%%%%%%%%%%%%%%%%%%%%%%%%%%%%%%%%%%%%%%%%%%%%%%%%%%%%%%%%%


     Starting wfcs are  325 randomized atomic wfcs
     Checking if some PAW data can be deallocated... 

     total cpu time spent up to now is       13.6 secs

     per-process dynamical memory:   207.7 Mb

     Self-consistent Calculation

     iteration #  1     ecut=    40.00 Ry     beta= 0.70
     Davidson diagonalization with overlap
     ethr =  1.00E-02,  avg # of iterations =  2.0

     Threshold (ethr) on eigenvalues was too large:
     Diagonalizing with lowered threshold

     Davidson diagonalization with overlap
     ethr =  3.71E-04,  avg # of iterations =  3.6

     negative rho (up, down):  1.758E-02 0.000E+00

     total cpu time spent up to now is       47.9 secs

     total energy              =  -27755.28580104 Ry
     estimated scf accuracy    <       1.53969434 Ry

     iteration #  2     ecut=    40.00 Ry     beta= 0.70
     Davidson diagonalization with overlap
     ethr =  4.27E-04,  avg # of iterations =  2.0

     negative rho (up, down):  1.577E-02 0.000E+00

     total cpu time spent up to now is       65.8 secs

     total energy              =  -27755.38403823 Ry
     estimated scf accuracy    <       0.80142853 Ry

     iteration #  3     ecut=    40.00 Ry     beta= 0.70
     Davidson diagonalization with overlap
     ethr =  2.22E-04,  avg # of iterations =  2.0

     negative rho (up, down):  1.041E-02 0.000E+00

     total cpu time spent up to now is       80.9 secs

     total energy              =  -27755.43517806 Ry
     estimated scf accuracy    <       0.09119174 Ry

     iteration #  4     ecut=    40.00 Ry     beta= 0.70
     Davidson diagonalization with overlap
     c_bands:  2 eigenvalues not converged
     c_bands:  1 eigenvalues not converged
     c_bands:  1 eigenvalues not converged
     c_bands:  1 eigenvalues not converged
     ethr =  2.53E-05,  avg # of iterations = 14.8

     negative rho (up, down):  7.516E-03 0.000E+00

     total cpu time spent up to now is      125.2 secs

     total energy              =  -27755.48449035 Ry
     estimated scf accuracy    <       0.07747671 Ry

     iteration #  5     ecut=    40.00 Ry     beta= 0.70
     Davidson diagonalization with overlap
     ethr =  2.15E-05,  avg # of iterations =  3.2

     negative rho (up, down):  3.384E-03 0.000E+00

     total cpu time spent up to now is      141.1 secs

     total energy              =  -27755.48439354 Ry
     estimated scf accuracy    <       0.02923003 Ry

     iteration #  6     ecut=    40.00 Ry     beta= 0.70
     Davidson diagonalization with overlap
     c_bands:  1 eigenvalues not converged
     c_bands:  1 eigenvalues not converged
     c_bands:  1 eigenvalues not converged
     c_bands:  1 eigenvalues not converged
     ethr =  8.10E-06,  avg # of iterations =  8.7

     negative rho (up, down):  1.638E-03 0.000E+00

     total cpu time spent up to now is      163.5 secs

     total energy              =  -27755.48645696 Ry
     estimated scf accuracy    <       0.00246285 Ry

     iteration #  7     ecut=    40.00 Ry     beta= 0.70
     Davidson diagonalization with overlap
     c_bands:  3 eigenvalues not converged
     c_bands:  2 eigenvalues not converged
     c_bands:  1 eigenvalues not converged
     c_bands:  1 eigenvalues not converged
     ethr =  6.82E-07,  avg # of iterations = 13.5

     negative rho (up, down):  1.266E-03 0.000E+00

     total cpu time spent up to now is      198.8 secs

     total energy              =  -27755.48692548 Ry
     estimated scf accuracy    <       0.00182363 Ry

     iteration #  8     ecut=    40.00 Ry     beta= 0.70
     Davidson diagonalization with overlap
     ethr =  5.05E-07,  avg # of iterations =  3.7

     negative rho (up, down):  1.105E-03 0.000E+00

     total cpu time spent up to now is      218.4 secs

     total energy              =  -27755.48707105 Ry
     estimated scf accuracy    <       0.00021224 Ry

     iteration #  9     ecut=    40.00 Ry     beta= 0.70
     Davidson diagonalization with overlap
     ethr =  5.88E-08,  avg # of iterations =  5.3

     negative rho (up, down):  8.965E-04 0.000E+00

     total cpu time spent up to now is      250.7 secs

     total energy              =  -27755.48718126 Ry
     estimated scf accuracy    <       0.00008747 Ry

     iteration # 10     ecut=    40.00 Ry     beta= 0.70
     Davidson diagonalization with overlap
     ethr =  2.42E-08,  avg # of iterations =  4.5

     negative rho (up, down):  8.741E-04 0.000E+00

     total cpu time spent up to now is      278.4 secs

     total energy              =  -27755.48720110 Ry
     estimated scf accuracy    <       0.00008398 Ry

     iteration # 11     ecut=    40.00 Ry     beta= 0.70
     Davidson diagonalization with overlap
     ethr =  2.33E-08,  avg # of iterations =  1.2

     negative rho (up, down):  9.568E-04 0.000E+00

     total cpu time spent up to now is      292.4 secs

     total energy              =  -27755.48720551 Ry
     estimated scf accuracy    <       0.00005619 Ry

     iteration # 12     ecut=    40.00 Ry     beta= 0.70
     Davidson diagonalization with overlap
     ethr =  1.56E-08,  avg # of iterations =  1.4

     negative rho (up, down):  1.178E-03 0.000E+00

     total cpu time spent up to now is      310.3 secs

     total energy              =  -27755.48721193 Ry
     estimated scf accuracy    <       0.00002031 Ry

     iteration # 13     ecut=    40.00 Ry     beta= 0.70
     Davidson diagonalization with overlap
     ethr =  5.63E-09,  avg # of iterations =  2.3

     negative rho (up, down):  1.640E-03 0.000E+00

     total cpu time spent up to now is      326.4 secs

     total energy              =  -27755.48721713 Ry
     estimated scf accuracy    <       0.00001168 Ry

     iteration # 14     ecut=    40.00 Ry     beta= 0.70
     Davidson diagonalization with overlap
     ethr =  3.23E-09,  avg # of iterations =  2.0

     negative rho (up, down):  1.934E-03 0.000E+00

     total cpu time spent up to now is      344.7 secs

     total energy              =  -27755.48722031 Ry
     estimated scf accuracy    <       0.00000674 Ry

     iteration # 15     ecut=    40.00 Ry     beta= 0.70
     Davidson diagonalization with overlap
     ethr =  1.87E-09,  avg # of iterations =  2.0

     negative rho (up, down):  2.773E-03 0.000E+00

     total cpu time spent up to now is      360.6 secs

     total energy              =  -27755.48721750 Ry
     estimated scf accuracy    <       0.00000590 Ry

     iteration # 16     ecut=    40.00 Ry     beta= 0.70
     Davidson diagonalization with overlap
     ethr =  1.63E-09,  avg # of iterations =  2.0

     negative rho (up, down):  3.152E-03 0.000E+00

     total cpu time spent up to now is      378.3 secs

     End of self-consistent calculation

          k = 0.0000 0.0000 0.0000 ( 42913 PWs)   bands (ev):

    -6.3093  -5.1788  -4.4519  -3.8909  -3.8789  -3.8738  -3.8683  -3.8549
    -3.8486  -3.8482  -3.5223  -3.3192  -3.3165  -3.3130  -3.3083  -3.3047
    -3.2209  -2.8635  -2.8588  -2.8450  -2.8396  -2.8355  -2.7490  -2.6323
    -2.6310  -2.6283  -2.6272  -2.6188  -2.5167  -2.4155  -2.4151  -2.4011
    -2.3973  -2.3884  -2.3866  -2.3764  -2.3663  -2.3656  -2.3425  -2.3365
    -1.9819  -1.7873  -1.7852  -1.7581  -1.7427  -1.7214  -1.7126  -1.6928
    -1.6927  -1.6861  -1.5493  -1.5466  -1.4749  -1.4411  -1.4400  -0.9779
    -0.9735  -0.9667  -0.9567  -0.9517  -0.8994  -0.8699  -0.7884  -0.7843
    -0.7830  -0.7697  -0.7627  -0.7559  -0.7522  -0.7298  -0.7213  -0.7196
    -0.7182  -0.7159  -0.6801  -0.6758  -0.6691  -0.5550  -0.5509  -0.5457
    -0.5435  -0.5380  -0.5368  -0.3785  -0.3652  -0.3625  -0.3517  -0.3463
    -0.3372  -0.3065  -0.3063  -0.2248  -0.2148  -0.1645  -0.1616  -0.1285
    -0.1204  -0.0976  -0.0867  -0.0814  -0.0206   0.0736   0.0739   0.0817
     0.0865   0.0925   0.0928   0.3390   0.5550   0.5762   0.5791   0.5873
     0.5874   0.6003   0.6191   0.6265   0.6408   0.6462   0.6561   0.7228
     0.7320   0.7885   0.8650   0.8675   0.8774   0.8832   0.8939   0.9935
     1.0086   1.0536   1.0566   1.0591   1.0605   1.2889   1.3047   1.3055
     1.3210   1.3255   1.3272   1.3855   1.3959   1.5406   1.5412   1.5661
     1.5686   1.5694   1.5738   1.6777   1.7082   1.7229   1.7454   1.7570
     1.7573   1.7602   1.7675   1.7798   1.7802   1.7861   1.7884   1.8588
     1.8728   1.8950   1.9039   1.9179   1.9274   1.9405   1.9435   1.9862
     2.0010   2.0207   2.0298   2.0342   2.0472   2.0616   2.0641   2.1271
     2.1392   2.1392   2.1531   2.1549   2.1563   2.2105   2.2371   2.2466
     2.2571   2.2573   2.2669   2.2743   2.4594   2.4665   2.5571   2.5653
     2.5698   2.5854   2.5864   2.5892   3.1243   3.4215   3.4260   3.4552
     3.4725   3.4780   3.4825   5.4406   5.7192   5.7567   5.7919   5.8100
     5.8104   7.1939   7.3083   7.3774   7.3975   7.4036   7.4043   7.5431
     7.6309

          k = 0.0000 0.2309 0.0000 ( 42996 PWs)   bands (ev):

    -6.1624  -5.0533  -4.4293  -4.3234  -3.9806  -3.9636  -3.7480  -3.6738
    -3.6344  -3.6275  -3.4998  -3.4019  -3.3776  -3.2498  -3.2435  -3.2349
    -3.1377  -2.9436  -2.8209  -2.8116  -2.8006  -2.7857  -2.7316  -2.6985
    -2.6709  -2.6372  -2.6335  -2.6116  -2.5514  -2.5325  -2.5215  -2.4340
    -2.4243  -2.4037  -2.3888  -2.2539  -2.2006  -2.1942  -2.1818  -2.1461
    -1.9838  -1.9048  -1.8994  -1.8455  -1.8235  -1.8052  -1.7857  -1.6902
    -1.6086  -1.5497  -1.5322  -1.5152  -1.4720  -1.4526  -1.4078  -1.2402
    -1.1460  -1.1412  -1.0823  -1.0636  -1.0324  -0.9893  -0.9622  -0.9528
    -0.9291  -0.9212  -0.8593  -0.8418  -0.8007  -0.7749  -0.7632  -0.7248
    -0.6797  -0.6702  -0.6615  -0.5980  -0.5935  -0.5755  -0.5351  -0.4902
    -0.4829  -0.4763  -0.4702  -0.3975  -0.3823  -0.3683  -0.3639  -0.3577
    -0.3155  -0.2947  -0.2610  -0.2335  -0.2128  -0.1982  -0.1799  -0.1631
    -0.1494  -0.1143  -0.1020  -0.0953  -0.0108   0.0464   0.0586   0.0806
     0.0869   0.0924   0.1008   0.1196   0.1576   0.1647   0.1802   0.1950
     0.3940   0.5021   0.5508   0.5745   0.5936   0.6008   0.6077   0.6356
     0.6373   0.7264   0.7959   0.8077   0.8895   0.9421   0.9456   0.9719
     0.9874   1.0115   1.0497   1.0648   1.0747   1.1533   1.1796   1.1916
     1.2020   1.2082   1.3147   1.4005   1.4107   1.4150   1.4326   1.4441
     1.4621   1.5198   1.5509   1.5783   1.5972   1.6048   1.6586   1.6755
     1.6827   1.6912   1.7668   1.7917   1.8107   1.8261   1.8580   1.9245
     1.9561   1.9680   1.9817   1.9919   2.0156   2.0338   2.1025   2.1110
     2.1576   2.1703   2.1811   2.1944   2.2233   2.2265   2.2365   2.2425
     2.2465   2.3065   2.3092   2.4444   2.4581   2.4734   2.4913   2.5072
     2.5081   2.5389   2.5644   2.5782   2.5907   2.6631   2.6928   2.7166
     2.7674   2.8773   2.8898   2.8990   2.9319   3.2766   3.3280   3.8402
     4.0476   4.0764   4.1860   4.9874   5.3921   5.4948   6.1372   6.2131
     6.2391   6.3377   6.5864   7.0056   7.1731   7.3448   7.5333   7.5775
     7.6388

          k = 0.0000 0.4619 0.0000 ( 43046 PWs)   bands (ev):

    -5.7402  -5.1105  -4.7310  -4.2209  -4.0146  -3.9948  -3.7936  -3.6358
    -3.4920  -3.3644  -3.2916  -3.2861  -3.2299  -3.1240  -3.0769  -3.0654
    -3.0599  -3.0467  -2.9132  -2.8999  -2.8867  -2.8531  -2.8446  -2.8127
    -2.7414  -2.7159  -2.7108  -2.6411  -2.4569  -2.4505  -2.4437  -2.4343
    -2.4277  -2.3393  -2.2053  -2.1935  -2.1727  -2.1491  -2.1408  -2.0506
    -1.9406  -1.8725  -1.8629  -1.8440  -1.8107  -1.7887  -1.7437  -1.7194
    -1.7096  -1.6803  -1.6448  -1.5436  -1.5023  -1.4965  -1.4651  -1.3988
    -1.3427  -1.3139  -1.2820  -1.2694  -1.2458  -1.1216  -1.0629  -1.0571
    -1.0471  -1.0342  -0.9534  -0.9361  -0.9060  -0.8158  -0.8080  -0.8048
    -0.7409  -0.6880  -0.6848  -0.6638  -0.6584  -0.6094  -0.5823  -0.5789
    -0.5615  -0.5529  -0.5418  -0.5373  -0.5306  -0.5021  -0.4216  -0.4035
    -0.3969  -0.3722  -0.3696  -0.3601  -0.3263  -0.2274  -0.2136  -0.1783
    -0.1522  -0.1419  -0.1159  -0.0904  -0.0645  -0.0575   0.0253   0.0644
     0.0871   0.1159   0.1398   0.1642   0.1906   0.3201   0.3439   0.4092
     0.4269   0.4806   0.4927   0.5217   0.5336   0.5373   0.5407   0.5886
     0.6177   0.6435   0.6558   0.6605   0.6900   0.7064   0.7098   0.7394
     0.7521   0.8570   0.8799   0.8997   0.9608   0.9849   1.0744   1.0784
     1.1745   1.1919   1.2341   1.2857   1.3535   1.3643   1.4083   1.4202
     1.4514   1.4642   1.4888   1.5176   1.5628   1.5717   1.6168   1.6615
     1.6771   1.7144   1.7309   1.7363   1.7516   1.7998   1.8845   1.9257
     1.9895   2.0105   2.0215   2.0289   2.0725   2.1284   2.1382   2.1970
     2.2148   2.2293   2.2392   2.2845   2.3180   2.3329   2.3430   2.4546
     2.4613   2.4777   2.4895   2.4941   2.4986   2.5191   2.5230   2.7023
     2.7251   2.7341   2.7419   2.7482   2.9053   2.9562   3.2003   3.3346
     3.3824   3.5732   3.7768   3.7876   4.0667   4.1687   4.2875   4.4784
     4.7683   4.9998   5.0043   5.0996   5.2154   5.2548   5.3533   5.3924
     5.6017   5.6535   6.1972   6.2867   6.7017   6.8188   7.1707   7.3015
     7.7389

          k = 0.2000-0.1155 0.0000 ( 42996 PWs)   bands (ev):

    -6.1624  -5.0533  -4.4294  -4.3235  -3.9804  -3.9635  -3.7480  -3.6741
    -3.6344  -3.6272  -3.4998  -3.4019  -3.3777  -3.2499  -3.2436  -3.2350
    -3.1377  -2.9435  -2.8209  -2.8117  -2.8007  -2.7859  -2.7315  -2.6986
    -2.6708  -2.6373  -2.6335  -2.6117  -2.5515  -2.5323  -2.5215  -2.4343
    -2.4243  -2.4037  -2.3887  -2.2540  -2.2007  -2.1941  -2.1818  -2.1459
    -1.9838  -1.9047  -1.8993  -1.8456  -1.8235  -1.8053  -1.7857  -1.6902
    -1.6085  -1.5496  -1.5323  -1.5152  -1.4720  -1.4527  -1.4078  -1.2398
    -1.1460  -1.1412  -1.0819  -1.0632  -1.0321  -0.9888  -0.9627  -0.9532
    -0.9293  -0.9213  -0.8593  -0.8417  -0.8003  -0.7746  -0.7631  -0.7248
    -0.6799  -0.6712  -0.6623  -0.5979  -0.5933  -0.5753  -0.5352  -0.4898
    -0.4823  -0.4760  -0.4700  -0.3976  -0.3828  -0.3684  -0.3637  -0.3579
    -0.3155  -0.2948  -0.2611  -0.2340  -0.2128  -0.1978  -0.1797  -0.1633
    -0.1494  -0.1143  -0.1022  -0.0955  -0.0108   0.0464   0.0588   0.0805
     0.0864   0.0921   0.1008   0.1196   0.1577   0.1648   0.1802   0.1949
     0.3946   0.5024   0.5507   0.5744   0.5936   0.6008   0.6073   0.6355
     0.6372   0.7264   0.7959   0.8075   0.8892   0.9419   0.9456   0.9728
     0.9866   1.0114   1.0496   1.0647   1.0747   1.1533   1.1795   1.1916
     1.2020   1.2085   1.3147   1.4002   1.4108   1.4148   1.4326   1.4442
     1.4622   1.5198   1.5509   1.5784   1.5973   1.6049   1.6588   1.6755
     1.6827   1.6913   1.7668   1.7917   1.8109   1.8262   1.8578   1.9245
     1.9561   1.9680   1.9817   1.9917   2.0153   2.0338   2.1025   2.1110
     2.1576   2.1703   2.1810   2.1944   2.2233   2.2266   2.2365   2.2425
     2.2465   2.3062   2.3088   2.4441   2.4581   2.4736   2.4915   2.5076
     2.5082   2.5393   2.5647   2.5786   2.5910   2.6631   2.6928   2.7166
     2.7673   2.8774   2.8901   2.8989   2.9316   3.2769   3.3285   3.8400
     4.0475   4.0762   4.1859   4.9869   5.3924   5.4953   6.1372   6.2130
     6.2391   6.3379   6.5862   7.0054   7.1730   7.3441   7.5333   7.5777
     7.6384

          k = 0.2000 0.1155 0.0000 ( 42996 PWs)   bands (ev):

    -6.1633  -5.0628  -4.4684  -4.2787  -3.9821  -3.9722  -3.7482  -3.6759
    -3.6287  -3.6281  -3.5338  -3.4036  -3.3024  -3.2506  -3.2430  -3.2376
    -3.1824  -2.9410  -2.8181  -2.8157  -2.7978  -2.7477  -2.7304  -2.6977
    -2.6689  -2.6454  -2.6404  -2.6309  -2.5306  -2.5294  -2.5054  -2.4295
    -2.4223  -2.3959  -2.3866  -2.2386  -2.2002  -2.1888  -2.1883  -2.1573
    -1.9722  -1.9030  -1.9007  -1.8447  -1.8214  -1.8150  -1.7896  -1.7016
    -1.6121  -1.5498  -1.5329  -1.5244  -1.4685  -1.4488  -1.3892  -1.2386
    -1.1451  -1.1397  -1.0776  -1.0689  -1.0353  -0.9880  -0.9669  -0.9503
    -0.9294  -0.9192  -0.8735  -0.8446  -0.7900  -0.7786  -0.7663  -0.7347
    -0.6801  -0.6726  -0.6639  -0.5981  -0.5899  -0.5772  -0.5351  -0.4855
    -0.4787  -0.4773  -0.4731  -0.3916  -0.3870  -0.3677  -0.3620  -0.3581
    -0.3049  -0.3029  -0.2574  -0.2358  -0.2135  -0.2005  -0.1935  -0.1591
    -0.1582  -0.1181  -0.1018  -0.0902  -0.0148   0.0507   0.0596   0.0682
     0.0806   0.0927   0.1051   0.1083   0.1496   0.1688   0.1744   0.1880
     0.4059   0.4988   0.5411   0.5793   0.5964   0.5997   0.6040   0.6330
     0.6468   0.6855   0.7817   0.8053   0.8929   0.9372   0.9463   0.9754
     0.9841   0.9992   1.0463   1.0655   1.0658   1.1562   1.1875   1.1931
     1.2059   1.2106   1.3799   1.3905   1.4099   1.4259   1.4270   1.4463
     1.4606   1.5301   1.5430   1.5627   1.5998   1.6012   1.6544   1.6680
     1.6838   1.6842   1.7629   1.7838   1.8169   1.8269   1.8743   1.9242
     1.9269   1.9623   1.9800   1.9810   2.0234   2.0363   2.0987   2.1120
     2.1659   2.1699   2.1840   2.2124   2.2174   2.2321   2.2357   2.2437
     2.2450   2.3049   2.3109   2.4499   2.4604   2.4682   2.4976   2.5086
     2.5123   2.5380   2.5733   2.5755   2.5913   2.6834   2.6891   2.7157
     2.7712   2.8798   2.8862   2.8973   2.9364   3.2815   3.3172   3.8542
     4.0374   4.0760   4.1921   4.9615   5.4469   5.4903   6.1067   6.2138
     6.2656   6.3291   6.5466   6.9950   7.1752   7.3355   7.5532   7.5834
     7.6374

          k = 0.2000 0.3464 0.0000 ( 43046 PWs)   bands (ev):

    -5.8791  -4.8845  -4.6312  -4.6177  -4.2039  -3.5499  -3.5472  -3.5412
    -3.5238  -3.4831  -3.4810  -3.4640  -3.3648  -3.3570  -3.1716  -2.9823
    -2.9718  -2.9624  -2.9597  -2.8954  -2.8724  -2.7433  -2.7261  -2.7160
    -2.7089  -2.6363  -2.6167  -2.5734  -2.5625  -2.5541  -2.4915  -2.4791
    -2.4572  -2.4072  -2.3962  -2.3138  -2.1379  -2.0623  -1.9735  -1.9645
    -1.9329  -1.9180  -1.9060  -1.8993  -1.8431  -1.8193  -1.7686  -1.6812
    -1.6702  -1.5804  -1.5755  -1.5461  -1.4963  -1.4877  -1.4316  -1.3937
    -1.3739  -1.2331  -1.2096  -1.1929  -1.1310  -1.1179  -1.0905  -1.0836
    -1.0655  -1.0133  -0.9806  -0.8622  -0.8494  -0.8377  -0.8308  -0.7854
    -0.7739  -0.7257  -0.7048  -0.6865  -0.6350  -0.5692  -0.5546  -0.5330
    -0.5183  -0.5095  -0.5016  -0.4741  -0.4567  -0.4409  -0.4002  -0.3865
    -0.3589  -0.3512  -0.2718  -0.2663  -0.2344  -0.2075  -0.1788  -0.1726
    -0.1474  -0.1244  -0.1070  -0.0986  -0.0976  -0.0846  -0.0717  -0.0557
    -0.0156  -0.0024   0.0844   0.1057   0.1484   0.2103   0.2285   0.2332
     0.2494   0.4227   0.4380   0.4677   0.5616   0.5733   0.6124   0.6179
     0.6435   0.6499   0.6873   0.6947   0.7269   0.7353   0.7567   0.8256
     0.9285   0.9643   0.9989   1.0113   1.0402   1.0594   1.0865   1.1336
     1.1958   1.2397   1.2512   1.2856   1.3199   1.3583   1.3976   1.4399
     1.4498   1.4667   1.5262   1.5348   1.5464   1.5643   1.5696   1.5839
     1.5950   1.6020   1.6148   1.7002   1.7711   1.8038   1.9250   1.9437
     1.9659   2.0991   2.1025   2.1208   2.1280   2.2042   2.2301   2.2503
     2.2599   2.2788   2.3003   2.3135   2.3271   2.3336   2.3458   2.3849
     2.4003   2.4130   2.4873   2.5126   2.5185   2.5453   2.5528   2.5998
     2.7179   2.7486   2.7840   2.8070   2.8589   2.8671   2.8754   2.9705
     3.0187   3.3550   3.5333   3.5522   3.9381   4.0848   4.0936   4.1021
     4.5945   4.7900   4.8173   4.9794   5.0151   5.0619   5.6616   6.1075
     6.2105   6.2208   6.4013   6.6663   6.9236   6.9850   7.0078   7.0255
     7.4077

          k = 0.2000-0.5774 0.0000 ( 43014 PWs)   bands (ev):

    -5.3651  -5.3240  -4.7779  -4.5442  -4.0869  -3.8589  -3.5461  -3.4845
    -3.4106  -3.3743  -3.2632  -3.2550  -3.1597  -3.1544  -3.0595  -3.0334
    -3.0225  -2.9993  -2.9957  -2.9783  -2.8624  -2.8289  -2.8212  -2.7922
    -2.7789  -2.7724  -2.7037  -2.6127  -2.5654  -2.4604  -2.4316  -2.4252
    -2.4087  -2.3934  -2.3494  -2.2945  -2.1836  -2.1727  -2.0910  -1.9955
    -1.9841  -1.9137  -1.8463  -1.8195  -1.7904  -1.7358  -1.6606  -1.6211
    -1.5870  -1.5653  -1.5450  -1.5127  -1.5006  -1.4624  -1.3848  -1.3727
    -1.3532  -1.3479  -1.3395  -1.3316  -1.2754  -1.2632  -1.2498  -1.1383
    -1.1178  -1.0654  -1.0373  -0.9640  -0.9198  -0.9058  -0.8801  -0.8512
    -0.8243  -0.8140  -0.7504  -0.7448  -0.7189  -0.6951  -0.6622  -0.6094
    -0.5960  -0.5388  -0.5069  -0.4924  -0.4834  -0.4766  -0.4018  -0.3450
    -0.3030  -0.2979  -0.2803  -0.2473  -0.2240  -0.2217  -0.2136  -0.1817
    -0.1731  -0.1578  -0.1353  -0.0973  -0.0799  -0.0718  -0.0657  -0.0561
    -0.0511  -0.0316   0.0081   0.0307   0.0480   0.2292   0.2646   0.3352
     0.3539   0.4005   0.4497   0.4700   0.4858   0.5122   0.5503   0.5666
     0.5678   0.5812   0.6384   0.6857   0.7033   0.7198   0.7692   0.7803
     0.8407   0.8545   0.8990   1.0072   1.0379   1.0993   1.1215   1.1382
     1.1824   1.2075   1.2343   1.2547   1.2637   1.2741   1.2918   1.3038
     1.4005   1.4295   1.4347   1.4737   1.4933   1.5105   1.5255   1.5445
     1.5515   1.6881   1.7266   1.7758   1.8426   1.8648   1.9480   1.9580
     1.9967   2.0658   2.0776   2.0903   2.1758   2.1782   2.2589   2.2722
     2.3004   2.3085   2.3130   2.3433   2.3585   2.3969   2.4681   2.4715
     2.4919   2.5076   2.5199   2.5248   2.5328   2.5997   2.6996   2.7329
     2.7363   2.7448   2.7497   2.8099   2.8513   2.9330   3.0466   3.7701
     3.8973   3.9191   4.0890   4.1514   4.2234   4.2771   4.2942   4.6365
     4.8743   4.9049   5.0975   5.3564   5.3725   5.4618   5.4943   5.6553
     5.7727   5.8465   5.8911   6.1623   6.2889   6.3314   6.7855   6.9671
     6.9892

          k = 0.2000-0.3464 0.0000 ( 43046 PWs)   bands (ev):

    -5.8763  -4.8571  -4.6339  -4.6178  -4.2049  -3.5483  -3.5451  -3.5420
    -3.5311  -3.4877  -3.4814  -3.4590  -3.3630  -3.3570  -3.1987  -2.9751
    -2.9654  -2.9622  -2.9515  -2.8962  -2.8696  -2.7390  -2.7278  -2.7122
    -2.7082  -2.6757  -2.6141  -2.5751  -2.5622  -2.5489  -2.5139  -2.4803
    -2.4582  -2.4196  -2.3997  -2.3131  -2.2369  -2.0576  -1.9697  -1.9662
    -1.9258  -1.9194  -1.9024  -1.8969  -1.8419  -1.8166  -1.7672  -1.6821
    -1.6677  -1.5870  -1.5520  -1.5222  -1.4998  -1.4892  -1.4144  -1.4014
    -1.3924  -1.2246  -1.2025  -1.1982  -1.1259  -1.1197  -1.0905  -1.0795
    -1.0629  -1.0102  -0.9869  -0.8537  -0.8395  -0.8369  -0.8253  -0.7935
    -0.7730  -0.7240  -0.6979  -0.6885  -0.6282  -0.5678  -0.5525  -0.5296
    -0.5232  -0.5094  -0.5030  -0.4692  -0.4442  -0.4331  -0.3920  -0.3816
    -0.3617  -0.3239  -0.2704  -0.2547  -0.2376  -0.2085  -0.1815  -0.1676
    -0.1607  -0.1174  -0.1040  -0.0938  -0.0881  -0.0817  -0.0756  -0.0616
    -0.0296   0.0076   0.0905   0.1252   0.1463   0.1976   0.2299   0.2345
     0.2500   0.4213   0.4370   0.5075   0.5534   0.5772   0.6083   0.6177
     0.6292   0.6534   0.6713   0.7036   0.7255   0.7378   0.7608   0.8294
     0.8971   0.9669   1.0039   1.0073   1.0314   1.0631   1.0993   1.1318
     1.2000   1.2270   1.2424   1.2600   1.3235   1.3446   1.3949   1.4510
     1.4628   1.4725   1.5175   1.5305   1.5520   1.5613   1.5692   1.5884
     1.5952   1.6022   1.6199   1.7207   1.7761   1.8078   1.9328   1.9393
     1.9639   2.0787   2.1180   2.1242   2.1264   2.2090   2.2197   2.2514
     2.2648   2.2829   2.2970   2.3128   2.3292   2.3335   2.3447   2.3845
     2.4043   2.4143   2.4844   2.5108   2.5176   2.5448   2.5562   2.5986
     2.7296   2.7651   2.7890   2.8023   2.8605   2.8685   2.8776   2.9845
     3.0201   3.3180   3.5087   3.5575   3.9004   4.0875   4.0951   4.1085
     4.5982   4.7945   4.8108   4.9530   5.0089   5.0669   5.6387   6.0759
     6.2063   6.2468   6.4329   6.7222   6.9387   6.9776   7.0114   7.0170
     7.0517

          k = 0.4000-0.2309 0.0000 ( 43046 PWs)   bands (ev):

    -5.7402  -5.1106  -4.7310  -4.2209  -4.0145  -3.9948  -3.7936  -3.6362
    -3.4920  -3.3644  -3.2915  -3.2859  -3.2299  -3.1241  -3.0769  -3.0654
    -3.0600  -3.0468  -2.9133  -2.8998  -2.8867  -2.8533  -2.8447  -2.8128
    -2.7415  -2.7158  -2.7107  -2.6413  -2.4568  -2.4504  -2.4435  -2.4342
    -2.4275  -2.3393  -2.2052  -2.1934  -2.1726  -2.1490  -2.1407  -2.0505
    -1.9407  -1.8725  -1.8629  -1.8441  -1.8107  -1.7888  -1.7435  -1.7192
    -1.7097  -1.6804  -1.6448  -1.5435  -1.5022  -1.4963  -1.4649  -1.3988
    -1.3425  -1.3132  -1.2816  -1.2693  -1.2456  -1.1216  -1.0628  -1.0573
    -1.0473  -1.0343  -0.9537  -0.9355  -0.9063  -0.8162  -0.8090  -0.8054
    -0.7410  -0.6880  -0.6847  -0.6637  -0.6583  -0.6093  -0.5821  -0.5787
    -0.5612  -0.5528  -0.5421  -0.5372  -0.5304  -0.5022  -0.4217  -0.4032
    -0.3969  -0.3718  -0.3694  -0.3599  -0.3267  -0.2277  -0.2139  -0.1784
    -0.1529  -0.1423  -0.1154  -0.0905  -0.0652  -0.0581   0.0252   0.0644
     0.0872   0.1159   0.1396   0.1641   0.1906   0.3200   0.3442   0.4093
     0.4269   0.4806   0.4927   0.5216   0.5336   0.5378   0.5412   0.5887
     0.6178   0.6436   0.6556   0.6604   0.6900   0.7059   0.7093   0.7393
     0.7527   0.8568   0.8795   0.8996   0.9607   0.9847   1.0742   1.0781
     1.1746   1.1919   1.2343   1.2860   1.3535   1.3643   1.4078   1.4198
     1.4515   1.4645   1.4889   1.5177   1.5631   1.5720   1.6168   1.6617
     1.6773   1.7145   1.7311   1.7363   1.7516   1.7993   1.8844   1.9256
     1.9894   2.0104   2.0214   2.0289   2.0724   2.1284   2.1383   2.1968
     2.2147   2.2292   2.2390   2.2846   2.3176   2.3325   2.3429   2.4545
     2.4614   2.4779   2.4896   2.4942   2.4987   2.5196   2.5233   2.7023
     2.7254   2.7345   2.7425   2.7485   2.9052   2.9562   3.2003   3.3351
     3.3821   3.5729   3.7768   3.7876   4.0667   4.1688   4.2872   4.4788
     4.7686   4.9998   5.0043   5.0996   5.2152   5.2547   5.3536   5.3929
     5.6017   5.6535   6.1970   6.2871   6.7015   6.8187   7.1706   7.3016
     7.7392

          k = 0.4000-0.0000 0.0000 ( 43046 PWs)   bands (ev):

    -5.8791  -4.8845  -4.6313  -4.6177  -4.2039  -3.5501  -3.5473  -3.5413
    -3.5238  -3.4829  -3.4810  -3.4637  -3.3648  -3.3570  -3.1716  -2.9827
    -2.9720  -2.9624  -2.9597  -2.8957  -2.8723  -2.7432  -2.7261  -2.7160
    -2.7089  -2.6362  -2.6163  -2.5732  -2.5624  -2.5541  -2.4916  -2.4790
    -2.4574  -2.4072  -2.3961  -2.3142  -2.1379  -2.0622  -1.9733  -1.9644
    -1.9329  -1.9178  -1.9060  -1.8992  -1.8431  -1.8193  -1.7686  -1.6811
    -1.6701  -1.5802  -1.5755  -1.5462  -1.4961  -1.4878  -1.4317  -1.3937
    -1.3739  -1.2329  -1.2095  -1.1927  -1.1305  -1.1175  -1.0905  -1.0836
    -1.0653  -1.0133  -0.9806  -0.8622  -0.8498  -0.8379  -0.8311  -0.7853
    -0.7742  -0.7256  -0.7049  -0.6867  -0.6351  -0.5689  -0.5546  -0.5329
    -0.5183  -0.5093  -0.5017  -0.4741  -0.4571  -0.4406  -0.4005  -0.3870
    -0.3592  -0.3515  -0.2718  -0.2663  -0.2343  -0.2077  -0.1789  -0.1728
    -0.1477  -0.1243  -0.1070  -0.0983  -0.0975  -0.0845  -0.0717  -0.0558
    -0.0156  -0.0024   0.0844   0.1057   0.1485   0.2102   0.2281   0.2331
     0.2493   0.4228   0.4381   0.4676   0.5612   0.5733   0.6122   0.6176
     0.6437   0.6499   0.6875   0.6948   0.7270   0.7351   0.7566   0.8263
     0.9281   0.9642   0.9988   1.0114   1.0401   1.0594   1.0864   1.1335
     1.1958   1.2396   1.2511   1.2855   1.3199   1.3582   1.3975   1.4400
     1.4499   1.4667   1.5263   1.5349   1.5464   1.5644   1.5698   1.5840
     1.5951   1.6020   1.6151   1.7000   1.7711   1.8039   1.9249   1.9436
     1.9659   2.0991   2.1025   2.1208   2.1281   2.2041   2.2300   2.2505
     2.2601   2.2788   2.3002   2.3134   2.3270   2.3334   2.3455   2.3848
     2.4004   2.4133   2.4870   2.5124   2.5185   2.5453   2.5529   2.5997
     2.7183   2.7490   2.7844   2.8073   2.8590   2.8673   2.8754   2.9704
     3.0186   3.3547   3.5331   3.5520   3.9383   4.0850   4.0940   4.1023
     4.5945   4.7898   4.8172   4.9793   5.0152   5.0619   5.6616   6.1079
     6.2106   6.2210   6.4012   6.6661   6.9234   6.9835   7.0070   7.0247
     7.0507

          k = 0.4000 0.2309 0.0000 ( 43046 PWs)   bands (ev):

    -5.7449  -5.1299  -4.7503  -4.2159  -4.0167  -4.0075  -3.7814  -3.6231
    -3.4908  -3.3633  -3.2874  -3.2859  -3.2114  -3.1205  -3.0953  -3.0690
    -3.0679  -3.0548  -2.9137  -2.9014  -2.8952  -2.8542  -2.8456  -2.8016
    -2.7382  -2.7141  -2.7121  -2.4998  -2.4563  -2.4510  -2.4449  -2.4294
    -2.4265  -2.2954  -2.2031  -2.1910  -2.1732  -2.1414  -2.1413  -2.0478
    -1.9395  -1.8668  -1.8640  -1.8478  -1.8242  -1.7883  -1.7571  -1.7144
    -1.7111  -1.6797  -1.6435  -1.5598  -1.5046  -1.4948  -1.4653  -1.4251
    -1.3390  -1.3089  -1.2757  -1.2719  -1.2421  -1.1197  -1.0741  -1.0510
    -1.0504  -1.0299  -0.9435  -0.9379  -0.9260  -0.8264  -0.8075  -0.8059
    -0.7561  -0.6906  -0.6866  -0.6605  -0.6601  -0.6220  -0.5958  -0.5701
    -0.5646  -0.5501  -0.5448  -0.5405  -0.5290  -0.4984  -0.4024  -0.3974
    -0.3919  -0.3816  -0.3705  -0.3573  -0.3281  -0.2844  -0.2168  -0.1942
    -0.1569  -0.1312  -0.1072  -0.0909  -0.0820  -0.0656   0.0205   0.0544
     0.0867   0.0926   0.1492   0.1502   0.1776   0.3145   0.3514   0.3848
     0.4198   0.4681   0.5087   0.5158   0.5342   0.5416   0.5477   0.5698
     0.6121   0.6449   0.6520   0.6725   0.6759   0.7044   0.7180   0.7438
     0.7664   0.8548   0.8743   0.8889   0.9634   1.0038   1.0805   1.0812
     1.1842   1.2003   1.2432   1.2923   1.3488   1.3695   1.3878   1.4227
     1.4572   1.4606   1.4964   1.5168   1.5559   1.5714   1.6066   1.6655
     1.6680   1.7060   1.7240   1.7419   1.7462   1.8132   1.8746   1.9098
     1.9625   2.0049   2.0066   2.0340   2.0876   2.1236   2.1355   2.2135
     2.2204   2.2316   2.2349   2.2952   2.3195   2.3301   2.3426   2.4526
     2.4645   2.4798   2.4860   2.4935   2.4986   2.5215   2.5241   2.7034
     2.7282   2.7359   2.7428   2.7440   2.9087   2.9567   3.2442   3.3252
     3.3966   3.5549   3.7840   3.7858   4.0857   4.1710   4.2841   4.5063
     4.8129   5.0019   5.0030   5.0810   5.2170   5.2422   5.3805   5.3929
     5.5989   5.6556   6.1739   6.2971   6.6762   6.8108   7.2116   7.2869
     7.7714

          k = 0.4000-0.6928 0.0000 ( 43014 PWs)   bands (ev):

    -5.3774  -5.3263  -4.7568  -4.5905  -4.0838  -3.8277  -3.5541  -3.4899
    -3.4076  -3.3762  -3.2660  -3.2586  -3.1610  -3.1543  -3.0590  -3.0351
    -3.0182  -2.9996  -2.9939  -2.9785  -2.8507  -2.8294  -2.8189  -2.7980
    -2.7840  -2.7795  -2.6758  -2.5871  -2.5579  -2.4410  -2.4242  -2.4174
    -2.4108  -2.3834  -2.3407  -2.2859  -2.1839  -2.1800  -2.0740  -1.9949
    -1.9811  -1.9250  -1.8463  -1.8068  -1.7842  -1.7501  -1.6591  -1.6219
    -1.5989  -1.5663  -1.5507  -1.5126  -1.4896  -1.4454  -1.3866  -1.3843
    -1.3632  -1.3463  -1.3359  -1.3277  -1.2937  -1.2595  -1.2379  -1.1422
    -1.1226  -1.0710  -1.0359  -0.9695  -0.9166  -0.9077  -0.8933  -0.8492
    -0.8311  -0.8197  -0.7602  -0.7453  -0.7212  -0.6965  -0.6623  -0.6211
    -0.5860  -0.5385  -0.5280  -0.4871  -0.4807  -0.4756  -0.4193  -0.3507
    -0.3083  -0.3013  -0.2771  -0.2678  -0.2237  -0.2188  -0.2080  -0.1875
    -0.1756  -0.1688  -0.1350  -0.0913  -0.0849  -0.0751  -0.0671  -0.0586
    -0.0478  -0.0339  -0.0139   0.0374   0.0474   0.2333   0.2575   0.3382
     0.3591   0.4212   0.4550   0.4633   0.4911   0.5079   0.5525   0.5699
     0.5747   0.5854   0.6414   0.6872   0.7045   0.7352   0.7668   0.7772
     0.8375   0.8539   0.8785   0.9590   1.0471   1.1093   1.1131   1.1431
     1.1891   1.2139   1.2299   1.2475   1.2669   1.2686   1.2937   1.3044
     1.3968   1.4372   1.4392   1.4814   1.4876   1.4999   1.5235   1.5358
     1.5509   1.7034   1.7408   1.7720   1.8199   1.8742   1.9472   1.9600
     2.0201   2.0622   2.0729   2.0924   2.1649   2.1919   2.2569   2.2824
     2.2890   2.3064   2.3120   2.3346   2.3597   2.3960   2.4680   2.4715
     2.4967   2.5070   2.5178   2.5257   2.5331   2.5994   2.7072   2.7290
     2.7409   2.7437   2.7456   2.8089   2.8473   2.9232   3.0171   3.8024
     3.8960   3.9168   4.1030   4.1455   4.2573   4.2762   4.2977   4.6512
     4.8576   4.9109   5.1435   5.3530   5.3786   5.4383   5.5056   5.6837
     5.7633   5.8196   5.9035   6.1542   6.2531   6.3464   6.7989   6.9425
     6.9902

          k = 0.4000-0.4619 0.0000 ( 43014 PWs)   bands (ev):

    -5.3651  -5.3240  -4.7779  -4.5442  -4.0869  -3.8590  -3.5464  -3.4845
    -3.4105  -3.3743  -3.2630  -3.2550  -3.1598  -3.1545  -3.0596  -3.0333
    -3.0225  -2.9993  -2.9956  -2.9782  -2.8627  -2.8290  -2.8212  -2.7923
    -2.7790  -2.7725  -2.7037  -2.6127  -2.5653  -2.4603  -2.4315  -2.4253
    -2.4087  -2.3931  -2.3493  -2.2944  -2.1834  -2.1725  -2.0909  -1.9958
    -1.9839  -1.9137  -1.8463  -1.8195  -1.7904  -1.7359  -1.6609  -1.6212
    -1.5872  -1.5652  -1.5449  -1.5121  -1.5003  -1.4623  -1.3847  -1.3727
    -1.3532  -1.3476  -1.3395  -1.3316  -1.2754  -1.2633  -1.2499  -1.1382
    -1.1179  -1.0653  -1.0371  -0.9641  -0.9191  -0.9061  -0.8804  -0.8511
    -0.8250  -0.8145  -0.7503  -0.7448  -0.7189  -0.6951  -0.6622  -0.6092
    -0.5958  -0.5391  -0.5066  -0.4921  -0.4834  -0.4766  -0.4017  -0.3456
    -0.3032  -0.2975  -0.2801  -0.2471  -0.2241  -0.2218  -0.2138  -0.1822
    -0.1736  -0.1581  -0.1356  -0.0964  -0.0800  -0.0720  -0.0660  -0.0562
    -0.0511  -0.0312   0.0078   0.0305   0.0480   0.2291   0.2641   0.3352
     0.3540   0.4005   0.4497   0.4700   0.4859   0.5125   0.5502   0.5666
     0.5678   0.5817   0.6385   0.6858   0.7032   0.7195   0.7691   0.7805
     0.8407   0.8543   0.8985   1.0072   1.0379   1.0993   1.1217   1.1384
     1.1824   1.2075   1.2343   1.2547   1.2636   1.2742   1.2918   1.3038
     1.4006   1.4297   1.4349   1.4738   1.4933   1.5105   1.5255   1.5444
     1.5512   1.6882   1.7263   1.7755   1.8426   1.8648   1.9481   1.9582
     1.9968   2.0657   2.0777   2.0904   2.1757   2.1781   2.2588   2.2720
     2.3003   2.3083   2.3128   2.3434   2.3585   2.3972   2.4681   2.4716
     2.4916   2.5076   2.5198   2.5247   2.5329   2.5996   2.6996   2.7333
     2.7365   2.7452   2.7499   2.8099   2.8517   2.9330   3.0465   3.7700
     3.8973   3.9190   4.0888   4.1517   4.2233   4.2770   4.2939   4.6369
     4.8744   4.9049   5.0976   5.3563   5.3725   5.4617   5.4944   5.6566
     5.7728   5.8464   5.8907   6.1626   6.2887   6.3313   6.7859   6.9663
     6.9890

     the Fermi energy is     2.5131 ev

!    total energy              =  -27755.48721586 Ry
     total all-electron energy =  -1326642.252633 Ry
     estimated scf accuracy    <       0.00000066 Ry
     smearing contrib. (-TS)   =       0.00324423 Ry
     internal energy E=F+TS    =  -27755.49046009 Ry

     The total energy is F=E-TS. E is the sum of the following terms:
     one-electron contribution =  -20683.66446739 Ry
     hartree contribution      =   10648.97513963 Ry
     xc contribution           =    -890.72165871 Ry
     ewald contribution        =    8643.90175044 Ry
     one-center paw contrib.   =  -25473.98122407 Ry

     convergence has been achieved in  16 iterations

     negative rho (up, down):  3.152E-03 0.000E+00

     Forces acting on atoms (cartesian axes, Ry/au):

     atom    1 type  1   force =    -0.00014459   -0.00009301   -0.00313937
     atom    2 type  1   force =     0.00023462   -0.00006334   -0.00302819
     atom    3 type  1   force =    -0.00002201    0.00094142   -0.00364486
     atom    4 type  1   force =     0.00005961    0.00023312   -0.00301257
     atom    5 type  1   force =    -0.00015611   -0.00008911   -0.00351531
     atom    6 type  1   force =    -0.00006732   -0.00012560   -0.00348288
     atom    7 type  1   force =     0.00082216   -0.00052305   -0.00364158
     atom    8 type  1   force =    -0.00015345   -0.00002034   -0.00349335
     atom    9 type  1   force =    -0.00003365   -0.00004694   -0.00292873
     atom   10 type  1   force =     0.00012121    0.00010689    0.00640032
     atom   11 type  1   force =    -0.00040816   -0.00118914    0.00400540
     atom   12 type  1   force =     0.00036882   -0.00037421    0.00239881
     atom   13 type  1   force =    -0.00127580    0.00029082    0.00398697
     atom   14 type  1   force =    -0.00000005    0.00003010    0.00217054
     atom   15 type  1   force =     0.00106244    0.00018732    0.00452521
     atom   16 type  1   force =    -0.00017671    0.00053462    0.00238888
     atom   17 type  1   force =     0.00066586    0.00085476    0.00453921
     atom   18 type  1   force =     0.00013891    0.00008098    0.00028553
     atom   19 type  1   force =     0.00002110   -0.00001558   -0.00001835
     atom   20 type  1   force =     0.00000229   -0.00000555    0.00000331
     atom   21 type  1   force =    -0.00003444    0.00002432   -0.00003667
     atom   22 type  1   force =     0.00001045    0.00001065   -0.00007440
     atom   23 type  1   force =     0.00000876   -0.00004489   -0.00003951
     atom   24 type  1   force =     0.00004853    0.00002282   -0.00005003
     atom   25 type  1   force =     0.00003947    0.00001912   -0.00002453
     atom   26 type  1   force =    -0.00000145    0.00002997   -0.00002222
     atom   27 type  1   force =     0.00002294    0.00000004   -0.00007561
     atom   28 type  1   force =     0.00007931    0.00003871    0.00011854
     atom   29 type  1   force =    -0.00001679   -0.00003964    0.00002423
     atom   30 type  1   force =     0.00000947    0.00003810   -0.00005486
     atom   31 type  1   force =    -0.00003846   -0.00000154    0.00002785
     atom   32 type  1   force =    -0.00002840   -0.00003464    0.00007882
     atom   33 type  1   force =    -0.00002470   -0.00007225   -0.00008859
     atom   34 type  1   force =     0.00005379   -0.00002086   -0.00005204
     atom   35 type  1   force =    -0.00006835   -0.00000623   -0.00009618
     atom   36 type  1   force =     0.00005304    0.00001539   -0.00003904
     atom   37 type  2   force =    -0.00117235   -0.00069321   -0.00039478
     The non-local contrib.  to forces
     atom    1 type  1   force =     0.00021093    0.00012951   -0.01776513
     atom    2 type  1   force =    -0.00065424    0.00044640   -0.01823454
     atom    3 type  1   force =     0.00059850   -0.00088997   -0.01857823
     atom    4 type  1   force =     0.00004307   -0.00077283   -0.01822337
     atom    5 type  1   force =    -0.00004391   -0.00001072   -0.01780805
     atom    6 type  1   force =    -0.00008044    0.00018852   -0.01810295
     atom    7 type  1   force =    -0.00046378    0.00095665   -0.01858200
     atom    8 type  1   force =     0.00009937   -0.00016903   -0.01811292
     atom    9 type  1   force =     0.00001280   -0.00000490   -0.01876200
     atom   10 type  1   force =    -0.00020918   -0.00007698    0.00014909
     atom   11 type  1   force =    -0.00074419    0.00066065    0.00056633
     atom   12 type  1   force =     0.00118156    0.00085221   -0.00008238
     atom   13 type  1   force =     0.00015658   -0.00091238    0.00056235
     atom   14 type  1   force =     0.00023745    0.00018065   -0.00092743
     atom   15 type  1   force =    -0.00044702   -0.00048068    0.00022832
     atom   16 type  1   force =     0.00128781    0.00062814   -0.00008354
     atom   17 type  1   force =    -0.00067353   -0.00011022    0.00023836
     atom   18 type  1   force =    -0.00103116   -0.00059596    0.00005281
     atom   19 type  1   force =    -0.00222838   -0.00011488    0.00179443
     atom   20 type  1   force =     0.00109742    0.00063466    0.00444236
     atom   21 type  1   force =     0.00077699    0.00100794    0.00235030
     atom   22 type  1   force =     0.00068035    0.00306620   -0.00119942
     atom   23 type  1   force =     0.00125297    0.00017646    0.00234555
     atom   24 type  1   force =    -0.00124477   -0.00071334    0.00266667
     atom   25 type  1   force =    -0.00013475   -0.00008123    0.00294007
     atom   26 type  1   force =    -0.00122179   -0.00186379    0.00178834
     atom   27 type  1   force =     0.00301026   -0.00095814   -0.00120406
     atom   28 type  1   force =     0.04290128    0.02472893    0.03075492
     atom   29 type  1   force =    -0.02405693    0.02115370   -0.00114451
     atom   30 type  1   force =     0.00062952   -0.00056192    0.01518009
     atom   31 type  1   force =     0.00632546   -0.03144252   -0.00115168
     atom   32 type  1   force =    -0.01070646   -0.00623233    0.02150608
     atom   33 type  1   force =     0.00128676   -0.00073080    0.01684089
     atom   34 type  1   force =    -0.00013030    0.00077620    0.01516235
     atom   35 type  1   force =     0.00003994    0.00141528    0.01683449
     atom   36 type  1   force =    -0.00043542   -0.00029430    0.01639890
     atom   37 type  2   force =     0.00553869    0.00319678   -0.02096907
     The ionic contribution  to forces
     atom    1 type  1   force =     0.00657503    0.00381608  -93.41544874
     atom    2 type  1   force =    -0.00105485    0.00408164  -93.40596352
     atom    3 type  1   force =    -0.00556293   -0.00477443  -93.41847605
     atom    4 type  1   force =     0.00298988   -0.00299691  -93.40602575
     atom    5 type  1   force =    -0.01057352   -0.00616413  -93.41995022
     atom    6 type  1   force =     0.00759972   -0.00187106  -93.42554734
     atom    7 type  1   force =    -0.00693968   -0.00238162  -93.41857652
     atom    8 type  1   force =     0.00223131    0.00752939  -93.42558822
     atom    9 type  1   force =     0.00472573    0.00276368  -93.41307474
     atom   10 type  1   force =     0.03096800    0.01798148  -31.47652864
     atom   11 type  1   force =    -0.07714890   -0.01996697  -31.50907217
     atom   12 type  1   force =     0.05127532    0.00105340  -31.56630190
     atom   13 type  1   force =    -0.05611426   -0.05670761  -31.50967119
     atom   14 type  1   force =    -0.00481023   -0.00283715  -31.61903129
     atom   15 type  1   force =     0.05943343   -0.01250556  -31.53933015
     atom   16 type  1   force =     0.02641670    0.04488255  -31.56674702
     atom   17 type  1   force =     0.01877518    0.05848659  -31.53916804
     atom   18 type  1   force =    -0.05200843   -0.02932749  -31.48152410
     atom   19 type  1   force =     0.13276390   -0.02885003   31.25822836
     atom   20 type  1   force =    -0.09730816   -0.05719351   31.47394983
     atom   21 type  1   force =    -0.02921384   -0.05558922   30.74310191
     atom   22 type  1   force =     0.01309474    0.01224317   31.11653695
     atom   23 type  1   force =    -0.06211984    0.00212926   30.74096428
     atom   24 type  1   force =     0.04631119    0.02676017   30.80575269
     atom   25 type  1   force =    -0.04321696   -0.02405061   30.75250120
     atom   26 type  1   force =     0.04202389    0.13006138   31.25908156
     atom   27 type  1   force =     0.01730316    0.00612405   31.11726191
     atom   28 type  1   force =    -0.07285894   -0.04240543   92.39981543
     atom   29 type  1   force =     0.44835274   -0.52619252   92.77265645
     atom   30 type  1   force =     0.01719272    0.01217252   92.66090696
     atom   31 type  1   force =    -0.23139568    0.65080116   92.77177579
     atom   32 type  1   force =    -0.02884642   -0.01841963   92.40435604
     atom   33 type  1   force =     0.04945713   -0.02613145   92.61195284
     atom   34 type  1   force =     0.01873924    0.00900964   92.65969125
     atom   35 type  1   force =     0.00331861    0.05584553   92.61225748
     atom   36 type  1   force =    -0.01774719   -0.01039967   92.61041409
     atom   37 type  2   force =    -0.20262781   -0.11697671   11.78482060
     The local contribution  to forces
     atom    1 type  1   force =    -0.00699146   -0.00406509   93.41284302
     atom    2 type  1   force =     0.00199349   -0.00461541   93.40395634
     atom    3 type  1   force =     0.00496331    0.00660361   93.41616571
     atom    4 type  1   force =    -0.00297707    0.00399755   93.40400605
     atom    5 type  1   force =     0.01052949    0.00605489   93.41708459
     atom    6 type  1   force =    -0.00762526    0.00155325   93.42296443
     atom    7 type  1   force =     0.00822065    0.00098634   93.41624791
     atom    8 type  1   force =    -0.00244550   -0.00738504   93.42299847
     atom    9 type  1   force =    -0.00471062   -0.00271413   93.41171423
     atom   10 type  1   force =    -0.03050220   -0.01775388   31.48233628
     atom   11 type  1   force =     0.07748761    0.01808789   31.51200274
     atom   12 type  1   force =    -0.05221728   -0.00232734   31.56794385
     atom   13 type  1   force =     0.05467091    0.05786739   31.51260969
     atom   14 type  1   force =     0.00446206    0.00256868   31.62122297
     atom   15 type  1   force =    -0.05783885    0.01317494   31.54288887
     atom   16 type  1   force =    -0.02795619   -0.04498734   31.56837762
     atom   17 type  1   force =    -0.01736597   -0.05739370   31.54270734
     atom   18 type  1   force =     0.05312398    0.03004610   31.48143075
     atom   19 type  1   force =    -0.13037554    0.02889033  -31.25707206
     atom   20 type  1   force =     0.09630654    0.05656377  -31.47534367
     atom   21 type  1   force =     0.02823593    0.05449761  -30.74301402
     atom   22 type  1   force =    -0.01356411   -0.01509433  -31.11287792
     atom   23 type  1   force =     0.06072259   -0.00247486  -30.74085749
     atom   24 type  1   force =    -0.04507313   -0.02607400  -30.80595931
     atom   25 type  1   force =     0.04302637    0.02399088  -30.75313061
     atom   26 type  1   force =    -0.04075047   -0.12797299  -31.25792727
     atom   27 type  1   force =    -0.02000793   -0.00504592  -31.11361954
     atom   28 type  1   force =     0.02970199    0.01753526  -92.41528171
     atom   29 type  1   force =    -0.41902674    0.49968587  -92.76073793
     atom   30 type  1   force =    -0.01807909   -0.01140579  -92.65949404
     atom   31 type  1   force =     0.22306098   -0.61214082  -92.75983779
     atom   32 type  1   force =     0.03869127    0.02408713  -92.40942334
     atom   33 type  1   force =    -0.05024121    0.02658463  -92.61223159
     atom   34 type  1   force =    -0.01857694   -0.01009814  -92.65823563
     atom   35 type  1   force =    -0.00330120   -0.05669816  -92.61252553
     atom   36 type  1   force =     0.01816171    0.01067198  -92.61003934
     atom   37 type  2   force =     0.19592118    0.11308497  -11.76434837
     The core correction contribution to forces
     atom    1 type  1   force =    -0.00002966   -0.00001697    0.01728858
     atom    2 type  1   force =     0.00002998   -0.00002114    0.01726275
     atom    3 type  1   force =    -0.00001043   -0.00000009    0.01738529
     atom    4 type  1   force =    -0.00000317    0.00003728    0.01726296
     atom    5 type  1   force =    -0.00000394   -0.00000181    0.01729641
     atom    6 type  1   force =    -0.00001983   -0.00003318    0.01727655
     atom    7 type  1   force =    -0.00000582   -0.00000867    0.01738498
     atom    8 type  1   force =    -0.00003853   -0.00000017    0.01727673
     atom    9 type  1   force =    -0.00005138   -0.00002944    0.01724107
     atom   10 type  1   force =    -0.00007655   -0.00004505    0.00094925
     atom   11 type  1   force =     0.00012740    0.00007330    0.00109470
     atom   12 type  1   force =    -0.00006072   -0.00001685    0.00133378
     atom   13 type  1   force =     0.00012886    0.00007209    0.00109600
     atom   14 type  1   force =     0.00000634    0.00000327    0.00144718
     atom   15 type  1   force =    -0.00009809    0.00004159    0.00119297
     atom   16 type  1   force =    -0.00004420   -0.00004700    0.00133506
     atom   17 type  1   force =    -0.00001182   -0.00010783    0.00119290
     atom   18 type  1   force =     0.00011471    0.00006417    0.00081916
     atom   19 type  1   force =    -0.00021375    0.00004983   -0.00240259
     atom   20 type  1   force =     0.00014352    0.00008478   -0.00248355
     atom   21 type  1   force =     0.00000685    0.00008635   -0.00192945
     atom   22 type  1   force =    -0.00004777   -0.00016412   -0.00195150
     atom   23 type  1   force =     0.00007819   -0.00003778   -0.00192999
     atom   24 type  1   force =    -0.00002203   -0.00001361   -0.00190063
     atom   25 type  1   force =     0.00025951    0.00014729   -0.00181694
     atom   26 type  1   force =    -0.00006386   -0.00021328   -0.00240241
     atom   27 type  1   force =    -0.00016692    0.00003797   -0.00195019
     atom   28 type  1   force =     0.00020185    0.00011773   -0.01500109
     atom   29 type  1   force =    -0.00511390    0.00530178   -0.01070543
     atom   30 type  1   force =     0.00023316   -0.00011458   -0.01655380
     atom   31 type  1   force =     0.00203451   -0.00707800   -0.01070686
     atom   32 type  1   force =     0.00091164    0.00053261   -0.01629893
     atom   33 type  1   force =    -0.00067965    0.00021517   -0.01646793
     atom   34 type  1   force =     0.00001898    0.00025865   -0.01655395
     atom   35 type  1   force =    -0.00015744   -0.00069625   -0.01646766
     atom   36 type  1   force =     0.00010412    0.00006078   -0.01660837
     atom   37 type  2   force =     0.00000000    0.00000000    0.00000000
     The Hubbard contrib.    to forces
     atom    1 type  1   force =     0.00000000    0.00000000    0.00000000
     atom    2 type  1   force =     0.00000000    0.00000000    0.00000000
     atom    3 type  1   force =     0.00000000    0.00000000    0.00000000
     atom    4 type  1   force =     0.00000000    0.00000000    0.00000000
     atom    5 type  1   force =     0.00000000    0.00000000    0.00000000
     atom    6 type  1   force =     0.00000000    0.00000000    0.00000000
     atom    7 type  1   force =     0.00000000    0.00000000    0.00000000
     atom    8 type  1   force =     0.00000000    0.00000000    0.00000000
     atom    9 type  1   force =     0.00000000    0.00000000    0.00000000
     atom   10 type  1   force =     0.00000000    0.00000000    0.00000000
     atom   11 type  1   force =     0.00000000    0.00000000    0.00000000
     atom   12 type  1   force =     0.00000000    0.00000000    0.00000000
     atom   13 type  1   force =     0.00000000    0.00000000    0.00000000
     atom   14 type  1   force =     0.00000000    0.00000000    0.00000000
     atom   15 type  1   force =     0.00000000    0.00000000    0.00000000
     atom   16 type  1   force =     0.00000000    0.00000000    0.00000000
     atom   17 type  1   force =     0.00000000    0.00000000    0.00000000
     atom   18 type  1   force =     0.00000000    0.00000000    0.00000000
     atom   19 type  1   force =     0.00000000    0.00000000    0.00000000
     atom   20 type  1   force =     0.00000000    0.00000000    0.00000000
     atom   21 type  1   force =     0.00000000    0.00000000    0.00000000
     atom   22 type  1   force =     0.00000000    0.00000000    0.00000000
     atom   23 type  1   force =     0.00000000    0.00000000    0.00000000
     atom   24 type  1   force =     0.00000000    0.00000000    0.00000000
     atom   25 type  1   force =     0.00000000    0.00000000    0.00000000
     atom   26 type  1   force =     0.00000000    0.00000000    0.00000000
     atom   27 type  1   force =     0.00000000    0.00000000    0.00000000
     atom   28 type  1   force =     0.00000000    0.00000000    0.00000000
     atom   29 type  1   force =     0.00000000    0.00000000    0.00000000
     atom   30 type  1   force =     0.00000000    0.00000000    0.00000000
     atom   31 type  1   force =     0.00000000    0.00000000    0.00000000
     atom   32 type  1   force =     0.00000000    0.00000000    0.00000000
     atom   33 type  1   force =     0.00000000    0.00000000    0.00000000
     atom   34 type  1   force =     0.00000000    0.00000000    0.00000000
     atom   35 type  1   force =     0.00000000    0.00000000    0.00000000
     atom   36 type  1   force =     0.00000000    0.00000000    0.00000000
     atom   37 type  2   force =     0.00000000    0.00000000    0.00000000
     The SCF correction term to forces
     atom    1 type  1   force =     0.00000000    0.00000000   -0.00000000
     atom    2 type  1   force =    -0.00000000    0.00000000   -0.00000000
     atom    3 type  1   force =    -0.00000000    0.00000000   -0.00000000
     atom    4 type  1   force =     0.00000000   -0.00000000   -0.00000000
     atom    5 type  1   force =    -0.00000000    0.00000000   -0.00000000
     atom    6 type  1   force =     0.00000000    0.00000000   -0.00000000
     atom    7 type  1   force =     0.00000000   -0.00000000   -0.00000000
     atom    8 type  1   force =    -0.00000000    0.00000000   -0.00000000
     atom    9 type  1   force =    -0.00000000   -0.00000000   -0.00000000
     atom   10 type  1   force =    -0.00000000    0.00000000   -0.00000000
     atom   11 type  1   force =    -0.00000000   -0.00000000   -0.00000000
     atom   12 type  1   force =     0.00000000    0.00000000   -0.00000000
     atom   13 type  1   force =    -0.00000000   -0.00000000   -0.00000000
     atom   14 type  1   force =     0.00000000    0.00000000   -0.00000000
     atom   15 type  1   force =     0.00000000   -0.00000000   -0.00000000
     atom   16 type  1   force =     0.00000000    0.00000000   -0.00000000
     atom   17 type  1   force =    -0.00000000   -0.00000000   -0.00000000
     atom   18 type  1   force =    -0.00000000   -0.00000000   -0.00000000
     atom   19 type  1   force =     0.00007458    0.00000950   -0.00067045
     atom   20 type  1   force =    -0.00023732   -0.00009492   -0.00066561
     atom   21 type  1   force =     0.00015933    0.00002199   -0.00064936
     atom   22 type  1   force =    -0.00015305   -0.00003994   -0.00068646
     atom   23 type  1   force =     0.00007457    0.00016236   -0.00066581
     atom   24 type  1   force =     0.00007698    0.00006393   -0.00071340
     atom   25 type  1   force =     0.00010501    0.00001313   -0.00062221
     atom   26 type  1   force =     0.00001049    0.00001899   -0.00066639
     atom   27 type  1   force =    -0.00011593   -0.00015758   -0.00066769
     atom   28 type  1   force =     0.00013283    0.00006255   -0.00027297
     atom   29 type  1   force =    -0.00017224    0.00001187   -0.00014830
     atom   30 type  1   force =     0.00003288   -0.00005179   -0.00019804
     atom   31 type  1   force =    -0.00006401   -0.00014104   -0.00015557
     atom   32 type  1   force =    -0.00007871   -0.00000208   -0.00016498
     atom   33 type  1   force =     0.00015198   -0.00000947   -0.00028676
     atom   34 type  1   force =     0.00000253    0.00003312   -0.00022001
     atom   35 type  1   force =     0.00003145    0.00012770   -0.00029891
     atom   36 type  1   force =    -0.00003047   -0.00002307   -0.00030828
     atom   37 type  2   force =    -0.00000470    0.00000208   -0.00000189

     Total force =     0.001455     Total SCF correction =     0.002204
     SCF correction compared to forces is large: reduce conv_thr to get better values

     Writing all to output data dir ./pwscf.save/

     init_run     :     12.46s CPU     13.46s WALL (       1 calls)
     electrons    :    352.67s CPU    364.86s WALL (       1 calls)
     forces       :      4.87s CPU      5.72s WALL (       1 calls)

     Called by init_run:
     wfcinit      :      5.74s CPU      5.91s WALL (       1 calls)
     potinit      :      3.38s CPU      4.11s WALL (       1 calls)
     hinit0       :      2.79s CPU      2.83s WALL (       1 calls)

     Called by electrons:
     c_bands      :    298.19s CPU    304.82s WALL (      17 calls)
     sum_band     :     27.63s CPU     29.27s WALL (      17 calls)
     v_of_rho     :     17.59s CPU     19.64s WALL (      17 calls)
     newd         :      2.45s CPU      4.01s WALL (      17 calls)
     PAW_pot      :      5.05s CPU      5.14s WALL (      17 calls)
     mix_rho      :      3.88s CPU      3.95s WALL (      17 calls)
     vdW_kernel   :      1.67s CPU      1.69s WALL (       1 calls)

     Called by c_bands:
     init_us_2    :      2.38s CPU      2.43s WALL (     468 calls)
     init_us_2:cp :      2.38s CPU      2.43s WALL (     468 calls)
     cegterg      :    291.72s CPU    297.96s WALL (     221 calls)

     Called by *egterg:
     cdiaghg      :     61.42s CPU     62.52s WALL (    1171 calls)
     h_psi        :    127.13s CPU    130.00s WALL (    1197 calls)
     s_psi        :     15.47s CPU     15.62s WALL (    1197 calls)
     g_psi        :      0.91s CPU      0.93s WALL (     963 calls)

     Called by h_psi:
     h_psi:calbec :     19.74s CPU     20.34s WALL (    1197 calls)
     vloc_psi     :     89.40s CPU     91.26s WALL (    1197 calls)
     add_vuspsi   :     15.90s CPU     16.21s WALL (    1197 calls)

     General routines
     calbec       :     27.66s CPU     28.60s WALL (    1470 calls)
     fft          :     16.51s CPU     18.51s WALL (    1131 calls)
     ffts         :      2.05s CPU      2.10s WALL (    3779 calls)
     fftw         :     86.69s CPU     88.33s WALL (  290491 calls)
     interpolate  :      0.82s CPU      0.86s WALL (      17 calls)

     Parallel routines

     PWSCF        :   6m11.83s CPU   6m28.80s WALL


   This run was terminated on:  21:48:19  22Feb2025            

=------------------------------------------------------------------------------=
   JOB DONE.
=------------------------------------------------------------------------------=
