
     Program PWSCF v.7.1 starts on  6Dec2025 at 15:19:18 
        Git branch: heads/qe-7.1
        Last git commit: 48ba0178f8fede6d020eb786884699a9f063f55d-dirty
        Last git commit date: Fri Jan 27 14:22:33 2023 +0000
        Last git commit subject: Merge branch 'fix_hubbard' into 'develop'

     This program is part of the open-source Quantum ESPRESSO suite
     for quantum simulation of materials; please cite
         "P. Giannozzi et al., J. Phys.:Condens. Matter 21 395502 (2009);
         "P. Giannozzi et al., J. Phys.:Condens. Matter 29 465901 (2017);
         "P. Giannozzi et al., J. Chem. Phys. 152 154105 (2020);
          URL http://www.quantum-espresso.org", 
     in publications or presentations arising from this work. More details at
     http://www.quantum-espresso.org/quote

     Parallel version (MPI), running on    48 processors

     MPI processes distributed on     1 nodes
     37653 MiB available memory on the printing compute node when the environment starts

     Reading input from espresso.pwi
Warning: card &CELL ignored
Warning: card / ignored
Warning: card &FCP ignored
Warning: card / ignored
Warning: card &RISM ignored
Warning: card / ignored

     Current dimensions of program PWSCF are:
     Max number of different atomic species (ntypx) = 10
     Max number of k-points (npk) =  40000
     Max angular momentum in pseudopotentials (lmaxx) =  4
     file Pt.pbe-n-kjpaw_psl.1.0.0.UPF: wavefunction(s)  6S 5D renormalized
     file C.pbe-n-kjpaw_psl.1.0.0.UPF: wavefunction(s)  2S 2P renormalized
     file H.pbe-kjpaw_psl.1.0.0.UPF: wavefunction(s)  1S renormalized

     **************************************************************************
     Initializing libbeef V0.1.2 with the BEEF-vdW functional.
     Citation: Wellendorff et al., PRB 85, 235149 (2012).
     **************************************************************************


     IMPORTANT: XC functional enforced from input :
     Exchange-correlation= BEEF-VDW
                           (   1   4  43  14   2   0   0)
     Any further DFT definition will be discarded
     Please, verify this is what you really want


     R & G space division:  proc/nbgrp/npool/nimage =      48
     Subspace diagonalization in iterative solution of the eigenvalue problem:
     one sub-group per band group will be used
     custom distributed-memory algorithm (size of sub-group:  2*  2 procs)


     Parallelization info
     --------------------
     sticks:   dense  smooth     PW     G-vecs:    dense   smooth      PW
     Min         151      59     16                29407     7165    1028
     Max         152      60     17                29420     7176    1042
     Sum        7267    2839    769              1411785   344073   49691

     Using Slab Decomposition



     bravais-lattice index     =            0
     lattice parameter (alat)  =      16.0349  a.u.
     unit-cell volume          =   10068.6169 (a.u.)^3
     number of atoms/cell      =           39
     number of atomic types    =            3
     number of electrons       =       369.00
     number of Kohn-Sham states=          222
     kinetic-energy cutoff     =      40.0000  Ry
     charge density cutoff     =     410.0000  Ry
     scf convergence threshold =      1.0E-06
     mixing beta               =       0.7000
     number of iterations used =            8  local-TF  mixing
     Exchange-correlation= BEEF-VDW
                           (   1   4  43  14   2   0   0)

     celldm(1)=  16.034858  celldm(2)=   0.000000  celldm(3)=   0.000000
     celldm(4)=   0.000000  celldm(5)=   0.000000  celldm(6)=   0.000000

     crystal axes: (cart. coord. in units of alat)
               a(1) = (   1.000000   0.000000   0.000000 )  
               a(2) = (   0.500000   0.866025   0.000000 )  
               a(3) = (   0.000000   0.000000   2.819966 )  

     reciprocal axes: (cart. coord. in units 2 pi/alat)
               b(1) = (  1.000000 -0.577350  0.000000 )  
               b(2) = (  0.000000  1.154701  0.000000 )  
               b(3) = (  0.000000  0.000000  0.354614 )  


     PseudoPot. # 1 for Pt read from file:
     /users/kbadger1/espresso/pseudo/pslibrary.1.0.0/pbe/PSEUDOPOTENTIALS/Pt.pbe-n-kjpaw_psl.1.0.0.UPF
     MD5 check sum: 2e24a0b5bf98a4ed1a57fa81bca8c143
     Pseudo is Projector augmented-wave + core cor, Zval = 10.0
     Generated using 'atomic' code by A. Dal Corso  v.7.0
     Shape of augmentation charge: PSQ
     Using radial grid of 1277 points,  6 beta functions with: 
                l(1) =   0
                l(2) =   0
                l(3) =   1
                l(4) =   1
                l(5) =   2
                l(6) =   2
     Q(r) pseudized with 0 coefficients 


     PseudoPot. # 2 for C  read from file:
     /users/kbadger1/espresso/pseudo/pslibrary.1.0.0/pbe/PSEUDOPOTENTIALS/C.pbe-n-kjpaw_psl.1.0.0.UPF
     MD5 check sum: 6408e75cdba28732cea38a4db8498ce4
     Pseudo is Projector augmented-wave + core cor, Zval =  4.0
     Generated using 'atomic' code by A. Dal Corso  v.7.0
     Shape of augmentation charge: PSQ
     Using radial grid of 1073 points,  4 beta functions with: 
                l(1) =   0
                l(2) =   0
                l(3) =   1
                l(4) =   1
     Q(r) pseudized with 0 coefficients 


     PseudoPot. # 3 for H  read from file:
     /users/kbadger1/espresso/pseudo/pslibrary.1.0.0/pbe/PSEUDOPOTENTIALS/H.pbe-kjpaw_psl.1.0.0.UPF
     MD5 check sum: fe4c6fa958fa6d3815bf5d2419cbf1df
     Pseudo is Projector augmented-wave, Zval =  1.0
     Generated using 'atomic' code by A. Dal Corso  v.7.0
     Shape of augmentation charge: PSQ
     Using radial grid of  929 points,  2 beta functions with: 
                l(1) =   0
                l(2) =   0
     Q(r) pseudized with 0 coefficients 


     atomic species   valence    mass     pseudopotential
        Pt            10.00   195.08400     Pt( 1.00)
        C              4.00    12.01100     C ( 1.00)
        H              1.00     1.00800     H ( 1.00)

     No symmetry found



   Cartesian axes

     site n.     atom                  positions (alat units)
         1           Pt  tau(   1) = (   0.0000000   0.0000000   1.0017346  )
         2           Pt  tau(   2) = (   0.3333333   0.0000000   1.0017346  )
         3           Pt  tau(   3) = (   0.6666667   0.0000000   1.0017346  )
         4           Pt  tau(   4) = (   0.1666667   0.2886751   1.0017346  )
         5           Pt  tau(   5) = (   0.5000000   0.2886751   1.0017346  )
         6           Pt  tau(   6) = (   0.8333333   0.2886751   1.0017346  )
         7           Pt  tau(   7) = (   0.3333333   0.5773503   1.0017346  )
         8           Pt  tau(   8) = (   0.6666667   0.5773503   1.0017346  )
         9           Pt  tau(   9) = (   1.0000000   0.5773503   1.0017346  )
        10           Pt  tau(  10) = (   0.1666667   0.0962250   1.2739001  )
        11           Pt  tau(  11) = (   0.5000000   0.0962250   1.2739001  )
        12           Pt  tau(  12) = (   0.8333333   0.0962250   1.2739001  )
        13           Pt  tau(  13) = (   0.3333333   0.3849002   1.2739001  )
        14           Pt  tau(  14) = (   0.6666667   0.3849002   1.2739001  )
        15           Pt  tau(  15) = (   1.0000000   0.3849002   1.2739001  )
        16           Pt  tau(  16) = (   0.5000000   0.6735753   1.2739001  )
        17           Pt  tau(  17) = (   0.8333333   0.6735753   1.2739001  )
        18           Pt  tau(  18) = (   1.1666667   0.6735753   1.2739001  )
        19           Pt  tau(  19) = (   0.0026551   0.1918903   1.5497589  )
        20           Pt  tau(  20) = (   0.3305842   0.1918799   1.5497599  )
        21           Pt  tau(  21) = (   0.6666339   0.1929322   1.5382357  )
        22           Pt  tau(  22) = (   0.1666185   0.4808191   1.5464473  )
        23           Pt  tau(  23) = (   0.4978013   0.4816752   1.5452354  )
        24           Pt  tau(  24) = (   0.8354572   0.4816784   1.5452367  )
        25           Pt  tau(  25) = (   0.3363061   0.7706121   1.5484495  )
        26           Pt  tau(  26) = (   0.6666241   0.7707660   1.5477421  )
        27           Pt  tau(  27) = (   0.9969358   0.7706046   1.5484465  )
        28           Pt  tau(  28) = (  -0.0022163   0.0030387   1.8386098  )
        29           Pt  tau(  29) = (   0.3353556   0.0030589   1.8386268  )
        30           Pt  tau(  30) = (   0.6665805   0.0065235   1.8149047  )
        31           Pt  tau(  31) = (   0.1665574   0.3094882   1.8442156  )
        32           Pt  tau(  32) = (   0.5046870   0.2877499   1.8142591  )
        33           Pt  tau(  33) = (   0.8284780   0.2877497   1.8142525  )
        34           Pt  tau(  34) = (   0.3446436   0.5868099   1.8309971  )
        35           Pt  tau(  35) = (   0.6665855   0.5726281   1.8151564  )
        36           Pt  tau(  36) = (   0.9885105   0.5868275   1.8310116  )
        37           C   tau(  37) = (   0.1665466   0.1023342   1.9640307  )
        38           H   tau(  38) = (   0.1665076   0.1751077   2.0727912  )
        39           C   tau(  39) = (   0.1665798   0.5200519   1.9525169  )

     number of k points=    13  Marzari-Vanderbilt smearing, width (Ry)=  0.0010
                       cart. coord. in units 2pi/alat
        k(    1) = (   0.0000000   0.0000000   0.0000000), wk =   0.0800000
        k(    2) = (   0.0000000   0.2309401   0.0000000), wk =   0.1600000
        k(    3) = (   0.0000000   0.4618802   0.0000000), wk =   0.1600000
        k(    4) = (   0.2000000  -0.1154701   0.0000000), wk =   0.1600000
        k(    5) = (   0.2000000   0.1154701   0.0000000), wk =   0.1600000
        k(    6) = (   0.2000000   0.3464102   0.0000000), wk =   0.1600000
        k(    7) = (   0.2000000  -0.5773503   0.0000000), wk =   0.1600000
        k(    8) = (   0.2000000  -0.3464102   0.0000000), wk =   0.1600000
        k(    9) = (   0.4000000  -0.2309401   0.0000000), wk =   0.1600000
        k(   10) = (   0.4000000  -0.0000000   0.0000000), wk =   0.1600000
        k(   11) = (   0.4000000   0.2309401   0.0000000), wk =   0.1600000
        k(   12) = (   0.4000000  -0.6928203   0.0000000), wk =   0.1600000
        k(   13) = (   0.4000000  -0.4618802   0.0000000), wk =   0.1600000

     Dense  grid:  1411785 G-vectors     FFT dimensions: ( 108, 108, 300)

     Smooth grid:   344073 G-vectors     FFT dimensions: (  72,  72, 192)

     Estimated max dynamical RAM per process >     207.37 MB

     Estimated total dynamical RAM >       9.72 GB

     Initial potential from superposition of free atoms

     starting charge     368.9938, renormalised to     369.0000

     negative rho (up, down):  3.206E-03 0.000E+00


     %%%%%%%%%%%%%%%%%%%%%%%%%%%%%%%%%%%%%%%%%%%%%%%%%%%%%%%%%%%%%%%%%%%%%%%%
     %                                                                      %
     % You are using vdW-DF, which was implemented by the Thonhauser group. %
     % Please cite the following two papers that made this development      %
     % possible and the two reviews that describe the various versions:     %
     %                                                                      %
     %   T. Thonhauser et al., PRL 115, 136402 (2015).                      %
     %   T. Thonhauser et al., PRB 76, 125112 (2007).                       %
     %   K. Berland et al., Rep. Prog. Phys. 78, 066501 (2015).             %
     %   D.C. Langreth et al., J. Phys.: Condens. Matter 21, 084203 (2009). %
     %                                                                      %
     % If you are calculating stress with vdW-DF, please also cite:         %
     %                                                                      %
     %   R. Sabatini et al., J. Phys.: Condens. Matter 24, 424209 (2012).   %
     %                                                                      %
     %%%%%%%%%%%%%%%%%%%%%%%%%%%%%%%%%%%%%%%%%%%%%%%%%%%%%%%%%%%%%%%%%%%%%%%%

     %%%%%%%%%%%%%%%%%%%%%%%%%%%%%%%%%%%%%%%%%%%%%%%%%%%%%%%%%%%%%%%%%%%%%%%%
     %                                                                      %
     %  vdW-DF NEWS:                                                        %
     %                                                                      %
     %  * vdW-DF3 is now available. DOI: 10.1021/acs.jctc.0c00471           %
     %    use with input_dft = 'vdW-DF3-opt1' or 'vdW-DF3-opt2'             %
     %                                                                      %
     %  * Unscreened and range-separated hybrid vdW-DF-cx functionals       %
     %    DOI: 10.1063/1.4986522 and 10.1088/1361-648X/ac2ad2               %
     %    use with input_dft = 'vdW-DF-cx0'    and 'vdW-DF-ahcx'            %
     %  * Unscreened and range-separated hybrid vdW-DF2-b86r functionals    %
     %    DOI: 10.1063/1.4986522 and DOI: 10.1103/PhysRevX.12.041003        %
     %    use with input_dft = 'vdW-DF2-br0' and 'vdW-DF2-ahbr'             %
     %                                                                      %
     %%%%%%%%%%%%%%%%%%%%%%%%%%%%%%%%%%%%%%%%%%%%%%%%%%%%%%%%%%%%%%%%%%%%%%%%


     Starting wfcs are  333 randomized atomic wfcs
     Checking if some PAW data can be deallocated... 

     total cpu time spent up to now is       15.9 secs

     per-process dynamical memory:   212.5 Mb

     Self-consistent Calculation

     iteration #  1     ecut=    40.00 Ry     beta= 0.70
     Davidson diagonalization with overlap
     ethr =  1.00E-02,  avg # of iterations =  2.0

     Threshold (ethr) on eigenvalues was too large:
     Diagonalizing with lowered threshold

     Davidson diagonalization with overlap
     ethr =  6.78E-04,  avg # of iterations =  3.0

     negative rho (up, down):  1.245E-02 0.000E+00

     total cpu time spent up to now is       49.8 secs

     total energy              =  -27792.88536538 Ry
     estimated scf accuracy    <       2.79398532 Ry

     iteration #  2     ecut=    40.00 Ry     beta= 0.70
     Davidson diagonalization with overlap
     ethr =  7.57E-04,  avg # of iterations =  2.0

     negative rho (up, down):  8.954E-03 0.000E+00

     total cpu time spent up to now is       63.1 secs

     total energy              =  -27793.22344966 Ry
     estimated scf accuracy    <       0.77998879 Ry

     iteration #  3     ecut=    40.00 Ry     beta= 0.70
     Davidson diagonalization with overlap
     ethr =  2.11E-04,  avg # of iterations =  3.2

     negative rho (up, down):  5.830E-03 0.000E+00

     total cpu time spent up to now is       81.8 secs

     total energy              =  -27793.29816982 Ry
     estimated scf accuracy    <       0.28700713 Ry

     iteration #  4     ecut=    40.00 Ry     beta= 0.70
     Davidson diagonalization with overlap
     ethr =  7.78E-05,  avg # of iterations =  8.8

     negative rho (up, down):  2.345E-03 0.000E+00

     total cpu time spent up to now is      106.3 secs

     total energy              =  -27793.33152557 Ry
     estimated scf accuracy    <       0.07329431 Ry

     iteration #  5     ecut=    40.00 Ry     beta= 0.70
     Davidson diagonalization with overlap
     c_bands:  2 eigenvalues not converged
     ethr =  1.99E-05,  avg # of iterations = 10.4

     negative rho (up, down):  1.323E-03 0.000E+00

     total cpu time spent up to now is      136.7 secs

     total energy              =  -27793.35118651 Ry
     estimated scf accuracy    <       0.05651366 Ry

     iteration #  6     ecut=    40.00 Ry     beta= 0.70
     Davidson diagonalization with overlap
     ethr =  1.53E-05,  avg # of iterations =  2.0

     negative rho (up, down):  4.131E-04 0.000E+00

     total cpu time spent up to now is      150.2 secs

     total energy              =  -27793.35286722 Ry
     estimated scf accuracy    <       0.00750977 Ry

     iteration #  7     ecut=    40.00 Ry     beta= 0.70
     Davidson diagonalization with overlap
     c_bands:  1 eigenvalues not converged
     c_bands:  2 eigenvalues not converged
     c_bands:  1 eigenvalues not converged
     c_bands:  2 eigenvalues not converged
     c_bands:  1 eigenvalues not converged
     c_bands:  1 eigenvalues not converged
     c_bands:  1 eigenvalues not converged
     ethr =  2.04E-06,  avg # of iterations = 17.6

     negative rho (up, down):  1.696E-04 0.000E+00

     total cpu time spent up to now is      197.8 secs

     total energy              =  -27793.35417476 Ry
     estimated scf accuracy    <       0.00424152 Ry

     iteration #  8     ecut=    40.00 Ry     beta= 0.70
     Davidson diagonalization with overlap
     c_bands:  1 eigenvalues not converged
     c_bands:  1 eigenvalues not converged
     ethr =  1.15E-06,  avg # of iterations =  4.8

     negative rho (up, down):  1.152E-04 0.000E+00

     total cpu time spent up to now is      212.9 secs

     total energy              =  -27793.35443311 Ry
     estimated scf accuracy    <       0.00073104 Ry

     iteration #  9     ecut=    40.00 Ry     beta= 0.70
     Davidson diagonalization with overlap
     ethr =  1.98E-07,  avg # of iterations =  4.0

     negative rho (up, down):  1.124E-04 0.000E+00

     total cpu time spent up to now is      238.7 secs

     total energy              =  -27793.35461104 Ry
     estimated scf accuracy    <       0.00060845 Ry

     iteration # 10     ecut=    40.00 Ry     beta= 0.70
     Davidson diagonalization with overlap
     ethr =  1.65E-07,  avg # of iterations =  1.4

     negative rho (up, down):  1.378E-04 0.000E+00

     total cpu time spent up to now is      255.9 secs

     total energy              =  -27793.35464675 Ry
     estimated scf accuracy    <       0.00044969 Ry

     iteration # 11     ecut=    40.00 Ry     beta= 0.70
     Davidson diagonalization with overlap
     ethr =  1.22E-07,  avg # of iterations =  1.8

     negative rho (up, down):  2.308E-04 0.000E+00

     total cpu time spent up to now is      269.4 secs

     total energy              =  -27793.35470006 Ry
     estimated scf accuracy    <       0.00028155 Ry

     iteration # 12     ecut=    40.00 Ry     beta= 0.70
     Davidson diagonalization with overlap
     ethr =  7.63E-08,  avg # of iterations =  4.3

     negative rho (up, down):  3.680E-04 0.000E+00

     total cpu time spent up to now is      288.9 secs

     total energy              =  -27793.35474075 Ry
     estimated scf accuracy    <       0.00014600 Ry

     iteration # 13     ecut=    40.00 Ry     beta= 0.70
     Davidson diagonalization with overlap
     ethr =  3.96E-08,  avg # of iterations =  1.5

     negative rho (up, down):  7.895E-04 0.000E+00

     total cpu time spent up to now is      303.7 secs

     total energy              =  -27793.35479657 Ry
     estimated scf accuracy    <       0.00006849 Ry

     iteration # 14     ecut=    40.00 Ry     beta= 0.70
     Davidson diagonalization with overlap
     c_bands:  1 eigenvalues not converged
     ethr =  1.86E-08,  avg # of iterations =  5.8

     negative rho (up, down):  1.052E-03 0.000E+00

     total cpu time spent up to now is      323.6 secs

     total energy              =  -27793.35482155 Ry
     estimated scf accuracy    <       0.00003831 Ry

     iteration # 15     ecut=    40.00 Ry     beta= 0.70
     Davidson diagonalization with overlap
     ethr =  1.04E-08,  avg # of iterations =  1.9

     negative rho (up, down):  2.191E-03 0.000E+00

     total cpu time spent up to now is      337.5 secs

     total energy              =  -27793.35483360 Ry
     estimated scf accuracy    <       0.00003103 Ry

     iteration # 16     ecut=    40.00 Ry     beta= 0.70
     Davidson diagonalization with overlap
     ethr =  8.41E-09,  avg # of iterations =  1.5

     negative rho (up, down):  2.735E-03 0.000E+00

     total cpu time spent up to now is      354.9 secs

     total energy              =  -27793.35483434 Ry
     estimated scf accuracy    <       0.00000492 Ry

     iteration # 17     ecut=    40.00 Ry     beta= 0.70
     Davidson diagonalization with overlap
     ethr =  1.33E-09,  avg # of iterations =  4.3

     negative rho (up, down):  3.086E-03 0.000E+00

     total cpu time spent up to now is      381.5 secs

     total energy              =  -27793.35483434 Ry
     estimated scf accuracy    <       0.00000488 Ry

     iteration # 18     ecut=    40.00 Ry     beta= 0.70
     Davidson diagonalization with overlap
     ethr =  1.32E-09,  avg # of iterations =  1.1

     negative rho (up, down):  3.102E-03 0.000E+00

     total cpu time spent up to now is      393.6 secs

     End of self-consistent calculation

          k = 0.0000 0.0000 0.0000 ( 42913 PWs)   bands (ev):

   -10.1177  -9.3485  -5.9306  -4.8620  -4.5312  -4.0705  -3.7717  -3.6158
    -3.6030  -3.5791  -3.5541  -3.5081  -3.4316  -3.4106  -3.3501  -3.1222
    -3.0324  -3.0245  -2.9468  -2.9257  -2.9018  -2.8728  -2.7483  -2.6332
    -2.6300  -2.4604  -2.4128  -2.4067  -2.3832  -2.3693  -2.3519  -2.2987
    -2.2676  -2.2325  -2.2211  -2.2051  -2.1876  -2.0833  -2.0650  -2.0426
    -2.0086  -1.9890  -1.9583  -1.9263  -1.7972  -1.7181  -1.6402  -1.5921
    -1.5498  -1.5192  -1.4967  -1.4598  -1.4504  -1.4106  -1.3854  -1.2820
    -1.2475  -1.2384  -1.2063  -1.1456  -1.0473  -0.9241  -0.8800  -0.8358
    -0.7841  -0.7647  -0.6959  -0.6650  -0.6648  -0.6311  -0.5464  -0.5371
    -0.4951  -0.4784  -0.4767  -0.4645  -0.4608  -0.4382  -0.4299  -0.4113
    -0.3736  -0.3704  -0.3695  -0.3606  -0.3590  -0.3422  -0.2975  -0.2928
    -0.2514  -0.2334  -0.1793  -0.0923  -0.0861  -0.0635  -0.0590   0.0092
     0.0097   0.0181   0.0405   0.0574   0.0963   0.1358   0.1377   0.1688
     0.1819   0.1824   0.2169   0.2605   0.2859   0.3098   0.3535   0.3790
     0.3921   0.5819   0.5939   0.6813   0.6910   0.7111   0.7655   0.7713
     0.8364   0.9421   0.9540   0.9694   0.9920   1.0315   1.0402   1.0589
     1.0654   1.0792   1.1061   1.1254   1.2108   1.2217   1.3222   1.3273
     1.3682   1.3717   1.4563   1.4715   1.4879   1.5352   1.5393   1.5869
     1.5982   1.6046   1.6141   1.6437   1.7073   1.7502   1.7933   1.8444
     1.8670   1.8890   1.9046   1.9236   1.9395   1.9693   1.9825   2.0116
     2.0263   2.0380   2.0491   2.0659   2.0759   2.0843   2.0984   2.1055
     2.1202   2.1489   2.1768   2.1913   2.2138   2.2172   2.2435   2.2840
     2.2954   2.3295   2.3577   2.3732   2.3780   2.3975   2.3978   2.4419
     2.4486   2.4710   2.5020   2.5445   2.5472   2.6647   2.6811   2.7153
     2.7657   2.7676   2.8080   2.8110   2.8347   2.8660   3.0807   3.2208
     3.3518   3.4429   3.6645   3.6910   4.2489   4.6181   4.7077   4.9153
     5.3206   5.7756   5.9285   5.9738   6.2477   6.2940   6.7905   7.1384
     7.6240   7.6453   7.7033   7.7156   7.7439   7.8152

          k = 0.0000 0.2309 0.0000 ( 42996 PWs)   bands (ev):

   -10.1006  -9.3645  -5.7896  -4.8437  -4.4199  -4.0407  -4.0174  -3.7500
    -3.5641  -3.5538  -3.4674  -3.4161  -3.3270  -3.2589  -3.2483  -3.1600
    -3.0531  -2.9744  -2.9428  -2.8806  -2.8574  -2.8280  -2.7779  -2.6038
    -2.5397  -2.5260  -2.4642  -2.4381  -2.4295  -2.3638  -2.2988  -2.2694
    -2.2506  -2.2493  -2.2151  -2.1926  -2.1835  -2.1370  -2.0684  -2.0324
    -2.0117  -1.9586  -1.8789  -1.8552  -1.8152  -1.7370  -1.6888  -1.6135
    -1.5957  -1.5869  -1.5728  -1.5127  -1.4243  -1.4177  -1.3619  -1.3380
    -1.2982  -1.2700  -1.1827  -1.1489  -1.0832  -0.9717  -0.9104  -0.8887
    -0.8634  -0.8601  -0.8080  -0.8064  -0.7703  -0.7303  -0.7100  -0.6724
    -0.6330  -0.5859  -0.5439  -0.5263  -0.5198  -0.5008  -0.4589  -0.4085
    -0.3789  -0.3613  -0.3408  -0.3144  -0.2960  -0.2752  -0.2657  -0.2324
    -0.2276  -0.1763  -0.1473  -0.1244  -0.0945  -0.0899  -0.0638  -0.0531
    -0.0450  -0.0082   0.0046   0.0158   0.0413   0.0842   0.0973   0.1168
     0.1291   0.1805   0.2157   0.2426   0.3259   0.3401   0.3683   0.3875
     0.3958   0.4200   0.4252   0.4580   0.4790   0.5968   0.6343   0.6864
     0.7111   0.7976   0.8013   0.8500   0.8799   0.9057   0.9710   1.0520
     1.0735   1.1032   1.1322   1.1402   1.2022   1.2160   1.2322   1.2475
     1.2733   1.2930   1.3571   1.3895   1.4160   1.4194   1.4628   1.5048
     1.5366   1.5680   1.5820   1.6108   1.6568   1.6736   1.7164   1.7777
     1.7889   1.8257   1.8270   1.9047   1.9372   1.9672   1.9744   1.9933
     2.0185   2.0476   2.0503   2.0844   2.1212   2.1398   2.1845   2.2452
     2.2676   2.3339   2.3471   2.3619   2.3767   2.3771   2.4131   2.4418
     2.4798   2.4906   2.5138   2.5260   2.5346   2.6003   2.6568   2.6690
     2.6999   2.7065   2.7226   2.7342   2.7778   2.8022   2.8231   2.8451
     2.8794   2.9455   2.9647   3.0327   3.0837   3.1210   3.2548   3.3174
     3.5255   3.6985   3.8645   4.2602   4.3986   4.6578   4.6629   5.1241
     5.1871   5.5813   6.0237   6.1329   6.3155   6.4515   6.6025   6.8121
     6.9227   7.2416   7.5077   7.6283   7.7890   7.8695

          k = 0.0000 0.4619 0.0000 ( 43046 PWs)   bands (ev):

   -10.0713  -9.3923  -5.3914  -4.8978  -4.6227  -4.0645  -3.9273  -3.7540
    -3.6345  -3.4892  -3.4495  -3.2457  -3.1786  -3.1207  -3.0854  -3.0647
    -2.9667  -2.9286  -2.8818  -2.7790  -2.7612  -2.7365  -2.6725  -2.6530
    -2.5826  -2.5682  -2.5526  -2.5104  -2.4935  -2.4350  -2.4233  -2.3514
    -2.3394  -2.2163  -2.1915  -2.1628  -2.1352  -2.1061  -2.0293  -2.0259
    -1.9373  -1.9018  -1.8991  -1.8802  -1.7903  -1.7664  -1.7167  -1.7011
    -1.5959  -1.5868  -1.5804  -1.5022  -1.4949  -1.4285  -1.4261  -1.3839
    -1.3604  -1.2855  -1.2458  -1.2421  -1.1624  -1.1433  -1.0954  -1.0491
    -0.9926  -0.9333  -0.9091  -0.9056  -0.8642  -0.8410  -0.8083  -0.7454
    -0.7294  -0.6977  -0.6664  -0.6563  -0.6124  -0.5408  -0.5291  -0.4768
    -0.4557  -0.4179  -0.3669  -0.3643  -0.3514  -0.3444  -0.3173  -0.2780
    -0.2725  -0.2498  -0.2183  -0.1869  -0.1749  -0.1425  -0.1075  -0.0941
    -0.0421  -0.0373  -0.0139   0.0129   0.0277   0.0456   0.0730   0.1233
     0.1396   0.1729   0.1892   0.2291   0.2550   0.3071   0.3635   0.3815
     0.3861   0.4143   0.4654   0.4835   0.5232   0.5554   0.6187   0.6520
     0.6640   0.7111   0.7587   0.7713   0.7779   0.8095   0.8261   0.8727
     0.9163   0.9190   0.9779   1.0242   1.0535   1.0696   1.1199   1.1479
     1.1777   1.1854   1.2480   1.3435   1.3663   1.3756   1.4179   1.4842
     1.5377   1.5500   1.5786   1.5971   1.6350   1.6480   1.6808   1.7232
     1.7316   1.7704   1.8157   1.8645   1.8875   1.9128   1.9202   2.0036
     2.0187   2.0411   2.0971   2.1239   2.1662   2.1986   2.2294   2.3184
     2.3771   2.3810   2.4040   2.4309   2.4523   2.4668   2.5136   2.5314
     2.5928   2.5952   2.6535   2.6559   2.7004   2.7092   2.7124   2.7877
     2.8332   2.8964   2.9310   2.9576   2.9592   2.9637   3.0413   3.1628
     3.2067   3.2424   3.3818   3.6715   3.9078   3.9248   4.0563   4.1829
     4.1985   4.4102   4.5248   4.6684   4.8257   4.8856   5.1093   5.2494
     5.3400   5.4662   5.5599   5.6045   5.9892   6.0585   6.2327   6.4494
     6.4787   6.8489   7.0427   7.2152   7.3344   7.7189

          k = 0.2000-0.1155 0.0000 ( 42996 PWs)   bands (ev):

   -10.1072  -9.3535  -5.7904  -4.8144  -4.4373  -4.1753  -3.9009  -3.7003
    -3.6322  -3.5321  -3.4693  -3.4269  -3.3450  -3.2902  -3.2290  -3.1185
    -3.0602  -3.0093  -2.9495  -2.9408  -2.8440  -2.8205  -2.6988  -2.6202
    -2.5851  -2.5293  -2.4576  -2.4417  -2.4181  -2.3250  -2.3140  -2.2936
    -2.2655  -2.2464  -2.2347  -2.1949  -2.1639  -2.1373  -2.0782  -2.0371
    -1.9774  -1.9450  -1.8934  -1.8499  -1.7945  -1.7287  -1.6678  -1.6326
    -1.5939  -1.5718  -1.5420  -1.4965  -1.4578  -1.3955  -1.3678  -1.3220
    -1.2982  -1.2547  -1.2111  -1.1563  -1.1036  -0.9639  -0.9152  -0.8983
    -0.8783  -0.8518  -0.8244  -0.7847  -0.7647  -0.7319  -0.6915  -0.6586
    -0.6370  -0.5710  -0.5564  -0.5257  -0.5137  -0.4962  -0.4743  -0.4250
    -0.3786  -0.3607  -0.3364  -0.3214  -0.3053  -0.2875  -0.2722  -0.2430
    -0.2264  -0.1934  -0.1597  -0.1327  -0.1206  -0.0926  -0.0658  -0.0602
    -0.0412  -0.0175   0.0095   0.0572   0.0730   0.0927   0.1052   0.1135
     0.1296   0.1444   0.2430   0.2635   0.2893   0.3368   0.3652   0.3802
     0.4055   0.4174   0.4275   0.4704   0.5229   0.5616   0.6222   0.6630
     0.7297   0.7406   0.7859   0.8280   0.8771   0.9603   0.9694   1.0333
     1.0890   1.0976   1.1103   1.1613   1.1934   1.2110   1.2393   1.2613
     1.2739   1.3257   1.3710   1.4072   1.4252   1.4436   1.4803   1.5140
     1.5587   1.5752   1.6065   1.6248   1.6777   1.7100   1.7414   1.7567
     1.7948   1.8192   1.8425   1.9094   1.9410   1.9616   1.9897   2.0157
     2.0305   2.0541   2.0665   2.1104   2.1408   2.1633   2.1862   2.2460
     2.2715   2.2975   2.3363   2.3461   2.3598   2.3851   2.4024   2.4195
     2.4513   2.4843   2.4974   2.5313   2.5474   2.5946   2.6337   2.6670
     2.6877   2.7071   2.7308   2.7339   2.7819   2.7864   2.8075   2.8317
     2.8674   2.9195   2.9494   3.0278   3.0642   3.1260   3.1795   3.3605
     3.5480   3.7107   3.9220   4.1435   4.4212   4.6041   4.7058   5.0154
     5.3250   5.6179   5.9571   6.0559   6.2808   6.4519   6.6513   6.6786
     6.9069   7.3272   7.4840   7.7242   7.8394   7.8815

          k = 0.2000 0.1155 0.0000 ( 42996 PWs)   bands (ev):

   -10.1072  -9.3535  -5.7904  -4.8145  -4.4373  -4.1753  -3.9009  -3.7003
    -3.6322  -3.5322  -3.4693  -3.4269  -3.3450  -3.2902  -3.2291  -3.1185
    -3.0602  -3.0093  -2.9494  -2.9407  -2.8441  -2.8205  -2.6988  -2.6202
    -2.5851  -2.5293  -2.4577  -2.4417  -2.4181  -2.3250  -2.3139  -2.2936
    -2.2655  -2.2464  -2.2347  -2.1949  -2.1639  -2.1374  -2.0783  -2.0370
    -1.9774  -1.9451  -1.8934  -1.8499  -1.7945  -1.7286  -1.6678  -1.6327
    -1.5939  -1.5718  -1.5420  -1.4966  -1.4578  -1.3955  -1.3678  -1.3220
    -1.2981  -1.2547  -1.2111  -1.1564  -1.1035  -0.9640  -0.9153  -0.8984
    -0.8784  -0.8519  -0.8245  -0.7847  -0.7646  -0.7319  -0.6915  -0.6588
    -0.6369  -0.5709  -0.5565  -0.5258  -0.5137  -0.4963  -0.4739  -0.4247
    -0.3786  -0.3608  -0.3364  -0.3212  -0.3053  -0.2874  -0.2721  -0.2430
    -0.2263  -0.1936  -0.1596  -0.1326  -0.1206  -0.0926  -0.0660  -0.0602
    -0.0414  -0.0176   0.0095   0.0571   0.0731   0.0928   0.1053   0.1135
     0.1297   0.1444   0.2430   0.2636   0.2893   0.3368   0.3652   0.3802
     0.4055   0.4174   0.4275   0.4704   0.5228   0.5616   0.6221   0.6629
     0.7297   0.7406   0.7860   0.8281   0.8772   0.9604   0.9693   1.0332
     1.0892   1.0977   1.1105   1.1613   1.1934   1.2110   1.2393   1.2614
     1.2739   1.3258   1.3709   1.4074   1.4253   1.4435   1.4803   1.5140
     1.5588   1.5751   1.6066   1.6247   1.6778   1.7099   1.7415   1.7566
     1.7947   1.8192   1.8425   1.9093   1.9410   1.9615   1.9896   2.0157
     2.0305   2.0541   2.0666   2.1103   2.1407   2.1632   2.1861   2.2460
     2.2716   2.2975   2.3363   2.3461   2.3598   2.3851   2.4025   2.4195
     2.4513   2.4844   2.4974   2.5314   2.5475   2.5946   2.6337   2.6670
     2.6878   2.7070   2.7307   2.7339   2.7818   2.7862   2.8075   2.8316
     2.8672   2.9195   2.9494   3.0278   3.0642   3.1260   3.1794   3.3603
     3.5479   3.7108   3.9220   4.1435   4.4214   4.6041   4.7058   5.0154
     5.3250   5.6179   5.9570   6.0559   6.2807   6.4520   6.6514   6.6787
     6.9069   7.3272   7.4841   7.7242   7.8381   7.8796

          k = 0.2000 0.3464 0.0000 ( 43046 PWs)   bands (ev):

   -10.0841  -9.3752  -5.5192  -4.8028  -4.3920  -4.2583  -4.1631  -3.7876
    -3.5869  -3.3486  -3.2857  -3.2518  -3.1977  -3.1743  -3.1403  -3.0955
    -3.0696  -3.0110  -2.9770  -2.9135  -2.7695  -2.6801  -2.6503  -2.6219
    -2.6025  -2.5387  -2.5197  -2.4743  -2.4083  -2.3769  -2.3595  -2.3248
    -2.3146  -2.2827  -2.2377  -2.2194  -2.1525  -2.1462  -2.0840  -2.0445
    -2.0079  -1.9449  -1.8891  -1.8048  -1.7406  -1.7293  -1.6797  -1.6384
    -1.6269  -1.5973  -1.5239  -1.5079  -1.4741  -1.4343  -1.3789  -1.3402
    -1.3066  -1.2440  -1.1981  -1.1852  -1.1552  -1.1305  -1.1035  -1.0010
    -0.9850  -0.9525  -0.9362  -0.8784  -0.8350  -0.8153  -0.7739  -0.7575
    -0.7305  -0.6651  -0.6441  -0.6076  -0.5806  -0.5580  -0.5464  -0.4782
    -0.4541  -0.4195  -0.3930  -0.3647  -0.3510  -0.3193  -0.3059  -0.2625
    -0.2373  -0.2099  -0.1873  -0.1666  -0.1548  -0.1335  -0.1039  -0.0710
    -0.0589  -0.0242  -0.0047   0.0295   0.0521   0.0656   0.0884   0.1108
     0.1366   0.1617   0.1753   0.2016   0.2185   0.2309   0.2999   0.3300
     0.3423   0.3697   0.4281   0.4445   0.4858   0.5760   0.6173   0.6388
     0.6962   0.7477   0.7600   0.7801   0.8295   0.8512   0.8752   0.9214
     0.9507   0.9692   0.9813   1.0595   1.0768   1.1361   1.1688   1.1996
     1.2264   1.2787   1.3016   1.3520   1.3911   1.4111   1.4214   1.4486
     1.4867   1.5182   1.5502   1.5848   1.5961   1.6332   1.7024   1.7232
     1.7580   1.7828   1.7941   1.8335   1.8682   1.8770   1.9331   2.0054
     2.0446   2.0853   2.1419   2.1637   2.2120   2.2398   2.3076   2.3309
     2.3703   2.4199   2.4527   2.4665   2.5007   2.5133   2.5341   2.5637
     2.5924   2.6006   2.6242   2.6397   2.6583   2.6970   2.7422   2.7544
     2.7727   2.8072   2.8458   2.9031   2.9428   3.0025   3.0146   3.0614
     3.1155   3.1730   3.2357   3.3106   3.6618   3.7499   3.8919   3.9173
     4.0810   4.1785   4.2354   4.5474   4.6986   4.8171   5.0703   5.2238
     5.3239   5.3517   5.5586   6.0459   6.2215   6.2924   6.4669   6.6042
     6.7973   6.9202   7.1666   7.2032   7.4333   7.5362

          k = 0.2000-0.5774 0.0000 ( 43014 PWs)   bands (ev):

   -10.0691  -9.3893  -5.0809  -4.9922  -4.6561  -4.4266  -3.8194  -3.7670
    -3.6259  -3.5133  -3.2476  -3.2058  -3.1164  -3.0754  -3.0364  -2.9739
    -2.9109  -2.8770  -2.8343  -2.7937  -2.7460  -2.7322  -2.7086  -2.6968
    -2.6415  -2.6088  -2.5372  -2.5031  -2.4835  -2.4762  -2.4182  -2.3758
    -2.3393  -2.2806  -2.2542  -2.2390  -2.1327  -2.1127  -2.1035  -2.0542
    -2.0019  -1.9319  -1.8737  -1.8360  -1.7750  -1.7070  -1.6846  -1.6624
    -1.6379  -1.6146  -1.5372  -1.4595  -1.4058  -1.3791  -1.3433  -1.3260
    -1.3028  -1.2590  -1.1932  -1.1922  -1.1582  -1.1370  -1.1127  -1.0611
    -1.0251  -1.0188  -0.9741  -0.9365  -0.9338  -0.9165  -0.8739  -0.8178
    -0.7715  -0.7670  -0.7091  -0.6855  -0.6589  -0.6295  -0.6231  -0.5911
    -0.5482  -0.4958  -0.4577  -0.4288  -0.4155  -0.4010  -0.3718  -0.2986
    -0.2686  -0.2570  -0.2358  -0.2147  -0.1383  -0.1065  -0.0938  -0.0735
    -0.0212  -0.0002   0.0436   0.0493   0.0635   0.0757   0.0820   0.1164
     0.1398   0.1663   0.2053   0.2128   0.2344   0.2360   0.2581   0.2668
     0.2875   0.3683   0.3963   0.4921   0.5363   0.5680   0.6258   0.6491
     0.6579   0.6921   0.7207   0.7304   0.7430   0.7733   0.8410   0.8787
     0.8879   0.9179   0.9728   1.0030   1.0257   1.0877   1.1047   1.1547
     1.2014   1.2454   1.2834   1.3158   1.3607   1.3834   1.4204   1.4564
     1.4871   1.4971   1.5610   1.5696   1.5760   1.6081   1.6342   1.6736
     1.6879   1.7325   1.7380   1.8118   1.8378   1.9509   1.9848   2.0184
     2.0961   2.1308   2.1740   2.1929   2.2283   2.2513   2.2768   2.3238
     2.3759   2.4154   2.4799   2.5039   2.5283   2.5372   2.5680   2.6070
     2.6165   2.6673   2.6777   2.6875   2.7471   2.7564   2.7785   2.8307
     2.8806   2.8843   2.9413   2.9651   2.9876   3.0141   3.0487   3.1473
     3.2332   3.5845   3.7436   3.8251   3.9782   4.0602   4.2198   4.2432
     4.3982   4.5908   4.6957   4.8043   4.9030   5.0782   5.1368   5.3656
     5.4934   5.7206   5.7475   5.8241   5.9190   6.0406   6.1104   6.2741
     6.3492   6.4004   6.7906   7.0687   7.2179   7.2493

          k = 0.2000-0.3464 0.0000 ( 43046 PWs)   bands (ev):

   -10.0841  -9.3752  -5.5193  -4.8028  -4.3920  -4.2583  -4.1631  -3.7877
    -3.5869  -3.3486  -3.2857  -3.2519  -3.1977  -3.1743  -3.1402  -3.0955
    -3.0696  -3.0110  -2.9771  -2.9135  -2.7695  -2.6803  -2.6502  -2.6219
    -2.6026  -2.5387  -2.5197  -2.4743  -2.4083  -2.3768  -2.3595  -2.3248
    -2.3145  -2.2827  -2.2378  -2.2193  -2.1525  -2.1462  -2.0840  -2.0445
    -2.0079  -1.9449  -1.8892  -1.8048  -1.7405  -1.7293  -1.6797  -1.6384
    -1.6269  -1.5972  -1.5238  -1.5078  -1.4741  -1.4343  -1.3788  -1.3401
    -1.3066  -1.2439  -1.1981  -1.1852  -1.1553  -1.1305  -1.1034  -1.0009
    -0.9849  -0.9523  -0.9360  -0.8785  -0.8349  -0.8152  -0.7740  -0.7574
    -0.7304  -0.6651  -0.6441  -0.6078  -0.5808  -0.5579  -0.5464  -0.4782
    -0.4541  -0.4194  -0.3934  -0.3647  -0.3510  -0.3193  -0.3058  -0.2625
    -0.2376  -0.2099  -0.1874  -0.1667  -0.1548  -0.1335  -0.1040  -0.0712
    -0.0590  -0.0243  -0.0046   0.0296   0.0521   0.0655   0.0883   0.1109
     0.1366   0.1617   0.1753   0.2016   0.2186   0.2310   0.2999   0.3300
     0.3423   0.3697   0.4281   0.4444   0.4857   0.5759   0.6173   0.6388
     0.6962   0.7478   0.7598   0.7801   0.8295   0.8512   0.8752   0.9214
     0.9506   0.9692   0.9812   1.0594   1.0770   1.1360   1.1687   1.1994
     1.2263   1.2786   1.3016   1.3520   1.3911   1.4112   1.4213   1.4486
     1.4867   1.5181   1.5504   1.5847   1.5962   1.6332   1.7023   1.7233
     1.7581   1.7829   1.7942   1.8336   1.8682   1.8771   1.9331   2.0054
     2.0446   2.0852   2.1420   2.1637   2.2121   2.2398   2.3075   2.3309
     2.3703   2.4198   2.4527   2.4666   2.5007   2.5133   2.5340   2.5637
     2.5922   2.6006   2.6242   2.6397   2.6584   2.6970   2.7422   2.7543
     2.7727   2.8072   2.8457   2.9031   2.9430   3.0027   3.0148   3.0616
     3.1155   3.1730   3.2357   3.3106   3.6618   3.7499   3.8919   3.9172
     4.0811   4.1786   4.2356   4.5474   4.6986   4.8171   5.0704   5.2238
     5.3239   5.3517   5.5587   6.0460   6.2217   6.2924   6.4669   6.6041
     6.7971   6.9201   7.1665   7.2032   7.4333   7.5356

          k = 0.4000-0.2309 0.0000 ( 43046 PWs)   bands (ev):

   -10.0896  -9.3619  -5.3925  -4.8284  -4.6755  -4.1411  -3.9282  -3.6971
    -3.6703  -3.5237  -3.4259  -3.2767  -3.2023  -3.1422  -3.0840  -3.0569
    -2.9785  -2.9321  -2.8626  -2.7983  -2.7521  -2.7099  -2.6944  -2.6765
    -2.6014  -2.5558  -2.5399  -2.5189  -2.4883  -2.4798  -2.4145  -2.3686
    -2.3492  -2.2550  -2.1927  -2.1379  -2.0945  -2.0733  -2.0296  -2.0191
    -1.9335  -1.9116  -1.8729  -1.8531  -1.8203  -1.7631  -1.6876  -1.6422
    -1.6045  -1.5669  -1.5317  -1.5007  -1.4778  -1.4379  -1.4208  -1.3764
    -1.3226  -1.2874  -1.2823  -1.2268  -1.1890  -1.1483  -1.0839  -1.0515
    -1.0289  -0.9969  -0.9670  -0.8829  -0.8500  -0.8335  -0.7860  -0.7483
    -0.7165  -0.6959  -0.6502  -0.5948  -0.5722  -0.5406  -0.5158  -0.4813
    -0.4715  -0.4172  -0.4051  -0.3903  -0.3524  -0.3272  -0.3115  -0.2918
    -0.2798  -0.2476  -0.2158  -0.2000  -0.1904  -0.1681  -0.1100  -0.0878
    -0.0692  -0.0435  -0.0298   0.0096   0.0284   0.0636   0.0810   0.0975
     0.1307   0.1455   0.1842   0.2198   0.2351   0.2872   0.3510   0.3828
     0.3953   0.4031   0.4329   0.5085   0.5204   0.5640   0.6209   0.6595
     0.6690   0.7184   0.7396   0.7816   0.8043   0.8142   0.8346   0.8736
     0.9052   0.9613   0.9669   1.0257   1.0635   1.0781   1.1141   1.1566
     1.1620   1.2116   1.2974   1.3152   1.3669   1.3855   1.4475   1.4918
     1.5323   1.5932   1.6088   1.6342   1.6437   1.6829   1.7095   1.7400
     1.7589   1.7978   1.8295   1.8703   1.8842   1.9227   1.9649   2.0136
     2.0247   2.0571   2.1306   2.1583   2.1779   2.2231   2.2661   2.3251
     2.3523   2.3731   2.3864   2.3987   2.4413   2.4786   2.5015   2.5393
     2.5736   2.6027   2.6314   2.6622   2.6824   2.7031   2.7201   2.7890
     2.8277   2.8634   2.9258   2.9573   2.9622   2.9806   3.0193   3.2103
     3.2219   3.2542   3.4070   3.5010   3.6972   3.8968   4.0849   4.1612
     4.2628   4.3800   4.5026   4.6454   4.7943   4.9251   5.0731   5.2022
     5.3423   5.4283   5.5055   5.6298   5.9560   6.0758   6.2771   6.3383
     6.4428   6.8100   6.9230   7.1483   7.5291   7.7315

          k = 0.4000-0.0000 0.0000 ( 43046 PWs)   bands (ev):

   -10.0951  -9.3568  -5.5198  -4.7652  -4.3716  -4.3335  -4.1881  -3.7842
    -3.5337  -3.4131  -3.2568  -3.2459  -3.2147  -3.1936  -3.1633  -3.1006
    -3.0786  -3.0159  -2.9670  -2.9087  -2.8359  -2.6663  -2.6438  -2.6262
    -2.5486  -2.5155  -2.5020  -2.4969  -2.4367  -2.3875  -2.3656  -2.3528
    -2.3075  -2.2573  -2.2303  -2.2077  -2.1706  -2.1281  -2.1160  -2.0144
    -1.9999  -1.9908  -1.8438  -1.8114  -1.7535  -1.7112  -1.6740  -1.6448
    -1.5623  -1.5342  -1.5232  -1.4991  -1.4681  -1.4123  -1.4041  -1.3507
    -1.3042  -1.2655  -1.2297  -1.2071  -1.1800  -1.1341  -1.0795  -0.9922
    -0.9880  -0.9723  -0.9178  -0.8539  -0.8283  -0.7973  -0.7951  -0.7485
    -0.7288  -0.6685  -0.6102  -0.5896  -0.5770  -0.5660  -0.5479  -0.5112
    -0.4542  -0.4207  -0.3822  -0.3574  -0.3414  -0.3274  -0.3103  -0.3023
    -0.2492  -0.2217  -0.2051  -0.1893  -0.1602  -0.1333  -0.0877  -0.0821
    -0.0691  -0.0370  -0.0076   0.0259   0.0539   0.0744   0.0926   0.1139
     0.1418   0.1537   0.1872   0.2076   0.2201   0.2463   0.2716   0.3244
     0.3500   0.3852   0.4045   0.4517   0.4814   0.5744   0.6145   0.6370
     0.6597   0.7421   0.7498   0.7860   0.8318   0.8658   0.8831   0.9377
     0.9529   0.9732   0.9988   1.0442   1.0825   1.1335   1.1413   1.1893
     1.2234   1.3060   1.3267   1.3649   1.3888   1.4097   1.4277   1.4533
     1.4822   1.5162   1.5284   1.6021   1.6581   1.6844   1.7188   1.7524
     1.7748   1.7982   1.8168   1.8409   1.8678   1.9004   1.9283   1.9880
     2.0390   2.0773   2.1262   2.1861   2.2578   2.2900   2.3116   2.3469
     2.3963   2.4106   2.4542   2.4715   2.4819   2.4912   2.5532   2.5579
     2.5816   2.6148   2.6316   2.6359   2.6825   2.7112   2.7167   2.7466
     2.7526   2.8372   2.8841   2.9005   2.9573   2.9679   2.9944   3.0343
     3.0639   3.1782   3.1898   3.3575   3.4986   3.7013   3.8226   3.9294
     4.1559   4.2082   4.3683   4.4643   4.6670   4.8844   5.0042   5.1077
     5.2438   5.3878   5.5134   5.8909   6.2387   6.3233   6.4675   6.7016
     6.7512   6.8784   7.0446   7.2693   7.5032   7.5756

          k = 0.4000 0.2309 0.0000 ( 43046 PWs)   bands (ev):

   -10.0896  -9.3619  -5.3925  -4.8284  -4.6755  -4.1411  -3.9282  -3.6971
    -3.6703  -3.5237  -3.4260  -3.2766  -3.2023  -3.1421  -3.0839  -3.0569
    -2.9786  -2.9322  -2.8626  -2.7983  -2.7522  -2.7098  -2.6944  -2.6765
    -2.6014  -2.5557  -2.5399  -2.5190  -2.4883  -2.4798  -2.4145  -2.3686
    -2.3493  -2.2550  -2.1929  -2.1379  -2.0945  -2.0734  -2.0296  -2.0192
    -1.9337  -1.9117  -1.8730  -1.8531  -1.8203  -1.7632  -1.6877  -1.6422
    -1.6046  -1.5669  -1.5317  -1.5006  -1.4778  -1.4378  -1.4210  -1.3764
    -1.3226  -1.2875  -1.2824  -1.2269  -1.1891  -1.1484  -1.0842  -1.0516
    -1.0290  -0.9971  -0.9671  -0.8829  -0.8499  -0.8335  -0.7859  -0.7482
    -0.7164  -0.6961  -0.6501  -0.5949  -0.5720  -0.5404  -0.5156  -0.4812
    -0.4714  -0.4171  -0.4052  -0.3902  -0.3525  -0.3272  -0.3117  -0.2918
    -0.2797  -0.2477  -0.2157  -0.2000  -0.1904  -0.1680  -0.1099  -0.0877
    -0.0693  -0.0436  -0.0298   0.0095   0.0284   0.0638   0.0811   0.0976
     0.1307   0.1455   0.1844   0.2199   0.2351   0.2874   0.3510   0.3829
     0.3952   0.4031   0.4329   0.5085   0.5204   0.5640   0.6210   0.6595
     0.6691   0.7183   0.7396   0.7816   0.8043   0.8143   0.8345   0.8736
     0.9052   0.9613   0.9670   1.0258   1.0635   1.0781   1.1143   1.1567
     1.1622   1.2117   1.2975   1.3152   1.3669   1.3856   1.4475   1.4917
     1.5321   1.5931   1.6089   1.6343   1.6437   1.6829   1.7094   1.7400
     1.7589   1.7978   1.8295   1.8703   1.8842   1.9227   1.9649   2.0136
     2.0247   2.0571   2.1305   2.1582   2.1779   2.2231   2.2662   2.3251
     2.3523   2.3731   2.3865   2.3986   2.4413   2.4787   2.5015   2.5395
     2.5736   2.6028   2.6315   2.6621   2.6823   2.7031   2.7199   2.7888
     2.8275   2.8635   2.9257   2.9571   2.9621   2.9806   3.0193   3.2103
     3.2220   3.2541   3.4067   3.5009   3.6973   3.8968   4.0849   4.1612
     4.2627   4.3799   4.5026   4.6453   4.7942   4.9248   5.0731   5.2022
     5.3423   5.4283   5.5055   5.6299   5.9558   6.0759   6.2772   6.3384
     6.4426   6.8102   6.9231   7.1484   7.5292   7.7303

          k = 0.4000-0.6928 0.0000 ( 43014 PWs)   bands (ev):

   -10.0807  -9.3704  -5.0784  -4.9652  -4.7121  -4.3565  -3.9522  -3.7929
    -3.5504  -3.4991  -3.2469  -3.1918  -3.1732  -3.0974  -3.0117  -2.9900
    -2.8969  -2.8791  -2.8191  -2.8023  -2.7476  -2.7371  -2.7058  -2.6750
    -2.6540  -2.6255  -2.5860  -2.5157  -2.4947  -2.4584  -2.4311  -2.4052
    -2.3370  -2.2860  -2.2587  -2.1841  -2.1346  -2.0997  -2.0739  -2.0257
    -2.0060  -1.9185  -1.8855  -1.8396  -1.7548  -1.7359  -1.6824  -1.6348
    -1.6013  -1.5737  -1.5066  -1.4874  -1.4279  -1.3812  -1.3446  -1.3251
    -1.2905  -1.2422  -1.2081  -1.1913  -1.1604  -1.1408  -1.1275  -1.0948
    -1.0438  -1.0068  -0.9881  -0.9702  -0.9269  -0.8734  -0.8593  -0.8399
    -0.7800  -0.7487  -0.7150  -0.6700  -0.6405  -0.6182  -0.5916  -0.5622
    -0.5558  -0.5327  -0.4716  -0.4518  -0.4298  -0.3967  -0.3489  -0.3242
    -0.2631  -0.2415  -0.2296  -0.1976  -0.1781  -0.1072  -0.0870  -0.0652
    -0.0433  -0.0208   0.0417   0.0492   0.0593   0.0810   0.0850   0.1248
     0.1349   0.1457   0.2028   0.2207   0.2269   0.2467   0.2601   0.2871
     0.3049   0.3243   0.4211   0.4606   0.5026   0.5421   0.6070   0.6423
     0.6568   0.6858   0.7114   0.7338   0.7761   0.8081   0.8461   0.8768
     0.8973   0.9305   0.9562   1.0277   1.0492   1.0787   1.1242   1.1486
     1.2202   1.2547   1.2699   1.3118   1.3548   1.3990   1.4182   1.4541
     1.4771   1.4872   1.5364   1.5732   1.5962   1.6154   1.6533   1.6799
     1.7162   1.7553   1.7694   1.8202   1.8783   1.9453   1.9747   2.0292
     2.1080   2.1544   2.1700   2.1958   2.2498   2.2775   2.2903   2.3425
     2.4055   2.4431   2.4704   2.4986   2.5117   2.5552   2.5755   2.5953
     2.6159   2.6442   2.6612   2.6927   2.7052   2.7485   2.7669   2.8501
     2.8679   2.9306   2.9528   2.9734   2.9987   3.0337   3.0487   3.1766
     3.2387   3.4175   3.5879   3.8246   4.0241   4.1500   4.1857   4.2514
     4.4371   4.4738   4.6796   4.7756   4.9816   5.0547   5.1962   5.2805
     5.4278   5.4815   5.7511   5.8490   5.9611   6.0405   6.0831   6.2238
     6.4375   6.5449   6.8007   6.9442   7.1333   7.2009

          k = 0.4000-0.4619 0.0000 ( 43014 PWs)   bands (ev):

   -10.0807  -9.3703  -5.0784  -4.9653  -4.7121  -4.3565  -3.9522  -3.7930
    -3.5504  -3.4991  -3.2470  -3.1918  -3.1734  -3.0974  -3.0117  -2.9900
    -2.8968  -2.8791  -2.8191  -2.8023  -2.7476  -2.7371  -2.7058  -2.6750
    -2.6540  -2.6255  -2.5859  -2.5157  -2.4947  -2.4585  -2.4311  -2.4051
    -2.3370  -2.2860  -2.2586  -2.1840  -2.1346  -2.0997  -2.0739  -2.0257
    -2.0059  -1.9184  -1.8854  -1.8395  -1.7547  -1.7359  -1.6824  -1.6348
    -1.6012  -1.5737  -1.5067  -1.4874  -1.4279  -1.3813  -1.3446  -1.3253
    -1.2904  -1.2421  -1.2078  -1.1913  -1.1603  -1.1408  -1.1274  -1.0947
    -1.0438  -1.0067  -0.9880  -0.9702  -0.9270  -0.8734  -0.8593  -0.8400
    -0.7800  -0.7489  -0.7151  -0.6698  -0.6407  -0.6181  -0.5916  -0.5623
    -0.5558  -0.5328  -0.4718  -0.4519  -0.4298  -0.3967  -0.3488  -0.3241
    -0.2632  -0.2415  -0.2297  -0.1978  -0.1782  -0.1071  -0.0869  -0.0652
    -0.0433  -0.0208   0.0416   0.0491   0.0593   0.0810   0.0850   0.1249
     0.1347   0.1456   0.2030   0.2207   0.2268   0.2466   0.2601   0.2871
     0.3049   0.3243   0.4210   0.4607   0.5025   0.5419   0.6069   0.6423
     0.6568   0.6858   0.7114   0.7337   0.7761   0.8080   0.8460   0.8768
     0.8973   0.9304   0.9562   1.0277   1.0491   1.0786   1.1241   1.1486
     1.2203   1.2547   1.2700   1.3119   1.3549   1.3990   1.4182   1.4540
     1.4771   1.4873   1.5363   1.5732   1.5963   1.6154   1.6533   1.6799
     1.7162   1.7552   1.7694   1.8202   1.8782   1.9453   1.9748   2.0292
     2.1080   2.1544   2.1700   2.1958   2.2498   2.2775   2.2903   2.3425
     2.4055   2.4431   2.4704   2.4986   2.5116   2.5552   2.5755   2.5952
     2.6160   2.6441   2.6613   2.6928   2.7052   2.7482   2.7669   2.8501
     2.8679   2.9307   2.9529   2.9735   2.9989   3.0337   3.0487   3.1767
     3.2387   3.4175   3.5879   3.8247   4.0241   4.1500   4.1858   4.2515
     4.4371   4.4737   4.6796   4.7756   4.9817   5.0548   5.1963   5.2805
     5.4278   5.4816   5.7515   5.8490   5.9614   6.0405   6.0830   6.2236
     6.4376   6.5447   6.8007   6.9443   7.1331   7.2005

     the Fermi energy is     2.7567 ev

!    total energy              =  -27793.35483434 Ry
     total all-electron energy =  -1326795.648446 Ry
     estimated scf accuracy    <       0.00000039 Ry
     smearing contrib. (-TS)   =       0.00000744 Ry
     internal energy E=F+TS    =  -27793.35484178 Ry

     The total energy is F=E-TS. E is the sum of the following terms:
     one-electron contribution =  -20763.34728712 Ry
     hartree contribution      =   10694.69043718 Ry
     xc contribution           =    -900.35613721 Ry
     ewald contribution        =    8662.84834316 Ry
     one-center paw contrib.   =  -25487.19019779 Ry

     convergence has been achieved in  18 iterations

     negative rho (up, down):  3.102E-03 0.000E+00

     Forces acting on atoms (cartesian axes, Ry/au):

     atom    1 type  1   force =    -0.00074128    0.00032887   -0.00402580
     atom    2 type  1   force =     0.00076578    0.00030644   -0.00402617
     atom    3 type  1   force =    -0.00000453   -0.00112266   -0.00644956
     atom    4 type  1   force =    -0.00001143    0.00098918   -0.00591366
     atom    5 type  1   force =    -0.00012735   -0.00010780   -0.00872544
     atom    6 type  1   force =     0.00015080   -0.00009029   -0.00869925
     atom    7 type  1   force =    -0.00031361   -0.00076364   -0.00730004
     atom    8 type  1   force =     0.00003554   -0.00085531   -0.00440428
     atom    9 type  1   force =     0.00029801   -0.00076600   -0.00728596
     atom   10 type  1   force =    -0.00002726    0.00162149    0.01856721
     atom   11 type  1   force =    -0.00252702   -0.00167885    0.00307014
     atom   12 type  1   force =     0.00251066   -0.00164477    0.00308084
     atom   13 type  1   force =    -0.00046111   -0.00064664    0.00765547
     atom   14 type  1   force =     0.00003112    0.00072618   -0.00049980
     atom   15 type  1   force =     0.00040552   -0.00063822    0.00765411
     atom   16 type  1   force =    -0.00264057    0.00038389    0.00939357
     atom   17 type  1   force =     0.00263422    0.00036026    0.00938677
     atom   18 type  1   force =    -0.00003558    0.00050387    0.00033395
     atom   19 type  1   force =    -0.00058905    0.00110919   -0.00100487
     atom   20 type  1   force =     0.00059279    0.00111577   -0.00101288
     atom   21 type  1   force =    -0.00000249    0.00049381    0.00005943
     atom   22 type  1   force =     0.00000275    0.00391640   -0.00276760
     atom   23 type  1   force =     0.00069961    0.00077191   -0.00081202
     atom   24 type  1   force =    -0.00070346    0.00077131   -0.00081552
     atom   25 type  1   force =     0.00049688    0.00146452    0.00125532
     atom   26 type  1   force =     0.00000641    0.00129696    0.00205108
     atom   27 type  1   force =    -0.00049594    0.00146003    0.00125415
     atom   28 type  1   force =     0.00156310    0.00457376    0.00347838
     atom   29 type  1   force =    -0.00157216    0.00456973    0.00350326
     atom   30 type  1   force =    -0.00000698    0.00145877    0.00006078
     atom   31 type  1   force =     0.00001771    0.00195669   -0.02590868
     atom   32 type  1   force =     0.00005982    0.00224820    0.00005755
     atom   33 type  1   force =    -0.00004590    0.00225276    0.00006270
     atom   34 type  1   force =     0.00093311    0.00498002    0.00049836
     atom   35 type  1   force =     0.00000565    0.00351034    0.00131552
     atom   36 type  1   force =    -0.00092378    0.00498570    0.00050489
     atom   37 type  2   force =    -0.00000266    0.01891026    0.00724743
     atom   38 type  3   force =     0.00002874   -0.04891566    0.01612624
     atom   39 type  2   force =    -0.00000604   -0.00983648   -0.00696560
     The non-local contrib.  to forces
     atom    1 type  1   force =     0.00126536   -0.00060858   -0.02091062
     atom    2 type  1   force =    -0.00126094   -0.00062646   -0.02090761
     atom    3 type  1   force =    -0.00000982   -0.00038223   -0.02157151
     atom    4 type  1   force =    -0.00001756    0.00062621   -0.02070261
     atom    5 type  1   force =     0.00134863    0.00040066   -0.01988594
     atom    6 type  1   force =    -0.00134328    0.00041521   -0.01987012
     atom    7 type  1   force =    -0.00315597   -0.00080699   -0.02345795
     atom    8 type  1   force =     0.00002425    0.00078636   -0.02299923
     atom    9 type  1   force =     0.00312977   -0.00080711   -0.02344309
     atom   10 type  1   force =    -0.00002981    0.00072374    0.00234579
     atom   11 type  1   force =    -0.00328150    0.00128328   -0.00062291
     atom   12 type  1   force =     0.00325562    0.00132365   -0.00060348
     atom   13 type  1   force =    -0.00164963   -0.00206104    0.00207319
     atom   14 type  1   force =     0.00002828    0.00168737   -0.00296491
     atom   15 type  1   force =     0.00158480   -0.00205220    0.00208238
     atom   16 type  1   force =     0.00274595    0.00022243    0.00036222
     atom   17 type  1   force =    -0.00275787    0.00019702    0.00035888
     atom   18 type  1   force =    -0.00003750   -0.00014238    0.00702088
     atom   19 type  1   force =    -0.00675952    0.00012763    0.01034719
     atom   20 type  1   force =     0.00675074    0.00012664    0.01033500
     atom   21 type  1   force =     0.00000781    0.00369188    0.01749575
     atom   22 type  1   force =    -0.00001024    0.00844097    0.02252796
     atom   23 type  1   force =     0.00905809   -0.00540615    0.00225842
     atom   24 type  1   force =    -0.00904693   -0.00541558    0.00225769
     atom   25 type  1   force =    -0.00711093    0.00110239   -0.00175316
     atom   26 type  1   force =     0.00000893   -0.00046356    0.01873142
     atom   27 type  1   force =     0.00712265    0.00107963   -0.00176170
     atom   28 type  1   force =     0.04176183    0.01137105   -0.04187996
     atom   29 type  1   force =    -0.04173140    0.01132530   -0.04187868
     atom   30 type  1   force =     0.00001953   -0.03687242    0.02962272
     atom   31 type  1   force =     0.00003271    0.00401960    0.01381576
     atom   32 type  1   force =    -0.02195214    0.01168697    0.01997395
     atom   33 type  1   force =     0.02200617    0.01167397    0.01997003
     atom   34 type  1   force =    -0.08546310   -0.04388478    0.00237343
     atom   35 type  1   force =     0.00001994    0.02257287    0.02311580
     atom   36 type  1   force =     0.08547771   -0.04392094    0.00235490
     atom   37 type  2   force =     0.00010209    0.18683215   -0.12778191
     atom   38 type  3   force =     0.00002502   -0.04378616   -0.06185261
     atom   39 type  2   force =     0.00001001   -0.08348441   -0.45608675
     The ionic contribution  to forces
     atom    1 type  1   force =     0.00836704   -0.00103635  -94.39091764
     atom    2 type  1   force =    -0.00835736   -0.00097453  -94.39090275
     atom    3 type  1   force =    -0.00001127   -0.02914032  -94.41070986
     atom    4 type  1   force =     0.00005775   -0.00443610  -94.38898900
     atom    5 type  1   force =    -0.02736393   -0.00283469  -94.43565900
     atom    6 type  1   force =     0.02730469   -0.00285283  -94.43577337
     atom    7 type  1   force =    -0.01334235    0.00846029  -94.39638629
     atom    8 type  1   force =    -0.00004627    0.02435220  -94.41909330
     atom    9 type  1   force =     0.01338725    0.00849793  -94.39648354
     atom   10 type  1   force =    -0.00004714    0.02259964  -33.34468404
     atom   11 type  1   force =    -0.24540375   -0.16315406  -33.47431856
     atom   12 type  1   force =     0.24492572   -0.16354775  -33.47493080
     atom   13 type  1   force =    -0.11213504   -0.06841507  -33.41067193
     atom   14 type  1   force =    -0.00051055    0.20785968  -33.65117257
     atom   15 type  1   force =     0.11211883   -0.06839294  -33.41165530
     atom   16 type  1   force =    -0.02130571    0.10022808  -33.42214274
     atom   17 type  1   force =     0.02066570    0.10048409  -33.42262249
     atom   18 type  1   force =     0.00007953    0.04313257  -33.19502055
     atom   19 type  1   force =     0.19853584   -0.06399580   28.63477324
     atom   20 type  1   force =    -0.19643659   -0.06258297   28.63575059
     atom   21 type  1   force =    -0.00202160   -0.18400448   26.04635742
     atom   22 type  1   force =     0.00171526    0.22526926   27.89941209
     atom   23 type  1   force =    -0.13268054    0.07409367   27.38404099
     atom   24 type  1   force =     0.13107534    0.07500818   27.38439663
     atom   25 type  1   force =    -0.18316249   -0.05450945   28.16635503
     atom   26 type  1   force =    -0.00006224    0.17278498   28.31526036
     atom   27 type  1   force =     0.18344019   -0.05239535   28.16673226
     atom   28 type  1   force =    -2.86471097   -1.67731923   89.18506323
     atom   29 type  1   force =     2.86635013   -1.67589890   89.18805235
     atom   30 type  1   force =    -0.00105801    0.34703398   88.42635313
     atom   31 type  1   force =     0.00205049   -0.46528034   87.39241311
     atom   32 type  1   force =     0.66448770    0.16527558   88.47681814
     atom   33 type  1   force =    -0.66655720    0.16561324   88.47615023
     atom   34 type  1   force =     3.11231047    1.32249499   88.17277438
     atom   35 type  1   force =    -0.00059056   -0.24397651   88.75493457
     atom   36 type  1   force =    -3.11169713    1.32441324   88.17575055
     atom   37 type  2   force =     0.00067434   -1.11932500   44.78009544
     atom   38 type  3   force =    -0.00060940    0.73451581   12.43764222
     atom   39 type  2   force =     0.00056380    0.98195526   46.37300780
     The local contribution  to forces
     atom    1 type  1   force =    -0.01041023    0.00186167   94.39107644
     atom    2 type  1   force =     0.01039645    0.00188648   94.39105077
     atom    3 type  1   force =     0.00003958    0.02801889   94.40888870
     atom    4 type  1   force =     0.00001306    0.00485003   94.38716540
     atom    5 type  1   force =     0.02572261    0.00244049   94.42992183
     atom    6 type  1   force =    -0.02570937    0.00239836   94.42997776
     atom    7 type  1   force =     0.01629413   -0.00824125   94.39573535
     atom    8 type  1   force =    -0.00003222   -0.02606794   94.42126046
     atom    9 type  1   force =    -0.01623921   -0.00826322   94.39577738
     atom   10 type  1   force =     0.00008811   -0.02189641   33.36181359
     atom   11 type  1   force =     0.24536382    0.15968037   33.47833767
     atom   12 type  1   force =    -0.24491728    0.15993118   33.47889711
     atom   13 type  1   force =     0.11341322    0.06970095   33.41681891
     atom   14 type  1   force =     0.00037680   -0.20785173   33.65336965
     atom   15 type  1   force =    -0.11325389    0.06965336   33.41776488
     atom   16 type  1   force =     0.01567544   -0.09989518   33.43181609
     atom   17 type  1   force =    -0.01512684   -0.10005112   33.43230366
     atom   18 type  1   force =     0.00001337   -0.04208726   33.18956937
     atom   19 type  1   force =    -0.19181129    0.06510590  -28.64344212
     atom   20 type  1   force =     0.18984268    0.06378604  -28.64442369
     atom   21 type  1   force =     0.00189822    0.18054139  -26.06222654
     atom   22 type  1   force =    -0.00158867   -0.22849360  -27.92056519
     atom   23 type  1   force =     0.12396037   -0.06784264  -27.38610759
     atom   24 type  1   force =    -0.12248363   -0.06869392  -27.38642295
     atom   25 type  1   force =     0.18993947    0.05467033  -28.16131250
     atom   26 type  1   force =     0.00003530   -0.17094595  -28.32926996
     atom   27 type  1   force =    -0.19020359    0.05270471  -28.16164839
     atom   28 type  1   force =     2.80871331    1.66175387  -89.13717312
     atom   29 type  1   force =    -2.81035951    1.66045929  -89.14015076
     atom   30 type  1   force =     0.00099450   -0.31040494  -88.44054953
     atom   31 type  1   force =    -0.00198391    0.45692626  -87.44259587
     atom   32 type  1   force =    -0.64527772   -0.17425301  -88.48072610
     atom   33 type  1   force =     0.64720706   -0.17457989  -88.47998530
     atom   34 type  1   force =    -3.00450729   -1.26543361  -88.17579843
     atom   35 type  1   force =     0.00052108    0.22719426  -88.76081416
     atom   36 type  1   force =     3.00393139   -1.26723938  -88.17870233
     atom   37 type  2   force =    -0.00073962    0.95478762  -44.64780110
     atom   38 type  3   force =     0.00061520   -0.73965999  -12.35967259
     atom   39 type  2   force =    -0.00057011   -0.91000256  -45.93218305
     The core correction contribution to forces
     atom    1 type  1   force =    -0.00000404   -0.00005858    0.01689671
     atom    2 type  1   force =     0.00000352   -0.00005798    0.01689678
     atom    3 type  1   force =    -0.00000029    0.00033926    0.01713787
     atom    4 type  1   force =    -0.00000012   -0.00001985    0.01678454
     atom    5 type  1   force =     0.00019983   -0.00004986    0.01707821
     atom    6 type  1   force =    -0.00020072   -0.00005002    0.01707698
     atom    7 type  1   force =    -0.00000756   -0.00011835    0.01704395
     atom    8 type  1   force =    -0.00000021    0.00009717    0.01660777
     atom    9 type  1   force =     0.00000736   -0.00011860    0.01704443
     atom   10 type  1   force =     0.00000075    0.00007014   -0.00046195
     atom   11 type  1   force =     0.00081290    0.00047505    0.00010168
     atom   12 type  1   force =    -0.00081095    0.00047472    0.00010259
     atom   13 type  1   force =    -0.00000382    0.00027563   -0.00010203
     atom   14 type  1   force =     0.00000084   -0.00089035    0.00063924
     atom   15 type  1   force =     0.00000616    0.00027624   -0.00009974
     atom   16 type  1   force =     0.00017793   -0.00024065   -0.00020884
     atom   17 type  1   force =    -0.00017572   -0.00024096   -0.00020889
     atom   18 type  1   force =     0.00000131   -0.00041103   -0.00073744
     atom   19 type  1   force =    -0.00048872   -0.00017080   -0.00255898
     atom   20 type  1   force =     0.00048241   -0.00017660   -0.00255830
     atom   21 type  1   force =     0.00000562    0.00020047   -0.00144601
     atom   22 type  1   force =    -0.00000491   -0.00119027   -0.00407869
     atom   23 type  1   force =     0.00026151    0.00006848   -0.00086315
     atom   24 type  1   force =    -0.00025757    0.00006770   -0.00086517
     atom   25 type  1   force =     0.00085739    0.00001448   -0.00194932
     atom   26 type  1   force =     0.00000066   -0.00022699   -0.00258205
     atom   27 type  1   force =    -0.00085960    0.00000856   -0.00195112
     atom   28 type  1   force =     0.01559776    0.00852075   -0.00278032
     atom   29 type  1   force =    -0.01559825    0.00851649   -0.00278714
     atom   30 type  1   force =     0.00000279    0.00179212   -0.01547032
     atom   31 type  1   force =    -0.00000605    0.00632222    0.01003441
     atom   32 type  1   force =     0.00290144   -0.00037582   -0.01604491
     atom   33 type  1   force =    -0.00289654   -0.00037595   -0.01604555
     atom   34 type  1   force =    -0.02103713   -0.00813878    0.00078219
     atom   35 type  1   force =     0.00000219   -0.00235075   -0.01601540
     atom   36 type  1   force =     0.02103431   -0.00814359    0.00077892
     atom   37 type  2   force =    -0.00002272   -0.00347277    0.00273917
     atom   38 type  3   force =     0.00000000    0.00000000    0.00000000
     atom   39 type  2   force =     0.00000111    0.00171144    0.00835733
     The Hubbard contrib.    to forces
     atom    1 type  1   force =     0.00000000    0.00000000    0.00000000
     atom    2 type  1   force =     0.00000000    0.00000000    0.00000000
     atom    3 type  1   force =     0.00000000    0.00000000    0.00000000
     atom    4 type  1   force =     0.00000000    0.00000000    0.00000000
     atom    5 type  1   force =     0.00000000    0.00000000    0.00000000
     atom    6 type  1   force =     0.00000000    0.00000000    0.00000000
     atom    7 type  1   force =     0.00000000    0.00000000    0.00000000
     atom    8 type  1   force =     0.00000000    0.00000000    0.00000000
     atom    9 type  1   force =     0.00000000    0.00000000    0.00000000
     atom   10 type  1   force =     0.00000000    0.00000000    0.00000000
     atom   11 type  1   force =     0.00000000    0.00000000    0.00000000
     atom   12 type  1   force =     0.00000000    0.00000000    0.00000000
     atom   13 type  1   force =     0.00000000    0.00000000    0.00000000
     atom   14 type  1   force =     0.00000000    0.00000000    0.00000000
     atom   15 type  1   force =     0.00000000    0.00000000    0.00000000
     atom   16 type  1   force =     0.00000000    0.00000000    0.00000000
     atom   17 type  1   force =     0.00000000    0.00000000    0.00000000
     atom   18 type  1   force =     0.00000000    0.00000000    0.00000000
     atom   19 type  1   force =     0.00000000    0.00000000    0.00000000
     atom   20 type  1   force =     0.00000000    0.00000000    0.00000000
     atom   21 type  1   force =     0.00000000    0.00000000    0.00000000
     atom   22 type  1   force =     0.00000000    0.00000000    0.00000000
     atom   23 type  1   force =     0.00000000    0.00000000    0.00000000
     atom   24 type  1   force =     0.00000000    0.00000000    0.00000000
     atom   25 type  1   force =     0.00000000    0.00000000    0.00000000
     atom   26 type  1   force =     0.00000000    0.00000000    0.00000000
     atom   27 type  1   force =     0.00000000    0.00000000    0.00000000
     atom   28 type  1   force =     0.00000000    0.00000000    0.00000000
     atom   29 type  1   force =     0.00000000    0.00000000    0.00000000
     atom   30 type  1   force =     0.00000000    0.00000000    0.00000000
     atom   31 type  1   force =     0.00000000    0.00000000    0.00000000
     atom   32 type  1   force =     0.00000000    0.00000000    0.00000000
     atom   33 type  1   force =     0.00000000    0.00000000    0.00000000
     atom   34 type  1   force =     0.00000000    0.00000000    0.00000000
     atom   35 type  1   force =     0.00000000    0.00000000    0.00000000
     atom   36 type  1   force =     0.00000000    0.00000000    0.00000000
     atom   37 type  2   force =     0.00000000    0.00000000    0.00000000
     atom   38 type  3   force =     0.00000000    0.00000000    0.00000000
     atom   39 type  2   force =     0.00000000    0.00000000    0.00000000
     The SCF correction term to forces
     atom    1 type  1   force =     0.00000000    0.00000000   -0.00000000
     atom    2 type  1   force =    -0.00000000    0.00000000   -0.00000000
     atom    3 type  1   force =    -0.00000000    0.00000000   -0.00000000
     atom    4 type  1   force =    -0.00000000   -0.00000000   -0.00000000
     atom    5 type  1   force =    -0.00000000   -0.00000000   -0.00000000
     atom    6 type  1   force =     0.00000000   -0.00000000   -0.00000000
     atom    7 type  1   force =    -0.00000000   -0.00000000   -0.00000000
     atom    8 type  1   force =     0.00000000   -0.00000000   -0.00000000
     atom    9 type  1   force =     0.00000000   -0.00000000   -0.00000000
     atom   10 type  1   force =    -0.00000000    0.00000000   -0.00000000
     atom   11 type  1   force =    -0.00000000    0.00000000   -0.00000000
     atom   12 type  1   force =     0.00000000    0.00000000   -0.00000000
     atom   13 type  1   force =    -0.00000000   -0.00000000   -0.00000000
     atom   14 type  1   force =     0.00000000   -0.00000000   -0.00000000
     atom   15 type  1   force =    -0.00000000   -0.00000000   -0.00000000
     atom   16 type  1   force =     0.00000000    0.00000000   -0.00000000
     atom   17 type  1   force =     0.00000000   -0.00000000   -0.00000000
     atom   18 type  1   force =    -0.00000000    0.00000000   -0.00000000
     atom   19 type  1   force =    -0.00006599    0.00003824   -0.00016944
     atom   20 type  1   force =    -0.00004708   -0.00004135   -0.00016170
     atom   21 type  1   force =     0.00010683    0.00006055   -0.00016642
     atom   22 type  1   force =    -0.00010931   -0.00011397   -0.00010901
     atom   23 type  1   force =     0.00009955   -0.00014546   -0.00018592
     atom   24 type  1   force =     0.00000871   -0.00019908   -0.00022694
     atom   25 type  1   force =    -0.00002718    0.00018276   -0.00012996
     atom   26 type  1   force =     0.00002313    0.00014447   -0.00013393
     atom   27 type  1   force =     0.00000378    0.00005847   -0.00016212
     atom   28 type  1   force =     0.00020055    0.00024331    0.00020332
     atom   29 type  1   force =    -0.00023375    0.00016354    0.00022228
     atom   30 type  1   force =     0.00003359   -0.00009398    0.00005954
     atom   31 type  1   force =    -0.00007614   -0.00003506    0.00037869
     atom   32 type  1   force =    -0.00010008   -0.00008952   -0.00000875
     atom   33 type  1   force =     0.00019398   -0.00008262   -0.00007194
     atom   34 type  1   force =    -0.00037047   -0.00006181    0.00032156
     atom   35 type  1   force =     0.00005238    0.00006648    0.00004947
     atom   36 type  1   force =     0.00032932   -0.00012764    0.00027762
     atom   37 type  2   force =    -0.00001737    0.00008426   -0.00004939
     atom   38 type  3   force =    -0.00000270    0.00001068   -0.00003601
     atom   39 type  2   force =    -0.00001148   -0.00002022   -0.00010615

     Total force =     0.063862     Total SCF correction =     0.001185

     Writing all to output data dir ./pwscf.save/

     init_run     :     15.19s CPU     15.60s WALL (       1 calls)
     electrons    :    363.29s CPU    377.97s WALL (       1 calls)
     forces       :      4.15s CPU      4.83s WALL (       1 calls)

     Called by init_run:
     wfcinit      :     10.29s CPU     10.53s WALL (       1 calls)
     potinit      :      3.28s CPU      3.38s WALL (       1 calls)
     hinit0       :      1.01s CPU      1.03s WALL (       1 calls)

     Called by electrons:
     c_bands      :    299.45s CPU    308.30s WALL (      19 calls)
     sum_band     :     45.83s CPU     48.01s WALL (      19 calls)
     v_of_rho     :      9.32s CPU     11.73s WALL (      19 calls)
     newd         :      2.68s CPU      3.46s WALL (      19 calls)
     PAW_pot      :      4.16s CPU      4.29s WALL (      19 calls)
     mix_rho      :      3.99s CPU      4.15s WALL (      19 calls)
     vdW_kernel   :      1.74s CPU      1.76s WALL (       1 calls)

     Called by c_bands:
     init_us_2    :      2.82s CPU      2.92s WALL (     520 calls)
     init_us_2:cp :      2.82s CPU      2.92s WALL (     520 calls)
     cegterg      :    292.00s CPU    300.37s WALL (     247 calls)

     Called by *egterg:
     cdiaghg      :     78.57s CPU     80.56s WALL (    1292 calls)
     h_psi        :    135.85s CPU    139.85s WALL (    1318 calls)
     s_psi        :     15.09s CPU     15.76s WALL (    1318 calls)
     g_psi        :      0.43s CPU      0.45s WALL (    1058 calls)

     Called by h_psi:
     h_psi:calbec :     20.21s CPU     20.98s WALL (    1318 calls)
     vloc_psi     :     99.25s CPU    101.70s WALL (    1318 calls)
     add_vuspsi   :     15.28s CPU     15.92s WALL (    1318 calls)

     General routines
     calbec       :     30.83s CPU     31.87s WALL (    1617 calls)
     fft          :      5.93s CPU      8.35s WALL (    1257 calls)
     ffts         :      2.37s CPU      2.42s WALL (    4351 calls)
     fftw         :    109.43s CPU    111.86s WALL (  313786 calls)
     interpolate  :      0.65s CPU      0.70s WALL (      19 calls)

     Parallel routines

     PWSCF        :   6m28.53s CPU   6m47.38s WALL


   This run was terminated on:  15:26: 5   6Dec2025            

=------------------------------------------------------------------------------=
   JOB DONE.
=------------------------------------------------------------------------------=
