
     Program PWSCF v.7.1 starts on 14Dec2025 at  9:57:49 
        Git branch: heads/qe-7.1
        Last git commit: 48ba0178f8fede6d020eb786884699a9f063f55d-dirty
        Last git commit date: Fri Jan 27 14:22:33 2023 +0000
        Last git commit subject: Merge branch 'fix_hubbard' into 'develop'

     This program is part of the open-source Quantum ESPRESSO suite
     for quantum simulation of materials; please cite
         "P. Giannozzi et al., J. Phys.:Condens. Matter 21 395502 (2009);
         "P. Giannozzi et al., J. Phys.:Condens. Matter 29 465901 (2017);
         "P. Giannozzi et al., J. Chem. Phys. 152 154105 (2020);
          URL http://www.quantum-espresso.org", 
     in publications or presentations arising from this work. More details at
     http://www.quantum-espresso.org/quote

     Parallel version (MPI), running on    96 processors

     MPI processes distributed on     2 nodes
     72468 MiB available memory on the printing compute node when the environment starts

     Reading input from espresso.pwi
Warning: card &CELL ignored
Warning: card / ignored
Warning: card &FCP ignored
Warning: card / ignored
Warning: card &RISM ignored
Warning: card / ignored

     Current dimensions of program PWSCF are:
     Max number of different atomic species (ntypx) = 10
     Max number of k-points (npk) =  40000
     Max angular momentum in pseudopotentials (lmaxx) =  4
     file Co.pbe-n-kjpaw_psl.1.0.0.UPF: wavefunction(s)  4S 3D renormalized
     file C.pbe-n-kjpaw_psl.1.0.0.UPF: wavefunction(s)  2S 2P renormalized
     file O.pbe-nl-kjpaw_psl.1.0.0.UPF: wavefunction(s)  2S 2P renormalized
     file H.pbe-kjpaw_psl.1.0.0.UPF: wavefunction(s)  1S renormalized

     **************************************************************************
     Initializing libbeef V0.1.2 with the BEEF-vdW functional.
     Citation: Wellendorff et al., PRB 85, 235149 (2012).
     **************************************************************************


     IMPORTANT: XC functional enforced from input :
     Exchange-correlation= BEEF-VDW
                           (   1   4  43  14   2   0   0)
     Any further DFT definition will be discarded
     Please, verify this is what you really want


     R & G space division:  proc/nbgrp/npool/nimage =      96
     Subspace diagonalization in iterative solution of the eigenvalue problem:
     one sub-group per band group will be used
     custom distributed-memory algorithm (size of sub-group:  2*  2 procs)


     Parallelization info
     --------------------
     sticks:   dense  smooth     PW     G-vecs:    dense   smooth      PW
     Min          43      28      7                 7829     4248     595
     Max          44      29      8                 7845     4281     630
     Sum        4153    2773    757               752179   409445   59217

     Using Slab Decomposition



     bravais-lattice index     =            0
     lattice parameter (alat)  =      14.1729  a.u.
     unit-cell volume          =    8574.3059 (a.u.)^3
     number of atoms/cell      =           39
     number of atomic types    =            4
     number of electrons       =       335.00
     number of Kohn-Sham states=          202
     kinetic-energy cutoff     =      50.0000  Ry
     charge density cutoff     =     300.0000  Ry
     scf convergence threshold =      1.0E-08
     mixing beta               =       0.7000
     number of iterations used =            8  local-TF  mixing
     Exchange-correlation= BEEF-VDW
                           (   1   4  43  14   2   0   0)

     celldm(1)=  14.172946  celldm(2)=   0.000000  celldm(3)=   0.000000
     celldm(4)=   0.000000  celldm(5)=   0.000000  celldm(6)=   0.000000

     crystal axes: (cart. coord. in units of alat)
               a(1) = (   1.000000   0.000000   0.000000 )  
               a(2) = (   0.500000   0.866025   0.000000 )  
               a(3) = (   0.000000   0.000000   3.477667 )  

     reciprocal axes: (cart. coord. in units 2 pi/alat)
               b(1) = (  1.000000 -0.577350  0.000000 )  
               b(2) = (  0.000000  1.154701  0.000000 )  
               b(3) = (  0.000000  0.000000  0.287549 )  


     PseudoPot. # 1 for Co read from file:
     /users/kbadger1/espresso/pseudo/pslibrary.1.0.0/pbe/PSEUDOPOTENTIALS/Co.pbe-n-kjpaw_psl.1.0.0.UPF
     MD5 check sum: 88af6ec42553d4236c267fdfcb472151
     Pseudo is Projector augmented-wave + core cor, Zval =  9.0
     Generated using 'atomic' code by A. Dal Corso  v.7.0
     Shape of augmentation charge: PSQ
     Using radial grid of 1193 points,  6 beta functions with: 
                l(1) =   0
                l(2) =   0
                l(3) =   1
                l(4) =   1
                l(5) =   2
                l(6) =   2
     Q(r) pseudized with 0 coefficients 


     PseudoPot. # 2 for C  read from file:
     /users/kbadger1/espresso/pseudo/pslibrary.1.0.0/pbe/PSEUDOPOTENTIALS/C.pbe-n-kjpaw_psl.1.0.0.UPF
     MD5 check sum: 6408e75cdba28732cea38a4db8498ce4
     Pseudo is Projector augmented-wave + core cor, Zval =  4.0
     Generated using 'atomic' code by A. Dal Corso  v.7.0
     Shape of augmentation charge: PSQ
     Using radial grid of 1073 points,  4 beta functions with: 
                l(1) =   0
                l(2) =   0
                l(3) =   1
                l(4) =   1
     Q(r) pseudized with 0 coefficients 


     PseudoPot. # 3 for O  read from file:
     /users/kbadger1/espresso/pseudo/pslibrary.1.0.0/pbe/PSEUDOPOTENTIALS/O.pbe-nl-kjpaw_psl.1.0.0.UPF
     MD5 check sum: f0439fab3598ca4e468f064226030408
     Pseudo is Projector augmented-wave + core cor, Zval =  6.0
     Generated using 'atomic' code by A. Dal Corso  v.7.0
     Shape of augmentation charge: PSQ
     Using radial grid of 1095 points,  4 beta functions with: 
                l(1) =   0
                l(2) =   0
                l(3) =   1
                l(4) =   1
     Q(r) pseudized with 0 coefficients 


     PseudoPot. # 4 for H  read from file:
     /users/kbadger1/espresso/pseudo/pslibrary.1.0.0/pbe/PSEUDOPOTENTIALS/H.pbe-kjpaw_psl.1.0.0.UPF
     MD5 check sum: fe4c6fa958fa6d3815bf5d2419cbf1df
     Pseudo is Projector augmented-wave, Zval =  1.0
     Generated using 'atomic' code by A. Dal Corso  v.7.0
     Shape of augmentation charge: PSQ
     Using radial grid of  929 points,  2 beta functions with: 
                l(1) =   0
                l(2) =   0
     Q(r) pseudized with 0 coefficients 


     atomic species   valence    mass     pseudopotential
        Co             9.00    58.93319     Co( 1.00)
        C              4.00    12.00000     C ( 1.00)
        O              6.00    15.99491     O ( 1.00)
        H              1.00     1.00783     H ( 1.00)

     Starting magnetic structure 
     atomic species   magnetization
        Co           1.000
        C            1.000
        O            0.000
        H            0.000

     No symmetry found



   Cartesian axes

     site n.     atom                  positions (alat units)
         1           Co  tau(   1) = (   0.0000000   0.1924501   1.3333333  )
         2           Co  tau(   2) = (   0.3333333   0.1924501   1.3333333  )
         3           Co  tau(   3) = (   0.6666667   0.1924501   1.3333333  )
         4           Co  tau(   4) = (   0.1666667   0.4811252   1.3333333  )
         5           Co  tau(   5) = (   0.5000000   0.4811252   1.3333333  )
         6           Co  tau(   6) = (   0.8333333   0.4811252   1.3333333  )
         7           Co  tau(   7) = (   0.3333333   0.7698004   1.3333333  )
         8           Co  tau(   8) = (   0.6666667   0.7698004   1.3333333  )
         9           Co  tau(   9) = (   1.0000000   0.7698004   1.3333333  )
        10           Co  tau(  10) = (   0.0000000   0.0000000   1.6036667  )
        11           Co  tau(  11) = (   0.3333333   0.0000000   1.6036667  )
        12           Co  tau(  12) = (   0.6666667   0.0000000   1.6036667  )
        13           Co  tau(  13) = (   0.1666667   0.2886751   1.6036667  )
        14           Co  tau(  14) = (   0.5000000   0.2886751   1.6036667  )
        15           Co  tau(  15) = (   0.8333333   0.2886751   1.6036667  )
        16           Co  tau(  16) = (   0.3333333   0.5773503   1.6036667  )
        17           Co  tau(  17) = (   0.6666667   0.5773503   1.6036667  )
        18           Co  tau(  18) = (   1.0000000   0.5773503   1.6036667  )
        19           Co  tau(  19) = (   0.0000000   0.1924501   1.8740000  )
        20           Co  tau(  20) = (   0.3333333   0.1924501   1.8740000  )
        21           Co  tau(  21) = (   0.6666667   0.1924501   1.8740000  )
        22           Co  tau(  22) = (   0.1666667   0.4811252   1.8740000  )
        23           Co  tau(  23) = (   0.5000000   0.4811252   1.8740000  )
        24           Co  tau(  24) = (   0.8333333   0.4811252   1.8740000  )
        25           Co  tau(  25) = (   0.3333333   0.7698004   1.8740000  )
        26           Co  tau(  26) = (   0.6666667   0.7698004   1.8740000  )
        27           Co  tau(  27) = (   1.0000000   0.7698004   1.8740000  )
        28           Co  tau(  28) = (   0.0000000   0.0000000   2.1443333  )
        29           Co  tau(  29) = (   0.3333333   0.0000000   2.1443333  )
        30           Co  tau(  30) = (   0.6666667   0.0000000   2.1443333  )
        31           Co  tau(  31) = (   0.1666667   0.2886751   2.1443333  )
        32           Co  tau(  32) = (   0.5000000   0.2886751   2.1443333  )
        33           Co  tau(  33) = (   0.8333333   0.2886751   2.1443333  )
        34           Co  tau(  34) = (   0.3333333   0.5773503   2.1443333  )
        35           Co  tau(  35) = (   0.6666667   0.5773503   2.1443333  )
        36           Co  tau(  36) = (   1.0000000   0.5773503   2.1443333  )
        37           C   tau(  37) = (   0.3393752   0.1967132   2.3238547  )
        38           O   tau(  38) = (   0.3186512   0.1852619   2.4814159  )
        39           H   tau(  39) = (   0.6312389   0.3632434   2.2945177  )

     number of k points=    13  Marzari-Vanderbilt smearing, width (Ry)=  0.0010
                       cart. coord. in units 2pi/alat
        k(    1) = (   0.0000000   0.0000000   0.0000000), wk =   0.0400000
        k(    2) = (   0.0000000   0.2309401   0.0000000), wk =   0.0800000
        k(    3) = (   0.0000000   0.4618802   0.0000000), wk =   0.0800000
        k(    4) = (   0.2000000  -0.1154701   0.0000000), wk =   0.0800000
        k(    5) = (   0.2000000   0.1154701   0.0000000), wk =   0.0800000
        k(    6) = (   0.2000000   0.3464102   0.0000000), wk =   0.0800000
        k(    7) = (   0.2000000  -0.5773503   0.0000000), wk =   0.0800000
        k(    8) = (   0.2000000  -0.3464102   0.0000000), wk =   0.0800000
        k(    9) = (   0.4000000  -0.2309401   0.0000000), wk =   0.0800000
        k(   10) = (   0.4000000   0.0000000   0.0000000), wk =   0.0800000
        k(   11) = (   0.4000000   0.2309401   0.0000000), wk =   0.0800000
        k(   12) = (   0.4000000  -0.6928203   0.0000000), wk =   0.0800000
        k(   13) = (   0.4000000  -0.4618802   0.0000000), wk =   0.0800000

     Dense  grid:   752179 G-vectors     FFT dimensions: (  80,  80, 288)

     Smooth grid:   409445 G-vectors     FFT dimensions: (  64,  64, 225)

     Estimated max dynamical RAM per process >      99.02 MB

     Estimated total dynamical RAM >       9.28 GB
     Generating pointlists ...
     new r_m :   0.0878 (alat units)  1.2449 (a.u.) for type    1
     new r_m :   0.0657 (alat units)  0.9315 (a.u.) for type    2
     new r_m :   0.0657 (alat units)  0.9315 (a.u.) for type    3
     new r_m :   0.0878 (alat units)  1.2449 (a.u.) for type    4

     Initial potential from superposition of free atoms

     starting charge     334.9897, renormalised to     335.0000

     negative rho (up, down):  3.061E-03 4.536E-04


     %%%%%%%%%%%%%%%%%%%%%%%%%%%%%%%%%%%%%%%%%%%%%%%%%%%%%%%%%%%%%%%%%%%%%%%%
     %                                                                      %
     % You are using vdW-DF, which was implemented by the Thonhauser group. %
     % Please cite the following two papers that made this development      %
     % possible and the two reviews that describe the various versions:     %
     %                                                                      %
     %   T. Thonhauser et al., PRL 115, 136402 (2015).                      %
     %   T. Thonhauser et al., PRB 76, 125112 (2007).                       %
     %   K. Berland et al., Rep. Prog. Phys. 78, 066501 (2015).             %
     %   D.C. Langreth et al., J. Phys.: Condens. Matter 21, 084203 (2009). %
     %                                                                      %
     % If you are calculating stress with vdW-DF, please also cite:         %
     %                                                                      %
     %   R. Sabatini et al., J. Phys.: Condens. Matter 24, 424209 (2012).   %
     %   C.M. Frostenson et al., Electr. Struct. 4, 014001 (2022).          %
     %                                                                      %
     %%%%%%%%%%%%%%%%%%%%%%%%%%%%%%%%%%%%%%%%%%%%%%%%%%%%%%%%%%%%%%%%%%%%%%%%

     %%%%%%%%%%%%%%%%%%%%%%%%%%%%%%%%%%%%%%%%%%%%%%%%%%%%%%%%%%%%%%%%%%%%%%%%
     %                                                                      %
     %  vdW-DF NEWS:                                                        %
     %                                                                      %
     %  * vdW-DF3 is now available. DOI: 10.1021/acs.jctc.0c00471           %
     %    use with input_dft = 'vdW-DF3-opt1' or 'vdW-DF3-opt2'             %
     %                                                                      %
     %  * Unscreened and range-separated hybrid vdW-DF-cx functionals       %
     %    DOI: 10.1063/1.4986522 and 10.1088/1361-648X/ac2ad2               %
     %    use with input_dft = 'vdW-DF-cx0'    and 'vdW-DF-ahcx'            %
     %  * Unscreened and range-separated hybrid vdW-DF2-b86r functionals    %
     %    DOI: 10.1063/1.4986522 and DOI: 10.1103/PhysRevX.12.041003        %
     %    use with input_dft = 'vdW-DF2-br0' and 'vdW-DF2-ahbr'             %
     %                                                                      %
     %%%%%%%%%%%%%%%%%%%%%%%%%%%%%%%%%%%%%%%%%%%%%%%%%%%%%%%%%%%%%%%%%%%%%%%%


     Starting wfcs are  333 randomized atomic wfcs
     Checking if some PAW data can be deallocated... 

     total cpu time spent up to now is       19.5 secs

     per-process dynamical memory:   231.9 Mb

     Self-consistent Calculation

     iteration #  1     ecut=    50.00 Ry     beta= 0.70
     Davidson diagonalization with overlap
     ethr =  1.00E-02,  avg # of iterations =  2.0

     negative rho (up, down):  3.438E-05 5.699E-08

     total cpu time spent up to now is       37.2 secs

     total energy              =   -6053.11390850 Ry
     estimated scf accuracy    <      39.05046960 Ry

     total magnetization       =    69.00 Bohr mag/cell
     absolute magnetization    =    81.26 Bohr mag/cell

     iteration #  2     ecut=    50.00 Ry     beta= 0.70
     Davidson diagonalization with overlap
     ethr =  1.00E-02,  avg # of iterations =  1.0

     negative rho (up, down):  5.280E-06 2.835E-08

     total cpu time spent up to now is       56.6 secs

     total energy              =   -6052.61887153 Ry
     estimated scf accuracy    <      24.68230603 Ry

     total magnetization       =    68.93 Bohr mag/cell
     absolute magnetization    =    76.82 Bohr mag/cell

     iteration #  3     ecut=    50.00 Ry     beta= 0.70
     Davidson diagonalization with overlap
     ethr =  7.37E-03,  avg # of iterations =  1.2

     negative rho (up, down):  3.289E-08 0.000E+00

     total cpu time spent up to now is       71.7 secs

     total energy              =   -6055.19162619 Ry
     estimated scf accuracy    <      83.62554258 Ry

     total magnetization       =    66.12 Bohr mag/cell
     absolute magnetization    =    73.46 Bohr mag/cell

     iteration #  4     ecut=    50.00 Ry     beta= 0.70
     Davidson diagonalization with overlap
     ethr =  7.37E-03,  avg # of iterations =  1.0

     total cpu time spent up to now is       92.5 secs

     total energy              =   -6056.42204416 Ry
     estimated scf accuracy    <       5.20972277 Ry

     total magnetization       =    60.24 Bohr mag/cell
     absolute magnetization    =    70.08 Bohr mag/cell

     iteration #  5     ecut=    50.00 Ry     beta= 0.70
     Davidson diagonalization with overlap
     ethr =  1.56E-03,  avg # of iterations =  1.2

     total cpu time spent up to now is      110.4 secs

     total energy              =   -6056.43668860 Ry
     estimated scf accuracy    <       2.29366180 Ry

     total magnetization       =    60.12 Bohr mag/cell
     absolute magnetization    =    69.54 Bohr mag/cell

     iteration #  6     ecut=    50.00 Ry     beta= 0.70
     Davidson diagonalization with overlap
     ethr =  6.85E-04,  avg # of iterations =  1.7

     total cpu time spent up to now is      126.4 secs

     total energy              =   -6056.54931519 Ry
     estimated scf accuracy    <       0.59631176 Ry

     total magnetization       =    59.60 Bohr mag/cell
     absolute magnetization    =    68.81 Bohr mag/cell

     iteration #  7     ecut=    50.00 Ry     beta= 0.70
     Davidson diagonalization with overlap
     ethr =  1.78E-04,  avg # of iterations =  5.7

     total cpu time spent up to now is      149.2 secs

     total energy              =   -6056.58100858 Ry
     estimated scf accuracy    <       0.65007604 Ry

     total magnetization       =    59.99 Bohr mag/cell
     absolute magnetization    =    68.74 Bohr mag/cell

     iteration #  8     ecut=    50.00 Ry     beta= 0.70
     Davidson diagonalization with overlap
     ethr =  1.78E-04,  avg # of iterations =  1.5

     total cpu time spent up to now is      169.0 secs

     total energy              =   -6056.60102983 Ry
     estimated scf accuracy    <       0.11472138 Ry

     total magnetization       =    59.98 Bohr mag/cell
     absolute magnetization    =    68.59 Bohr mag/cell

     iteration #  9     ecut=    50.00 Ry     beta= 0.70
     Davidson diagonalization with overlap
     c_bands:  1 eigenvalues not converged
     c_bands:  1 eigenvalues not converged
     c_bands:  1 eigenvalues not converged
     ethr =  3.42E-05,  avg # of iterations = 10.4

     total cpu time spent up to now is      204.0 secs

     total energy              =   -6056.61097577 Ry
     estimated scf accuracy    <       0.25013599 Ry

     total magnetization       =    60.29 Bohr mag/cell
     absolute magnetization    =    68.38 Bohr mag/cell

     iteration # 10     ecut=    50.00 Ry     beta= 0.70
     Davidson diagonalization with overlap
     ethr =  3.42E-05,  avg # of iterations =  1.8

     total cpu time spent up to now is      218.2 secs

     total energy              =   -6056.61843033 Ry
     estimated scf accuracy    <       0.13228108 Ry

     total magnetization       =    60.37 Bohr mag/cell
     absolute magnetization    =    68.33 Bohr mag/cell

     iteration # 11     ecut=    50.00 Ry     beta= 0.70
     Davidson diagonalization with overlap
     ethr =  3.42E-05,  avg # of iterations =  1.0

     total cpu time spent up to now is      236.8 secs

     total energy              =   -6056.61076393 Ry
     estimated scf accuracy    <       0.07963784 Ry

     total magnetization       =    60.29 Bohr mag/cell
     absolute magnetization    =    68.23 Bohr mag/cell

     iteration # 12     ecut=    50.00 Ry     beta= 0.70
     Davidson diagonalization with overlap
     ethr =  2.38E-05,  avg # of iterations =  1.8

     total cpu time spent up to now is      253.3 secs

     total energy              =   -6056.61176517 Ry
     estimated scf accuracy    <       0.08401655 Ry

     total magnetization       =    60.28 Bohr mag/cell
     absolute magnetization    =    68.04 Bohr mag/cell

     iteration # 13     ecut=    50.00 Ry     beta= 0.70
     Davidson diagonalization with overlap
     ethr =  2.38E-05,  avg # of iterations =  1.0

     total cpu time spent up to now is      269.7 secs

     total energy              =   -6056.61421166 Ry
     estimated scf accuracy    <       0.08286470 Ry

     total magnetization       =    60.28 Bohr mag/cell
     absolute magnetization    =    68.01 Bohr mag/cell

     iteration # 14     ecut=    50.00 Ry     beta= 0.70
     Davidson diagonalization with overlap
     ethr =  2.38E-05,  avg # of iterations =  1.0

     total cpu time spent up to now is      286.7 secs

     total energy              =   -6056.61014483 Ry
     estimated scf accuracy    <       0.06308715 Ry

     total magnetization       =    60.28 Bohr mag/cell
     absolute magnetization    =    68.00 Bohr mag/cell

     iteration # 15     ecut=    50.00 Ry     beta= 0.70
     Davidson diagonalization with overlap
     ethr =  1.88E-05,  avg # of iterations =  1.1

     negative rho (up, down):  1.725E-03 1.155E-03

     total cpu time spent up to now is      302.9 secs

     total energy              =   -6056.60565589 Ry
     estimated scf accuracy    <       0.05642258 Ry

     total magnetization       =    60.28 Bohr mag/cell
     absolute magnetization    =    68.03 Bohr mag/cell

     iteration # 16     ecut=    50.00 Ry     beta= 0.70
     Davidson diagonalization with overlap
     ethr =  1.68E-05,  avg # of iterations =  1.8

     negative rho (up, down):  1.156E-02 1.034E-02

     total cpu time spent up to now is      321.2 secs

     total energy              =   -6056.60369667 Ry
     estimated scf accuracy    <       0.09999585 Ry

     total magnetization       =    60.28 Bohr mag/cell
     absolute magnetization    =    67.89 Bohr mag/cell

     iteration # 17     ecut=    50.00 Ry     beta= 0.70
     Davidson diagonalization with overlap
     ethr =  1.68E-05,  avg # of iterations =  1.0

     negative rho (up, down):  1.438E-02 1.326E-02

     total cpu time spent up to now is      336.2 secs

     total energy              =   -6056.60172536 Ry
     estimated scf accuracy    <       0.04816028 Ry

     total magnetization       =    60.29 Bohr mag/cell
     absolute magnetization    =    67.83 Bohr mag/cell

     iteration # 18     ecut=    50.00 Ry     beta= 0.70
     Davidson diagonalization with overlap
     ethr =  1.44E-05,  avg # of iterations =  1.2

     negative rho (up, down):  2.179E-02 2.048E-02

     total cpu time spent up to now is      353.5 secs

     total energy              =   -6056.60102422 Ry
     estimated scf accuracy    <       0.02328249 Ry

     total magnetization       =    60.29 Bohr mag/cell
     absolute magnetization    =    67.82 Bohr mag/cell

     iteration # 19     ecut=    50.00 Ry     beta= 0.70
     Davidson diagonalization with overlap
     ethr =  6.95E-06,  avg # of iterations =  1.6

     negative rho (up, down):  1.870E-02 1.742E-02

     total cpu time spent up to now is      370.6 secs

     total energy              =   -6056.60115064 Ry
     estimated scf accuracy    <       0.02395886 Ry

     total magnetization       =    60.29 Bohr mag/cell
     absolute magnetization    =    67.81 Bohr mag/cell

     iteration # 20     ecut=    50.00 Ry     beta= 0.70
     Davidson diagonalization with overlap
     ethr =  6.95E-06,  avg # of iterations =  1.0

     negative rho (up, down):  2.953E-02 2.803E-02

     total cpu time spent up to now is      387.9 secs

     total energy              =   -6056.59943944 Ry
     estimated scf accuracy    <       0.01146438 Ry

     total magnetization       =    60.29 Bohr mag/cell
     absolute magnetization    =    67.82 Bohr mag/cell

     iteration # 21     ecut=    50.00 Ry     beta= 0.70
     Davidson diagonalization with overlap
     c_bands:  4 eigenvalues not converged
     c_bands:  1 eigenvalues not converged
     ethr =  3.42E-06,  avg # of iterations =  5.4

     negative rho (up, down):  1.914E-02 1.814E-02

     total cpu time spent up to now is      411.5 secs

     total energy              =   -6056.59910856 Ry
     estimated scf accuracy    <       0.00796434 Ry

     total magnetization       =    60.29 Bohr mag/cell
     absolute magnetization    =    67.85 Bohr mag/cell

     iteration # 22     ecut=    50.00 Ry     beta= 0.70
     Davidson diagonalization with overlap
     c_bands:  3 eigenvalues not converged
     ethr =  2.38E-06,  avg # of iterations =  3.7

     negative rho (up, down):  1.141E-02 1.059E-02

     total cpu time spent up to now is      428.5 secs

     total energy              =   -6056.59890588 Ry
     estimated scf accuracy    <       0.00304087 Ry

     total magnetization       =    60.29 Bohr mag/cell
     absolute magnetization    =    67.90 Bohr mag/cell

     iteration # 23     ecut=    50.00 Ry     beta= 0.70
     Davidson diagonalization with overlap
     c_bands:  1 eigenvalues not converged
     c_bands:  1 eigenvalues not converged
     ethr =  9.08E-07,  avg # of iterations =  4.3

     negative rho (up, down):  1.117E-02 1.041E-02

     total cpu time spent up to now is      450.8 secs

     total energy              =   -6056.59899314 Ry
     estimated scf accuracy    <       0.00494835 Ry

     total magnetization       =    60.29 Bohr mag/cell
     absolute magnetization    =    67.91 Bohr mag/cell

     iteration # 24     ecut=    50.00 Ry     beta= 0.70
     Davidson diagonalization with overlap
     ethr =  9.08E-07,  avg # of iterations =  2.2

     negative rho (up, down):  8.921E-03 8.196E-03

     total cpu time spent up to now is      469.4 secs

     total energy              =   -6056.59916190 Ry
     estimated scf accuracy    <       0.00194544 Ry

     total magnetization       =    60.29 Bohr mag/cell
     absolute magnetization    =    67.92 Bohr mag/cell

     iteration # 25     ecut=    50.00 Ry     beta= 0.70
     Davidson diagonalization with overlap
     ethr =  5.81E-07,  avg # of iterations =  1.6

     negative rho (up, down):  3.121E-03 2.327E-03

     total cpu time spent up to now is      484.8 secs

     total energy              =   -6056.59925077 Ry
     estimated scf accuracy    <       0.00043169 Ry

     total magnetization       =    60.29 Bohr mag/cell
     absolute magnetization    =    67.93 Bohr mag/cell

     iteration # 26     ecut=    50.00 Ry     beta= 0.70
     Davidson diagonalization with overlap
     c_bands:  1 eigenvalues not converged
     c_bands:  2 eigenvalues not converged
     ethr =  1.29E-07,  avg # of iterations =  6.7

     negative rho (up, down):  2.572E-03 1.747E-03

     total cpu time spent up to now is      510.2 secs

     total energy              =   -6056.59930158 Ry
     estimated scf accuracy    <       0.00026821 Ry

     total magnetization       =    60.29 Bohr mag/cell
     absolute magnetization    =    67.94 Bohr mag/cell

     iteration # 27     ecut=    50.00 Ry     beta= 0.70
     Davidson diagonalization with overlap
     c_bands:  1 eigenvalues not converged
     ethr =  8.01E-08,  avg # of iterations =  3.2

     negative rho (up, down):  2.371E-03 1.523E-03

     total cpu time spent up to now is      530.2 secs

     total energy              =   -6056.59932116 Ry
     estimated scf accuracy    <       0.00045364 Ry

     total magnetization       =    60.29 Bohr mag/cell
     absolute magnetization    =    67.94 Bohr mag/cell

     iteration # 28     ecut=    50.00 Ry     beta= 0.70
     Davidson diagonalization with overlap
     ethr =  8.01E-08,  avg # of iterations =  1.3

     negative rho (up, down):  1.554E-03 6.663E-04

     total cpu time spent up to now is      547.3 secs

     total energy              =   -6056.59940791 Ry
     estimated scf accuracy    <       0.00043675 Ry

     total magnetization       =    60.29 Bohr mag/cell
     absolute magnetization    =    67.93 Bohr mag/cell

     iteration # 29     ecut=    50.00 Ry     beta= 0.70
     Davidson diagonalization with overlap
     ethr =  8.01E-08,  avg # of iterations =  1.5

     negative rho (up, down):  1.625E-03 6.317E-04

     total cpu time spent up to now is      565.5 secs

     total energy              =   -6056.59947570 Ry
     estimated scf accuracy    <       0.00012812 Ry

     total magnetization       =    60.29 Bohr mag/cell
     absolute magnetization    =    67.93 Bohr mag/cell

     iteration # 30     ecut=    50.00 Ry     beta= 0.70
     Davidson diagonalization with overlap
     ethr =  3.82E-08,  avg # of iterations =  2.0

     negative rho (up, down):  1.752E-03 8.250E-04

     total cpu time spent up to now is      586.1 secs

     total energy              =   -6056.59947317 Ry
     estimated scf accuracy    <       0.00024541 Ry

     total magnetization       =    60.29 Bohr mag/cell
     absolute magnetization    =    67.93 Bohr mag/cell

     iteration # 31     ecut=    50.00 Ry     beta= 0.70
     Davidson diagonalization with overlap
     ethr =  3.82E-08,  avg # of iterations =  2.1

     negative rho (up, down):  1.841E-03 9.371E-04

     total cpu time spent up to now is      602.8 secs

     total energy              =   -6056.59948123 Ry
     estimated scf accuracy    <       0.00010120 Ry

     total magnetization       =    60.29 Bohr mag/cell
     absolute magnetization    =    67.93 Bohr mag/cell

     iteration # 32     ecut=    50.00 Ry     beta= 0.70
     Davidson diagonalization with overlap
     ethr =  3.02E-08,  avg # of iterations =  1.0

     negative rho (up, down):  1.850E-03 8.359E-04

     total cpu time spent up to now is      621.2 secs

     total energy              =   -6056.59949555 Ry
     estimated scf accuracy    <       0.00001002 Ry

     total magnetization       =    60.29 Bohr mag/cell
     absolute magnetization    =    67.93 Bohr mag/cell

     iteration # 33     ecut=    50.00 Ry     beta= 0.70
     Davidson diagonalization with overlap
     ethr =  2.99E-09,  avg # of iterations =  7.9

     negative rho (up, down):  1.893E-03 8.626E-04

     total cpu time spent up to now is      648.2 secs

     total energy              =   -6056.59949799 Ry
     estimated scf accuracy    <       0.00000877 Ry

     total magnetization       =    60.29 Bohr mag/cell
     absolute magnetization    =    67.93 Bohr mag/cell

     iteration # 34     ecut=    50.00 Ry     beta= 0.70
     Davidson diagonalization with overlap
     ethr =  2.62E-09,  avg # of iterations =  1.7

     negative rho (up, down):  1.929E-03 8.918E-04

     total cpu time spent up to now is      662.8 secs

     total energy              =   -6056.59949885 Ry
     estimated scf accuracy    <       0.00000355 Ry

     total magnetization       =    60.29 Bohr mag/cell
     absolute magnetization    =    67.93 Bohr mag/cell

     iteration # 35     ecut=    50.00 Ry     beta= 0.70
     Davidson diagonalization with overlap
     ethr =  1.06E-09,  avg # of iterations =  3.2

     negative rho (up, down):  1.999E-03 9.376E-04

     total cpu time spent up to now is      685.9 secs

     total energy              =   -6056.59950034 Ry
     estimated scf accuracy    <       0.00000437 Ry

     total magnetization       =    60.29 Bohr mag/cell
     absolute magnetization    =    67.93 Bohr mag/cell

     iteration # 36     ecut=    50.00 Ry     beta= 0.70
     Davidson diagonalization with overlap
     ethr =  1.06E-09,  avg # of iterations =  1.7

     negative rho (up, down):  2.018E-03 9.433E-04

     total cpu time spent up to now is      700.4 secs

     total energy              =   -6056.59950054 Ry
     estimated scf accuracy    <       0.00000098 Ry

     total magnetization       =    60.29 Bohr mag/cell
     absolute magnetization    =    67.93 Bohr mag/cell

     iteration # 37     ecut=    50.00 Ry     beta= 0.70
     Davidson diagonalization with overlap
     ethr =  2.91E-10,  avg # of iterations =  5.3

     negative rho (up, down):  2.064E-03 9.809E-04

     total cpu time spent up to now is      722.7 secs

     total energy              =   -6056.59950065 Ry
     estimated scf accuracy    <       0.00000109 Ry

     total magnetization       =    60.29 Bohr mag/cell
     absolute magnetization    =    67.93 Bohr mag/cell

     iteration # 38     ecut=    50.00 Ry     beta= 0.70
     Davidson diagonalization with overlap
     ethr =  2.91E-10,  avg # of iterations =  1.7

     negative rho (up, down):  2.093E-03 1.009E-03

     total cpu time spent up to now is      743.8 secs

     total energy              =   -6056.59950097 Ry
     estimated scf accuracy    <       0.00000056 Ry

     total magnetization       =    60.29 Bohr mag/cell
     absolute magnetization    =    67.93 Bohr mag/cell

     iteration # 39     ecut=    50.00 Ry     beta= 0.70
     Davidson diagonalization with overlap
     ethr =  1.68E-10,  avg # of iterations =  2.1

     negative rho (up, down):  2.129E-03 1.040E-03

     total cpu time spent up to now is      758.9 secs

     total energy              =   -6056.59950099 Ry
     estimated scf accuracy    <       0.00000214 Ry

     total magnetization       =    60.29 Bohr mag/cell
     absolute magnetization    =    67.93 Bohr mag/cell

     iteration # 40     ecut=    50.00 Ry     beta= 0.70
     Davidson diagonalization with overlap
     ethr =  1.68E-10,  avg # of iterations =  1.9

     negative rho (up, down):  2.138E-03 1.050E-03

     total cpu time spent up to now is      779.2 secs

     total energy              =   -6056.59950115 Ry
     estimated scf accuracy    <       0.00000080 Ry

     total magnetization       =    60.29 Bohr mag/cell
     absolute magnetization    =    67.93 Bohr mag/cell

     iteration # 41     ecut=    50.00 Ry     beta= 0.70
     Davidson diagonalization with overlap
     ethr =  1.68E-10,  avg # of iterations =  1.4

     negative rho (up, down):  2.159E-03 1.070E-03

     total cpu time spent up to now is      798.9 secs

     total energy              =   -6056.59950129 Ry
     estimated scf accuracy    <       0.00000027 Ry

     total magnetization       =    60.29 Bohr mag/cell
     absolute magnetization    =    67.93 Bohr mag/cell

     iteration # 42     ecut=    50.00 Ry     beta= 0.70
     Davidson diagonalization with overlap
     ethr =  7.96E-11,  avg # of iterations =  3.3

     negative rho (up, down):  2.191E-03 1.099E-03

     total cpu time spent up to now is      816.9 secs

     total energy              =   -6056.59950138 Ry
     estimated scf accuracy    <       0.00000061 Ry

     total magnetization       =    60.29 Bohr mag/cell
     absolute magnetization    =    67.93 Bohr mag/cell

     iteration # 43     ecut=    50.00 Ry     beta= 0.70
     Davidson diagonalization with overlap
     ethr =  7.96E-11,  avg # of iterations =  1.6

     negative rho (up, down):  2.204E-03 1.114E-03

     total cpu time spent up to now is      835.3 secs

     total energy              =   -6056.59950150 Ry
     estimated scf accuracy    <       0.00000013 Ry

     total magnetization       =    60.29 Bohr mag/cell
     absolute magnetization    =    67.93 Bohr mag/cell

     iteration # 44     ecut=    50.00 Ry     beta= 0.70
     Davidson diagonalization with overlap
     ethr =  4.01E-11,  avg # of iterations =  2.5

     negative rho (up, down):  2.226E-03 1.140E-03

     total cpu time spent up to now is      857.5 secs

     total energy              =   -6056.59950159 Ry
     estimated scf accuracy    <       0.00000019 Ry

     total magnetization       =    60.29 Bohr mag/cell
     absolute magnetization    =    67.93 Bohr mag/cell

     iteration # 45     ecut=    50.00 Ry     beta= 0.70
     Davidson diagonalization with overlap
     ethr =  4.01E-11,  avg # of iterations =  2.5

     negative rho (up, down):  2.229E-03 1.139E-03

     total cpu time spent up to now is      874.6 secs

     total energy              =   -6056.59950159 Ry
     estimated scf accuracy    <       0.00000011 Ry

     total magnetization       =    60.29 Bohr mag/cell
     absolute magnetization    =    67.93 Bohr mag/cell

     iteration # 46     ecut=    50.00 Ry     beta= 0.70
     Davidson diagonalization with overlap
     ethr =  3.23E-11,  avg # of iterations =  1.8

     negative rho (up, down):  2.245E-03 1.156E-03

     total cpu time spent up to now is      893.4 secs

     total energy              =   -6056.59950163 Ry
     estimated scf accuracy    <       0.00000008 Ry

     total magnetization       =    60.29 Bohr mag/cell
     absolute magnetization    =    67.93 Bohr mag/cell

     iteration # 47     ecut=    50.00 Ry     beta= 0.70
     Davidson diagonalization with overlap
     ethr =  2.40E-11,  avg # of iterations =  1.8

     negative rho (up, down):  2.251E-03 1.162E-03

     total cpu time spent up to now is      910.3 secs

     total energy              =   -6056.59950164 Ry
     estimated scf accuracy    <       0.00000007 Ry

     total magnetization       =    60.29 Bohr mag/cell
     absolute magnetization    =    67.93 Bohr mag/cell

     iteration # 48     ecut=    50.00 Ry     beta= 0.70
     Davidson diagonalization with overlap
     ethr =  2.17E-11,  avg # of iterations =  1.2

     negative rho (up, down):  2.254E-03 1.165E-03

     Magnetic moment per site  (integrated on atomic sphere of radius R)
     atom   1 (R=0.088)  charge=  5.5435  magn=  1.6266
     atom   2 (R=0.088)  charge=  5.5446  magn=  1.6052
     atom   3 (R=0.088)  charge=  5.5426  magn=  1.6214
     atom   4 (R=0.088)  charge=  5.5419  magn=  1.6244
     atom   5 (R=0.088)  charge=  5.5426  magn=  1.6213
     atom   6 (R=0.088)  charge=  5.5419  magn=  1.6252
     atom   7 (R=0.088)  charge=  5.5436  magn=  1.6310
     atom   8 (R=0.088)  charge=  5.5435  magn=  1.6266
     atom   9 (R=0.088)  charge=  5.5419  magn=  1.6244
     atom  10 (R=0.088)  charge=  5.5396  magn=  1.5625
     atom  11 (R=0.088)  charge=  5.5388  magn=  1.5608
     atom  12 (R=0.088)  charge=  5.5383  magn=  1.5681
     atom  13 (R=0.088)  charge=  5.5389  magn=  1.5608
     atom  14 (R=0.088)  charge=  5.5385  magn=  1.5558
     atom  15 (R=0.088)  charge=  5.5385  magn=  1.5703
     atom  16 (R=0.088)  charge=  5.5383  magn=  1.5682
     atom  17 (R=0.088)  charge=  5.5385  magn=  1.5703
     atom  18 (R=0.088)  charge=  5.5383  magn=  1.5676
     atom  19 (R=0.088)  charge=  5.5389  magn=  1.5354
     atom  20 (R=0.088)  charge=  5.5369  magn=  1.5676
     atom  21 (R=0.088)  charge=  5.5386  magn=  1.5572
     atom  22 (R=0.088)  charge=  5.5380  magn=  1.5542
     atom  23 (R=0.088)  charge=  5.5386  magn=  1.5569
     atom  24 (R=0.088)  charge=  5.5368  magn=  1.5875
     atom  25 (R=0.088)  charge=  5.5385  magn=  1.5629
     atom  26 (R=0.088)  charge=  5.5389  magn=  1.5358
     atom  27 (R=0.088)  charge=  5.5380  magn=  1.5544
     atom  28 (R=0.088)  charge=  5.5444  magn=  1.6603
     atom  29 (R=0.088)  charge=  5.5509  magn=  1.3523
     atom  30 (R=0.088)  charge=  5.5423  magn=  1.6649
     atom  31 (R=0.088)  charge=  5.5510  magn=  1.3469
     atom  32 (R=0.088)  charge=  5.5494  magn=  0.9648
     atom  33 (R=0.088)  charge=  5.5409  magn=  1.5839
     atom  34 (R=0.088)  charge=  5.5423  magn=  1.6647
     atom  35 (R=0.088)  charge=  5.5410  magn=  1.5862
     atom  36 (R=0.088)  charge=  5.5399  magn=  1.6401
     atom  37 (R=0.066)  charge=  1.0558  magn= -0.0227
     atom  38 (R=0.066)  charge=  2.9355  magn= -0.0404
     atom  39 (R=0.088)  charge=  0.7815  magn= -0.0159

     total cpu time spent up to now is      927.4 secs

     End of self-consistent calculation

 ------ SPIN UP ------------


          k = 0.0000 0.0000 0.0000 ( 51087 PWs)   bands (ev):

   -21.8207  -9.2852  -7.6618  -6.4704  -5.7971  -5.5912  -5.4109  -5.0156
    -4.8387  -4.8316  -4.8263  -4.8099  -4.7840  -4.7795  -4.5950  -4.3633
    -4.2967  -4.2944  -4.2761  -4.2457  -4.2385  -4.0625  -3.7781  -3.7763
    -3.7694  -3.7522  -3.7275  -3.6970  -3.6462  -3.6460  -3.6409  -3.6349
    -3.6081  -3.5650  -3.5636  -3.4508  -3.2647  -3.2575  -3.2541  -3.2489
    -3.1943  -3.1927  -3.1828  -3.1814  -3.1782  -3.1670  -3.1638  -3.1069
    -3.0283  -3.0238  -2.9593  -2.9515  -2.9480  -2.9393  -2.9382  -2.9282
    -2.9187  -2.9102  -2.8941  -2.8768  -2.8210  -2.8077  -2.8067  -2.8047
    -2.7364  -2.5957  -2.3191  -2.2770  -2.2761  -2.2740  -2.2709  -2.1743
    -2.1469  -2.1403  -2.1274  -2.1147  -2.1053  -2.1003  -2.0941  -2.0917
    -2.0483  -2.0482  -1.9995  -1.9939  -1.9931  -1.9895  -1.9770  -1.9663
    -1.9613  -1.9535  -1.9507  -1.9463  -1.9367  -1.9220  -1.9179  -1.9085
    -1.9047  -1.9038  -1.9017  -1.9000  -1.8979  -1.8941  -1.8939  -1.8726
    -1.8651  -1.8465  -1.8356  -1.8254  -1.8236  -1.7495  -1.7461  -1.6471
    -1.5398  -1.4623  -1.4514  -1.4511  -1.4474  -1.4377  -1.4120  -1.4111
    -1.4064  -1.4035  -1.3969  -1.3594  -1.3543  -1.2283  -1.2208  -1.2100
    -1.1963  -1.1586  -1.0918  -1.0596  -1.0472  -1.0165  -0.9762  -0.9725
    -0.9633  -0.9563  -0.9556  -0.9465  -0.9141  -0.8996  -0.8332  -0.8179
    -0.7204  -0.7195  -0.7065  -0.7057  -0.6859  -0.6681  -0.6622  -0.6466
    -0.6461  -0.6411  -0.6393  -0.6369  -0.6353  -0.6191  -0.6183  -0.6114
    -0.6073  -0.6022  -0.5872  -0.5782  -0.5732  -0.5627  -0.5559  -0.5534
    -0.5371  -0.5330  -0.5260  -0.5100  -0.5085  -0.5053  -0.4999  -0.4951
    -0.4863  -0.4791  -0.4637  -0.4493  -0.4309  -0.4121  -0.4092  -0.4008
    -0.3942  -0.3871  -0.3866  -0.3832  -0.3648  -0.3285  -0.3278  -0.3189
    -0.3111  -0.3031  -0.2481  -0.2445  -0.2427  -0.2262  -0.2146  -0.1857
     0.4965   0.7558

          k = 0.0000 0.2309 0.0000 ( 51134 PWs)   bands (ev):

   -21.8207  -9.2749  -7.5204  -6.3702  -5.8270  -5.6450  -5.5217  -5.3570
    -5.0720  -5.0372  -4.9334  -4.6213  -4.4959  -4.4820  -4.4625  -4.4154
    -4.3292  -4.2927  -4.2274  -4.1778  -4.1524  -4.0507  -3.8857  -3.7793
    -3.7706  -3.7025  -3.6616  -3.6500  -3.6458  -3.6392  -3.6318  -3.6068
    -3.5929  -3.5427  -3.5205  -3.4984  -3.4938  -3.4192  -3.2829  -3.2714
    -3.2643  -3.2173  -3.2124  -3.2002  -3.1763  -3.1152  -3.0811  -3.0663
    -3.0463  -3.0409  -3.0311  -3.0046  -2.9660  -2.9106  -2.9035  -2.8743
    -2.8370  -2.8305  -2.8070  -2.8025  -2.7738  -2.7389  -2.7363  -2.7219
    -2.6964  -2.5932  -2.3961  -2.3882  -2.3634  -2.3499  -2.3324  -2.2508
    -2.2408  -2.2240  -2.2192  -2.2093  -2.2021  -2.1903  -2.1686  -2.1145
    -2.1098  -2.0917  -2.0737  -2.0363  -2.0358  -2.0271  -2.0155  -2.0056
    -1.9990  -1.9978  -1.9880  -1.9789  -1.9683  -1.9580  -1.9268  -1.8909
    -1.8800  -1.8703  -1.8170  -1.8054  -1.7993  -1.7925  -1.7854  -1.7781
    -1.7712  -1.7658  -1.7544  -1.7499  -1.7419  -1.7176  -1.7072  -1.6960
    -1.6839  -1.6691  -1.6325  -1.5874  -1.5735  -1.4894  -1.4779  -1.4739
    -1.4609  -1.4497  -1.4416  -1.4363  -1.4103  -1.3930  -1.3495  -1.2795
    -1.2510  -1.2024  -1.1833  -1.1730  -1.1584  -1.1101  -1.0940  -1.0787
    -1.0477  -0.9946  -0.9817  -0.9730  -0.9459  -0.9398  -0.9040  -0.8938
    -0.8679  -0.8601  -0.8454  -0.8238  -0.8164  -0.7984  -0.7903  -0.7812
    -0.7237  -0.7158  -0.7093  -0.7021  -0.6817  -0.6667  -0.6451  -0.6361
    -0.6310  -0.6251  -0.6205  -0.6093  -0.5863  -0.5824  -0.5691  -0.5529
    -0.5215  -0.5000  -0.4894  -0.4643  -0.4507  -0.4354  -0.4130  -0.3915
    -0.3816  -0.3715  -0.3675  -0.3569  -0.3419  -0.3316  -0.3224  -0.2848
    -0.2580  -0.2468  -0.2408  -0.2198  -0.2093  -0.1906  -0.1828  -0.1602
    -0.1058  -0.0245   0.1064   0.1358   0.1880   0.2735   0.3948   0.4182
     0.4528   0.7982

          k = 0.0000 0.4619 0.0000 ( 51204 PWs)   bands (ev):

   -21.8207  -9.2584  -7.1039  -6.4552  -6.1096  -5.7861  -5.5559  -5.3775
    -5.2027  -5.1410  -5.0668  -4.7620  -4.3360  -4.3157  -4.2828  -4.2467
    -4.1973  -4.1265  -4.1209  -4.0331  -3.9928  -3.9876  -3.9684  -3.8248
    -3.8109  -3.8049  -3.7935  -3.7918  -3.7240  -3.6906  -3.6810  -3.5749
    -3.5238  -3.5130  -3.4957  -3.4798  -3.4672  -3.4309  -3.3682  -3.3596
    -3.3487  -3.3370  -3.2863  -3.2224  -3.1361  -3.1074  -3.0436  -3.0323
    -3.0092  -2.9848  -2.9650  -2.9463  -2.9400  -2.9332  -2.9119  -2.8593
    -2.8502  -2.8278  -2.7883  -2.7679  -2.6576  -2.6420  -2.6214  -2.5975
    -2.5539  -2.5347  -2.5072  -2.4982  -2.4775  -2.4195  -2.3699  -2.3661
    -2.3611  -2.3488  -2.3406  -2.3208  -2.3047  -2.2961  -2.2733  -2.2534
    -2.2362  -2.2006  -2.1832  -2.1656  -2.1342  -2.1180  -2.0704  -2.0450
    -2.0306  -2.0162  -1.9985  -1.9781  -1.9730  -1.9335  -1.9190  -1.9126
    -1.9007  -1.8892  -1.8796  -1.8596  -1.8467  -1.8416  -1.8389  -1.8082
    -1.7927  -1.7637  -1.7330  -1.7278  -1.6638  -1.6440  -1.6288  -1.6109
    -1.6029  -1.5801  -1.5528  -1.5285  -1.5187  -1.4975  -1.4943  -1.4842
    -1.4814  -1.4715  -1.4603  -1.4523  -1.4455  -1.4393  -1.4215  -1.4141
    -1.4053  -1.3629  -1.2995  -1.2824  -1.2705  -1.2583  -1.2297  -1.2172
    -1.1914  -1.1360  -1.1156  -1.1040  -1.0654  -1.0501  -1.0254  -0.9823
    -0.9769  -0.9529  -0.9338  -0.9174  -0.9008  -0.8694  -0.8472  -0.7887
    -0.7573  -0.7356  -0.7222  -0.7108  -0.7086  -0.6991  -0.6897  -0.6831
    -0.6648  -0.6368  -0.5596  -0.5542  -0.5458  -0.5395  -0.5322  -0.5091
    -0.5012  -0.4894  -0.4753  -0.4709  -0.4540  -0.4307  -0.3779  -0.3626
    -0.3506  -0.3370  -0.3120  -0.2622  -0.2570  -0.2308  -0.2223  -0.1866
    -0.1497  -0.1445  -0.1385  -0.1231  -0.1153  -0.1116  -0.1030  -0.0482
    -0.0094   0.0224   0.4637   0.5829   0.9147   1.0860   1.1209   1.2865
     1.4694   1.5084

          k = 0.2000-0.1155 0.0000 ( 51134 PWs)   bands (ev):

   -21.8207  -9.2748  -7.5204  -6.3703  -5.8275  -5.6452  -5.5209  -5.3572
    -5.0718  -5.0373  -4.9334  -4.6204  -4.4963  -4.4819  -4.4628  -4.4154
    -4.3298  -4.2926  -4.2269  -4.1786  -4.1525  -4.0494  -3.8862  -3.7791
    -3.7705  -3.7025  -3.6617  -3.6500  -3.6458  -3.6393  -3.6319  -3.6069
    -3.5925  -3.5430  -3.5205  -3.4985  -3.4937  -3.4195  -3.2832  -3.2715
    -3.2644  -3.2173  -3.2124  -3.2001  -3.1762  -3.1154  -3.0812  -3.0662
    -3.0463  -3.0408  -3.0312  -3.0046  -2.9657  -2.9107  -2.9035  -2.8745
    -2.8367  -2.8306  -2.8070  -2.8024  -2.7737  -2.7390  -2.7362  -2.7219
    -2.6961  -2.5934  -2.3962  -2.3882  -2.3633  -2.3497  -2.3323  -2.2508
    -2.2409  -2.2240  -2.2193  -2.2094  -2.2021  -2.1902  -2.1682  -2.1144
    -2.1099  -2.0917  -2.0737  -2.0364  -2.0358  -2.0275  -2.0152  -2.0056
    -1.9990  -1.9978  -1.9880  -1.9788  -1.9681  -1.9578  -1.9266  -1.8908
    -1.8801  -1.8701  -1.8171  -1.8054  -1.7993  -1.7924  -1.7855  -1.7782
    -1.7713  -1.7659  -1.7544  -1.7499  -1.7420  -1.7177  -1.7071  -1.6960
    -1.6840  -1.6691  -1.6325  -1.5876  -1.5737  -1.4899  -1.4779  -1.4738
    -1.4607  -1.4499  -1.4416  -1.4363  -1.4105  -1.3926  -1.3485  -1.2797
    -1.2508  -1.2025  -1.1833  -1.1730  -1.1582  -1.1104  -1.0942  -1.0788
    -1.0470  -0.9950  -0.9820  -0.9732  -0.9459  -0.9400  -0.9041  -0.8940
    -0.8679  -0.8601  -0.8451  -0.8237  -0.8163  -0.7985  -0.7905  -0.7810
    -0.7237  -0.7159  -0.7092  -0.7020  -0.6815  -0.6663  -0.6451  -0.6361
    -0.6309  -0.6252  -0.6204  -0.6093  -0.5865  -0.5825  -0.5691  -0.5527
    -0.5213  -0.4998  -0.4892  -0.4642  -0.4509  -0.4356  -0.4128  -0.3916
    -0.3815  -0.3714  -0.3673  -0.3570  -0.3419  -0.3316  -0.3225  -0.2846
    -0.2580  -0.2467  -0.2408  -0.2198  -0.2092  -0.1909  -0.1827  -0.1601
    -0.1060  -0.0247   0.1061   0.1358   0.1872   0.2734   0.3944   0.4182
     0.4531   0.7985

          k = 0.2000 0.1155 0.0000 ( 51134 PWs)   bands (ev):

   -21.8207  -9.2738  -7.5214  -6.3733  -5.8561  -5.6392  -5.4355  -5.4245
    -5.0635  -5.0367  -4.9469  -4.5758  -4.5088  -4.4789  -4.4675  -4.4112
    -4.3377  -4.3112  -4.2223  -4.1900  -4.1547  -4.0196  -3.8939  -3.7828
    -3.7606  -3.6954  -3.6558  -3.6514  -3.6471  -3.6453  -3.6291  -3.6227
    -3.5629  -3.5506  -3.5359  -3.4995  -3.4941  -3.4241  -3.2917  -3.2713
    -3.2671  -3.2174  -3.2171  -3.2013  -3.1724  -3.1153  -3.0855  -3.0599
    -3.0434  -3.0406  -3.0320  -3.0135  -2.9607  -2.9121  -2.9031  -2.8758
    -2.8424  -2.8179  -2.8065  -2.8011  -2.7843  -2.7376  -2.7372  -2.7246
    -2.6711  -2.5970  -2.3978  -2.3831  -2.3617  -2.3491  -2.3357  -2.2502
    -2.2426  -2.2348  -2.2141  -2.2115  -2.2061  -2.1913  -2.1450  -2.1156
    -2.1098  -2.0948  -2.0636  -2.0368  -2.0338  -2.0312  -2.0216  -2.0062
    -1.9986  -1.9976  -1.9912  -1.9789  -1.9623  -1.9547  -1.9374  -1.8874
    -1.8809  -1.8607  -1.8174  -1.8128  -1.8031  -1.7941  -1.7864  -1.7845
    -1.7685  -1.7659  -1.7580  -1.7496  -1.7427  -1.7315  -1.6994  -1.6992
    -1.6807  -1.6803  -1.6281  -1.5941  -1.5813  -1.5093  -1.4817  -1.4669
    -1.4595  -1.4535  -1.4391  -1.4378  -1.4155  -1.3692  -1.2959  -1.2929
    -1.2437  -1.2065  -1.1832  -1.1792  -1.1527  -1.1342  -1.0995  -1.0922
    -1.0262  -0.9957  -0.9880  -0.9637  -0.9479  -0.9468  -0.9042  -0.9003
    -0.8783  -0.8587  -0.8403  -0.8215  -0.8198  -0.8026  -0.7967  -0.7789
    -0.7188  -0.7122  -0.7053  -0.6957  -0.6867  -0.6598  -0.6455  -0.6353
    -0.6348  -0.6225  -0.6195  -0.5989  -0.5928  -0.5834  -0.5757  -0.5577
    -0.5139  -0.4897  -0.4752  -0.4741  -0.4572  -0.4425  -0.4087  -0.3944
    -0.3847  -0.3710  -0.3646  -0.3503  -0.3414  -0.3295  -0.3237  -0.2778
    -0.2472  -0.2446  -0.2394  -0.2189  -0.2104  -0.1742  -0.1650  -0.1563
    -0.1046  -0.0595   0.1014   0.1355   0.1782   0.2634   0.3965   0.4135
     0.4430   0.7431

          k = 0.2000 0.3464 0.0000 ( 51202 PWs)   bands (ev):

   -21.8207  -9.2602  -7.2427  -6.2152  -6.0332  -5.9305  -5.6663  -5.4506
    -5.3698  -4.9411  -4.7484  -4.5947  -4.4932  -4.4788  -4.3188  -4.2704
    -4.2555  -4.1709  -4.1656  -4.0746  -4.0383  -3.9606  -3.8967  -3.8706
    -3.8237  -3.7776  -3.6887  -3.6723  -3.6445  -3.6365  -3.6244  -3.6119
    -3.5866  -3.5814  -3.5407  -3.5201  -3.4753  -3.4466  -3.4422  -3.3782
    -3.2976  -3.2490  -3.2155  -3.1837  -3.1672  -3.1566  -3.0952  -3.0534
    -3.0194  -2.9852  -2.9774  -2.9693  -2.9403  -2.9170  -2.9033  -2.8864
    -2.8705  -2.8405  -2.7624  -2.7080  -2.6890  -2.6688  -2.6523  -2.6314
    -2.6083  -2.5470  -2.5046  -2.4369  -2.4141  -2.3901  -2.3731  -2.3450
    -2.3302  -2.3212  -2.3176  -2.2972  -2.2712  -2.2628  -2.2549  -2.2447
    -2.2300  -2.1873  -2.1659  -2.1149  -2.0715  -2.0599  -2.0426  -2.0240
    -2.0085  -1.9943  -1.9635  -1.9567  -1.9455  -1.9211  -1.9105  -1.9011
    -1.8957  -1.8895  -1.8830  -1.8589  -1.8542  -1.8439  -1.8247  -1.8201
    -1.8003  -1.7755  -1.7512  -1.7237  -1.7170  -1.6814  -1.6727  -1.6675
    -1.6559  -1.6443  -1.6113  -1.5777  -1.5688  -1.5554  -1.5347  -1.5103
    -1.5038  -1.4923  -1.4767  -1.4581  -1.4417  -1.4368  -1.4212  -1.3706
    -1.3544  -1.3368  -1.3177  -1.2330  -1.2115  -1.1869  -1.1747  -1.0995
    -1.0703  -1.0577  -1.0456  -1.0416  -1.0336  -1.0253  -0.9983  -0.9973
    -0.9725  -0.9562  -0.9381  -0.8976  -0.8811  -0.8657  -0.8603  -0.8451
    -0.8189  -0.7975  -0.7857  -0.7773  -0.7641  -0.7476  -0.6262  -0.6120
    -0.5893  -0.5771  -0.5681  -0.5599  -0.5420  -0.5298  -0.5200  -0.5126
    -0.4918  -0.4643  -0.4417  -0.4298  -0.4083  -0.3982  -0.3545  -0.3433
    -0.3366  -0.3304  -0.3273  -0.3031  -0.2910  -0.2846  -0.2767  -0.2618
    -0.2502  -0.1786  -0.1651  -0.1631  -0.1166  -0.1132  -0.0856   0.0446
     0.1823   0.2274   0.2653   0.4015   0.5258   0.6349   0.9590   1.1236
     1.2294   1.4462

          k = 0.2000-0.5774 0.0000 ( 51262 PWs)   bands (ev):

   -21.8207  -9.2530  -6.7308  -6.6749  -6.1202  -5.9705  -5.7280  -5.4926
    -5.2326  -5.1687  -4.8494  -4.6107  -4.4710  -4.2323  -4.1895  -4.0679
    -4.0540  -4.0447  -4.0272  -4.0169  -3.9642  -3.9483  -3.9428  -3.9384
    -3.9184  -3.8536  -3.7952  -3.7846  -3.7667  -3.7611  -3.7021  -3.6151
    -3.6098  -3.5969  -3.5764  -3.5317  -3.4852  -3.4415  -3.3563  -3.3162
    -3.3101  -3.2738  -3.2260  -3.2112  -3.1842  -3.1325  -3.0976  -3.0942
    -3.0513  -3.0306  -2.9921  -2.9336  -2.9033  -2.8742  -2.8602  -2.8179
    -2.7991  -2.7353  -2.7292  -2.7204  -2.7054  -2.6900  -2.6707  -2.6258
    -2.5587  -2.5177  -2.5063  -2.4959  -2.4614  -2.4335  -2.4167  -2.3698
    -2.3663  -2.3267  -2.3142  -2.3085  -2.2973  -2.2771  -2.2603  -2.2525
    -2.2340  -2.2223  -2.2092  -2.1836  -2.1780  -2.1430  -2.1059  -2.0951
    -2.0802  -2.0503  -2.0089  -1.9817  -1.9627  -1.9433  -1.9313  -1.9238
    -1.9043  -1.8919  -1.8834  -1.8773  -1.8593  -1.8377  -1.8327  -1.7828
    -1.7723  -1.7489  -1.7410  -1.7324  -1.7166  -1.7102  -1.6996  -1.6873
    -1.6809  -1.6745  -1.6504  -1.6274  -1.5915  -1.5808  -1.5600  -1.5253
    -1.4922  -1.4835  -1.4619  -1.4346  -1.4215  -1.4108  -1.4067  -1.3757
    -1.3410  -1.3346  -1.3048  -1.2626  -1.2075  -1.1927  -1.1790  -1.1614
    -1.1382  -1.1342  -1.1272  -1.0986  -1.0764  -1.0645  -1.0496  -1.0269
    -0.9843  -0.9755  -0.9591  -0.9416  -0.9259  -0.8823  -0.8744  -0.8588
    -0.8562  -0.8284  -0.8240  -0.8062  -0.7795  -0.7649  -0.7361  -0.5875
    -0.5702  -0.5634  -0.5541  -0.5442  -0.5362  -0.5294  -0.5155  -0.4866
    -0.4778  -0.4669  -0.4527  -0.4431  -0.4016  -0.3537  -0.3360  -0.3245
    -0.3093  -0.3036  -0.2838  -0.2738  -0.2437  -0.2309  -0.2253  -0.2120
    -0.2029  -0.1472  -0.1367  -0.1288  -0.1160  -0.1030  -0.0834  -0.0469
     0.1393   0.2532   0.4983   0.9030   1.0178   1.1659   1.2524   1.5297
     1.6593   1.7228

          k = 0.2000-0.3464 0.0000 ( 51202 PWs)   bands (ev):

   -21.8207  -9.2619  -7.2398  -6.2179  -5.9890  -5.9429  -5.6663  -5.5106
    -5.3429  -4.9290  -4.7027  -4.6707  -4.4900  -4.4740  -4.3097  -4.2714
    -4.2608  -4.1703  -4.1668  -4.0423  -4.0311  -4.0142  -3.9000  -3.8738
    -3.8266  -3.7777  -3.6872  -3.6653  -3.6571  -3.6370  -3.6257  -3.6025
    -3.5883  -3.5817  -3.5345  -3.5184  -3.4783  -3.4400  -3.4268  -3.3827
    -3.2995  -3.2386  -3.2148  -3.1881  -3.1686  -3.1487  -3.0818  -3.0559
    -3.0081  -2.9988  -2.9757  -2.9581  -2.9505  -2.9214  -2.8929  -2.8858
    -2.8727  -2.8359  -2.7521  -2.7318  -2.6925  -2.6773  -2.6493  -2.6333
    -2.6118  -2.5477  -2.5017  -2.4381  -2.4079  -2.3904  -2.3737  -2.3425
    -2.3323  -2.3204  -2.3178  -2.2919  -2.2702  -2.2641  -2.2541  -2.2383
    -2.2332  -2.1907  -2.1608  -2.1481  -2.0739  -2.0605  -2.0395  -2.0196
    -2.0126  -1.9906  -1.9796  -1.9585  -1.9361  -1.9234  -1.9102  -1.9058
    -1.8953  -1.8904  -1.8806  -1.8613  -1.8476  -1.8460  -1.8254  -1.8099
    -1.7984  -1.7923  -1.7636  -1.7213  -1.7197  -1.6860  -1.6734  -1.6623
    -1.6564  -1.6383  -1.5907  -1.5774  -1.5709  -1.5431  -1.5178  -1.5130
    -1.4962  -1.4896  -1.4841  -1.4577  -1.4460  -1.4301  -1.4236  -1.3704
    -1.3553  -1.3208  -1.3053  -1.2447  -1.2043  -1.1860  -1.1645  -1.0922
    -1.0798  -1.0622  -1.0496  -1.0438  -1.0348  -1.0254  -1.0044  -0.9815
    -0.9806  -0.9626  -0.9429  -0.8962  -0.8859  -0.8726  -0.8531  -0.8463
    -0.8201  -0.7985  -0.7796  -0.7744  -0.7587  -0.7536  -0.6256  -0.6187
    -0.5960  -0.5794  -0.5706  -0.5548  -0.5360  -0.5330  -0.5293  -0.5060
    -0.4924  -0.4668  -0.4420  -0.4213  -0.4090  -0.4011  -0.3618  -0.3424
    -0.3355  -0.3326  -0.3273  -0.3040  -0.2912  -0.2848  -0.2753  -0.2646
    -0.2535  -0.1807  -0.1688  -0.1620  -0.1194  -0.1151  -0.0981   0.0624
     0.1417   0.2268   0.2474   0.4625   0.5040   0.6383   1.0020   1.1265
     1.2325   1.4016

          k = 0.4000-0.2309 0.0000 ( 51204 PWs)   bands (ev):

   -21.8207  -9.2583  -7.1040  -6.4553  -6.1097  -5.7876  -5.5542  -5.3777
    -5.2024  -5.1410  -5.0664  -4.7625  -4.3366  -4.3157  -4.2826  -4.2464
    -4.1972  -4.1265  -4.1210  -4.0324  -3.9928  -3.9876  -3.9678  -3.8250
    -3.8109  -3.8047  -3.7935  -3.7918  -3.7238  -3.6906  -3.6810  -3.5766
    -3.5239  -3.5132  -3.4957  -3.4799  -3.4670  -3.4310  -3.3683  -3.3596
    -3.3488  -3.3369  -3.2873  -3.2226  -3.1360  -3.1074  -3.0435  -3.0321
    -3.0091  -2.9846  -2.9650  -2.9463  -2.9402  -2.9327  -2.9122  -2.8594
    -2.8503  -2.8278  -2.7881  -2.7674  -2.6577  -2.6418  -2.6213  -2.5973
    -2.5539  -2.5347  -2.5072  -2.4982  -2.4775  -2.4196  -2.3698  -2.3661
    -2.3611  -2.3487  -2.3405  -2.3207  -2.3046  -2.2962  -2.2734  -2.2531
    -2.2361  -2.2007  -2.1833  -2.1655  -2.1340  -2.1183  -2.0705  -2.0452
    -2.0307  -2.0162  -1.9989  -1.9776  -1.9729  -1.9334  -1.9191  -1.9125
    -1.9004  -1.8890  -1.8796  -1.8595  -1.8467  -1.8419  -1.8390  -1.8079
    -1.7925  -1.7635  -1.7329  -1.7278  -1.6639  -1.6441  -1.6288  -1.6108
    -1.6024  -1.5800  -1.5530  -1.5284  -1.5187  -1.4976  -1.4944  -1.4842
    -1.4812  -1.4714  -1.4603  -1.4524  -1.4452  -1.4394  -1.4214  -1.4139
    -1.4049  -1.3631  -1.2999  -1.2822  -1.2705  -1.2585  -1.2299  -1.2170
    -1.1912  -1.1362  -1.1156  -1.1041  -1.0657  -1.0502  -1.0255  -0.9829
    -0.9773  -0.9529  -0.9340  -0.9176  -0.9008  -0.8691  -0.8468  -0.7892
    -0.7574  -0.7356  -0.7221  -0.7107  -0.7086  -0.6991  -0.6897  -0.6829
    -0.6645  -0.6369  -0.5598  -0.5540  -0.5458  -0.5394  -0.5321  -0.5089
    -0.5010  -0.4890  -0.4755  -0.4709  -0.4541  -0.4306  -0.3778  -0.3627
    -0.3505  -0.3369  -0.3117  -0.2622  -0.2569  -0.2307  -0.2222  -0.1866
    -0.1496  -0.1444  -0.1384  -0.1229  -0.1153  -0.1115  -0.1029  -0.0482
    -0.0093   0.0223   0.4622   0.5831   0.9149   1.0855   1.1208   1.2848
     1.4694   1.5079

          k = 0.4000 0.0000 0.0000 ( 51202 PWs)   bands (ev):

   -21.8207  -9.2602  -7.2428  -6.2151  -6.0339  -5.9303  -5.6664  -5.4494
    -5.3705  -4.9404  -4.7492  -4.5942  -4.4932  -4.4791  -4.3188  -4.2704
    -4.2553  -4.1708  -4.1657  -4.0754  -4.0383  -3.9589  -3.8968  -3.8707
    -3.8236  -3.7777  -3.6888  -3.6725  -3.6443  -3.6367  -3.6245  -3.6117
    -3.5866  -3.5814  -3.5410  -3.5203  -3.4753  -3.4468  -3.4423  -3.3784
    -3.2978  -3.2496  -3.2154  -3.1835  -3.1671  -3.1567  -3.0953  -3.0535
    -3.0195  -2.9851  -2.9770  -2.9695  -2.9402  -2.9171  -2.9029  -2.8865
    -2.8706  -2.8406  -2.7626  -2.7075  -2.6891  -2.6686  -2.6520  -2.6313
    -2.6084  -2.5469  -2.5047  -2.4369  -2.4138  -2.3901  -2.3731  -2.3451
    -2.3302  -2.3211  -2.3177  -2.2973  -2.2712  -2.2628  -2.2552  -2.2448
    -2.2295  -2.1873  -2.1660  -2.1148  -2.0715  -2.0598  -2.0429  -2.0241
    -2.0087  -1.9943  -1.9633  -1.9566  -1.9456  -1.9211  -1.9104  -1.9009
    -1.8954  -1.8895  -1.8830  -1.8589  -1.8543  -1.8439  -1.8248  -1.8202
    -1.8002  -1.7751  -1.7508  -1.7237  -1.7169  -1.6816  -1.6727  -1.6675
    -1.6557  -1.6441  -1.6114  -1.5779  -1.5687  -1.5556  -1.5346  -1.5103
    -1.5038  -1.4924  -1.4767  -1.4582  -1.4420  -1.4369  -1.4214  -1.3706
    -1.3543  -1.3368  -1.3181  -1.2326  -1.2114  -1.1868  -1.1747  -1.0997
    -1.0701  -1.0578  -1.0457  -1.0419  -1.0336  -1.0253  -0.9986  -0.9975
    -0.9725  -0.9560  -0.9382  -0.8977  -0.8808  -0.8656  -0.8602  -0.8449
    -0.8186  -0.7976  -0.7859  -0.7775  -0.7643  -0.7476  -0.6262  -0.6121
    -0.5889  -0.5770  -0.5681  -0.5600  -0.5421  -0.5296  -0.5202  -0.5128
    -0.4919  -0.4642  -0.4420  -0.4297  -0.4083  -0.3980  -0.3543  -0.3432
    -0.3366  -0.3303  -0.3272  -0.3031  -0.2911  -0.2847  -0.2767  -0.2616
    -0.2502  -0.1784  -0.1651  -0.1632  -0.1166  -0.1133  -0.0854   0.0447
     0.1834   0.2274   0.2655   0.4003   0.5263   0.6345   0.9571   1.1237
     1.2292   1.4459

          k = 0.4000 0.2309 0.0000 ( 51204 PWs)   bands (ev):

   -21.8207  -9.2557  -7.1087  -6.4611  -6.1186  -5.8383  -5.4516  -5.4165
    -5.1984  -5.1419  -5.0507  -4.7776  -4.3458  -4.3048  -4.3017  -4.2437
    -4.1885  -4.1278  -4.1222  -4.0109  -3.9921  -3.9884  -3.9066  -3.8368
    -3.8099  -3.7981  -3.7936  -3.7917  -3.6979  -3.6868  -3.6763  -3.6449
    -3.5276  -3.5225  -3.5074  -3.4791  -3.4761  -3.4283  -3.3701  -3.3612
    -3.3499  -3.3401  -3.2964  -3.2215  -3.1381  -3.0968  -3.0442  -3.0179
    -3.0147  -2.9765  -2.9685  -2.9631  -2.9532  -2.9209  -2.8981  -2.8637
    -2.8540  -2.8314  -2.7957  -2.7456  -2.6511  -2.6342  -2.6311  -2.5902
    -2.5591  -2.5294  -2.5093  -2.5054  -2.4907  -2.4215  -2.3736  -2.3663
    -2.3615  -2.3516  -2.3355  -2.3190  -2.3028  -2.2996  -2.2754  -2.2395
    -2.2210  -2.2041  -2.1918  -2.1751  -2.1264  -2.1161  -2.0601  -2.0501
    -2.0256  -2.0238  -2.0044  -1.9928  -1.9639  -1.9277  -1.9208  -1.9172
    -1.9009  -1.8878  -1.8695  -1.8602  -1.8565  -1.8413  -1.8407  -1.8085
    -1.7912  -1.7701  -1.7335  -1.7312  -1.6686  -1.6482  -1.6276  -1.6120
    -1.5801  -1.5778  -1.5451  -1.5208  -1.5206  -1.5025  -1.4907  -1.4892
    -1.4799  -1.4787  -1.4608  -1.4537  -1.4417  -1.4414  -1.4100  -1.4079
    -1.3836  -1.3735  -1.3326  -1.2822  -1.2667  -1.2552  -1.2309  -1.2176
    -1.1872  -1.1373  -1.1179  -1.1007  -1.1000  -1.0466  -1.0441  -1.0065
    -0.9783  -0.9483  -0.9319  -0.9246  -0.8957  -0.8623  -0.8360  -0.8062
    -0.7316  -0.7304  -0.7198  -0.7140  -0.7058  -0.6946  -0.6836  -0.6730
    -0.6648  -0.6562  -0.5594  -0.5556  -0.5406  -0.5382  -0.5283  -0.5032
    -0.4977  -0.4870  -0.4792  -0.4640  -0.4512  -0.4297  -0.3740  -0.3576
    -0.3524  -0.3371  -0.2972  -0.2599  -0.2568  -0.2218  -0.2217  -0.1861
    -0.1546  -0.1397  -0.1389  -0.1169  -0.1130  -0.1108  -0.0842  -0.0642
    -0.0089   0.0234   0.4116   0.6940   0.8468   1.0259   1.1245   1.1959
     1.4722   1.5569

          k = 0.4000-0.6928 0.0000 ( 51262 PWs)   bands (ev):

   -21.8207  -9.2513  -6.7484  -6.6657  -6.1249  -5.9160  -5.8416  -5.4177
    -5.2046  -5.1625  -4.9020  -4.6117  -4.4690  -4.2296  -4.1880  -4.0579
    -4.0539  -4.0313  -4.0236  -3.9961  -3.9683  -3.9474  -3.9392  -3.9348
    -3.9221  -3.8091  -3.7981  -3.7856  -3.7739  -3.7577  -3.7241  -3.6260
    -3.6101  -3.5986  -3.5840  -3.5653  -3.4970  -3.4377  -3.3483  -3.3173
    -3.3132  -3.2732  -3.2183  -3.2098  -3.1830  -3.1315  -3.1002  -3.0962
    -3.0727  -3.0159  -3.0014  -2.9323  -2.8991  -2.8720  -2.8612  -2.8110
    -2.7944  -2.7356  -2.7303  -2.7218  -2.7050  -2.7001  -2.6510  -2.6369
    -2.5518  -2.5164  -2.5087  -2.4900  -2.4767  -2.4427  -2.4236  -2.3681
    -2.3624  -2.3294  -2.3211  -2.3010  -2.2962  -2.2733  -2.2599  -2.2400
    -2.2307  -2.2183  -2.1909  -2.1874  -2.1739  -2.1686  -2.1070  -2.0960
    -2.0837  -2.0505  -2.0134  -1.9781  -1.9635  -1.9450  -1.9300  -1.9213
    -1.9016  -1.8953  -1.8923  -1.8661  -1.8511  -1.8472  -1.8282  -1.7715
    -1.7544  -1.7501  -1.7367  -1.7189  -1.7149  -1.7128  -1.6965  -1.6889
    -1.6854  -1.6814  -1.6582  -1.6423  -1.5828  -1.5822  -1.5697  -1.5263
    -1.5021  -1.4841  -1.4620  -1.4312  -1.4240  -1.4128  -1.4011  -1.3911
    -1.3389  -1.3364  -1.3006  -1.2628  -1.2032  -1.1997  -1.1850  -1.1613
    -1.1382  -1.1330  -1.1182  -1.1069  -1.0909  -1.0688  -1.0403  -1.0133
    -0.9869  -0.9783  -0.9556  -0.9388  -0.9271  -0.8919  -0.8771  -0.8728
    -0.8477  -0.8306  -0.8195  -0.7985  -0.7728  -0.7665  -0.7401  -0.5803
    -0.5705  -0.5676  -0.5564  -0.5426  -0.5403  -0.5237  -0.5159  -0.4821
    -0.4770  -0.4673  -0.4571  -0.4401  -0.3947  -0.3405  -0.3348  -0.3171
    -0.3100  -0.3018  -0.2875  -0.2488  -0.2442  -0.2328  -0.2242  -0.2127
    -0.2079  -0.1825  -0.1364  -0.1289  -0.1149  -0.1058  -0.0835  -0.0435
     0.1576   0.2633   0.5658   0.8022   0.9963   1.1668   1.2282   1.5714
     1.6747   1.7126

          k = 0.4000-0.4619 0.0000 ( 51262 PWs)   bands (ev):

   -21.8207  -9.2530  -6.7313  -6.6745  -6.1204  -5.9698  -5.7302  -5.4905
    -5.2324  -5.1688  -4.8499  -4.6107  -4.4709  -4.2321  -4.1896  -4.0675
    -4.0540  -4.0446  -4.0272  -4.0168  -3.9640  -3.9482  -3.9427  -3.9384
    -3.9186  -3.8533  -3.7952  -3.7847  -3.7668  -3.7611  -3.7022  -3.6151
    -3.6098  -3.5969  -3.5764  -3.5325  -3.4860  -3.4416  -3.3559  -3.3162
    -3.3100  -3.2744  -3.2260  -3.2112  -3.1841  -3.1325  -3.0977  -3.0941
    -3.0516  -3.0306  -2.9919  -2.9335  -2.9033  -2.8744  -2.8599  -2.8179
    -2.7988  -2.7353  -2.7294  -2.7205  -2.7054  -2.6901  -2.6707  -2.6251
    -2.5587  -2.5176  -2.5062  -2.4961  -2.4615  -2.4335  -2.4169  -2.3699
    -2.3663  -2.3268  -2.3141  -2.3084  -2.2971  -2.2770  -2.2604  -2.2524
    -2.2339  -2.2223  -2.2093  -2.1836  -2.1780  -2.1428  -2.1059  -2.0951
    -2.0803  -2.0509  -2.0089  -1.9817  -1.9625  -1.9431  -1.9314  -1.9237
    -1.9042  -1.8919  -1.8833  -1.8773  -1.8592  -1.8377  -1.8326  -1.7823
    -1.7722  -1.7488  -1.7410  -1.7325  -1.7166  -1.7102  -1.6997  -1.6872
    -1.6811  -1.6744  -1.6503  -1.6278  -1.5916  -1.5807  -1.5601  -1.5250
    -1.4923  -1.4836  -1.4624  -1.4344  -1.4215  -1.4107  -1.4068  -1.3757
    -1.3409  -1.3347  -1.3052  -1.2620  -1.2074  -1.1927  -1.1790  -1.1616
    -1.1380  -1.1340  -1.1274  -1.0986  -1.0765  -1.0647  -1.0498  -1.0267
    -0.9843  -0.9759  -0.9591  -0.9416  -0.9258  -0.8824  -0.8742  -0.8588
    -0.8564  -0.8284  -0.8238  -0.8061  -0.7796  -0.7648  -0.7364  -0.5875
    -0.5700  -0.5634  -0.5540  -0.5442  -0.5361  -0.5294  -0.5155  -0.4864
    -0.4779  -0.4670  -0.4529  -0.4430  -0.4013  -0.3535  -0.3361  -0.3243
    -0.3093  -0.3036  -0.2838  -0.2737  -0.2437  -0.2309  -0.2253  -0.2119
    -0.2028  -0.1478  -0.1366  -0.1288  -0.1160  -0.1030  -0.0834  -0.0470
     0.1394   0.2535   0.4990   0.9038   1.0146   1.1661   1.2517   1.5308
     1.6590   1.7226

 ------ SPIN DOWN ----------


          k = 0.0000 0.0000 0.0000 ( 51087 PWs)   bands (ev):

   -21.9097  -9.3727  -7.7976  -6.5507  -5.7873  -5.6071  -5.4468  -4.8946
    -4.6467  -4.6368  -4.6358  -4.5976  -4.5935  -4.5764  -4.1653  -3.7663
    -3.7642  -3.7477  -3.7207  -3.7178  -3.6608  -3.3157  -2.8250  -2.8220
    -2.8085  -2.8007  -2.7264  -2.5982  -2.3585  -2.3507  -2.3424  -2.3421
    -2.3149  -2.2252  -2.1532  -2.1516  -2.0824  -2.0549  -2.0541  -2.0537
    -1.9690  -1.9658  -1.9180  -1.9173  -1.8334  -1.8275  -1.8110  -1.8046
    -1.7588  -1.7428  -1.5586  -1.5488  -1.5481  -1.5428  -1.5281  -1.5265
    -1.5135  -1.5125  -1.4836  -1.4735  -1.4433  -1.4374  -1.4340  -1.4301
    -1.3631  -1.2641  -0.8984  -0.8773  -0.8641  -0.8591  -0.8310  -0.7678
    -0.6624  -0.6413  -0.5546  -0.5489  -0.5373  -0.5314  -0.5201  -0.5009
    -0.4772  -0.4750  -0.4538  -0.4525  -0.4389  -0.4385  -0.3898  -0.3735
    -0.3545  -0.3375  -0.3304  -0.3100  -0.3030  -0.2934  -0.2916  -0.2768
    -0.2726  -0.2686  -0.2597  -0.2505  -0.2499  -0.2432  -0.2133  -0.1704
    -0.1654  -0.1302  -0.1046  -0.0569  -0.0450  -0.0334  -0.0294  -0.0206
    -0.0175  -0.0157  -0.0124   0.0500   0.0610   0.0616   0.1082   0.1393
     0.1442   0.1497   0.1642   0.1985   0.2997   0.3471   0.3863   0.3944
     0.4465   0.4576   0.4621   0.4676   0.6129   0.6915   0.6987   0.7899
     0.7969   0.8843   0.9156   0.9985   1.0147   1.0237   1.0318   1.0336
     1.1187   1.1236   1.1795   1.2008   1.2014   1.2098   1.2136   1.2406
     1.2559   1.2589   1.2727   1.2871   1.3026   1.3131   1.3240   1.3421
     1.3519   1.3595   1.3631   1.3674   1.3813   1.4200   1.4247   1.4306
     1.4399   1.4520   1.4601   1.4742   1.4858   1.4925   1.4968   1.5302
     1.5361   1.5513   1.5559   1.5563   1.5684   1.5750   1.5789   1.6163
     1.6222   1.6247   1.6275   1.6320   1.6380   1.6454   1.6579   1.6600
     1.6662   1.7074   1.7076   1.8521   1.8544   1.8581   1.8626   1.8635
     1.8679   2.0466

          k = 0.0000 0.2309 0.0000 ( 51134 PWs)   bands (ev):

   -21.9097  -9.3624  -7.6556  -6.4448  -5.8502  -5.6565  -5.5456  -5.3896
    -5.0184  -4.9825  -4.7879  -4.4400  -4.1294  -4.0829  -4.0585  -3.9392
    -3.8386  -3.7764  -3.4654  -3.4024  -3.3586  -3.2619  -2.9565  -2.8067
    -2.7788  -2.7417  -2.6861  -2.6107  -2.4517  -2.3849  -2.3777  -2.3649
    -2.3344  -2.2997  -2.2961  -2.2870  -2.2367  -2.2000  -2.1146  -2.1124
    -2.0243  -2.0212  -1.9661  -1.8626  -1.8423  -1.8296  -1.8118  -1.7157
    -1.6833  -1.6609  -1.6140  -1.5853  -1.5635  -1.5482  -1.5331  -1.5287
    -1.5142  -1.5006  -1.4238  -1.4047  -1.3956  -1.3761  -1.3423  -1.2960
    -1.2517  -1.1603  -0.9787  -0.9349  -0.9124  -0.9098  -0.8460  -0.8005
    -0.7617  -0.7267  -0.6926  -0.6618  -0.6401  -0.5895  -0.5627  -0.5547
    -0.5189  -0.5103  -0.4938  -0.4883  -0.4785  -0.4571  -0.4360  -0.3942
    -0.3536  -0.3302  -0.3257  -0.3198  -0.3123  -0.2875  -0.2661  -0.2583
    -0.2483  -0.2399  -0.2352  -0.2288  -0.2260  -0.2246  -0.2000  -0.1742
    -0.1517  -0.1425  -0.1267  -0.1165  -0.1060  -0.0932  -0.0655  -0.0450
    -0.0350  -0.0121   0.0172   0.0509   0.0820   0.0974   0.1091   0.1285
     0.2409   0.2660   0.2705   0.3209   0.3539   0.3593   0.3902   0.4145
     0.4225   0.4318   0.4408   0.4457   0.6074   0.6727   0.7249   0.7688
     0.7790   0.7895   0.8014   0.8148   0.8622   0.8840   0.9143   0.9522
     1.0110   1.0159   1.0305   1.0730   1.0861   1.1079   1.1306   1.1666
     1.1938   1.2177   1.2413   1.2497   1.2625   1.2747   1.3143   1.3221
     1.3360   1.3608   1.3954   1.4099   1.4282   1.4367   1.4628   1.4727
     1.5044   1.5171   1.5200   1.5242   1.5478   1.5973   1.6041   1.6109
     1.6203   1.6432   1.6472   1.6792   1.6852   1.6958   1.7008   1.7037
     1.7229   1.7682   1.7744   1.7876   1.7898   1.7998   1.8103   1.8253
     1.8458   1.8497   1.8564   1.8896   1.9437   1.9600   1.9626   2.0216
     2.0428   2.1012

          k = 0.0000 0.4619 0.0000 ( 51204 PWs)   bands (ev):

   -21.9097  -9.3461  -7.2338  -6.5608  -6.1642  -5.8114  -5.6013  -5.4082
    -5.2201  -5.1500  -5.0613  -4.5976  -4.1179  -4.0356  -3.8087  -3.4729
    -3.4630  -3.3965  -3.3418  -3.1663  -3.0829  -3.0212  -2.9916  -2.8707
    -2.8631  -2.7983  -2.7565  -2.7113  -2.6511  -2.6267  -2.6111  -2.5657
    -2.5470  -2.4204  -2.3438  -2.3246  -2.2503  -2.2259  -2.1323  -2.1283
    -2.1152  -2.0888  -2.0603  -1.8403  -1.8199  -1.8076  -1.7776  -1.7381
    -1.6126  -1.6041  -1.5919  -1.5729  -1.5653  -1.5388  -1.5361  -1.5060
    -1.5012  -1.4288  -1.4226  -1.4023  -1.3784  -1.3609  -1.2154  -1.1897
    -1.0845  -1.0487  -0.9636  -0.9426  -0.9351  -0.8980  -0.8787  -0.8677
    -0.8529  -0.8246  -0.8006  -0.7801  -0.7341  -0.7059  -0.6840  -0.6479
    -0.6299  -0.6151  -0.5903  -0.5792  -0.5432  -0.5126  -0.4824  -0.4128
    -0.4065  -0.3896  -0.3686  -0.3366  -0.3095  -0.2958  -0.2703  -0.2519
    -0.2192  -0.2166  -0.2021  -0.1857  -0.1754  -0.1696  -0.1421  -0.1305
    -0.1108  -0.0971  -0.0863  -0.0701  -0.0622  -0.0556  -0.0439  -0.0206
    -0.0087   0.0165   0.0665   0.1093   0.1320   0.1393   0.1532   0.1951
     0.2032   0.2116   0.2355   0.2748   0.2910   0.3082   0.3286   0.3340
     0.3837   0.3939   0.3990   0.4159   0.4533   0.5392   0.5811   0.5903
     0.6526   0.6723   0.6963   0.7595   0.8041   0.8416   0.8633   0.8803
     0.9037   0.9203   0.9364   0.9610   0.9820   1.0672   1.1477   1.1623
     1.1735   1.1916   1.2308   1.2429   1.2755   1.2954   1.3143   1.3352
     1.3622   1.3770   1.3846   1.4469   1.4693   1.4778   1.5203   1.5304
     1.5396   1.5456   1.5655   1.5766   1.6012   1.6149   1.6239   1.6524
     1.6599   1.7022   1.7480   1.7603   1.7765   1.7874   1.7972   1.8201
     1.8251   1.8502   1.8559   1.8671   1.8863   1.8910   1.8992   1.9055
     1.9471   2.0050   2.0416   2.1126   2.1280   2.2034   2.5425   2.6043
     2.6412   2.6866

          k = 0.2000-0.1155 0.0000 ( 51134 PWs)   bands (ev):

   -21.9097  -9.3624  -7.6556  -6.4448  -5.8508  -5.6565  -5.5448  -5.3899
    -5.0180  -4.9828  -4.7880  -4.4388  -4.1312  -4.0829  -4.0588  -3.9389
    -3.8376  -3.7768  -3.4659  -3.4025  -3.3569  -3.2621  -2.9576  -2.8064
    -2.7785  -2.7423  -2.6861  -2.6100  -2.4521  -2.3848  -2.3777  -2.3651
    -2.3344  -2.2998  -2.2961  -2.2872  -2.2368  -2.1997  -2.1145  -2.1125
    -2.0243  -2.0212  -1.9664  -1.8623  -1.8424  -1.8295  -1.8114  -1.7156
    -1.6833  -1.6609  -1.6141  -1.5853  -1.5635  -1.5483  -1.5332  -1.5288
    -1.5139  -1.5006  -1.4239  -1.4047  -1.3955  -1.3760  -1.3424  -1.2962
    -1.2517  -1.1604  -0.9786  -0.9347  -0.9125  -0.9099  -0.8459  -0.8002
    -0.7624  -0.7267  -0.6926  -0.6617  -0.6401  -0.5897  -0.5626  -0.5546
    -0.5188  -0.5103  -0.4938  -0.4881  -0.4785  -0.4572  -0.4364  -0.3943
    -0.3531  -0.3302  -0.3256  -0.3201  -0.3124  -0.2872  -0.2661  -0.2585
    -0.2483  -0.2397  -0.2351  -0.2288  -0.2260  -0.2246  -0.2000  -0.1743
    -0.1516  -0.1424  -0.1266  -0.1164  -0.1063  -0.0935  -0.0655  -0.0450
    -0.0348  -0.0120   0.0174   0.0511   0.0819   0.0974   0.1089   0.1286
     0.2408   0.2654   0.2713   0.3209   0.3537   0.3596   0.3898   0.4144
     0.4224   0.4318   0.4408   0.4458   0.6071   0.6736   0.7241   0.7687
     0.7790   0.7896   0.8014   0.8149   0.8619   0.8841   0.9140   0.9523
     1.0111   1.0163   1.0303   1.0733   1.0862   1.1082   1.1306   1.1657
     1.1938   1.2176   1.2415   1.2498   1.2624   1.2749   1.3143   1.3221
     1.3362   1.3606   1.3952   1.4100   1.4283   1.4368   1.4630   1.4730
     1.5044   1.5170   1.5201   1.5242   1.5476   1.5970   1.6040   1.6109
     1.6202   1.6431   1.6473   1.6792   1.6853   1.6957   1.7008   1.7038
     1.7228   1.7682   1.7745   1.7877   1.7898   1.7998   1.8103   1.8252
     1.8458   1.8497   1.8564   1.8894   1.9437   1.9599   1.9627   2.0217
     2.0428   2.1016

          k = 0.2000 0.1155 0.0000 ( 51134 PWs)   bands (ev):

   -21.9097  -9.3615  -7.6566  -6.4483  -5.8817  -5.6430  -5.4629  -5.4545
    -5.0093  -4.9849  -4.8092  -4.3595  -4.1781  -4.0845  -4.0647  -3.9736
    -3.8104  -3.7804  -3.4760  -3.4102  -3.3134  -3.2440  -2.9840  -2.8307
    -2.7783  -2.7212  -2.7177  -2.5717  -2.4645  -2.3854  -2.3767  -2.3560
    -2.3459  -2.3089  -2.2949  -2.2948  -2.2543  -2.1761  -2.1138  -2.1107
    -2.0240  -2.0230  -1.9641  -1.8700  -1.8333  -1.8244  -1.8109  -1.7062
    -1.6886  -1.6632  -1.6062  -1.5965  -1.5709  -1.5471  -1.5274  -1.5273
    -1.5261  -1.4675  -1.4460  -1.4034  -1.3897  -1.3757  -1.3395  -1.3026
    -1.2363  -1.1731  -0.9829  -0.9395  -0.9148  -0.9039  -0.8344  -0.8143
    -0.7935  -0.6926  -0.6803  -0.6797  -0.6483  -0.5898  -0.5731  -0.5466
    -0.5254  -0.5047  -0.4980  -0.4816  -0.4790  -0.4543  -0.4524  -0.3837
    -0.3434  -0.3371  -0.3277  -0.3207  -0.3086  -0.2732  -0.2688  -0.2553
    -0.2528  -0.2383  -0.2379  -0.2322  -0.2278  -0.2244  -0.1892  -0.1793
    -0.1553  -0.1430  -0.1232  -0.1226  -0.1086  -0.0857  -0.0658  -0.0562
    -0.0302  -0.0141   0.0344   0.0692   0.0722   0.0888   0.0967   0.1280
     0.2110   0.2800   0.3010   0.3164   0.3522   0.3697   0.3766   0.4092
     0.4233   0.4304   0.4444   0.4463   0.6482   0.6687   0.6952   0.7646
     0.7848   0.7850   0.8109   0.8174   0.8570   0.8937   0.8995   0.9573
     0.9611   1.0278   1.0497   1.0742   1.0823   1.1194   1.1362   1.1417
     1.1856   1.2324   1.2416   1.2570   1.2691   1.2766   1.3153   1.3200
     1.3344   1.3680   1.3980   1.4209   1.4262   1.4372   1.4597   1.4748
     1.4943   1.5177   1.5228   1.5341   1.5397   1.5932   1.5937   1.6084
     1.6230   1.6419   1.6489   1.6806   1.6902   1.6959   1.7018   1.7027
     1.7239   1.7683   1.7756   1.7877   1.7882   1.8005   1.8100   1.8238
     1.8474   1.8515   1.8557   1.8688   1.9419   1.9573   1.9643   2.0152
     2.0478   2.0915

          k = 0.2000 0.3464 0.0000 ( 51202 PWs)   bands (ev):

   -21.9097  -9.3480  -7.3751  -6.2753  -6.1038  -6.0131  -5.6794  -5.4831
    -5.4089  -4.8781  -4.6790  -4.4202  -4.2729  -4.2623  -3.8759  -3.4485
    -3.4358  -3.4321  -3.4129  -3.2755  -3.1623  -3.1357  -3.1166  -2.9137
    -2.7684  -2.6917  -2.6841  -2.6704  -2.5976  -2.5710  -2.5544  -2.4848
    -2.4752  -2.4651  -2.4342  -2.3280  -2.3211  -2.2504  -2.0953  -2.0824
    -2.0561  -1.9980  -1.9752  -1.9566  -1.9353  -1.8030  -1.7488  -1.7361
    -1.6298  -1.6188  -1.5732  -1.5690  -1.5599  -1.5447  -1.5310  -1.5101
    -1.4909  -1.4848  -1.4281  -1.3879  -1.3466  -1.3062  -1.2073  -1.1706
    -1.1151  -1.0745  -0.9998  -0.9625  -0.9050  -0.8779  -0.8678  -0.8425
    -0.8168  -0.7826  -0.7720  -0.7322  -0.7076  -0.6949  -0.6821  -0.6569
    -0.6411  -0.6210  -0.6058  -0.5749  -0.5525  -0.4810  -0.4389  -0.4246
    -0.4170  -0.3869  -0.3623  -0.3477  -0.3314  -0.3065  -0.2942  -0.2842
    -0.2644  -0.2513  -0.2411  -0.2188  -0.2097  -0.1920  -0.1703  -0.1426
    -0.1293  -0.1194  -0.1093  -0.0974  -0.0877  -0.0817  -0.0648  -0.0508
     0.0145   0.0353   0.0402   0.0578   0.1515   0.1669   0.1896   0.2195
     0.2382   0.2700   0.2878   0.2943   0.3297   0.3573   0.3696   0.3766
     0.3823   0.4153   0.4500   0.4675   0.5205   0.5972   0.6329   0.6745
     0.7289   0.7590   0.7970   0.8192   0.8270   0.8390   0.8535   0.8743
     0.8865   0.9031   0.9117   0.9318   0.9703   1.0288   1.0597   1.0915
     1.1148   1.1347   1.1525   1.1704   1.1846   1.2381   1.2483   1.2926
     1.3306   1.4045   1.4282   1.4804   1.4969   1.5076   1.5247   1.5387
     1.5545   1.5583   1.5824   1.5901   1.6466   1.6639   1.6649   1.6716
     1.6874   1.7160   1.7272   1.7415   1.7454   1.7650   1.7728   1.7979
     1.8045   1.8107   1.8209   1.8332   1.8458   1.8617   1.8991   1.9293
     1.9421   1.9690   2.0321   2.0689   2.1734   2.2103   2.3055   2.4941
     2.5279   2.5396

          k = 0.2000-0.5774 0.0000 ( 51262 PWs)   bands (ev):

   -21.9097  -9.3408  -6.8482  -6.7966  -6.2006  -6.0117  -5.7679  -5.5391
    -5.2550  -5.2081  -4.8003  -4.4300  -4.3076  -3.7637  -3.5012  -3.4678
    -3.4634  -3.3679  -3.2218  -3.1339  -3.0581  -3.0477  -3.0407  -2.9140
    -2.9072  -2.8949  -2.8744  -2.8651  -2.7449  -2.6359  -2.5332  -2.5163
    -2.5017  -2.4660  -2.4452  -2.4311  -2.3841  -2.3216  -2.2035  -2.0711
    -1.9828  -1.9746  -1.9589  -1.9267  -1.8864  -1.8062  -1.7398  -1.7252
    -1.6903  -1.6756  -1.6694  -1.5731  -1.5236  -1.5046  -1.5003  -1.4794
    -1.4466  -1.3863  -1.3522  -1.3375  -1.2911  -1.2693  -1.2531  -1.1514
    -1.1041  -1.0198  -0.9721  -0.9568  -0.9464  -0.8903  -0.8777  -0.8358
    -0.8208  -0.8049  -0.7759  -0.7615  -0.7489  -0.6974  -0.6871  -0.6648
    -0.6476  -0.6295  -0.6170  -0.6057  -0.5916  -0.5857  -0.5484  -0.5240
    -0.5161  -0.4800  -0.4479  -0.4352  -0.4023  -0.3775  -0.3480  -0.2978
    -0.2741  -0.2415  -0.2277  -0.2126  -0.1852  -0.1770  -0.1636  -0.1421
    -0.0997  -0.0824  -0.0695  -0.0536  -0.0343  -0.0250   0.0222   0.0651
     0.0927   0.1106   0.1207   0.1262   0.1434   0.1652   0.1966   0.2204
     0.2324   0.2426   0.2959   0.3056   0.3316   0.3487   0.3711   0.3960
     0.4035   0.4216   0.4418   0.4619   0.4741   0.4913   0.5081   0.5594
     0.5936   0.6508   0.7124   0.7316   0.7649   0.7886   0.8177   0.8282
     0.8504   0.8643   0.8791   0.9412   0.9836   1.0219   1.0361   1.0575
     1.0855   1.0931   1.1418   1.1675   1.1868   1.2092   1.2302   1.2822
     1.3665   1.4058   1.4431   1.4482   1.4985   1.5363   1.5697   1.5758
     1.5888   1.5992   1.6088   1.6220   1.6472   1.6686   1.6772   1.6887
     1.7304   1.7542   1.7565   1.7721   1.7766   1.7783   1.7892   1.7921
     1.8098   1.8448   1.8526   1.8797   1.8873   1.9050   1.9111   1.9313
     1.9920   2.0657   2.2067   2.3297   2.4252   2.6422   2.7123   2.7908
     2.8332   2.9122

          k = 0.2000-0.3464 0.0000 ( 51202 PWs)   bands (ev):

   -21.9097  -9.3495  -7.3722  -6.2755  -6.0638  -6.0290  -5.6710  -5.5461
    -5.3835  -4.8787  -4.6203  -4.5162  -4.2664  -4.2435  -3.8630  -3.4465
    -3.4389  -3.4319  -3.4144  -3.3048  -3.1508  -3.1455  -3.1112  -2.8998
    -2.7661  -2.7017  -2.6870  -2.6297  -2.6039  -2.5739  -2.5693  -2.4860
    -2.4799  -2.4657  -2.4311  -2.3288  -2.2895  -2.2441  -2.0937  -2.0904
    -2.0640  -2.0181  -1.9642  -1.9525  -1.9282  -1.8022  -1.7527  -1.7298
    -1.6572  -1.6020  -1.5780  -1.5708  -1.5605  -1.5436  -1.5383  -1.5153
    -1.4962  -1.4748  -1.4321  -1.4040  -1.3583  -1.2987  -1.2049  -1.1664
    -1.1101  -1.0798  -1.0021  -0.9297  -0.8982  -0.8785  -0.8697  -0.8356
    -0.8130  -0.7918  -0.7473  -0.7262  -0.7195  -0.6959  -0.6794  -0.6575
    -0.6406  -0.6333  -0.6077  -0.5955  -0.5170  -0.4896  -0.4456  -0.4304
    -0.4140  -0.4025  -0.3623  -0.3472  -0.3197  -0.3142  -0.2989  -0.2784
    -0.2649  -0.2576  -0.2443  -0.2204  -0.2046  -0.1837  -0.1552  -0.1417
[...]
     atom    8 type  1   force =     0.00021292   -0.00163336   -0.10424342
     atom    9 type  1   force =    -0.00106242    0.00112421   -0.10555767
     atom   10 type  1   force =    -0.00048046   -0.00022858   -0.01550392
     atom   11 type  1   force =     0.00129868   -0.00194936   -0.00926181
     atom   12 type  1   force =    -0.00091468    0.00102807   -0.01098990
     atom   13 type  1   force =    -0.00106847    0.00206850   -0.00923694
     atom   14 type  1   force =     0.00137291    0.00078598   -0.00526754
     atom   15 type  1   force =    -0.00041131    0.00051542   -0.01002846
     atom   16 type  1   force =     0.00042947   -0.00128970   -0.01101490
     atom   17 type  1   force =     0.00022565   -0.00064708   -0.01007985
     atom   18 type  1   force =    -0.00087137   -0.00049353   -0.01255543
     atom   19 type  1   force =    -0.00259241   -0.00477745    0.00188213
     atom   20 type  1   force =    -0.00606147   -0.00356557   -0.00171098
     atom   21 type  1   force =     0.00988925   -0.00758506   -0.00285181
     atom   22 type  1   force =     0.00153911    0.00419843    0.00762085
     atom   23 type  1   force =    -0.00159606    0.01239829   -0.00286850
     atom   24 type  1   force =    -0.00044235   -0.00018268    0.01199797
     atom   25 type  1   force =     0.00004669    0.00002589    0.01817788
     atom   26 type  1   force =    -0.00537204    0.00008581    0.00212041
     atom   27 type  1   force =     0.00435196   -0.00079334    0.00762563
     atom   28 type  1   force =     0.00326101    0.00186761    0.12279285
     atom   29 type  1   force =     0.00123946    0.04814961    0.11474638
     atom   30 type  1   force =    -0.00394680    0.00914411    0.13215995
     atom   31 type  1   force =     0.04253340   -0.02302362    0.11479493
     atom   32 type  1   force =    -0.06077699   -0.03484233    0.03975207
     atom   33 type  1   force =    -0.01136346    0.00759411    0.10800996
     atom   34 type  1   force =     0.00571637   -0.00804434    0.13213611
     atom   35 type  1   force =     0.00085450   -0.01446481    0.10912501
     atom   36 type  1   force =    -0.00108507   -0.00061578    0.10989905
     atom   37 type  2   force =    -0.07567107   -0.04379468    0.39103541
     atom   38 type  3   force =     0.34771894    0.19143083   -2.65361861
     atom   39 type  4   force =    -0.00551740   -0.00319874   -0.02252007
     The ionic contribution  to forces
     atom    1 type  1   force =    -0.00747435   -0.00067464 -111.16713369
     atom    2 type  1   force =    -0.00159283   -0.00097449 -111.18538146
     atom    3 type  1   force =     0.00906719   -0.00187744 -111.17033024
     atom    4 type  1   force =    -0.00478271    0.00799195 -111.16671135
     atom    5 type  1   force =     0.00295484    0.00880508 -111.17035332
     atom    6 type  1   force =     0.00182783    0.00109588 -111.16087390
     atom    7 type  1   force =    -0.00021993   -0.00011369 -111.15815899
     atom    8 type  1   force =    -0.00427443   -0.00614909 -111.16706325
     atom    9 type  1   force =     0.00449437   -0.00810355 -111.16661691
     atom   10 type  1   force =    -0.04396540   -0.02556026  -40.10130037
     atom   11 type  1   force =    -0.00310090   -0.07036260  -40.19713107
     atom   12 type  1   force =     0.04706567   -0.03887701  -40.10746620
     atom   13 type  1   force =    -0.06234877    0.03218025  -40.19784646
     atom   14 type  1   force =     0.04850468    0.02777704  -40.22521501
     atom   15 type  1   force =     0.01383820    0.00633877  -40.10259531
     atom   16 type  1   force =    -0.00997486    0.06051844  -40.10784264
     atom   17 type  1   force =     0.01259021    0.00909619  -40.10229365
     atom   18 type  1   force =    -0.00261068   -0.00111181  -40.08214687
     atom   19 type  1   force =    -0.37231303   -0.02837071   31.40664007
     atom   20 type  1   force =    -0.07601113   -0.04720920   30.36693766
     atom   21 type  1   force =     0.44866224   -0.10934532   31.24632682
     atom   22 type  1   force =    -0.23151904    0.38709263   31.42448984
     atom   23 type  1   force =     0.13215417    0.44410138   31.24568998
     atom   24 type  1   force =     0.09805157    0.05846321   31.65485771
     atom   25 type  1   force =    -0.00904076   -0.00468562   31.78137168
     atom   26 type  1   force =    -0.20838610   -0.30870650   31.40983169
     atom   27 type  1   force =     0.21757112   -0.39193122   31.42912763
     atom   28 type  1   force =    -1.52889822   -0.88862530  104.01847148
     atom   29 type  1   force =    -0.07069836   -4.75332016  100.00857993
     atom   30 type  1   force =     1.57971717   -1.24921989  103.99872117
     atom   31 type  1   force =    -4.17236187    2.30657805   99.95397659
     atom   32 type  1   force =     3.07001740    1.76011110   98.69057159
     atom   33 type  1   force =     0.87299942   -0.04852568  103.94338738
     atom   34 type  1   force =    -0.28418551    2.00891348  103.98810725
     atom   35 type  1   force =     0.39515413    0.78064550  103.95652384
     atom   36 type  1   force =    -0.06080516   -0.02216671  104.50428080
     atom   37 type  2   force =     0.87805398    0.47026613   51.33835516
     atom   38 type  3   force =    -1.37399659   -0.76350936   90.21198824
     atom   39 type  4   force =     0.69583644    0.39944519   15.15822415
     The local contribution  to forces
     atom    1 type  1   force =     0.00844836    0.00093852  111.27438964
     atom    2 type  1   force =     0.00353754    0.00209011  111.29811572
     atom    3 type  1   force =    -0.01184241    0.00257195  111.28021814
     atom    4 type  1   force =     0.00368906   -0.00715806  111.27402564
     atom    5 type  1   force =    -0.00371529   -0.01152141  111.28018839
     atom    6 type  1   force =     0.00049288    0.00024593  111.26591163
     atom    7 type  1   force =    -0.00051014   -0.00033237  111.26214890
     atom    8 type  1   force =     0.00496913    0.00683118  111.27423857
     atom    9 type  1   force =    -0.00432542    0.00676546  111.27397453
     atom   10 type  1   force =     0.04462798    0.02593428   40.09963736
     atom   11 type  1   force =     0.00109935    0.07035696   40.18752397
     atom   12 type  1   force =    -0.04553601    0.03752010   40.10159128
     atom   13 type  1   force =     0.06135161   -0.03388926   40.18819430
     atom   14 type  1   force =    -0.04871187   -0.02790617   40.21163286
     atom   15 type  1   force =    -0.01264478   -0.00744036   40.09181666
     atom   16 type  1   force =     0.00952826   -0.05851554   40.10200476
     atom   17 type  1   force =    -0.01295051   -0.00747880   40.09157937
     atom   18 type  1   force =     0.00405824    0.00193723   40.07330338
     atom   19 type  1   force =     0.37198394    0.03078751  -31.39151923
     atom   20 type  1   force =     0.08307221    0.05135184  -30.35187984
     atom   21 type  1   force =    -0.45732996    0.11357498  -31.23088283
     atom   22 type  1   force =     0.23146217   -0.38790435  -31.41526707
     atom   23 type  1   force =    -0.13285079   -0.45374317  -31.23016867
     atom   24 type  1   force =    -0.09658507   -0.05769916  -31.64341490
     atom   25 type  1   force =     0.00834719    0.00427888  -31.77342598
     atom   26 type  1   force =     0.21029702    0.30723182  -31.39478358
     atom   27 type  1   force =    -0.21829024    0.39229077  -31.41984011
     atom   28 type  1   force =     1.52153694    0.88434505 -104.15025888
     atom   29 type  1   force =     0.06803168    4.68673671 -100.12521641
     atom   30 type  1   force =    -1.56965814    1.23008771 -104.14006876
     atom   31 type  1   force =     4.11257690   -2.27532853 -100.07123314
     atom   32 type  1   force =    -3.01185899   -1.72680498  -98.71678916
     atom   33 type  1   force =    -0.86011789    0.04013078 -104.05215626
     atom   34 type  1   force =     0.27295042   -1.99050881 -104.12946539
     atom   35 type  1   force =    -0.39594677   -0.76450151 -104.06649781
     atom   36 type  1   force =     0.06433333    0.02418521 -104.62449876
     atom   37 type  2   force =    -0.80285428   -0.42687129  -51.72642009
     atom   38 type  3   force =     1.03290642    0.57546537  -87.57652586
     atom   39 type  4   force =    -0.67087535   -0.38502396  -15.14690616
     The core correction contribution to forces
     atom    1 type  1   force =    -0.00016245   -0.00003557    0.01005934
     atom    2 type  1   force =     0.00036001    0.00021081    0.00894468
     atom    3 type  1   force =    -0.00016480   -0.00006652    0.01028669
     atom    4 type  1   force =    -0.00005826    0.00000959    0.00999719
     atom    5 type  1   force =    -0.00013228   -0.00010959    0.01028790
     atom    6 type  1   force =     0.00021750    0.00012504    0.00994585
     atom    7 type  1   force =     0.00015337    0.00008671    0.01039155
     atom    8 type  1   force =    -0.00010392   -0.00012309    0.01005859
     atom    9 type  1   force =    -0.00002613   -0.00005443    0.00999697
     atom   10 type  1   force =    -0.00016950   -0.00009730   -0.00189559
     atom   11 type  1   force =    -0.00008892   -0.00024687   -0.00196175
     atom   12 type  1   force =     0.00021131   -0.00032005   -0.00173673
     atom   13 type  1   force =    -0.00026009    0.00005164   -0.00196504
     atom   14 type  1   force =     0.00029468    0.00017053   -0.00179505
     atom   15 type  1   force =     0.00003767    0.00013136   -0.00189517
     atom   16 type  1   force =    -0.00017638    0.00034482   -0.00173882
     atom   17 type  1   force =     0.00013224   -0.00002692   -0.00189242
     atom   18 type  1   force =     0.00011857    0.00006460   -0.00163612
     atom   19 type  1   force =     0.00021140   -0.00064304    0.00148517
     atom   20 type  1   force =    -0.00107275   -0.00061022    0.00115601
     atom   21 type  1   force =     0.00092956   -0.00073843    0.00067974
     atom   22 type  1   force =     0.00000593    0.00083771    0.00137145
     atom   23 type  1   force =    -0.00018242    0.00118501    0.00066878
     atom   24 type  1   force =     0.00042906    0.00024298    0.00219850
     atom   25 type  1   force =     0.00009854    0.00005595    0.00192402
     atom   26 type  1   force =    -0.00045565    0.00048910    0.00149433
     atom   27 type  1   force =     0.00072476   -0.00042039    0.00137414
     atom   28 type  1   force =     0.00187810    0.00110275   -0.00930048
     atom   29 type  1   force =     0.00049030    0.00916815   -0.00482774
     atom   30 type  1   force =    -0.00265051    0.00381060   -0.00787023
     atom   31 type  1   force =     0.00824033   -0.00415980   -0.00477755
     atom   32 type  1   force =    -0.00260380   -0.00153651    0.00032597
     atom   33 type  1   force =    -0.00805551    0.00298431   -0.00600100
     atom   34 type  1   force =     0.00190723   -0.00421690   -0.00789499
     atom   35 type  1   force =    -0.00138132   -0.00840095   -0.00604714
     atom   36 type  1   force =    -0.00084422   -0.00050578   -0.01047229
     atom   37 type  2   force =     0.00089222    0.00059242   -0.00169092
     atom   38 type  3   force =    -0.00258902   -0.00142346    0.01948784
     atom   39 type  4   force =     0.00000000    0.00000000    0.00000000
     The Hubbard contrib.    to forces
     atom    1 type  1   force =     0.00000000    0.00000000    0.00000000
     atom    2 type  1   force =     0.00000000    0.00000000    0.00000000
     atom    3 type  1   force =     0.00000000    0.00000000    0.00000000
     atom    4 type  1   force =     0.00000000    0.00000000    0.00000000
     atom    5 type  1   force =     0.00000000    0.00000000    0.00000000
     atom    6 type  1   force =     0.00000000    0.00000000    0.00000000
     atom    7 type  1   force =     0.00000000    0.00000000    0.00000000
     atom    8 type  1   force =     0.00000000    0.00000000    0.00000000
     atom    9 type  1   force =     0.00000000    0.00000000    0.00000000
     atom   10 type  1   force =     0.00000000    0.00000000    0.00000000
     atom   11 type  1   force =     0.00000000    0.00000000    0.00000000
     atom   12 type  1   force =     0.00000000    0.00000000    0.00000000
     atom   13 type  1   force =     0.00000000    0.00000000    0.00000000
     atom   14 type  1   force =     0.00000000    0.00000000    0.00000000
     atom   15 type  1   force =     0.00000000    0.00000000    0.00000000
     atom   16 type  1   force =     0.00000000    0.00000000    0.00000000
     atom   17 type  1   force =     0.00000000    0.00000000    0.00000000
     atom   18 type  1   force =     0.00000000    0.00000000    0.00000000
     atom   19 type  1   force =     0.00000000    0.00000000    0.00000000
     atom   20 type  1   force =     0.00000000    0.00000000    0.00000000
     atom   21 type  1   force =     0.00000000    0.00000000    0.00000000
     atom   22 type  1   force =     0.00000000    0.00000000    0.00000000
     atom   23 type  1   force =     0.00000000    0.00000000    0.00000000
     atom   24 type  1   force =     0.00000000    0.00000000    0.00000000
     atom   25 type  1   force =     0.00000000    0.00000000    0.00000000
     atom   26 type  1   force =     0.00000000    0.00000000    0.00000000
     atom   27 type  1   force =     0.00000000    0.00000000    0.00000000
     atom   28 type  1   force =     0.00000000    0.00000000    0.00000000
     atom   29 type  1   force =     0.00000000    0.00000000    0.00000000
     atom   30 type  1   force =     0.00000000    0.00000000    0.00000000
     atom   31 type  1   force =     0.00000000    0.00000000    0.00000000
     atom   32 type  1   force =     0.00000000    0.00000000    0.00000000
     atom   33 type  1   force =     0.00000000    0.00000000    0.00000000
     atom   34 type  1   force =     0.00000000    0.00000000    0.00000000
     atom   35 type  1   force =     0.00000000    0.00000000    0.00000000
     atom   36 type  1   force =     0.00000000    0.00000000    0.00000000
     atom   37 type  2   force =     0.00000000    0.00000000    0.00000000
     atom   38 type  3   force =     0.00000000    0.00000000    0.00000000
     atom   39 type  4   force =     0.00000000    0.00000000    0.00000000
     The SCF correction term to forces
     atom    1 type  1   force =    -0.00000000   -0.00000000    0.00000000
     atom    2 type  1   force =    -0.00000000   -0.00000000   -0.00000000
     atom    3 type  1   force =     0.00000000   -0.00000000    0.00000000
     atom    4 type  1   force =    -0.00000000    0.00000000    0.00000000
     atom    5 type  1   force =     0.00000000    0.00000000    0.00000000
     atom    6 type  1   force =    -0.00000000    0.00000000    0.00000000
     atom    7 type  1   force =     0.00000000   -0.00000000    0.00000000
     atom    8 type  1   force =    -0.00000000   -0.00000000    0.00000000
     atom    9 type  1   force =     0.00000000   -0.00000000    0.00000000
     atom   10 type  1   force =    -0.00000000   -0.00000000   -0.00000000
     atom   11 type  1   force =    -0.00000000   -0.00000000   -0.00000000
     atom   12 type  1   force =     0.00000000   -0.00000000   -0.00000000
     atom   13 type  1   force =    -0.00000000    0.00000000   -0.00000000
     atom   14 type  1   force =     0.00000000    0.00000000   -0.00000000
     atom   15 type  1   force =    -0.00000000    0.00000000   -0.00000000
     atom   16 type  1   force =     0.00000000    0.00000000   -0.00000000
     atom   17 type  1   force =     0.00000000   -0.00000000   -0.00000000
     atom   18 type  1   force =    -0.00000000    0.00000000   -0.00000000
     atom   19 type  1   force =    -0.00000000   -0.00000000   -0.00000000
     atom   20 type  1   force =     0.00000000   -0.00000000   -0.00000000
     atom   21 type  1   force =     0.00000000   -0.00000000   -0.00000000
     atom   22 type  1   force =     0.00000000    0.00000000   -0.00000000
     atom   23 type  1   force =     0.00000000    0.00000000   -0.00000000
     atom   24 type  1   force =    -0.00000000   -0.00000000   -0.00000000
     atom   25 type  1   force =    -0.00000000    0.00000000   -0.00000000
     atom   26 type  1   force =    -0.00000000   -0.00000000   -0.00000000
     atom   27 type  1   force =     0.00000000   -0.00000000   -0.00000000
     atom   28 type  1   force =    -0.00000000   -0.00000000   -0.00000000
     atom   29 type  1   force =    -0.00000000    0.00000000   -0.00000000
     atom   30 type  1   force =     0.00000000    0.00000000   -0.00000000
     atom   31 type  1   force =     0.00000000   -0.00000000   -0.00000000
     atom   32 type  1   force =     0.00000000    0.00000000   -0.00000000
     atom   33 type  1   force =    -0.00000000   -0.00000000   -0.00000000
     atom   34 type  1   force =     0.00000000    0.00000000   -0.00000000
     atom   35 type  1   force =    -0.00000000    0.00000000   -0.00000000
     atom   36 type  1   force =     0.00000000    0.00000000   -0.00000000
     atom   37 type  2   force =    -0.00000112   -0.00000089    0.00000387
     atom   38 type  3   force =     0.00000145    0.00000068    0.00000707
     atom   39 type  4   force =     0.00000041    0.00000013    0.00000154

     Total force =     0.025544     Total SCF correction =     0.000008

     Writing all to output data dir ./pwscf.save/

     init_run     :     18.66s CPU     19.17s WALL (       1 calls)
     electrons    :    891.51s CPU    908.13s WALL (       1 calls)
     forces       :      3.45s CPU      3.57s WALL (       1 calls)

     Called by init_run:
     wfcinit      :     15.57s CPU     15.96s WALL (       1 calls)
     potinit      :      2.00s CPU      2.08s WALL (       1 calls)
     hinit0       :      0.85s CPU      0.86s WALL (       1 calls)

     Called by electrons:
     c_bands      :    758.51s CPU    772.73s WALL (      48 calls)
     sum_band     :     88.69s CPU     89.96s WALL (      48 calls)
     v_of_rho     :      8.68s CPU      9.14s WALL (      49 calls)
     newd         :      5.28s CPU      5.40s WALL (      49 calls)
     PAW_pot      :     14.49s CPU     14.64s WALL (      49 calls)
     mix_rho      :     16.79s CPU     17.07s WALL (      48 calls)
     vdW_kernel   :      1.11s CPU      1.11s WALL (       1 calls)

     Called by c_bands:
     init_us_2    :      8.65s CPU      9.01s WALL (    2548 calls)
     init_us_2:cp :      8.64s CPU      9.00s WALL (    2548 calls)
     cegterg      :    733.44s CPU    746.37s WALL (    1248 calls)

     Called by *egterg:
     cdiaghg      :    198.21s CPU    200.69s WALL (    4281 calls)
     h_psi        :    351.41s CPU    359.35s WALL (    4307 calls)
     s_psi        :     35.58s CPU     36.06s WALL (    4307 calls)
     g_psi        :      0.86s CPU      0.88s WALL (    3033 calls)

     Called by h_psi:
     h_psi:calbec :     56.76s CPU     57.63s WALL (    4307 calls)
     vloc_psi     :    256.11s CPU    262.59s WALL (    4307 calls)
     add_vuspsi   :     36.24s CPU     36.74s WALL (    4307 calls)

     General routines
     calbec       :     80.97s CPU     82.13s WALL (    5659 calls)
     fft          :      5.98s CPU      6.48s WALL (    4438 calls)
     ffts         :      9.22s CPU      9.39s WALL (   20141 calls)
     fftw         :    291.92s CPU    298.31s WALL ( 1298804 calls)
     interpolate  :      0.57s CPU      0.58s WALL (      98 calls)

     Parallel routines

     PWSCF        :  15m23.40s CPU  15m45.44s WALL


   This run was terminated on:  10:13:34  14Dec2025            

=------------------------------------------------------------------------------=
   JOB DONE.
=------------------------------------------------------------------------------=
