
     Program PWSCF v.7.1 starts on 28Jan2025 at  5:54:37 
        Git branch: heads/qe-7.1
        Last git commit: 48ba0178f8fede6d020eb786884699a9f063f55d-dirty
        Last git commit date: Fri Jan 27 14:22:33 2023 +0000
        Last git commit subject: Merge branch 'fix_hubbard' into 'develop'

     This program is part of the open-source Quantum ESPRESSO suite
     for quantum simulation of materials; please cite
         "P. Giannozzi et al., J. Phys.:Condens. Matter 21 395502 (2009);
         "P. Giannozzi et al., J. Phys.:Condens. Matter 29 465901 (2017);
         "P. Giannozzi et al., J. Chem. Phys. 152 154105 (2020);
          URL http://www.quantum-espresso.org", 
     in publications or presentations arising from this work. More details at
     http://www.quantum-espresso.org/quote

     Parallel version (MPI), running on    48 processors

     MPI processes distributed on     1 nodes
     209309 MiB available memory on the printing compute node when the environment starts

     Reading input from espresso.pwi
Warning: card &CELL ignored
Warning: card / ignored
Warning: card &FCP ignored
Warning: card / ignored
Warning: card &RISM ignored
Warning: card / ignored

     Current dimensions of program PWSCF are:
     Max number of different atomic species (ntypx) = 10
     Max number of k-points (npk) =  40000
     Max angular momentum in pseudopotentials (lmaxx) =  4
     file Pt.pbe-n-kjpaw_psl.1.0.0.UPF: wavefunction(s)  6S 5D renormalized
     file H.pbe-kjpaw_psl.1.0.0.UPF: wavefunction(s)  1S renormalized

     **************************************************************************
     Initializing libbeef V0.1.2 with the BEEF-vdW functional.
     Citation: Wellendorff et al., PRB 85, 235149 (2012).
     **************************************************************************


     IMPORTANT: XC functional enforced from input :
     Exchange-correlation= BEEF-VDW
                           (   1   4  43  14   2   0   0)
     Any further DFT definition will be discarded
     Please, verify this is what you really want


     R & G space division:  proc/nbgrp/npool/nimage =      48
     Subspace diagonalization in iterative solution of the eigenvalue problem:
     one sub-group per band group will be used
     custom distributed-memory algorithm (size of sub-group:  2*  2 procs)


     Parallelization info
     --------------------
     sticks:   dense  smooth     PW     G-vecs:    dense   smooth      PW
     Min         150      59     16                30552     7447    1068
     Max         151      60     17                30571     7456    1081
     Sum        7243    2839    769              1467143   357639   51591

     Using Slab Decomposition



     bravais-lattice index     =            0
     lattice parameter (alat)  =      16.0028  a.u.
     unit-cell volume          =   10463.1828 (a.u.)^3
     number of atoms/cell      =           37
     number of atomic types    =            2
     number of electrons       =       361.00
     number of Kohn-Sham states=          217
     kinetic-energy cutoff     =      40.0000  Ry
     charge density cutoff     =     410.0000  Ry
     scf convergence threshold =      1.0E-06
     mixing beta               =       0.7000
     number of iterations used =            8  local-TF  mixing
     Exchange-correlation= BEEF-VDW
                           (   1   4  43  14   2   0   0)

     celldm(1)=  16.002787  celldm(2)=   0.000000  celldm(3)=   0.000000
     celldm(4)=   0.000000  celldm(5)=   0.000000  celldm(6)=   0.000000

     crystal axes: (cart. coord. in units of alat)
               a(1) = (   1.000000   0.000000   0.000000 )  
               a(2) = (   0.500000   0.866025   0.000000 )  
               a(3) = (   0.000000   0.000000   2.948128 )  

     reciprocal axes: (cart. coord. in units 2 pi/alat)
               b(1) = (  1.000000 -0.577350  0.000000 )  
               b(2) = (  0.000000  1.154701  0.000000 )  
               b(3) = (  0.000000  0.000000  0.339198 )  


     PseudoPot. # 1 for Pt read from file:
     /users/kbadger1/espresso/pseudo/pslibrary.1.0.0/pbe/PSEUDOPOTENTIALS/Pt.pbe-n-kjpaw_psl.1.0.0.UPF
     MD5 check sum: 2e24a0b5bf98a4ed1a57fa81bca8c143
     Pseudo is Projector augmented-wave + core cor, Zval = 10.0
     Generated using 'atomic' code by A. Dal Corso  v.7.0
     Shape of augmentation charge: PSQ
     Using radial grid of 1277 points,  6 beta functions with: 
                l(1) =   0
                l(2) =   0
                l(3) =   1
                l(4) =   1
                l(5) =   2
                l(6) =   2
     Q(r) pseudized with 0 coefficients 


     PseudoPot. # 2 for H  read from file:
     /users/kbadger1/espresso/pseudo/pslibrary.1.0.0/pbe/PSEUDOPOTENTIALS/H.pbe-kjpaw_psl.1.0.0.UPF
     MD5 check sum: fe4c6fa958fa6d3815bf5d2419cbf1df
     Pseudo is Projector augmented-wave, Zval =  1.0
     Generated using 'atomic' code by A. Dal Corso  v.7.0
     Shape of augmentation charge: PSQ
     Using radial grid of  929 points,  2 beta functions with: 
                l(1) =   0
                l(2) =   0
     Q(r) pseudized with 0 coefficients 


     atomic species   valence    mass     pseudopotential
        Pt            10.00   195.08400     Pt( 1.00)
        H              1.00     1.00800     H ( 1.00)

     No symmetry found



   Cartesian axes

     site n.     atom                  positions (alat units)
         1           Pt  tau(   1) = (   0.0000000   0.0000000   1.0037422  )
         2           Pt  tau(   2) = (   0.3340014   0.0000000   1.0037422  )
         3           Pt  tau(   3) = (   0.6680027   0.0000000   1.0037422  )
         4           Pt  tau(   4) = (   0.1670007   0.2892537   1.0037422  )
         5           Pt  tau(   5) = (   0.5010021   0.2892537   1.0037422  )
         6           Pt  tau(   6) = (   0.8350034   0.2892537   1.0037422  )
         7           Pt  tau(   7) = (   0.3340014   0.5785073   1.0037422  )
         8           Pt  tau(   8) = (   0.6680027   0.5785073   1.0037422  )
         9           Pt  tau(   9) = (   1.0020041   0.5785073   1.0037422  )
        10           Pt  tau(  10) = (   0.1670007   0.0964179   1.2764532  )
        11           Pt  tau(  11) = (   0.5010021   0.0964179   1.2764532  )
        12           Pt  tau(  12) = (   0.8350034   0.0964179   1.2764532  )
        13           Pt  tau(  13) = (   0.3340014   0.3856716   1.2764532  )
        14           Pt  tau(  14) = (   0.6680027   0.3856716   1.2764532  )
        15           Pt  tau(  15) = (   1.0020041   0.3856716   1.2764532  )
        16           Pt  tau(  16) = (   0.5010021   0.6749252   1.2764532  )
        17           Pt  tau(  17) = (   0.8350034   0.6749252   1.2764532  )
        18           Pt  tau(  18) = (   1.1690048   0.6749252   1.2764532  )
        19           Pt  tau(  19) = (   0.0017709   0.1918425   1.5479137  )
        20           Pt  tau(  20) = (   0.3344271   0.1917143   1.5475963  )
        21           Pt  tau(  21) = (   0.6681492   0.1918395   1.5458761  )
        22           Pt  tau(  22) = (   0.1681914   0.4777354   1.5505650  )
        23           Pt  tau(  23) = (   0.5013781   0.4806826   1.5461200  )
        24           Pt  tau(  24) = (   0.8349353   0.4807153   1.5460112  )
        25           Pt  tau(  25) = (   0.3350839   0.7689549   1.5472073  )
        26           Pt  tau(  26) = (   0.6682044   0.7696007   1.5473819  )
        27           Pt  tau(  27) = (   1.0015544   0.7688357   1.5467787  )
        28           Pt  tau(  28) = (  -0.0007355  -0.0034829   1.8238994  )
        29           Pt  tau(  29) = (   0.3374450  -0.0034896   1.8236076  )
        30           Pt  tau(  30) = (   0.6682813  -0.0015600   1.8221927  )
        31           Pt  tau(  31) = (   0.1683422   0.2877019   1.8323427  )
        32           Pt  tau(  32) = (   0.5028478   0.2873568   1.8211489  )
        33           Pt  tau(  33) = (   0.8337549   0.2873946   1.8211837  )
        34           Pt  tau(  34) = (   0.3352932   0.5759045   1.8222919  )
        35           Pt  tau(  35) = (   0.6683263   0.5751204   1.8213982  )
        36           Pt  tau(  36) = (   1.0013286   0.5759373   1.8221607  )
        37           H   tau(  37) = (   0.1678543   0.1645365   1.9763177  )

     number of k points=    13  Marzari-Vanderbilt smearing, width (Ry)=  0.0200
                       cart. coord. in units 2pi/alat
        k(    1) = (   0.0000000   0.0000000   0.0000000), wk =   0.0800000
        k(    2) = (   0.0000000   0.2309401   0.0000000), wk =   0.1600000
        k(    3) = (   0.0000000   0.4618802   0.0000000), wk =   0.1600000
        k(    4) = (   0.2000000  -0.1154701   0.0000000), wk =   0.1600000
        k(    5) = (   0.2000000   0.1154701   0.0000000), wk =   0.1600000
        k(    6) = (   0.2000000   0.3464102   0.0000000), wk =   0.1600000
        k(    7) = (   0.2000000  -0.5773503   0.0000000), wk =   0.1600000
        k(    8) = (   0.2000000  -0.3464102   0.0000000), wk =   0.1600000
        k(    9) = (   0.4000000  -0.2309401   0.0000000), wk =   0.1600000
        k(   10) = (   0.4000000   0.0000000   0.0000000), wk =   0.1600000
        k(   11) = (   0.4000000   0.2309401   0.0000000), wk =   0.1600000
        k(   12) = (   0.4000000  -0.6928203   0.0000000), wk =   0.1600000
        k(   13) = (   0.4000000  -0.4618802   0.0000000), wk =   0.1600000

     Dense  grid:  1467143 G-vectors     FFT dimensions: ( 108, 108, 320)

     Smooth grid:   357639 G-vectors     FFT dimensions: (  72,  72, 192)

     Estimated max dynamical RAM per process >     211.30 MB

     Estimated total dynamical RAM >       9.90 GB

     Initial potential from superposition of free atoms

     starting charge     360.9939, renormalised to     361.0000

     negative rho (up, down):  3.552E-03 0.000E+00


     %%%%%%%%%%%%%%%%%%%%%%%%%%%%%%%%%%%%%%%%%%%%%%%%%%%%%%%%%%%%%%%%%%%%%%%%
     %                                                                      %
     % You are using vdW-DF, which was implemented by the Thonhauser group. %
     % Please cite the following two papers that made this development      %
     % possible and the two reviews that describe the various versions:     %
     %                                                                      %
     %   T. Thonhauser et al., PRL 115, 136402 (2015).                      %
     %   T. Thonhauser et al., PRB 76, 125112 (2007).                       %
     %   K. Berland et al., Rep. Prog. Phys. 78, 066501 (2015).             %
     %   D.C. Langreth et al., J. Phys.: Condens. Matter 21, 084203 (2009). %
     %                                                                      %
     % If you are calculating stress with vdW-DF, please also cite:         %
     %                                                                      %
     %   R. Sabatini et al., J. Phys.: Condens. Matter 24, 424209 (2012).   %
     %                                                                      %
     %%%%%%%%%%%%%%%%%%%%%%%%%%%%%%%%%%%%%%%%%%%%%%%%%%%%%%%%%%%%%%%%%%%%%%%%

     %%%%%%%%%%%%%%%%%%%%%%%%%%%%%%%%%%%%%%%%%%%%%%%%%%%%%%%%%%%%%%%%%%%%%%%%
     %                                                                      %
     %  vdW-DF NEWS:                                                        %
     %                                                                      %
     %  * vdW-DF3 is now available. DOI: 10.1021/acs.jctc.0c00471           %
     %    use with input_dft = 'vdW-DF3-opt1' or 'vdW-DF3-opt2'             %
     %                                                                      %
     %  * Unscreened and range-separated hybrid vdW-DF-cx functionals       %
     %    DOI: 10.1063/1.4986522 and 10.1088/1361-648X/ac2ad2               %
     %    use with input_dft = 'vdW-DF-cx0'    and 'vdW-DF-ahcx'            %
     %  * Unscreened and range-separated hybrid vdW-DF2-b86r functionals    %
     %    DOI: 10.1063/1.4986522 and DOI: 10.1103/PhysRevX.12.041003        %
     %    use with input_dft = 'vdW-DF2-br0' and 'vdW-DF2-ahbr'             %
     %                                                                      %
     %%%%%%%%%%%%%%%%%%%%%%%%%%%%%%%%%%%%%%%%%%%%%%%%%%%%%%%%%%%%%%%%%%%%%%%%


     Starting wfcs are  325 randomized atomic wfcs
     Checking if some PAW data can be deallocated... 

     total cpu time spent up to now is       11.1 secs

     per-process dynamical memory:   208.8 Mb

     Self-consistent Calculation

     iteration #  1     ecut=    40.00 Ry     beta= 0.70
     Davidson diagonalization with overlap
     ethr =  1.00E-02,  avg # of iterations =  2.0

     Threshold (ethr) on eigenvalues was too large:
     Diagonalizing with lowered threshold

     Davidson diagonalization with overlap
     ethr =  3.81E-04,  avg # of iterations =  4.1

     negative rho (up, down):  1.789E-02 0.000E+00

     total cpu time spent up to now is       42.6 secs

     total energy              =  -27755.28353738 Ry
     estimated scf accuracy    <       1.58004439 Ry

     iteration #  2     ecut=    40.00 Ry     beta= 0.70
     Davidson diagonalization with overlap
     ethr =  4.38E-04,  avg # of iterations =  2.0

     negative rho (up, down):  1.612E-02 0.000E+00

     total cpu time spent up to now is       55.3 secs

     total energy              =  -27755.38380568 Ry
     estimated scf accuracy    <       0.79960221 Ry

     iteration #  3     ecut=    40.00 Ry     beta= 0.70
     Davidson diagonalization with overlap
     ethr =  2.21E-04,  avg # of iterations =  2.0

     negative rho (up, down):  1.082E-02 0.000E+00

     total cpu time spent up to now is       68.3 secs

     total energy              =  -27755.43660661 Ry
     estimated scf accuracy    <       0.09374858 Ry

     iteration #  4     ecut=    40.00 Ry     beta= 0.70
     Davidson diagonalization with overlap
     c_bands:  2 eigenvalues not converged
     c_bands:  1 eigenvalues not converged
     c_bands:  1 eigenvalues not converged
     c_bands:  1 eigenvalues not converged
     c_bands:  1 eigenvalues not converged
     ethr =  2.60E-05,  avg # of iterations = 15.6

     negative rho (up, down):  7.981E-03 0.000E+00

     total cpu time spent up to now is      100.6 secs

     total energy              =  -27755.48590883 Ry
     estimated scf accuracy    <       0.07594272 Ry

     iteration #  5     ecut=    40.00 Ry     beta= 0.70
     Davidson diagonalization with overlap
     ethr =  2.10E-05,  avg # of iterations =  3.6

     negative rho (up, down):  3.879E-03 0.000E+00

     total cpu time spent up to now is      113.9 secs

     total energy              =  -27755.48592537 Ry
     estimated scf accuracy    <       0.02873451 Ry

     iteration #  6     ecut=    40.00 Ry     beta= 0.70
     Davidson diagonalization with overlap
     ethr =  7.96E-06,  avg # of iterations =  5.4

     negative rho (up, down):  2.017E-03 0.000E+00

     total cpu time spent up to now is      128.3 secs

     total energy              =  -27755.48796870 Ry
     estimated scf accuracy    <       0.00227656 Ry

     iteration #  7     ecut=    40.00 Ry     beta= 0.70
     Davidson diagonalization with overlap
     c_bands:  1 eigenvalues not converged
     c_bands:  2 eigenvalues not converged
     ethr =  6.31E-07,  avg # of iterations = 11.8

     negative rho (up, down):  1.583E-03 0.000E+00

     total cpu time spent up to now is      156.4 secs

     total energy              =  -27755.48851317 Ry
     estimated scf accuracy    <       0.00175893 Ry

     iteration #  8     ecut=    40.00 Ry     beta= 0.70
     Davidson diagonalization with overlap
     ethr =  4.87E-07,  avg # of iterations =  1.9

     negative rho (up, down):  1.340E-03 0.000E+00

     total cpu time spent up to now is      168.9 secs

     total energy              =  -27755.48865156 Ry
     estimated scf accuracy    <       0.00019207 Ry

     iteration #  9     ecut=    40.00 Ry     beta= 0.70
     Davidson diagonalization with overlap
     ethr =  5.32E-08,  avg # of iterations =  5.3

     negative rho (up, down):  1.015E-03 0.000E+00

     total cpu time spent up to now is      193.8 secs

     total energy              =  -27755.48876318 Ry
     estimated scf accuracy    <       0.00008846 Ry

     iteration # 10     ecut=    40.00 Ry     beta= 0.70
     Davidson diagonalization with overlap
     ethr =  2.45E-08,  avg # of iterations =  3.7

     negative rho (up, down):  9.650E-04 0.000E+00

     total cpu time spent up to now is      213.7 secs

     total energy              =  -27755.48877984 Ry
     estimated scf accuracy    <       0.00008448 Ry

     iteration # 11     ecut=    40.00 Ry     beta= 0.70
     Davidson diagonalization with overlap
     ethr =  2.34E-08,  avg # of iterations =  1.2

     negative rho (up, down):  1.035E-03 0.000E+00

     total cpu time spent up to now is      225.9 secs

     total energy              =  -27755.48878460 Ry
     estimated scf accuracy    <       0.00005014 Ry

     iteration # 12     ecut=    40.00 Ry     beta= 0.70
     Davidson diagonalization with overlap
     ethr =  1.39E-08,  avg # of iterations =  1.3

     negative rho (up, down):  1.221E-03 0.000E+00

     total cpu time spent up to now is      237.8 secs

     total energy              =  -27755.48878791 Ry
     estimated scf accuracy    <       0.00002275 Ry

     iteration # 13     ecut=    40.00 Ry     beta= 0.70
     Davidson diagonalization with overlap
     ethr =  6.30E-09,  avg # of iterations =  2.0

     negative rho (up, down):  1.675E-03 0.000E+00

     total cpu time spent up to now is      250.5 secs

     total energy              =  -27755.48879113 Ry
     estimated scf accuracy    <       0.00001339 Ry

     iteration # 14     ecut=    40.00 Ry     beta= 0.70
     Davidson diagonalization with overlap
     ethr =  3.71E-09,  avg # of iterations =  2.0

     negative rho (up, down):  1.985E-03 0.000E+00

     total cpu time spent up to now is      264.2 secs

     total energy              =  -27755.48879516 Ry
     estimated scf accuracy    <       0.00000750 Ry

     iteration # 15     ecut=    40.00 Ry     beta= 0.70
     Davidson diagonalization with overlap
     ethr =  2.08E-09,  avg # of iterations =  1.8

     negative rho (up, down):  2.903E-03 0.000E+00

     total cpu time spent up to now is      276.5 secs

     total energy              =  -27755.48879208 Ry
     estimated scf accuracy    <       0.00000706 Ry

     iteration # 16     ecut=    40.00 Ry     beta= 0.70
     Davidson diagonalization with overlap
     ethr =  1.95E-09,  avg # of iterations =  1.5

     negative rho (up, down):  3.351E-03 0.000E+00

     total cpu time spent up to now is      288.3 secs

     End of self-consistent calculation

          k = 0.0000 0.0000 0.0000 ( 44645 PWs)   bands (ev):

    -6.6417  -5.4110  -4.4939  -4.2396  -4.2147  -4.2088  -4.2025  -4.1994
    -4.1892  -4.1838  -3.7908  -3.6636  -3.6585  -3.6538  -3.6472  -3.6448
    -3.5040  -3.2008  -3.1883  -3.1851  -3.1831  -3.1783  -3.0955  -2.9766
    -2.9698  -2.9678  -2.9626  -2.9608  -2.8549  -2.7567  -2.7482  -2.7468
    -2.7431  -2.7349  -2.7154  -2.7036  -2.7003  -2.6964  -2.6769  -2.6601
    -2.4487  -2.1208  -2.1184  -2.0908  -2.0768  -2.0568  -2.0481  -2.0364
    -2.0303  -2.0263  -1.8966  -1.8811  -1.8521  -1.7849  -1.7343  -1.3328
    -1.3238  -1.3050  -1.3031  -1.2997  -1.2471  -1.2388  -1.1150  -1.1147
    -1.1117  -1.0997  -1.0952  -1.0931  -1.0815  -1.0666  -1.0505  -1.0464
    -1.0406  -1.0311  -1.0021  -0.9986  -0.9746  -0.9021  -0.8927  -0.8844
    -0.8817  -0.8761  -0.8558  -0.6778  -0.6761  -0.6699  -0.6653  -0.6503
    -0.6388  -0.6349  -0.6200  -0.5570  -0.5359  -0.4923  -0.4803  -0.4613
    -0.4547  -0.4340  -0.4197  -0.4136  -0.3548  -0.2676  -0.2644  -0.2502
    -0.2397  -0.2341  -0.2317   0.0473   0.2374   0.2613   0.2682   0.2718
     0.2772   0.2779   0.2905   0.3048   0.3222   0.3257   0.3288   0.3776
     0.3929   0.4563   0.5392   0.5447   0.5613   0.5671   0.5672   0.6609
     0.6680   0.7235   0.7269   0.7307   0.7569   0.9227   0.9832   1.0031
     1.0049   1.0188   1.0229   1.0610   1.0803   1.1021   1.2341   1.2363
     1.2432   1.2478   1.2501   1.3089   1.4068   1.4116   1.4313   1.4383
     1.4421   1.4525   1.4556   1.4599   1.4603   1.4611   1.4645   1.5447
     1.5739   1.5838   1.5976   1.6056   1.6169   1.6253   1.6369   1.6828
     1.6911   1.7153   1.7229   1.7240   1.7372   1.7424   1.7445   1.8153
     1.8271   1.8331   1.8354   1.8389   1.8464   1.8497   1.9091   1.9303
     1.9375   1.9388   1.9508   1.9572   2.1331   2.1578   2.2292   2.2430
     2.2597   2.2638   2.2648   2.2706   2.7055   3.0797   3.1172   3.1364
     3.1540   3.1552   3.1600   4.9188   5.4121   5.4357   5.4706   5.4723
     5.4901   6.7521   7.0642   7.0863   7.1076   7.1264   7.1287   7.1715
     7.2844

          k = 0.0000 0.2309 0.0000 ( 44694 PWs)   bands (ev):

    -6.4937  -5.2682  -4.7206  -4.4266  -4.3139  -4.2597  -4.0965  -4.0163
    -3.9795  -3.9618  -3.8134  -3.7480  -3.6922  -3.5932  -3.5890  -3.5737
    -3.4260  -3.2666  -3.1569  -3.1501  -3.1429  -3.1322  -3.0705  -3.0365
    -3.0141  -2.9699  -2.9661  -2.9529  -2.9081  -2.8637  -2.8357  -2.7777
    -2.7658  -2.7418  -2.7331  -2.6080  -2.5372  -2.5250  -2.5114  -2.4926
    -2.3973  -2.2403  -2.2349  -2.1681  -2.1619  -2.1382  -2.1241  -2.0359
    -1.9392  -1.9187  -1.8615  -1.8584  -1.8006  -1.7890  -1.7486  -1.5622
    -1.4760  -1.4717  -1.4203  -1.3971  -1.3653  -1.3220  -1.3121  -1.2970
    -1.2736  -1.2545  -1.1911  -1.1867  -1.1365  -1.0983  -1.0941  -1.0709
    -1.0314  -1.0165  -1.0061  -0.9212  -0.9142  -0.8995  -0.8667  -0.8247
    -0.8146  -0.8069  -0.7886  -0.7143  -0.7071  -0.6928  -0.6856  -0.6736
    -0.6543  -0.6194  -0.5822  -0.5531  -0.5372  -0.5279  -0.5007  -0.4990
    -0.4632  -0.4479  -0.4386  -0.4278  -0.3409  -0.2754  -0.2619  -0.2465
    -0.2407  -0.2321  -0.2227  -0.2113  -0.1661  -0.1624  -0.1407  -0.1283
     0.0785   0.1772   0.1932   0.2346   0.2671   0.2680   0.2804   0.3195
     0.3221   0.4214   0.4794   0.4860   0.5132   0.5993   0.6134   0.6580
     0.6616   0.6800   0.7192   0.7410   0.7568   0.7916   0.8437   0.8735
     0.8808   0.8844   0.9222   1.0815   1.0841   1.1046   1.1237   1.1311
     1.1471   1.1845   1.2313   1.2650   1.2814   1.2879   1.3446   1.3557
     1.3701   1.3769   1.4374   1.4785   1.4876   1.5135   1.5371   1.6129
     1.6527   1.6592   1.6631   1.6761   1.6780   1.7251   1.7824   1.7986
     1.8227   1.8581   1.8719   1.8776   1.9095   1.9166   1.9222   1.9312
     1.9366   1.9821   1.9897   2.1052   2.1394   2.1634   2.1855   2.1947
     2.1973   2.2274   2.2636   2.2685   2.2834   2.3661   2.3837   2.4079
     2.4168   2.5714   2.5733   2.5864   2.6042   2.9459   3.0168   3.4635
     3.7350   3.7487   3.8688   4.6090   4.9998   5.1790   5.7597   5.9340
     5.9372   6.0208   6.2612   6.6362   6.8959   6.9919   7.2629   7.2935
     7.2955

          k = 0.0000 0.4619 0.0000 ( 44748 PWs)   bands (ev):

    -6.0678  -5.4285  -4.8719  -4.4155  -4.3467  -4.2907  -4.0270  -3.9684
    -3.8326  -3.7129  -3.6419  -3.6184  -3.5624  -3.4598  -3.4174  -3.4025
    -3.4015  -3.3509  -3.2584  -3.2294  -3.2101  -3.1879  -3.1723  -3.1608
    -3.0895  -3.0532  -3.0477  -2.9846  -2.7968  -2.7837  -2.7823  -2.7702
    -2.7613  -2.6927  -2.5405  -2.5269  -2.5144  -2.4898  -2.4813  -2.4134
    -2.2549  -2.2104  -2.1942  -2.1817  -2.1592  -2.1284  -2.0861  -2.0506
    -2.0472  -2.0105  -1.9825  -1.8964  -1.8335  -1.8220  -1.7976  -1.7661
    -1.6787  -1.6352  -1.6099  -1.6062  -1.5605  -1.4560  -1.4008  -1.3943
    -1.3817  -1.3702  -1.2910  -1.2726  -1.2330  -1.1547  -1.1491  -1.1406
    -1.1012  -1.0299  -1.0193  -0.9903  -0.9896  -0.9481  -0.9361  -0.9055
    -0.9007  -0.8760  -0.8680  -0.8618  -0.8546  -0.8392  -0.8004  -0.7350
    -0.7146  -0.6997  -0.6966  -0.6896  -0.6696  -0.5674  -0.5306  -0.5208
    -0.4964  -0.4786  -0.4567  -0.4294  -0.3955  -0.3928  -0.3363  -0.2675
    -0.2303  -0.2018  -0.1874  -0.1597  -0.1391  -0.0018   0.0148   0.0929
     0.0969   0.1469   0.1654   0.1980   0.2140   0.2150   0.2274   0.2869
     0.3004   0.3122   0.3315   0.3378   0.3657   0.3732   0.3768   0.3872
     0.4388   0.5335   0.5551   0.5796   0.6036   0.6466   0.7387   0.7599
     0.8045   0.8685   0.9009   0.9741   1.0338   1.0485   1.0838   1.0971
     1.1216   1.1427   1.1558   1.2068   1.2425   1.2453   1.3107   1.3262
     1.3620   1.3996   1.4122   1.4175   1.4398   1.4616   1.5646   1.6104
     1.6779   1.6978   1.7121   1.7200   1.7215   1.8166   1.8244   1.8490
     1.9029   1.9058   1.9194   1.9700   1.9921   2.0105   2.0280   2.1211
     2.1465   2.1650   2.1684   2.1844   2.1888   2.2073   2.2250   2.3931
     2.4204   2.4260   2.4371   2.4390   2.6144   2.6546   2.8432   3.0259
     3.0736   3.2366   3.4866   3.4882   3.7601   3.8724   3.9483   4.1880
     4.4185   4.7150   4.7152   4.7599   4.8888   4.9534   5.0257   5.0766
     5.3232   5.3652   5.8329   5.9888   6.3647   6.5259   6.7781   6.9930
     7.2994

          k = 0.2000-0.1155 0.0000 ( 44694 PWs)   bands (ev):

    -6.4939  -5.2704  -4.7319  -4.3958  -4.3161  -4.2802  -4.0966  -4.0159
    -3.9710  -3.9675  -3.8411  -3.7475  -3.6536  -3.5854  -3.5842  -3.5727
    -3.4488  -3.2830  -3.1579  -3.1496  -3.1413  -3.1021  -3.0669  -3.0426
    -3.0114  -2.9821  -2.9716  -2.9513  -2.8844  -2.8596  -2.8467  -2.7722
    -2.7613  -2.7408  -2.7308  -2.5966  -2.5350  -2.5269  -2.5175  -2.4879
    -2.4102  -2.2401  -2.2374  -2.2044  -2.1560  -2.1456  -2.1242  -2.0395
    -1.9490  -1.8896  -1.8590  -1.8527  -1.8148  -1.7884  -1.7316  -1.5725
    -1.4775  -1.4653  -1.4244  -1.4010  -1.3792  -1.3310  -1.3009  -1.2841
    -1.2684  -1.2505  -1.2033  -1.1916  -1.1511  -1.1209  -1.0909  -1.0701
    -1.0089  -1.0019  -0.9924  -0.9196  -0.9156  -0.8841  -0.8712  -0.8323
    -0.8271  -0.8121  -0.7743  -0.7220  -0.7036  -0.6889  -0.6811  -0.6765
    -0.6455  -0.6287  -0.5871  -0.5434  -0.5352  -0.5257  -0.5170  -0.4946
    -0.4840  -0.4377  -0.4340  -0.4111  -0.3466  -0.2769  -0.2599  -0.2519
    -0.2397  -0.2325  -0.2270  -0.2104  -0.1765  -0.1560  -0.1474  -0.1356
     0.0495   0.1679   0.2104   0.2528   0.2626   0.2782   0.2833   0.3080
     0.3246   0.3760   0.4655   0.4870   0.5394   0.5989   0.6164   0.6452
     0.6735   0.6816   0.7253   0.7434   0.7507   0.8366   0.8563   0.8680
     0.8813   0.8884   0.9704   1.0760   1.0919   1.1047   1.1176   1.1311
     1.1445   1.1855   1.2264   1.2542   1.2749   1.2888   1.3185   1.3581
     1.3619   1.3760   1.4165   1.4733   1.4942   1.5113   1.5489   1.6093
     1.6409   1.6500   1.6627   1.6775   1.6985   1.7256   1.7828   1.8034
     1.8404   1.8579   1.8700   1.8826   1.9094   1.9155   1.9268   1.9297
     1.9354   1.9880   1.9973   2.1219   2.1372   2.1543   2.1792   2.1873
     2.1954   2.2158   2.2436   2.2621   2.2832   2.3554   2.3884   2.4048
     2.4420   2.5625   2.5780   2.5847   2.6159   2.9266   3.0019   3.4868
     3.7293   3.7527   3.8739   4.5976   5.0449   5.1684   5.7483   5.9318
     5.9453   6.0139   6.2263   6.6546   6.8913   6.9789   7.2606   7.2870
     7.3021

          k = 0.2000 0.1155 0.0000 ( 44694 PWs)   bands (ev):

    -6.4940  -5.2705  -4.7317  -4.3975  -4.3163  -4.2781  -4.0968  -4.0172
    -3.9700  -3.9669  -3.8413  -3.7470  -3.6522  -3.5888  -3.5847  -3.5716
    -3.4480  -3.2823  -3.1579  -3.1489  -3.1402  -3.1035  -3.0667  -3.0450
    -3.0117  -2.9807  -2.9721  -2.9526  -2.8860  -2.8581  -2.8458  -2.7740
    -2.7613  -2.7408  -2.7301  -2.5967  -2.5355  -2.5256  -2.5181  -2.4862
    -2.4101  -2.2415  -2.2354  -2.2041  -2.1564  -2.1445  -2.1234  -2.0417
    -1.9482  -1.8902  -1.8583  -1.8531  -1.8156  -1.7884  -1.7304  -1.5714
    -1.4768  -1.4657  -1.4245  -1.3991  -1.3782  -1.3277  -1.3035  -1.2858
    -1.2698  -1.2507  -1.2034  -1.1906  -1.1488  -1.1204  -1.0893  -1.0702
    -1.0107  -1.0048  -0.9963  -0.9202  -0.9134  -0.8837  -0.8719  -0.8307
    -0.8262  -0.8072  -0.7766  -0.7224  -0.7051  -0.6883  -0.6806  -0.6776
    -0.6449  -0.6294  -0.5881  -0.5442  -0.5356  -0.5241  -0.5169  -0.4951
    -0.4844  -0.4385  -0.4339  -0.4118  -0.3469  -0.2774  -0.2603  -0.2519
    -0.2431  -0.2312  -0.2276  -0.2096  -0.1723  -0.1564  -0.1498  -0.1359
     0.0523   0.1685   0.2081   0.2508   0.2660   0.2785   0.2814   0.3087
     0.3246   0.3763   0.4655   0.4864   0.5389   0.5958   0.6159   0.6469
     0.6744   0.6802   0.7237   0.7427   0.7512   0.8354   0.8575   0.8719
     0.8816   0.8864   0.9702   1.0761   1.0913   1.1041   1.1159   1.1311
     1.1424   1.1877   1.2270   1.2556   1.2753   1.2875   1.3176   1.3588
     1.3626   1.3746   1.4193   1.4734   1.4939   1.5118   1.5508   1.6086
     1.6401   1.6502   1.6616   1.6769   1.6965   1.7255   1.7831   1.8038
     1.8414   1.8573   1.8682   1.8833   1.9104   1.9155   1.9269   1.9289
     1.9360   1.9865   1.9955   2.1219   2.1352   2.1551   2.1809   2.1875
     2.1973   2.2167   2.2453   2.2643   2.2836   2.3544   2.3894   2.4039
     2.4416   2.5643   2.5777   2.5846   2.6141   2.9291   3.0043   3.4857
     3.7286   3.7518   3.8735   4.5955   5.0468   5.1704   5.7484   5.9320
     5.9434   6.0140   6.2280   6.6530   6.8908   6.9765   7.2609   7.2867
     7.3027

          k = 0.2000 0.3464 0.0000 ( 44714 PWs)   bands (ev):

    -6.2064  -5.0306  -4.9639  -4.9505  -4.2440  -3.8909  -3.8849  -3.8772
    -3.8647  -3.8297  -3.8137  -3.7936  -3.7051  -3.7024  -3.4831  -3.3178
    -3.3066  -3.3015  -3.2731  -3.2332  -3.1924  -3.0725  -3.0614  -3.0568
    -3.0495  -3.0063  -2.9400  -2.9067  -2.9000  -2.8949  -2.8436  -2.8154
    -2.8023  -2.7596  -2.7400  -2.6556  -2.5688  -2.4044  -2.3145  -2.3034
    -2.2667  -2.2563  -2.2445  -2.2373  -2.1792  -2.1557  -2.0948  -2.0102
    -2.0034  -1.9414  -1.9077  -1.8726  -1.8334  -1.8204  -1.7777  -1.7304
    -1.7129  -1.5658  -1.5419  -1.5310  -1.4585  -1.4453  -1.4216  -1.4162
    -1.3955  -1.3425  -1.3116  -1.2075  -1.1908  -1.1746  -1.1578  -1.1226
    -1.1130  -1.0620  -1.0372  -1.0119  -0.9585  -0.9066  -0.8921  -0.8681
    -0.8532  -0.8367  -0.8199  -0.8058  -0.7841  -0.7622  -0.7472  -0.7249
    -0.6959  -0.6674  -0.5958  -0.5750  -0.5653  -0.5416  -0.5147  -0.5023
    -0.4887  -0.4488  -0.4371  -0.4218  -0.4169  -0.4091  -0.4045  -0.3865
    -0.3526  -0.3199  -0.2304  -0.2229  -0.1779  -0.1413  -0.0995  -0.0885
    -0.0764   0.0599   0.1161   0.1405   0.2234   0.2394   0.2775   0.2890
     0.3075   0.3353   0.3480   0.3863   0.3941   0.4155   0.4413   0.5155
     0.5488   0.6173   0.6699   0.6880   0.7256   0.7355   0.7663   0.8039
     0.8417   0.9147   0.9287   0.9497   1.0103   1.0224   1.0704   1.1314
     1.1491   1.1568   1.1889   1.2135   1.2320   1.2436   1.2501   1.2676
     1.2783   1.2852   1.2967   1.3987   1.4562   1.4930   1.6015   1.6188
     1.6422   1.7412   1.7960   1.8101   1.8132   1.8581   1.9099   1.9367
     1.9526   1.9685   1.9819   1.9977   2.0147   2.0155   2.0269   2.0591
     2.0843   2.1023   2.1663   2.1884   2.2074   2.2384   2.2495   2.2823
     2.4201   2.4474   2.4740   2.4846   2.5510   2.5561   2.5733   2.6796
     2.7155   2.9832   3.2239   3.2494   3.6000   3.7787   3.7905   3.8003
     4.1861   4.4752   4.4920   4.6709   4.7257   4.7555   5.3491   5.6896
     5.9165   5.9232   6.1388   6.3111   6.6253   6.6729   6.6999   6.7285
     7.1340

          k = 0.2000-0.5774 0.0000 ( 44692 PWs)   bands (ev):

    -5.6739  -5.6613  -5.0631  -4.5888  -4.4334  -4.0754  -3.8872  -3.7837
    -3.7413  -3.6926  -3.5976  -3.5655  -3.5023  -3.4928  -3.3946  -3.3822
    -3.3662  -3.3346  -3.3248  -3.3057  -3.2144  -3.1664  -3.1607  -3.1360
    -3.1125  -3.0840  -3.0546  -2.9483  -2.9040  -2.8072  -2.7737  -2.7644
    -2.7457  -2.7336  -2.6955  -2.6393  -2.5345  -2.5112  -2.4669  -2.3377
    -2.3194  -2.2288  -2.1862  -2.1507  -2.1326  -2.0756  -2.0098  -1.9608
    -1.9280  -1.9033  -1.8927  -1.8349  -1.8271  -1.8018  -1.7089  -1.7073
    -1.6903  -1.6772  -1.6696  -1.6598  -1.6045  -1.5979  -1.5880  -1.4657
    -1.4544  -1.3915  -1.3611  -1.3077  -1.2583  -1.2419  -1.2170  -1.1772
    -1.1752  -1.1560  -1.0831  -1.0629  -1.0457  -1.0301  -0.9975  -0.9794
    -0.9369  -0.8852  -0.8394  -0.8251  -0.8091  -0.8059  -0.7559  -0.6857
    -0.6412  -0.6207  -0.6050  -0.5787  -0.5553  -0.5497  -0.5417  -0.5185
    -0.5014  -0.4820  -0.4723  -0.4514  -0.4146  -0.4024  -0.3910  -0.3833
    -0.3724  -0.3590  -0.3201  -0.2974  -0.2879  -0.1174  -0.0675  -0.0629
     0.0234   0.0426   0.1328   0.1456   0.1651   0.1941   0.2161   0.2301
     0.2379   0.2608   0.3045   0.3647   0.3845   0.4029   0.4428   0.4632
     0.5113   0.5320   0.5706   0.6657   0.7209   0.7866   0.7950   0.8123
     0.8347   0.8943   0.9207   0.9393   0.9487   0.9550   0.9713   0.9890
     1.0747   1.0900   1.1140   1.1545   1.1798   1.1897   1.2135   1.2287
     1.2307   1.3447   1.4058   1.4570   1.5185   1.5520   1.6301   1.6444
     1.6726   1.7268   1.7640   1.7773   1.8195   1.8636   1.9292   1.9477
     1.9744   1.9928   2.0020   2.0240   2.0444   2.0907   2.1507   2.1565
     2.1624   2.1882   2.2072   2.2130   2.2162   2.2857   2.4018   2.4238
     2.4304   2.4364   2.4420   2.5047   2.5371   2.6303   2.7519   3.3768
     3.6005   3.6075   3.7671   3.8412   3.9352   3.9808   3.9903   4.2945
     4.6012   4.6116   4.7834   5.0495   5.0788   5.1763   5.2028   5.3574
     5.4534   5.5251   5.5603   5.8307   6.0085   6.0264   6.4037   6.6816
     6.6937

          k = 0.2000-0.3464 0.0000 ( 44714 PWs)   bands (ev):

    -6.2063  -5.0265  -4.9696  -4.9494  -4.2422  -3.8903  -3.8829  -3.8795
    -3.8649  -3.8297  -3.8157  -3.7942  -3.7056  -3.7017  -3.4822  -3.3155
    -3.3075  -3.3026  -3.2729  -3.2321  -3.1937  -3.0698  -3.0632  -3.0591
    -3.0500  -3.0035  -2.9399  -2.9102  -2.8987  -2.8947  -2.8441  -2.8166
    -2.7971  -2.7595  -2.7404  -2.6537  -2.5701  -2.4053  -2.3103  -2.3050
    -2.2701  -2.2551  -2.2450  -2.2388  -2.1792  -2.1558  -2.0969  -2.0114
    -2.0005  -1.9434  -1.9080  -1.8727  -1.8320  -1.8244  -1.7732  -1.7297
    -1.7141  -1.5654  -1.5455  -1.5304  -1.4613  -1.4470  -1.4225  -1.4174
    -1.3933  -1.3426  -1.3127  -1.2095  -1.1892  -1.1736  -1.1569  -1.1230
    -1.1106  -1.0628  -1.0391  -1.0115  -0.9583  -0.9052  -0.8950  -0.8686
    -0.8535  -0.8374  -0.8196  -0.8056  -0.7859  -0.7615  -0.7469  -0.7218
    -0.6944  -0.6655  -0.5944  -0.5747  -0.5643  -0.5409  -0.5155  -0.5000
    -0.4884  -0.4496  -0.4355  -0.4223  -0.4186  -0.4072  -0.4043  -0.3855
    -0.3536  -0.3202  -0.2302  -0.2245  -0.1768  -0.1407  -0.0986  -0.0876
    -0.0766   0.0611   0.1162   0.1379   0.2248   0.2401   0.2796   0.2884
     0.3089   0.3311   0.3496   0.3853   0.3948   0.4113   0.4410   0.5132
     0.5523   0.6194   0.6695   0.6873   0.7231   0.7390   0.7674   0.8052
     0.8414   0.9148   0.9312   0.9488   1.0089   1.0235   1.0697   1.1293
     1.1487   1.1572   1.1899   1.2144   1.2313   1.2446   1.2500   1.2682
     1.2781   1.2833   1.2968   1.3984   1.4568   1.4926   1.6005   1.6200
     1.6423   1.7417   1.7968   1.8091   1.8133   1.8581   1.9107   1.9350
     1.9527   1.9684   1.9816   1.9982   2.0154   2.0169   2.0277   2.0607
     2.0846   2.0986   2.1676   2.1874   2.2090   2.2384   2.2492   2.2834
     2.4174   2.4461   2.4726   2.4828   2.5484   2.5582   2.5705   2.6811
     2.7147   2.9850   3.2248   3.2506   3.5987   3.7774   3.7906   3.8003
     4.1866   4.4747   4.4907   4.6726   4.7258   4.7552   5.3485   5.6876
     5.9170   5.9222   6.1390   6.3103   6.6263   6.6715   6.7023   6.7251
     6.7412

          k = 0.4000-0.2309 0.0000 ( 44748 PWs)   bands (ev):

    -6.0691  -5.4319  -4.8836  -4.4021  -4.3437  -4.3132  -4.0453  -3.9242
    -3.8369  -3.7110  -3.6280  -3.6229  -3.5477  -3.4593  -3.4148  -3.4071
    -3.3980  -3.3813  -3.2577  -3.2337  -3.2206  -3.1900  -3.1761  -3.1496
    -3.0871  -3.0554  -3.0503  -2.9029  -2.7924  -2.7881  -2.7809  -2.7704
    -2.7657  -2.6859  -2.5403  -2.5290  -2.5145  -2.4930  -2.4784  -2.4124
    -2.2893  -2.2054  -2.1963  -2.1882  -2.1727  -2.1273  -2.0816  -2.0604
    -2.0435  -2.0278  -1.9808  -1.8970  -1.8365  -1.8215  -1.8030  -1.7544
    -1.6799  -1.6537  -1.6172  -1.6007  -1.5736  -1.4572  -1.4099  -1.3850
    -1.3783  -1.3638  -1.2907  -1.2785  -1.2443  -1.1591  -1.1348  -1.1272
    -1.0836  -1.0298  -1.0226  -0.9970  -0.9868  -0.9548  -0.9487  -0.9081
    -0.8927  -0.8834  -0.8756  -0.8571  -0.8459  -0.8314  -0.7504  -0.7287
    -0.7202  -0.7097  -0.6977  -0.6934  -0.6809  -0.6147  -0.5348  -0.5187
    -0.4798  -0.4691  -0.4508  -0.4278  -0.4061  -0.3863  -0.3083  -0.2585
    -0.2359  -0.2303  -0.1866  -0.1583  -0.1296  -0.0060   0.0120   0.0520
     0.1012   0.1407   0.1750   0.1966   0.2048   0.2123   0.2206   0.2391
     0.3005   0.3126   0.3301   0.3488   0.3546   0.3798   0.3935   0.4155
     0.4355   0.5354   0.5664   0.5745   0.6397   0.6616   0.7622   0.7702
     0.8440   0.8725   0.8980   0.9534   1.0222   1.0458   1.0802   1.1088
     1.1263   1.1367   1.1617   1.1956   1.2286   1.2448   1.2756   1.3209
     1.3611   1.3895   1.4105   1.4232   1.4400   1.4943   1.5280   1.6048
     1.6576   1.6905   1.7123   1.7228   1.7536   1.8088   1.8293   1.8614
     1.9062   1.9123   1.9213   1.9728   2.0041   2.0160   2.0281   2.1216
     2.1454   2.1604   2.1719   2.1790   2.1852   2.1993   2.2175   2.3952
     2.3987   2.4195   2.4258   2.4364   2.6126   2.6534   2.8668   3.0097
     3.0923   3.2228   3.4831   3.4929   3.7804   3.8746   3.9458   4.1956
     4.4404   4.7076   4.7158   4.7523   4.9047   4.9511   5.0325   5.0697
     5.3248   5.3648   5.8030   5.9881   6.3613   6.5267   6.8010   6.9864
     7.3061

          k = 0.4000 0.0000 0.0000 ( 44714 PWs)   bands (ev):

    -6.2072  -5.0356  -4.9675  -4.9505  -4.2404  -3.8876  -3.8849  -3.8809
    -3.8606  -3.8292  -3.8162  -3.8005  -3.7084  -3.6983  -3.4571  -3.3111
    -3.3046  -3.3039  -3.2953  -3.2182  -3.2021  -3.0785  -3.0633  -3.0585
    -3.0503  -2.9872  -2.9506  -2.9077  -2.9050  -2.8968  -2.8384  -2.8147
    -2.7948  -2.7514  -2.7375  -2.6445  -2.5261  -2.3984  -2.3114  -2.3070
    -2.2715  -2.2584  -2.2440  -2.2395  -2.2127  -2.1781  -2.1428  -2.0092
    -2.0037  -1.9082  -1.8977  -1.8756  -1.8248  -1.8210  -1.7728  -1.7329
    -1.7143  -1.5708  -1.5366  -1.5200  -1.4764  -1.4497  -1.4220  -1.4120
    -1.3930  -1.3464  -1.3270  -1.2072  -1.1961  -1.1776  -1.1577  -1.1176
    -1.1086  -1.0655  -1.0497  -1.0051  -0.9778  -0.9007  -0.8849  -0.8598
    -0.8484  -0.8425  -0.8203  -0.8140  -0.7779  -0.7664  -0.7385  -0.7210
    -0.6908  -0.6796  -0.5887  -0.5815  -0.5646  -0.5381  -0.5147  -0.4938
    -0.4743  -0.4624  -0.4424  -0.4278  -0.4236  -0.4178  -0.4022  -0.3849
    -0.3419  -0.3224  -0.2669  -0.2190  -0.1796  -0.1479  -0.0932  -0.0867
    -0.0745   0.0791   0.1109   0.1301   0.2315   0.2416   0.2882   0.2951
     0.3099   0.3264   0.3650   0.3747   0.4017   0.4149   0.4376   0.4961
     0.5891   0.6267   0.6731   0.6963   0.7223   0.7374   0.7636   0.8098
     0.8741   0.9045   0.9367   0.9863   0.9990   1.0267   1.0666   1.1159
     1.1233   1.1495   1.1859   1.2148   1.2302   1.2424   1.2522   1.2664
     1.2718   1.2782   1.2924   1.3630   1.4733   1.4894   1.5829   1.6276
     1.6517   1.7449   1.7948   1.8062   1.8147   1.8894   1.9178   1.9313
     1.9494   1.9625   1.9867   2.0030   2.0116   2.0198   2.0312   2.0609
     2.0782   2.0884   2.1713   2.1977   2.2085   2.2369   2.2465   2.2875
     2.3567   2.4302   2.4719   2.4884   2.5387   2.5601   2.5686   2.6796
     2.7156   3.0191   3.2436   3.2514   3.6182   3.7700   3.7756   3.7946
     4.1894   4.4728   4.4964   4.6962   4.7275   4.7504   5.3860   5.6833
     5.9001   5.9173   6.1015   6.2823   6.6219   6.6747   6.6985   6.7268
     6.7381

          k = 0.4000 0.2309 0.0000 ( 44748 PWs)   bands (ev):

    -6.0691  -5.4326  -4.8819  -4.4031  -4.3442  -4.3136  -4.0447  -3.9248
    -3.8369  -3.7114  -3.6273  -3.6223  -3.5474  -3.4599  -3.4168  -3.4078
    -3.3965  -3.3808  -3.2583  -3.2332  -3.2194  -3.1895  -3.1763  -3.1522
    -3.0872  -3.0552  -3.0502  -2.9050  -2.7941  -2.7897  -2.7781  -2.7732
    -2.7616  -2.6876  -2.5388  -2.5289  -2.5151  -2.4928  -2.4768  -2.4111
    -2.2900  -2.2060  -2.2008  -2.1862  -2.1682  -2.1260  -2.0790  -2.0582
    -2.0442  -2.0282  -1.9811  -1.9002  -1.8352  -1.8209  -1.8029  -1.7530
    -1.6789  -1.6506  -1.6167  -1.6005  -1.5729  -1.4594  -1.4087  -1.3847
    -1.3781  -1.3650  -1.2871  -1.2804  -1.2441  -1.1601  -1.1389  -1.1279
    -1.0860  -1.0296  -1.0215  -0.9956  -0.9853  -0.9546  -0.9481  -0.9066
    -0.8924  -0.8813  -0.8745  -0.8576  -0.8478  -0.8308  -0.7499  -0.7308
    -0.7189  -0.7104  -0.6934  -0.6928  -0.6792  -0.6160  -0.5367  -0.5204
    -0.4844  -0.4710  -0.4499  -0.4316  -0.4058  -0.3912  -0.3091  -0.2568
    -0.2366  -0.2320  -0.1891  -0.1576  -0.1295  -0.0072   0.0127   0.0537
     0.1005   0.1401   0.1757   0.1978   0.2063   0.2138   0.2207   0.2412
     0.3007   0.3153   0.3300   0.3458   0.3556   0.3797   0.3895   0.4136
     0.4383   0.5363   0.5643   0.5746   0.6397   0.6596   0.7603   0.7693
     0.8439   0.8728   0.8977   0.9554   1.0226   1.0455   1.0779   1.1058
     1.1274   1.1374   1.1624   1.1955   1.2280   1.2449   1.2788   1.3216
     1.3621   1.3908   1.4130   1.4231   1.4379   1.4902   1.5284   1.6049
     1.6561   1.6898   1.7120   1.7227   1.7531   1.8089   1.8295   1.8626
     1.9053   1.9122   1.9200   1.9730   2.0019   2.0147   2.0286   2.1218
     2.1450   2.1610   2.1725   2.1789   2.1866   2.2022   2.2186   2.3956
     2.3998   2.4225   2.4266   2.4392   2.6124   2.6527   2.8680   3.0122
     3.0882   3.2223   3.4829   3.4932   3.7795   3.8744   3.9447   4.1963
     4.4428   4.7089   4.7159   4.7526   4.9030   4.9506   5.0345   5.0720
     5.3248   5.3645   5.8026   5.9887   6.3618   6.5261   6.7982   6.9863
     7.3066

          k = 0.4000-0.6928 0.0000 ( 44692 PWs)   bands (ev):

    -5.6781  -5.6610  -5.0576  -4.6178  -4.4256  -4.0471  -3.8892  -3.7651
    -3.7541  -3.6972  -3.6034  -3.5826  -3.4978  -3.4892  -3.3972  -3.3755
    -3.3630  -3.3345  -3.3256  -3.3102  -3.2045  -3.1721  -3.1627  -3.1325
    -3.1162  -3.0887  -3.0357  -2.9320  -2.9032  -2.8034  -2.7673  -2.7585
    -2.7469  -2.7293  -2.6989  -2.6318  -2.5462  -2.5188  -2.4649  -2.3289
    -2.3191  -2.2752  -2.1866  -2.1398  -2.1277  -2.0841  -1.9950  -1.9595
    -1.9268  -1.9066  -1.8723  -1.8492  -1.8341  -1.8040  -1.7172  -1.7127
    -1.6965  -1.6735  -1.6692  -1.6636  -1.6126  -1.5953  -1.5818  -1.4668
    -1.4532  -1.3949  -1.3614  -1.2934  -1.2728  -1.2351  -1.2168  -1.1733
    -1.1618  -1.1594  -1.0925  -1.0758  -1.0487  -1.0390  -0.9984  -0.9539
    -0.9260  -0.9064  -0.8378  -0.8230  -0.8173  -0.8044  -0.7573  -0.6756
    -0.6392  -0.6223  -0.6054  -0.5977  -0.5605  -0.5462  -0.5325  -0.5154
    -0.5036  -0.4899  -0.4666  -0.4317  -0.4224  -0.4054  -0.3928  -0.3835
    -0.3699  -0.3688  -0.3386  -0.2899  -0.2765  -0.1747  -0.0656   0.0052
     0.0302   0.0429   0.1347   0.1461   0.1668   0.1766   0.2118   0.2390
     0.2427   0.2611   0.3142   0.3602   0.3845   0.3958   0.4506   0.4579
     0.5142   0.5322   0.5687   0.6636   0.7354   0.7833   0.7985   0.8144
     0.8509   0.8853   0.9062   0.9287   0.9441   0.9514   0.9770   0.9827
     1.0567   1.1107   1.1162   1.1630   1.1720   1.1949   1.2027   1.2196
     1.2360   1.3815   1.4139   1.4333   1.4976   1.5586   1.6244   1.6396
     1.6879   1.7318   1.7628   1.7756   1.8305   1.8698   1.9311   1.9609
     1.9728   1.9906   1.9971   2.0146   2.0428   2.0813   2.1493   2.1571
     2.1723   2.1897   2.2059   2.2122   2.2199   2.2868   2.3899   2.4159
     2.4277   2.4300   2.4417   2.5002   2.5222   2.6264   2.7355   3.4029
     3.6024   3.6087   3.7833   3.8352   3.9607   3.9836   3.9964   4.2928
     4.5796   4.6155   4.8212   5.0535   5.0766   5.1541   5.2084   5.3297
     5.4344   5.5213   5.5797   5.8381   5.9798   6.0461   6.4117   6.6664
     6.7009

          k = 0.4000-0.4619 0.0000 ( 44692 PWs)   bands (ev):

    -5.6817  -5.6569  -5.0583  -4.6205  -4.4213  -4.0489  -3.8885  -3.7636
    -3.7546  -3.6976  -3.6038  -3.5834  -3.4972  -3.4889  -3.3990  -3.3744
    -3.3647  -3.3304  -3.3267  -3.3106  -3.2035  -3.1725  -3.1631  -3.1335
    -3.1141  -3.0909  -3.0330  -2.9314  -2.9050  -2.8013  -2.7671  -2.7608
    -2.7438  -2.7302  -2.7007  -2.6326  -2.5470  -2.5183  -2.4659  -2.3292
    -2.3186  -2.2752  -2.1863  -2.1394  -2.1272  -2.0843  -1.9981  -1.9595
    -1.9265  -1.9048  -1.8726  -1.8516  -1.8338  -1.8059  -1.7184  -1.7132
    -1.6958  -1.6740  -1.6707  -1.6632  -1.6141  -1.5956  -1.5766  -1.4686
    -1.4531  -1.3948  -1.3627  -1.2923  -1.2756  -1.2339  -1.2163  -1.1739
    -1.1609  -1.1574  -1.0919  -1.0751  -1.0495  -1.0398  -0.9983  -0.9550
    -0.9285  -0.9072  -0.8372  -0.8211  -0.8199  -0.8051  -0.7557  -0.6732
    -0.6381  -0.6242  -0.6063  -0.6012  -0.5578  -0.5466  -0.5327  -0.5120
    -0.4991  -0.4883  -0.4667  -0.4340  -0.4245  -0.4038  -0.3888  -0.3821
    -0.3723  -0.3706  -0.3371  -0.2908  -0.2751  -0.1725  -0.0642   0.0054
     0.0284   0.0449   0.1358   0.1462   0.1660   0.1756   0.2097   0.2406
     0.2441   0.2598   0.3122   0.3574   0.3855   0.3971   0.4505   0.4571
     0.5100   0.5364   0.5710   0.6640   0.7350   0.7831   0.7998   0.8135
     0.8507   0.8865   0.9058   0.9283   0.9438   0.9510   0.9764   0.9821
     1.0550   1.1090   1.1160   1.1635   1.1729   1.1953   1.2028   1.2209
     1.2375   1.3812   1.4153   1.4344   1.4993   1.5578   1.6247   1.6381
     1.6878   1.7318   1.7623   1.7742   1.8305   1.8708   1.9318   1.9613
     1.9756   1.9909   1.9968   2.0153   2.0413   2.0802   2.1487   2.1574
     2.1719   2.1918   2.2065   2.2121   2.2195   2.2868   2.3889   2.4146
     2.4269   2.4290   2.4389   2.5003   2.5208   2.6262   2.7355   3.4036
     3.6023   3.6088   3.7862   3.8335   3.9609   3.9827   4.0004   4.2905
     4.5798   4.6137   4.8209   5.0555   5.0758   5.1560   5.2062   5.3282
     5.4284   5.5174   5.5857   5.8361   5.9797   6.0476   6.4115   6.6676
     6.7037

     the Fermi energy is     2.1970 ev

!    total energy              =  -27755.48879045 Ry
     total all-electron energy =  -1326642.254207 Ry
     estimated scf accuracy    <       0.00000072 Ry
     smearing contrib. (-TS)   =       0.00417053 Ry
     internal energy E=F+TS    =  -27755.49296098 Ry

     The total energy is F=E-TS. E is the sum of the following terms:
     one-electron contribution =  -22797.28152681 Ry
     hartree contribution      =   11701.50130348 Ry
     xc contribution           =    -890.77608583 Ry
     ewald contribution        =    9705.06107684 Ry
     one-center paw contrib.   =  -25473.99772865 Ry

     convergence has been achieved in  16 iterations

     negative rho (up, down):  3.351E-03 0.000E+00

     Forces acting on atoms (cartesian axes, Ry/au):

     atom    1 type  1   force =     0.00231430    0.00190155   -0.00583709
     atom    2 type  1   force =     0.00056566    0.00266054   -0.00441344
     atom    3 type  1   force =    -0.00160447    0.00537325   -0.00702200
     atom    4 type  1   force =     0.00211942   -0.00026575   -0.00444180
     atom    5 type  1   force =     0.00023144   -0.00004327   -0.00358979
     atom    6 type  1   force =    -0.00217208    0.00063231   -0.00415808
     atom    7 type  1   force =     0.00171065   -0.00277100   -0.00463144
     atom    8 type  1   force =    -0.00038537   -0.00192246   -0.00373018
     atom    9 type  1   force =    -0.00235659   -0.00128904   -0.00382751
     atom   10 type  1   force =     0.00304058    0.00119785    0.00661761
     atom   11 type  1   force =     0.00107346    0.00101972    0.00141709
     atom   12 type  1   force =    -0.00274837    0.00205861    0.00287054
     atom   13 type  1   force =     0.00062121   -0.00032442    0.00691857
     atom   14 type  1   force =     0.00000507   -0.00053515    0.00210145
     atom   15 type  1   force =    -0.00083050    0.00149116    0.00782391
     atom   16 type  1   force =     0.00184675   -0.00399322    0.00512860
     atom   17 type  1   force =    -0.00027540   -0.00311017    0.00466044
     atom   18 type  1   force =    -0.00313400   -0.00154235    0.00427719
     atom   19 type  1   force =     0.00004153    0.00002907   -0.00001705
     atom   20 type  1   force =    -0.00004098    0.00002105   -0.00002073
     atom   21 type  1   force =    -0.00000242    0.00000886    0.00009287
     atom   22 type  1   force =     0.00000016   -0.00004485    0.00012986
     atom   23 type  1   force =     0.00000684   -0.00004880   -0.00003207
     atom   24 type  1   force =     0.00000131   -0.00005547   -0.00001755
     atom   25 type  1   force =     0.00002952    0.00000906    0.00001910
     atom   26 type  1   force =     0.00000523   -0.00003994    0.00004743
     atom   27 type  1   force =    -0.00003169    0.00000689    0.00000894
     atom   28 type  1   force =     0.00001511   -0.00004824   -0.00007000
     atom   29 type  1   force =    -0.00000803   -0.00005080   -0.00007939
     atom   30 type  1   force =     0.00000368   -0.00002272   -0.00004859
     atom   31 type  1   force =    -0.00001174    0.00021868   -0.00013081
     atom   32 type  1   force =    -0.00002463   -0.00011386   -0.00002706
     atom   33 type  1   force =     0.00002531   -0.00011219   -0.00003262
     atom   34 type  1   force =    -0.00000798   -0.00003852   -0.00005923
     atom   35 type  1   force =     0.00000916   -0.00000313   -0.00002876
     atom   36 type  1   force =     0.00000832   -0.00005341   -0.00006205
     atom   37 type  2   force =    -0.00004049   -0.00019985    0.00016366
     The non-local contrib.  to forces
     atom    1 type  1   force =     0.00269148    0.00146416   -0.01652622
     atom    2 type  1   force =     0.00014900    0.00199609   -0.01713041
     atom    3 type  1   force =    -0.00088099    0.00012792   -0.01581673
     atom    4 type  1   force =     0.00189381   -0.00138267   -0.01799187
     atom    5 type  1   force =    -0.00014471    0.00016413   -0.01786028
     atom    6 type  1   force =    -0.00137671    0.00041517   -0.01693781
     atom    7 type  1   force =     0.00176467   -0.00119112   -0.01740785
     atom    8 type  1   force =    -0.00052084   -0.00160784   -0.01755858
     atom    9 type  1   force =    -0.00223846   -0.00039926   -0.01710474
     atom   10 type  1   force =     0.00179629   -0.00004880    0.00028962
     atom   11 type  1   force =    -0.00088956    0.00158531    0.00045967
     atom   12 type  1   force =     0.00042971    0.00209527    0.00093661
     atom   13 type  1   force =     0.00162826   -0.00106752    0.00169521
     atom   14 type  1   force =     0.00014437   -0.00023969   -0.00023239
     atom   15 type  1   force =    -0.00194879   -0.00049687    0.00219400
     atom   16 type  1   force =     0.00199870   -0.00227298    0.00079955
     atom   17 type  1   force =    -0.00147338   -0.00219340    0.00082669
     atom   18 type  1   force =    -0.00202898   -0.00326080    0.00181165
     atom   19 type  1   force =    -0.00261512   -0.00211310    0.00335283
     atom   20 type  1   force =     0.00245133   -0.00199882    0.00380419
     atom   21 type  1   force =     0.00009108    0.00027317    0.00260582
     atom   22 type  1   force =    -0.00000518    0.00988848   -0.00875994
     atom   23 type  1   force =     0.00169031    0.00036733    0.00244184
     atom   24 type  1   force =    -0.00174465    0.00019953    0.00277993
     atom   25 type  1   force =    -0.00005448    0.00030973    0.00188574
     atom   26 type  1   force =    -0.00019206   -0.00251288   -0.00023157
     atom   27 type  1   force =     0.00009925    0.00027152    0.00273796
     atom   28 type  1   force =     0.02725190    0.02450087    0.02729991
     atom   29 type  1   force =    -0.02741339    0.02427647    0.02723973
     atom   30 type  1   force =     0.00006400   -0.00053480    0.01411010
     atom   31 type  1   force =    -0.00015922    0.00709493   -0.06757806
     atom   32 type  1   force =    -0.00601857   -0.00199591    0.01816137
     atom   33 type  1   force =     0.00593267   -0.00205338    0.01828462
     atom   34 type  1   force =    -0.00085657   -0.00155979    0.01548938
     atom   35 type  1   force =    -0.00006978    0.00051367    0.01477507
     atom   36 type  1   force =     0.00074999   -0.00166913    0.01544474
     atom   37 type  2   force =     0.00006141    0.02033453   -0.02867635
     The ionic contribution  to forces
     atom    1 type  1   force =     0.13688287    0.08139596  -96.26645831
     atom    2 type  1   force =     0.01691679    0.14476650  -96.20510587
     atom    3 type  1   force =    -0.13338935    0.21081236  -96.21741933
     atom    4 type  1   force =     0.13179399   -0.04812446  -96.18950860
     atom    5 type  1   force =     0.00199637    0.00760841  -96.14919061
     atom    6 type  1   force =    -0.12679193    0.08560191  -96.16079596
     atom    7 type  1   force =     0.11197160   -0.22969277  -96.20407231
     atom    8 type  1   force =     0.00514986   -0.15826876  -96.16497237
     atom    9 type  1   force =    -0.13249876   -0.08751305  -96.15452254
     atom   10 type  1   force =     0.14069718    0.11392790  -32.43011379
     atom   11 type  1   force =    -0.04998460    0.13751573  -32.48636623
     atom   12 type  1   force =    -0.07087395    0.19342137  -32.40928596
     atom   13 type  1   force =     0.02715983   -0.05607970  -32.42037160
     atom   14 type  1   force =    -0.01498864   -0.01063862  -32.57152622
     atom   15 type  1   force =    -0.01642105    0.07437375  -32.36810415
     atom   16 type  1   force =     0.09939737   -0.19657564  -32.42508171
     atom   17 type  1   force =     0.00719945   -0.11951814  -32.44943393
     atom   18 type  1   force =    -0.12750749   -0.20729620  -32.22417381
     atom   19 type  1   force =     0.10295994    0.03321331   32.20062139
     atom   20 type  1   force =    -0.08425394    0.01311071   32.09269183
     atom   21 type  1   force =    -0.02047625   -0.02621328   31.59192466
     atom   22 type  1   force =    -0.00595383    0.07259979   32.52909260
     atom   23 type  1   force =    -0.04781322   -0.02660350   31.63102364
     atom   24 type  1   force =     0.05264093   -0.00015976   31.60454063
     atom   25 type  1   force =    -0.09204115   -0.05091629   31.91214322
     atom   26 type  1   force =     0.02769981    0.05284196   32.03044258
     atom   27 type  1   force =     0.06632317   -0.04577557   31.77563380
     atom   28 type  1   force =    -0.11939317   -0.23174529   95.24615966
     atom   29 type  1   force =     0.12577073   -0.22733576   95.18515286
     atom   30 type  1   force =    -0.00918098    0.00685652   95.45415318
     atom   31 type  1   force =     0.00977793    0.99441786   95.30841951
     atom   32 type  1   force =     0.08977120    0.04430286   95.14048289
     atom   33 type  1   force =    -0.09941165    0.05334993   95.15538685
     atom   34 type  1   force =     0.02856392    0.01632923   95.42136842
     atom   35 type  1   force =     0.00404222   -0.00446343   95.35469931
     atom   36 type  1   force =    -0.03494771    0.02440645   95.39311418
     atom   37 type  2   force =    -0.00078747   -0.63393227   12.46945207
     The local contribution  to forces
     atom    1 type  1   force =    -0.13717614   -0.08077122   96.25951447
     atom    2 type  1   force =    -0.01612342   -0.14374874   96.20033153
     atom    3 type  1   force =     0.13230253   -0.20494294   96.20862653
     atom    4 type  1   force =    -0.13119739    0.04906548   96.18560498
     atom    5 type  1   force =    -0.00146532   -0.00802229   96.14616530
     atom    6 type  1   force =     0.12549881   -0.08540032   96.15624681
     atom    7 type  1   force =    -0.11192251    0.22790323   96.19943369
     atom    8 type  1   force =    -0.00501938    0.15759972   96.16134863
     atom    9 type  1   force =     0.13218467    0.08677559   96.15050139
     atom   10 type  1   force =    -0.13900702   -0.11233455   32.43548747
     atom   11 type  1   force =     0.05235590   -0.13800932   32.48612172
     atom   12 type  1   force =     0.06694640   -0.19323312   32.41018084
     atom   13 type  1   force =    -0.02808756    0.05677156   32.42482558
     atom   14 type  1   force =     0.01481109    0.00993241   32.57246171
     atom   15 type  1   force =     0.01746656   -0.07207508   32.37302351
     atom   16 type  1   force =    -0.09962371    0.19443093   32.42827248
     atom   17 type  1   force =    -0.00564839    0.11837919   32.45203512
     atom   18 type  1   force =     0.12597364    0.20864010   32.22644889
     atom   19 type  1   force =    -0.10012030   -0.03104078  -32.20141854
     atom   20 type  1   force =     0.08169465   -0.01105919  -32.09395587
     atom   21 type  1   force =     0.02026912    0.02547274  -31.59263420
     atom   22 type  1   force =     0.00603096   -0.08232186  -32.51834971
     atom   23 type  1   force =     0.04580957    0.02599433  -31.63156253
     atom   24 type  1   force =    -0.05064648   -0.00019461  -31.60536862
     atom   25 type  1   force =     0.09139108    0.05052570  -31.91232590
     atom   26 type  1   force =    -0.02743634   -0.05012913  -32.02786038
     atom   27 type  1   force =    -0.06577389    0.04551308  -31.77666661
     atom   28 type  1   force =     0.09196378    0.20668696  -95.25816319
     atom   29 type  1   force =    -0.09814197    0.20256125  -95.19715766
     atom   30 type  1   force =     0.00907739   -0.00628333  -95.45170166
     atom   31 type  1   force =    -0.00951943   -0.98979654  -95.23694013
     atom   32 type  1   force =    -0.08436639   -0.04254694  -95.14213252
     atom   33 type  1   force =     0.09402139   -0.05149316  -95.15706808
     atom   34 type  1   force =    -0.02793187   -0.01517792  -95.41993900
     atom   35 type  1   force =    -0.00396456    0.00425819  -95.35256262
     atom   36 type  1   force =     0.03441241   -0.02311009  -95.39162698
     atom   37 type  2   force =     0.00068943    0.61340716  -12.44062968
     The core correction contribution to forces
     atom    1 type  1   force =    -0.00042570   -0.00024391    0.01757404
     atom    2 type  1   force =    -0.00000706   -0.00043329    0.01743870
     atom    3 type  1   force =     0.00033055   -0.00068393    0.01771640
     atom    4 type  1   force =    -0.00037989    0.00023131    0.01739006
     atom    5 type  1   force =     0.00001680   -0.00006985    0.01729180
     atom    6 type  1   force =     0.00033087   -0.00022422    0.01729354
     atom    7 type  1   force =    -0.00029321    0.00052918    0.01739339
     atom    8 type  1   force =     0.00003901    0.00038313    0.01728683
     atom    9 type  1   force =     0.00035063    0.00018181    0.01726368
     atom   10 type  1   force =    -0.00039400   -0.00029863    0.00097127
     atom   11 type  1   force =    -0.00005454   -0.00026531    0.00120564
     atom   12 type  1   force =     0.00033795   -0.00042958    0.00100031
     atom   13 type  1   force =    -0.00008563    0.00008767    0.00091069
     atom   14 type  1   force =     0.00001016    0.00002455    0.00139407
     atom   15 type  1   force =     0.00010556   -0.00022663    0.00076532
     atom   16 type  1   force =    -0.00032662    0.00054141    0.00107433
     atom   17 type  1   force =     0.00006165    0.00038345    0.00112916
     atom   18 type  1   force =     0.00041073    0.00073579    0.00016594
     atom   19 type  1   force =    -0.00028969    0.00002886   -0.00247644
     atom   20 type  1   force =     0.00027393    0.00004331   -0.00244440
     atom   21 type  1   force =     0.00001223    0.00018620   -0.00189061
     atom   22 type  1   force =    -0.00000181   -0.00008919   -0.00169907
     atom   23 type  1   force =     0.00005774    0.00001251   -0.00180526
     atom   24 type  1   force =    -0.00005595    0.00000116   -0.00183976
     atom   25 type  1   force =     0.00035660    0.00013649   -0.00176279
     atom   26 type  1   force =    -0.00002588   -0.00011628   -0.00217124
     atom   27 type  1   force =    -0.00034528    0.00014403   -0.00175785
     atom   28 type  1   force =     0.00007788    0.00053046   -0.01509849
     atom   29 type  1   force =    -0.00005864    0.00050509   -0.01507732
     atom   30 type  1   force =    -0.00000919   -0.00008803   -0.01652033
     atom   31 type  1   force =    -0.00005794   -0.01130330   -0.00405220
     atom   32 type  1   force =     0.00053617    0.00006052   -0.01634829
     atom   33 type  1   force =    -0.00052464    0.00006439   -0.01636609
     atom   34 type  1   force =     0.00006092    0.00029837   -0.01679905
     atom   35 type  1   force =     0.00000737   -0.00037728   -0.01652955
     atom   36 type  1   force =    -0.00005884    0.00030743   -0.01677591
     atom   37 type  2   force =     0.00000000    0.00000000    0.00000000
     The Hubbard contrib.    to forces
     atom    1 type  1   force =     0.00000000    0.00000000    0.00000000
     atom    2 type  1   force =     0.00000000    0.00000000    0.00000000
     atom    3 type  1   force =     0.00000000    0.00000000    0.00000000
     atom    4 type  1   force =     0.00000000    0.00000000    0.00000000
     atom    5 type  1   force =     0.00000000    0.00000000    0.00000000
     atom    6 type  1   force =     0.00000000    0.00000000    0.00000000
     atom    7 type  1   force =     0.00000000    0.00000000    0.00000000
     atom    8 type  1   force =     0.00000000    0.00000000    0.00000000
     atom    9 type  1   force =     0.00000000    0.00000000    0.00000000
     atom   10 type  1   force =     0.00000000    0.00000000    0.00000000
     atom   11 type  1   force =     0.00000000    0.00000000    0.00000000
     atom   12 type  1   force =     0.00000000    0.00000000    0.00000000
     atom   13 type  1   force =     0.00000000    0.00000000    0.00000000
     atom   14 type  1   force =     0.00000000    0.00000000    0.00000000
     atom   15 type  1   force =     0.00000000    0.00000000    0.00000000
     atom   16 type  1   force =     0.00000000    0.00000000    0.00000000
     atom   17 type  1   force =     0.00000000    0.00000000    0.00000000
     atom   18 type  1   force =     0.00000000    0.00000000    0.00000000
     atom   19 type  1   force =     0.00000000    0.00000000    0.00000000
     atom   20 type  1   force =     0.00000000    0.00000000    0.00000000
     atom   21 type  1   force =     0.00000000    0.00000000    0.00000000
     atom   22 type  1   force =     0.00000000    0.00000000    0.00000000
     atom   23 type  1   force =     0.00000000    0.00000000    0.00000000
     atom   24 type  1   force =     0.00000000    0.00000000    0.00000000
     atom   25 type  1   force =     0.00000000    0.00000000    0.00000000
     atom   26 type  1   force =     0.00000000    0.00000000    0.00000000
     atom   27 type  1   force =     0.00000000    0.00000000    0.00000000
     atom   28 type  1   force =     0.00000000    0.00000000    0.00000000
     atom   29 type  1   force =     0.00000000    0.00000000    0.00000000
     atom   30 type  1   force =     0.00000000    0.00000000    0.00000000
     atom   31 type  1   force =     0.00000000    0.00000000    0.00000000
     atom   32 type  1   force =     0.00000000    0.00000000    0.00000000
     atom   33 type  1   force =     0.00000000    0.00000000    0.00000000
     atom   34 type  1   force =     0.00000000    0.00000000    0.00000000
     atom   35 type  1   force =     0.00000000    0.00000000    0.00000000
     atom   36 type  1   force =     0.00000000    0.00000000    0.00000000
     atom   37 type  2   force =     0.00000000    0.00000000    0.00000000
     The SCF correction term to forces
     atom    1 type  1   force =     0.00000000    0.00000000    0.00000000
     atom    2 type  1   force =    -0.00000000    0.00000000    0.00000000
     atom    3 type  1   force =     0.00000000    0.00000000   -0.00000000
     atom    4 type  1   force =     0.00000000   -0.00000000    0.00000000
     atom    5 type  1   force =    -0.00000000    0.00000000   -0.00000000
     atom    6 type  1   force =     0.00000000    0.00000000    0.00000000
     atom    7 type  1   force =     0.00000000   -0.00000000    0.00000000
     atom    8 type  1   force =    -0.00000000   -0.00000000    0.00000000
     atom    9 type  1   force =    -0.00000000   -0.00000000    0.00000000
     atom   10 type  1   force =    -0.00000000   -0.00000000   -0.00000000
     atom   11 type  1   force =    -0.00000000    0.00000000   -0.00000000
     atom   12 type  1   force =     0.00000000    0.00000000    0.00000000
     atom   13 type  1   force =     0.00000000   -0.00000000   -0.00000000
     atom   14 type  1   force =     0.00000000    0.00000000   -0.00000000
     atom   15 type  1   force =    -0.00000000   -0.00000000   -0.00000000
     atom   16 type  1   force =     0.00000000   -0.00000000    0.00000000
     atom   17 type  1   force =    -0.00000000   -0.00000000    0.00000000
     atom   18 type  1   force =     0.00000000   -0.00000000    0.00000000
     atom   19 type  1   force =     0.00010620   -0.00005813   -0.00011171
     atom   20 type  1   force =    -0.00020744   -0.00007387   -0.00013189
     atom   21 type  1   force =     0.00010090    0.00029110    0.00007179
     atom   22 type  1   force =    -0.00007048   -0.00012099   -0.00016943
     atom   23 type  1   force =     0.00026193    0.00018161   -0.00014518
     atom   24 type  1   force =    -0.00019305    0.00009930   -0.00014514
     atom   25 type  1   force =     0.00037695   -0.00004548    0.00006342
     atom   26 type  1   force =    -0.00004080   -0.00012253   -0.00014737
     atom   27 type  1   force =    -0.00033545   -0.00014508    0.00004622
     atom   28 type  1   force =     0.00011422   -0.00002016   -0.00028331
     atom   29 type  1   force =    -0.00016525   -0.00005677   -0.00025241
     atom   30 type  1   force =     0.00005195    0.00002799   -0.00010529
     atom   31 type  1   force =    -0.00005359   -0.00019317    0.00000465
     atom   32 type  1   force =     0.00005245    0.00006670   -0.00020592
     atom   33 type  1   force =     0.00000703    0.00002110   -0.00028532
     atom   34 type  1   force =     0.00015510    0.00007267   -0.00019440
     atom   35 type  1   force =    -0.00000658    0.00006681   -0.00042638
     atom   36 type  1   force =    -0.00014804    0.00001301   -0.00023350
     atom   37 type  2   force =    -0.00000436   -0.00000819    0.00000219

     Total force =     0.000490     Total SCF correction =     0.001208
     SCF correction compared to forces is large: reduce conv_thr to get better values

     Writing all to output data dir ./pwscf.save/

     init_run     :     10.57s CPU     10.89s WALL (       1 calls)
     electrons    :    267.81s CPU    277.52s WALL (       1 calls)
     forces       :      3.80s CPU      4.44s WALL (       1 calls)

     Called by init_run:
     wfcinit      :      6.06s CPU      6.24s WALL (       1 calls)
     potinit      :      3.07s CPU      3.14s WALL (       1 calls)
     hinit0       :      0.84s CPU      0.86s WALL (       1 calls)

     Called by electrons:
     c_bands      :    226.88s CPU    232.56s WALL (      17 calls)
     sum_band     :     25.54s CPU     26.62s WALL (      17 calls)
     v_of_rho     :      7.83s CPU      9.81s WALL (      17 calls)
     newd         :      2.35s CPU      2.93s WALL (      17 calls)
     PAW_pot      :      3.59s CPU      3.70s WALL (      17 calls)
     mix_rho      :      3.69s CPU      3.76s WALL (      17 calls)
     vdW_kernel   :      1.70s CPU      1.72s WALL (       1 calls)

     Called by c_bands:
     init_us_2    :      2.42s CPU      2.45s WALL (     468 calls)
     init_us_2:cp :      2.41s CPU      2.45s WALL (     468 calls)
     cegterg      :    220.34s CPU    225.78s WALL (     221 calls)

     Called by *egterg:
     cdiaghg      :     59.29s CPU     60.04s WALL (    1082 calls)
     h_psi        :    104.11s CPU    107.05s WALL (    1108 calls)
     s_psi        :     13.39s CPU     13.58s WALL (    1108 calls)
     g_psi        :      0.43s CPU      0.44s WALL (     874 calls)

     Called by h_psi:
     h_psi:calbec :     16.74s CPU     17.38s WALL (    1108 calls)
     vloc_psi     :     72.91s CPU     74.64s WALL (    1108 calls)
     add_vuspsi   :     13.38s CPU     13.94s WALL (    1108 calls)

     General routines
     calbec       :     23.90s CPU     24.81s WALL (    1381 calls)
     fft          :      4.58s CPU      6.59s WALL (    1131 calls)
     ffts         :      2.11s CPU      2.14s WALL (    4113 calls)
     fftw         :     70.01s CPU     71.81s WALL (  290201 calls)
     interpolate  :      0.61s CPU      0.65s WALL (      17 calls)

     Parallel routines

     PWSCF        :   4m44.06s CPU   4m57.67s WALL


   This run was terminated on:   5:59:35  28Jan2025            

=------------------------------------------------------------------------------=
   JOB DONE.
=------------------------------------------------------------------------------=
