
     Program PWSCF v.7.1 starts on 23Feb2025 at 16:57:21 
        Git branch: heads/qe-7.1
        Last git commit: 48ba0178f8fede6d020eb786884699a9f063f55d-dirty
        Last git commit date: Fri Jan 27 14:22:33 2023 +0000
        Last git commit subject: Merge branch 'fix_hubbard' into 'develop'

     This program is part of the open-source Quantum ESPRESSO suite
     for quantum simulation of materials; please cite
         "P. Giannozzi et al., J. Phys.:Condens. Matter 21 395502 (2009);
         "P. Giannozzi et al., J. Phys.:Condens. Matter 29 465901 (2017);
         "P. Giannozzi et al., J. Chem. Phys. 152 154105 (2020);
          URL http://www.quantum-espresso.org", 
     in publications or presentations arising from this work. More details at
     http://www.quantum-espresso.org/quote

     Parallel version (MPI), running on    48 processors

     MPI processes distributed on     1 nodes
     252256 MiB available memory on the printing compute node when the environment starts

     Reading input from espresso.pwi
Warning: card &CELL ignored
Warning: card / ignored
Warning: card &FCP ignored
Warning: card / ignored
Warning: card &RISM ignored
Warning: card / ignored

     Current dimensions of program PWSCF are:
     Max number of different atomic species (ntypx) = 10
     Max number of k-points (npk) =  40000
     Max angular momentum in pseudopotentials (lmaxx) =  4
     file Pt.pbe-n-kjpaw_psl.1.0.0.UPF: wavefunction(s)  6S 5D renormalized
     file H.pbe-kjpaw_psl.1.0.0.UPF: wavefunction(s)  1S renormalized

     **************************************************************************
     Initializing libbeef V0.1.2 with the BEEF-vdW functional.
     Citation: Wellendorff et al., PRB 85, 235149 (2012).
     **************************************************************************


     IMPORTANT: XC functional enforced from input :
     Exchange-correlation= BEEF-VDW
                           (   1   4  43  14   2   0   0)
     Any further DFT definition will be discarded
     Please, verify this is what you really want


     R & G space division:  proc/nbgrp/npool/nimage =      48
     Subspace diagonalization in iterative solution of the eigenvalue problem:
     one sub-group per band group will be used
     custom distributed-memory algorithm (size of sub-group:  2*  2 procs)


     Parallelization info
     --------------------
     sticks:   dense  smooth     PW     G-vecs:    dense   smooth      PW
     Min         151      59     16                29407     7165    1028
     Max         152      60     17                29420     7176    1042
     Sum        7267    2839    769              1411785   344073   49691

     Using Slab Decomposition



     bravais-lattice index     =            0
     lattice parameter (alat)  =      16.0349  a.u.
     unit-cell volume          =   10068.6169 (a.u.)^3
     number of atoms/cell      =           37
     number of atomic types    =            2
     number of electrons       =       361.00
     number of Kohn-Sham states=          217
     kinetic-energy cutoff     =      40.0000  Ry
     charge density cutoff     =     410.0000  Ry
     scf convergence threshold =      1.0E-08
     mixing beta               =       0.7000
     number of iterations used =            8  local-TF  mixing
     Exchange-correlation= BEEF-VDW
                           (   1   4  43  14   2   0   0)

     celldm(1)=  16.034858  celldm(2)=   0.000000  celldm(3)=   0.000000
     celldm(4)=   0.000000  celldm(5)=   0.000000  celldm(6)=   0.000000

     crystal axes: (cart. coord. in units of alat)
               a(1) = (   1.000000   0.000000   0.000000 )  
               a(2) = (   0.500000   0.866025   0.000000 )  
               a(3) = (   0.000000   0.000000   2.819966 )  

     reciprocal axes: (cart. coord. in units 2 pi/alat)
               b(1) = (  1.000000 -0.577350  0.000000 )  
               b(2) = (  0.000000  1.154701  0.000000 )  
               b(3) = (  0.000000  0.000000  0.354614 )  


     PseudoPot. # 1 for Pt read from file:
     /users/kbadger1/espresso/pseudo/pslibrary.1.0.0/pbe/PSEUDOPOTENTIALS/Pt.pbe-n-kjpaw_psl.1.0.0.UPF
     MD5 check sum: 2e24a0b5bf98a4ed1a57fa81bca8c143
     Pseudo is Projector augmented-wave + core cor, Zval = 10.0
     Generated using 'atomic' code by A. Dal Corso  v.7.0
     Shape of augmentation charge: PSQ
     Using radial grid of 1277 points,  6 beta functions with: 
                l(1) =   0
                l(2) =   0
                l(3) =   1
                l(4) =   1
                l(5) =   2
                l(6) =   2
     Q(r) pseudized with 0 coefficients 


     PseudoPot. # 2 for H  read from file:
     /users/kbadger1/espresso/pseudo/pslibrary.1.0.0/pbe/PSEUDOPOTENTIALS/H.pbe-kjpaw_psl.1.0.0.UPF
     MD5 check sum: fe4c6fa958fa6d3815bf5d2419cbf1df
     Pseudo is Projector augmented-wave, Zval =  1.0
     Generated using 'atomic' code by A. Dal Corso  v.7.0
     Shape of augmentation charge: PSQ
     Using radial grid of  929 points,  2 beta functions with: 
                l(1) =   0
                l(2) =   0
     Q(r) pseudized with 0 coefficients 


     atomic species   valence    mass     pseudopotential
        Pt            10.00   195.08400     Pt( 1.00)
        H              1.00     1.00800     H ( 1.00)

     No symmetry found



   Cartesian axes

     site n.     atom                  positions (alat units)
         1           Pt  tau(   1) = (   0.0000000   0.0000000   1.0017346  )
         2           Pt  tau(   2) = (   0.3333333   0.0000000   1.0017346  )
         3           Pt  tau(   3) = (   0.6666667   0.0000000   1.0017346  )
         4           Pt  tau(   4) = (   0.1666667   0.2886751   1.0017346  )
         5           Pt  tau(   5) = (   0.5000000   0.2886751   1.0017346  )
         6           Pt  tau(   6) = (   0.8333333   0.2886751   1.0017346  )
         7           Pt  tau(   7) = (   0.3333333   0.5773503   1.0017346  )
         8           Pt  tau(   8) = (   0.6666667   0.5773503   1.0017346  )
         9           Pt  tau(   9) = (   1.0000000   0.5773503   1.0017346  )
        10           Pt  tau(  10) = (   0.1666667   0.0962250   1.2739001  )
        11           Pt  tau(  11) = (   0.5000000   0.0962250   1.2739001  )
        12           Pt  tau(  12) = (   0.8333333   0.0962250   1.2739001  )
        13           Pt  tau(  13) = (   0.3333333   0.3849002   1.2739001  )
        14           Pt  tau(  14) = (   0.6666667   0.3849002   1.2739001  )
        15           Pt  tau(  15) = (   1.0000000   0.3849002   1.2739001  )
        16           Pt  tau(  16) = (   0.5000000   0.6735753   1.2739001  )
        17           Pt  tau(  17) = (   0.8333333   0.6735753   1.2739001  )
        18           Pt  tau(  18) = (   1.1666667   0.6735753   1.2739001  )
        19           Pt  tau(  19) = (   0.0003198   0.1908472   1.5439792  )
        20           Pt  tau(  20) = (   0.3330489   0.1908652   1.5439312  )
        21           Pt  tau(  21) = (   0.6666897   0.1909278   1.5423810  )
        22           Pt  tau(  22) = (   0.1667089   0.4766619   1.5466481  )
        23           Pt  tau(  23) = (   0.4999503   0.4797227   1.5426034  )
        24           Pt  tau(  24) = (   0.8334317   0.4797273   1.5425978  )
        25           Pt  tau(  25) = (   0.3334911   0.7679513   1.5429494  )
        26           Pt  tau(  26) = (   0.6666720   0.7686920   1.5435166  )
        27           Pt  tau(  27) = (   0.9999573   0.7679194   1.5428591  )
        28           Pt  tau(  28) = (  -0.0024333  -0.0046746   1.8189004  )
        29           Pt  tau(  29) = (   0.3359587  -0.0047202   1.8185759  )
        30           Pt  tau(  30) = (   0.6667253  -0.0028024   1.8172807  )
        31           Pt  tau(  31) = (   0.1666632   0.2866703   1.8270457  )
        32           Pt  tau(  32) = (   0.5012499   0.2861630   1.8165376  )
        33           Pt  tau(  33) = (   0.8320531   0.2862129   1.8165278  )
        34           Pt  tau(  34) = (   0.3336521   0.5748493   1.8173354  )
        35           Pt  tau(  35) = (   0.6667018   0.5739662   1.8167515  )
        36           Pt  tau(  36) = (   0.9997744   0.5748362   1.8173201  )
        37           H   tau(  37) = (   0.1647130   0.1628746   1.9702025  )

     number of k points=    13  Marzari-Vanderbilt smearing, width (Ry)=  0.0200
                       cart. coord. in units 2pi/alat
        k(    1) = (   0.0000000   0.0000000   0.0000000), wk =   0.0800000
        k(    2) = (   0.0000000   0.2309401   0.0000000), wk =   0.1600000
        k(    3) = (   0.0000000   0.4618802   0.0000000), wk =   0.1600000
        k(    4) = (   0.2000000  -0.1154701   0.0000000), wk =   0.1600000
        k(    5) = (   0.2000000   0.1154701   0.0000000), wk =   0.1600000
        k(    6) = (   0.2000000   0.3464102   0.0000000), wk =   0.1600000
        k(    7) = (   0.2000000  -0.5773503   0.0000000), wk =   0.1600000
        k(    8) = (   0.2000000  -0.3464102   0.0000000), wk =   0.1600000
        k(    9) = (   0.4000000  -0.2309401   0.0000000), wk =   0.1600000
        k(   10) = (   0.4000000  -0.0000000   0.0000000), wk =   0.1600000
        k(   11) = (   0.4000000   0.2309401   0.0000000), wk =   0.1600000
        k(   12) = (   0.4000000  -0.6928203   0.0000000), wk =   0.1600000
        k(   13) = (   0.4000000  -0.4618802   0.0000000), wk =   0.1600000

     Dense  grid:  1411785 G-vectors     FFT dimensions: ( 108, 108, 300)

     Smooth grid:   344073 G-vectors     FFT dimensions: (  72,  72, 192)

     Estimated max dynamical RAM per process >     203.68 MB

     Estimated total dynamical RAM >       9.55 GB

     Initial potential from superposition of free atoms

     starting charge     360.9939, renormalised to     361.0000

     negative rho (up, down):  3.357E-03 0.000E+00


     %%%%%%%%%%%%%%%%%%%%%%%%%%%%%%%%%%%%%%%%%%%%%%%%%%%%%%%%%%%%%%%%%%%%%%%%
     %                                                                      %
     % You are using vdW-DF, which was implemented by the Thonhauser group. %
     % Please cite the following two papers that made this development      %
     % possible and the two reviews that describe the various versions:     %
     %                                                                      %
     %   T. Thonhauser et al., PRL 115, 136402 (2015).                      %
     %   T. Thonhauser et al., PRB 76, 125112 (2007).                       %
     %   K. Berland et al., Rep. Prog. Phys. 78, 066501 (2015).             %
     %   D.C. Langreth et al., J. Phys.: Condens. Matter 21, 084203 (2009). %
     %                                                                      %
     % If you are calculating stress with vdW-DF, please also cite:         %
     %                                                                      %
     %   R. Sabatini et al., J. Phys.: Condens. Matter 24, 424209 (2012).   %
     %                                                                      %
     %%%%%%%%%%%%%%%%%%%%%%%%%%%%%%%%%%%%%%%%%%%%%%%%%%%%%%%%%%%%%%%%%%%%%%%%

     %%%%%%%%%%%%%%%%%%%%%%%%%%%%%%%%%%%%%%%%%%%%%%%%%%%%%%%%%%%%%%%%%%%%%%%%
     %                                                                      %
     %  vdW-DF NEWS:                                                        %
     %                                                                      %
     %  * vdW-DF3 is now available. DOI: 10.1021/acs.jctc.0c00471           %
     %    use with input_dft = 'vdW-DF3-opt1' or 'vdW-DF3-opt2'             %
     %                                                                      %
     %  * Unscreened and range-separated hybrid vdW-DF-cx functionals       %
     %    DOI: 10.1063/1.4986522 and 10.1088/1361-648X/ac2ad2               %
     %    use with input_dft = 'vdW-DF-cx0'    and 'vdW-DF-ahcx'            %
     %  * Unscreened and range-separated hybrid vdW-DF2-b86r functionals    %
     %    DOI: 10.1063/1.4986522 and DOI: 10.1103/PhysRevX.12.041003        %
     %    use with input_dft = 'vdW-DF2-br0' and 'vdW-DF2-ahbr'             %
     %                                                                      %
     %%%%%%%%%%%%%%%%%%%%%%%%%%%%%%%%%%%%%%%%%%%%%%%%%%%%%%%%%%%%%%%%%%%%%%%%


     Starting wfcs are  325 randomized atomic wfcs
     Checking if some PAW data can be deallocated... 

     total cpu time spent up to now is       10.8 secs

     per-process dynamical memory:   207.6 Mb

     Self-consistent Calculation

     iteration #  1     ecut=    40.00 Ry     beta= 0.70
     Davidson diagonalization with overlap
     ethr =  1.00E-02,  avg # of iterations =  2.0

     Threshold (ethr) on eigenvalues was too large:
     Diagonalizing with lowered threshold

     Davidson diagonalization with overlap
     ethr =  3.81E-04,  avg # of iterations =  3.8

     negative rho (up, down):  1.760E-02 0.000E+00

     total cpu time spent up to now is       41.6 secs

     total energy              =  -27755.27429039 Ry
     estimated scf accuracy    <       1.57520473 Ry

     iteration #  2     ecut=    40.00 Ry     beta= 0.70
     Davidson diagonalization with overlap
     ethr =  4.36E-04,  avg # of iterations =  2.0

     negative rho (up, down):  1.575E-02 0.000E+00

     total cpu time spent up to now is       53.9 secs

     total energy              =  -27755.37432182 Ry
     estimated scf accuracy    <       0.83280879 Ry

     iteration #  3     ecut=    40.00 Ry     beta= 0.70
     Davidson diagonalization with overlap
     ethr =  2.31E-04,  avg # of iterations =  2.0

     negative rho (up, down):  1.033E-02 0.000E+00

     total cpu time spent up to now is       66.4 secs

     total energy              =  -27755.42682611 Ry
     estimated scf accuracy    <       0.09567005 Ry

     iteration #  4     ecut=    40.00 Ry     beta= 0.70
     Davidson diagonalization with overlap
     c_bands:  1 eigenvalues not converged
     c_bands:  1 eigenvalues not converged
     c_bands:  1 eigenvalues not converged
     ethr =  2.65E-05,  avg # of iterations = 15.0

     negative rho (up, down):  7.536E-03 0.000E+00

     total cpu time spent up to now is       98.1 secs

     total energy              =  -27755.47762598 Ry
     estimated scf accuracy    <       0.08456914 Ry

     iteration #  5     ecut=    40.00 Ry     beta= 0.70
     Davidson diagonalization with overlap
     ethr =  2.34E-05,  avg # of iterations =  4.4

     negative rho (up, down):  3.292E-03 0.000E+00

     total cpu time spent up to now is      112.4 secs

     total energy              =  -27755.47744919 Ry
     estimated scf accuracy    <       0.03074018 Ry

     iteration #  6     ecut=    40.00 Ry     beta= 0.70
     Davidson diagonalization with overlap
     ethr =  8.52E-06,  avg # of iterations =  5.5

     negative rho (up, down):  1.512E-03 0.000E+00

     total cpu time spent up to now is      126.4 secs

     total energy              =  -27755.47962146 Ry
     estimated scf accuracy    <       0.00231918 Ry

     iteration #  7     ecut=    40.00 Ry     beta= 0.70
     Davidson diagonalization with overlap
     ethr =  6.42E-07,  avg # of iterations = 10.8

     negative rho (up, down):  1.167E-03 0.000E+00

     total cpu time spent up to now is      154.0 secs

     total energy              =  -27755.48018068 Ry
     estimated scf accuracy    <       0.00182734 Ry

     iteration #  8     ecut=    40.00 Ry     beta= 0.70
     Davidson diagonalization with overlap
     ethr =  5.06E-07,  avg # of iterations =  2.0

     negative rho (up, down):  1.010E-03 0.000E+00

     total cpu time spent up to now is      166.7 secs

     total energy              =  -27755.48031990 Ry
     estimated scf accuracy    <       0.00021073 Ry

     iteration #  9     ecut=    40.00 Ry     beta= 0.70
     Davidson diagonalization with overlap
     ethr =  5.84E-08,  avg # of iterations =  5.5

     negative rho (up, down):  8.172E-04 0.000E+00

     total cpu time spent up to now is      191.1 secs

     total energy              =  -27755.48042824 Ry
     estimated scf accuracy    <       0.00009487 Ry

     iteration # 10     ecut=    40.00 Ry     beta= 0.70
     Davidson diagonalization with overlap
     c_bands:  1 eigenvalues not converged
     ethr =  2.63E-08,  avg # of iterations =  5.2

     negative rho (up, down):  8.033E-04 0.000E+00

     total cpu time spent up to now is      213.6 secs

     total energy              =  -27755.48044659 Ry
     estimated scf accuracy    <       0.00009491 Ry

     iteration # 11     ecut=    40.00 Ry     beta= 0.70
     Davidson diagonalization with overlap
     ethr =  2.63E-08,  avg # of iterations =  1.1

     negative rho (up, down):  8.924E-04 0.000E+00

     total cpu time spent up to now is      224.6 secs

     total energy              =  -27755.48045301 Ry
     estimated scf accuracy    <       0.00005529 Ry

     iteration # 12     ecut=    40.00 Ry     beta= 0.70
     Davidson diagonalization with overlap
     ethr =  1.53E-08,  avg # of iterations =  1.6

     negative rho (up, down):  1.114E-03 0.000E+00

     total cpu time spent up to now is      236.5 secs

     total energy              =  -27755.48045984 Ry
     estimated scf accuracy    <       0.00002370 Ry

     iteration # 13     ecut=    40.00 Ry     beta= 0.70
     Davidson diagonalization with overlap
     ethr =  6.56E-09,  avg # of iterations =  2.0

     negative rho (up, down):  1.593E-03 0.000E+00

     total cpu time spent up to now is      249.0 secs

     total energy              =  -27755.48046638 Ry
     estimated scf accuracy    <       0.00001260 Ry

     iteration # 14     ecut=    40.00 Ry     beta= 0.70
     Davidson diagonalization with overlap
     ethr =  3.49E-09,  avg # of iterations =  2.0

     negative rho (up, down):  1.889E-03 0.000E+00

     total cpu time spent up to now is      262.7 secs

     total energy              =  -27755.48047026 Ry
     estimated scf accuracy    <       0.00000666 Ry

     iteration # 15     ecut=    40.00 Ry     beta= 0.70
     Davidson diagonalization with overlap
     ethr =  1.85E-09,  avg # of iterations =  2.0

     negative rho (up, down):  2.784E-03 0.000E+00

     total cpu time spent up to now is      274.9 secs

     total energy              =  -27755.48046772 Ry
     estimated scf accuracy    <       0.00000623 Ry

     iteration # 16     ecut=    40.00 Ry     beta= 0.70
     Davidson diagonalization with overlap
     ethr =  1.73E-09,  avg # of iterations =  1.5

     negative rho (up, down):  2.900E-03 0.000E+00

     total cpu time spent up to now is      286.5 secs

     total energy              =  -27755.48046778 Ry
     estimated scf accuracy    <       0.00000052 Ry

     iteration # 17     ecut=    40.00 Ry     beta= 0.70
     Davidson diagonalization with overlap
     c_bands:  1 eigenvalues not converged
     c_bands:  1 eigenvalues not converged
     ethr =  1.44E-10,  avg # of iterations =  8.2

     negative rho (up, down):  3.016E-03 0.000E+00

     total cpu time spent up to now is      318.9 secs

     total energy              =  -27755.48046773 Ry
     estimated scf accuracy    <       0.00000050 Ry

     iteration # 18     ecut=    40.00 Ry     beta= 0.70
     Davidson diagonalization with overlap
     ethr =  1.38E-10,  avg # of iterations =  2.9

     negative rho (up, down):  3.071E-03 0.000E+00

     total cpu time spent up to now is      332.2 secs

     total energy              =  -27755.48046745 Ry
     estimated scf accuracy    <       0.00000014 Ry

     iteration # 19     ecut=    40.00 Ry     beta= 0.70
     Davidson diagonalization with overlap
     ethr =  3.80E-11,  avg # of iterations =  2.2

     negative rho (up, down):  3.125E-03 0.000E+00

     total cpu time spent up to now is      345.1 secs

     total energy              =  -27755.48046714 Ry
     estimated scf accuracy    <       0.00000006 Ry

     iteration # 20     ecut=    40.00 Ry     beta= 0.70
     Davidson diagonalization with overlap
     ethr =  1.54E-11,  avg # of iterations =  2.0

     negative rho (up, down):  3.152E-03 0.000E+00

     total cpu time spent up to now is      357.7 secs

     total energy              =  -27755.48046701 Ry
     estimated scf accuracy    <       0.00000002 Ry

     iteration # 21     ecut=    40.00 Ry     beta= 0.70
     Davidson diagonalization with overlap
     ethr =  6.85E-12,  avg # of iterations =  2.8

     negative rho (up, down):  3.154E-03 0.000E+00

     total cpu time spent up to now is      371.0 secs

     End of self-consistent calculation

          k = 0.0000 0.0000 0.0000 ( 42913 PWs)   bands (ev):

    -6.2960  -5.0583  -4.1486  -3.8850  -3.8733  -3.8701  -3.8659  -3.8635
    -3.8490  -3.8454  -3.4503  -3.3193  -3.3136  -3.3076  -3.3027  -3.3015
    -3.1598  -2.8578  -2.8460  -2.8399  -2.8386  -2.8360  -2.7534  -2.6291
    -2.6274  -2.6241  -2.6239  -2.6184  -2.5100  -2.4081  -2.4020  -2.3944
    -2.3924  -2.3866  -2.3832  -2.3747  -2.3672  -2.3660  -2.3480  -2.3320
    -2.1040  -1.7806  -1.7796  -1.7608  -1.7455  -1.7147  -1.7062  -1.6969
    -1.6908  -1.6873  -1.5614  -1.5464  -1.5135  -1.4515  -1.4005  -0.9834
    -0.9751  -0.9558  -0.9556  -0.9513  -0.8926  -0.8891  -0.7836  -0.7829
    -0.7764  -0.7625  -0.7563  -0.7556  -0.7414  -0.7391  -0.7213  -0.7195
    -0.7128  -0.7046  -0.6751  -0.6731  -0.6437  -0.5586  -0.5507  -0.5426
    -0.5388  -0.5354  -0.5181  -0.3728  -0.3660  -0.3594  -0.3585  -0.3375
    -0.3264  -0.3062  -0.2877  -0.2202  -0.2010  -0.1571  -0.1443  -0.1224
    -0.1156  -0.0990  -0.0804  -0.0753  -0.0218   0.0658   0.0710   0.0833
     0.0888   0.0987   0.1005   0.3759   0.5595   0.5755   0.5846   0.5894
     0.5905   0.5965   0.6199   0.6338   0.6506   0.6553   0.6560   0.7201
     0.7363   0.7865   0.8695   0.8742   0.8895   0.8948   0.8962   0.9981
     1.0050   1.0423   1.0619   1.0648   1.0800   1.2478   1.2954   1.3191
     1.3225   1.3257   1.3352   1.3802   1.3941   1.4266   1.5638   1.5643
     1.5725   1.5795   1.5811   1.6380   1.7251   1.7297   1.7511   1.7576
     1.7601   1.7727   1.7753   1.7795   1.7901   1.7908   1.7919   1.8670
     1.8901   1.9025   1.9186   1.9268   1.9340   1.9399   1.9540   1.9959
     2.0078   2.0312   2.0393   2.0424   2.0519   2.0626   2.0629   2.1316
     2.1442   2.1495   2.1553   2.1588   2.1652   2.1774   2.2333   2.2524
     2.2609   2.2615   2.2732   2.2796   2.4547   2.4822   2.5539   2.5693
     2.5858   2.5889   2.5899   2.5963   3.0381   3.4141   3.4481   3.4665
     3.4809   3.4812   3.4880   5.2490   5.7429   5.7695   5.8007   5.8026
     5.8210   7.0589   7.3457   7.3712   7.3933   7.4143   7.4161   7.4866
     7.5895

          k = 0.0000 0.2309 0.0000 ( 42996 PWs)   bands (ev):

    -6.1489  -4.9167  -4.3845  -4.0873  -3.9776  -3.9179  -3.7413  -3.6762
    -3.6402  -3.6236  -3.4700  -3.4033  -3.3509  -3.2500  -3.2437  -3.2312
    -3.0831  -2.9260  -2.8168  -2.8045  -2.7977  -2.7907  -2.7282  -2.6932
    -2.6679  -2.6369  -2.6338  -2.6052  -2.5633  -2.5334  -2.4993  -2.4319
    -2.4246  -2.3971  -2.3813  -2.2639  -2.1947  -2.1902  -2.1754  -2.1501
    -2.0540  -1.9028  -1.8960  -1.8312  -1.8274  -1.7999  -1.7827  -1.6961
    -1.5996  -1.5792  -1.5274  -1.5229  -1.4630  -1.4528  -1.4140  -1.2301
    -1.1467  -1.1423  -1.0758  -1.0530  -1.0195  -0.9831  -0.9698  -0.9544
    -0.9266  -0.9171  -0.8560  -0.8465  -0.7845  -0.7594  -0.7582  -0.7306
    -0.6929  -0.6794  -0.6748  -0.5963  -0.5901  -0.5719  -0.5317  -0.4849
    -0.4809  -0.4686  -0.4660  -0.3860  -0.3841  -0.3707  -0.3639  -0.3452
    -0.3201  -0.2817  -0.2490  -0.2427  -0.2087  -0.1943  -0.1673  -0.1620
    -0.1293  -0.1168  -0.1064  -0.0949  -0.0014   0.0578   0.0720   0.0836
     0.0856   0.1022   0.1131   0.1198   0.1691   0.1696   0.1927   0.2039
     0.4056   0.5076   0.5090   0.5536   0.5992   0.6036   0.6107   0.6362
     0.6411   0.7504   0.8021   0.8094   0.8462   0.9351   0.9463   0.9783
     0.9883   1.0074   1.0528   1.0684   1.0835   1.1212   1.1651   1.1938
     1.2072   1.2159   1.2494   1.3976   1.4057   1.4260   1.4450   1.4493
     1.4727   1.5113   1.5560   1.5849   1.6046   1.6096   1.6719   1.6825
     1.6887   1.6941   1.7620   1.8019   1.8099   1.8366   1.8615   1.9338
     1.9708   1.9781   1.9827   1.9956   2.0021   2.0409   2.1048   2.1180
     2.1423   2.1778   2.1914   2.1936   2.2324   2.2363   2.2376   2.2471
     2.2495   2.3029   2.3105   2.4293   2.4648   2.4868   2.5019   2.5164
     2.5178   2.5527   2.5823   2.5918   2.5997   2.6821   2.6957   2.7250
     2.7359   2.8846   2.8934   2.9023   2.9282   3.2730   3.3448   3.7921
     4.0579   4.0768   4.1935   4.9374   5.3273   5.5099   6.0796   6.2202
     6.2347   6.3504   6.5900   6.9444   7.1857   7.3002   7.5610   7.5793
     7.6062

          k = 0.0000 0.4619 0.0000 ( 43046 PWs)   bands (ev):

    -5.7256  -5.0894  -4.5255  -4.0794  -4.0124  -3.9467  -3.6884  -3.6275
    -3.4857  -3.3606  -3.3011  -3.2821  -3.2226  -3.1199  -3.0772  -3.0628
    -3.0615  -3.0084  -2.9186  -2.8964  -2.8730  -2.8530  -2.8312  -2.8096
    -2.7419  -2.7133  -2.7072  -2.6389  -2.4518  -2.4435  -2.4383  -2.4278
    -2.4260  -2.3498  -2.2029  -2.1868  -2.1658  -2.1471  -2.1399  -2.0697
    -1.9146  -1.8676  -1.8561  -1.8416  -1.8103  -1.7857  -1.7477  -1.7120
    -1.7079  -1.6721  -1.6421  -1.5586  -1.5021  -1.4898  -1.4581  -1.4281
    -1.3402  -1.3003  -1.2749  -1.2719  -1.2285  -1.1174  -1.0604  -1.0579
    -1.0396  -1.0289  -0.9568  -0.9202  -0.8960  -0.8217  -0.8114  -0.8003
    -0.7630  -0.6909  -0.6798  -0.6606  -0.6537  -0.6100  -0.5920  -0.5715
    -0.5647  -0.5464  -0.5431  -0.5363  -0.5291  -0.4999  -0.4654  -0.4047
    -0.3949  -0.3687  -0.3627  -0.3544  -0.3273  -0.2281  -0.2230  -0.1774
    -0.1611  -0.1416  -0.1147  -0.0866  -0.0669  -0.0661  -0.0011   0.0631
     0.0913   0.1306   0.1380   0.1723   0.1921   0.3297   0.3484   0.4216
     0.4239   0.4792   0.4963   0.5191   0.5406   0.5435   0.5581   0.6190
     0.6264   0.6417   0.6628   0.6640   0.6915   0.7024   0.7050   0.7139
     0.7681   0.8619   0.8765   0.9075   0.9302   0.9708   1.0626   1.0759
     1.1279   1.1974   1.2298   1.3013   1.3579   1.3698   1.4044   1.4201
     1.4494   1.4720   1.4829   1.5291   1.5725   1.5745   1.6287   1.6519
     1.6890   1.7232   1.7337   1.7396   1.7588   1.7849   1.8895   1.9346
     1.9949   2.0179   2.0289   2.0364   2.0422   2.1371   2.1431   2.1724
     2.2283   2.2320   2.2436   2.2921   2.3154   2.3340   2.3491   2.4437
     2.4665   2.4870   2.4881   2.5037   2.5109   2.5304   2.5328   2.7038
     2.7388   2.7432   2.7558   2.7565   2.9200   2.9640   3.1651   3.3529
     3.3935   3.5591   3.7882   3.7895   4.0704   4.1761   4.2674   4.5006
     4.7383   5.0068   5.0101   5.0786   5.2103   5.2651   5.3462   5.4060
     5.6230   5.6615   6.1558   6.3002   6.6710   6.8271   7.0970   7.3147
     7.6201

          k = 0.2000-0.1155 0.0000 ( 42996 PWs)   bands (ev):

    -6.1492  -4.9193  -4.3951  -4.0546  -3.9805  -3.9406  -3.7413  -3.6747
    -3.6326  -3.6299  -3.4995  -3.4016  -3.3066  -3.2444  -3.2403  -3.2302
    -3.1062  -2.9431  -2.8172  -2.8092  -2.7920  -2.7588  -2.7253  -2.6983
    -2.6655  -2.6415  -2.6386  -2.6126  -2.5454  -2.5289  -2.5057  -2.4271
    -2.4191  -2.3932  -2.3798  -2.2536  -2.1960  -2.1884  -2.1814  -2.1479
    -2.0656  -1.9027  -1.8983  -1.8647  -1.8222  -1.8098  -1.7821  -1.6998
    -1.6095  -1.5537  -1.5247  -1.5176  -1.4774  -1.4518  -1.3937  -1.2417
    -1.1468  -1.1339  -1.0835  -1.0567  -1.0344  -0.9923  -0.9574  -0.9395
    -0.9254  -0.9128  -0.8651  -0.8545  -0.8015  -0.7790  -0.7540  -0.7339
    -0.6770  -0.6605  -0.6526  -0.5951  -0.5903  -0.5600  -0.5346  -0.4935
    -0.4892  -0.4704  -0.4641  -0.3913  -0.3799  -0.3631  -0.3597  -0.3557
    -0.3072  -0.2930  -0.2528  -0.2281  -0.2037  -0.1966  -0.1905  -0.1560
    -0.1462  -0.1057  -0.1010  -0.0808  -0.0075   0.0567   0.0726   0.0800
     0.0894   0.1013   0.1058   0.1233   0.1573   0.1751   0.1850   0.1992
     0.3781   0.4887   0.5289   0.5837   0.5900   0.6013   0.6187   0.6315
     0.6442   0.7026   0.7930   0.8076   0.8731   0.9323   0.9497   0.9656
     1.0020   1.0067   1.0574   1.0745   1.0785   1.1614   1.1824   1.1940
     1.2056   1.2134   1.2985   1.3974   1.4118   1.4262   1.4375   1.4504
     1.4682   1.5112   1.5517   1.5752   1.5964   1.6111   1.6428   1.6784
     1.6879   1.6934   1.7424   1.7959   1.8154   1.8347   1.8731   1.9307
     1.9590   1.9692   1.9823   1.9963   2.0246   2.0417   2.1028   2.1234
     2.1622   2.1768   2.1877   2.2017   2.2304   2.2348   2.2418   2.2461
     2.2496   2.3094   2.3186   2.4451   2.4627   2.4788   2.4984   2.5060
     2.5170   2.5385   2.5662   2.5843   2.5966   2.6713   2.7023   2.7200
     2.7609   2.8813   2.8927   2.8990   2.9414   3.2535   3.3291   3.8152
     4.0527   4.0805   4.1990   4.9253   5.3759   5.4984   6.0688   6.2183
     6.2390   6.3425   6.5547   6.9657   7.1814   7.2841   7.5500   7.5850
     7.6089

          k = 0.2000 0.1155 0.0000 ( 42996 PWs)   bands (ev):

    -6.1492  -4.9191  -4.3946  -4.0556  -3.9804  -3.9397  -3.7413  -3.6747
    -3.6326  -3.6299  -3.4977  -3.4015  -3.3103  -3.2443  -3.2403  -3.2303
    -3.1035  -2.9432  -2.8173  -2.8090  -2.7922  -2.7616  -2.7252  -2.6984
    -2.6655  -2.6412  -2.6380  -2.6115  -2.5466  -2.5288  -2.5067  -2.4273
    -2.4192  -2.3938  -2.3799  -2.2539  -2.1959  -2.1885  -2.1812  -2.1471
    -2.0650  -1.9027  -1.8983  -1.8643  -1.8225  -1.8094  -1.7822  -1.6997
    -1.6095  -1.5545  -1.5243  -1.5169  -1.4774  -1.4521  -1.3940  -1.2415
    -1.1470  -1.1342  -1.0835  -1.0565  -1.0334  -0.9921  -0.9576  -0.9397
    -0.9256  -0.9129  -0.8648  -0.8549  -0.8013  -0.7785  -0.7539  -0.7325
    -0.6771  -0.6610  -0.6536  -0.5950  -0.5902  -0.5594  -0.5347  -0.4937
    -0.4892  -0.4699  -0.4641  -0.3924  -0.3800  -0.3631  -0.3594  -0.3558
    -0.3075  -0.2930  -0.2530  -0.2284  -0.2034  -0.1963  -0.1896  -0.1561
    -0.1462  -0.1059  -0.1009  -0.0809  -0.0074   0.0568   0.0732   0.0799
     0.0895   0.1011   0.1056   0.1238   0.1577   0.1750   0.1854   0.1993
     0.3767   0.4890   0.5292   0.5830   0.5903   0.6014   0.6184   0.6314
     0.6440   0.7044   0.7933   0.8076   0.8726   0.9323   0.9495   0.9656
     1.0022   1.0071   1.0569   1.0744   1.0790   1.1610   1.1821   1.1942
     1.2053   1.2134   1.2967   1.3980   1.4120   1.4263   1.4376   1.4502
     1.4679   1.5113   1.5518   1.5756   1.5964   1.6113   1.6422   1.6785
     1.6878   1.6939   1.7422   1.7963   1.8155   1.8348   1.8724   1.9311
     1.9589   1.9696   1.9826   1.9965   2.0242   2.0417   2.1028   2.1236
     2.1624   2.1769   2.1876   2.2014   2.2302   2.2346   2.2418   2.2461
     2.2497   2.3093   2.3183   2.4451   2.4627   2.4789   2.4981   2.5058
     2.5170   2.5386   2.5660   2.5843   2.5967   2.6705   2.7024   2.7201
     2.7611   2.8813   2.8929   2.8991   2.9410   3.2529   3.3297   3.8150
     4.0533   4.0804   4.1987   4.9263   5.3734   5.4987   6.0698   6.2184
     6.2383   6.3429   6.5570   6.9657   7.1813   7.2836   7.5493   7.5850
     7.6089

          k = 0.2000 0.3464 0.0000 ( 43046 PWs)   bands (ev):

    -5.8633  -4.6855  -4.6304  -4.6066  -3.9028  -3.5506  -3.5421  -3.5358
    -3.5198  -3.4811  -3.4767  -3.4588  -3.3609  -3.3574  -3.1404  -2.9770
    -2.9689  -2.9621  -2.9331  -2.8981  -2.8585  -2.7334  -2.7209  -2.7098
    -2.7031  -2.6624  -2.6034  -2.5703  -2.5555  -2.5433  -2.4992  -2.4770
    -2.4523  -2.4180  -2.3986  -2.3204  -2.2301  -2.0594  -1.9664  -1.9582
    -1.9285  -1.9155  -1.9028  -1.8980  -1.8399  -1.8207  -1.7536  -1.6729
    -1.6648  -1.6008  -1.5757  -1.5397  -1.4960  -1.4854  -1.4385  -1.3943
    -1.3794  -1.2263  -1.2088  -1.1952  -1.1196  -1.1076  -1.0905  -1.0824
    -1.0553  -1.0063  -0.9743  -0.8612  -0.8476  -0.8291  -0.8211  -0.7833
    -0.7687  -0.7194  -0.7023  -0.6840  -0.6259  -0.5666  -0.5607  -0.5348
    -0.5169  -0.5041  -0.5010  -0.4766  -0.4564  -0.4368  -0.4077  -0.3804
    -0.3577  -0.3301  -0.2743  -0.2537  -0.2305  -0.2036  -0.1801  -0.1620
    -0.1554  -0.1144  -0.1066  -0.0914  -0.0853  -0.0731  -0.0651  -0.0534
    -0.0170   0.0128   0.1015   0.1071   0.1540   0.1862   0.2302   0.2377
     0.2474   0.3902   0.4376   0.4621   0.5565   0.5796   0.6099   0.6187
     0.6386   0.6598   0.6738   0.7079   0.7203   0.7372   0.7702   0.8352
     0.8783   0.9430   1.0019   1.0186   1.0467   1.0640   1.0970   1.1344
     1.1702   1.2392   1.2561   1.2734   1.3291   1.3463   1.3953   1.4547
     1.4705   1.4795   1.5138   1.5384   1.5562   1.5683   1.5741   1.5923
     1.5997   1.6073   1.6248   1.7177   1.7789   1.8139   1.9219   1.9400
     1.9633   2.0647   2.1202   2.1278   2.1322   2.1822   2.2326   2.2599
     2.2700   2.2852   2.3018   2.3189   2.3331   2.3376   2.3495   2.3849
     2.4096   2.4246   2.4862   2.5064   2.5284   2.5514   2.5627   2.6022
     2.7376   2.7676   2.7918   2.8023   2.8677   2.8755   2.8809   2.9921
     3.0243   3.3043   3.5317   3.5576   3.9165   4.0894   4.1034   4.1182
     4.5117   4.7994   4.8213   4.9887   5.0183   5.0717   5.6468   6.0091
     6.2093   6.2513   6.4304   6.6291   6.9308   6.9910   7.0185   7.0227
     7.0576

          k = 0.2000-0.5774 0.0000 ( 43014 PWs)   bands (ev):

    -5.3376  -5.3174  -4.7269  -4.2485  -4.0813  -3.7378  -3.5468  -3.4429
    -3.3983  -3.3576  -3.2605  -3.2264  -3.1626  -3.1526  -3.0502  -3.0327
    -3.0195  -2.9953  -2.9897  -2.9725  -2.8755  -2.8263  -2.8199  -2.7992
    -2.7801  -2.7436  -2.7010  -2.5998  -2.5613  -2.4615  -2.4243  -2.4208
    -2.4095  -2.3950  -2.3502  -2.2903  -2.1925  -2.1698  -2.1253  -1.9992
    -1.9837  -1.8874  -1.8456  -1.8126  -1.7871  -1.7387  -1.6666  -1.6252
    -1.5897  -1.5656  -1.5531  -1.4958  -1.4920  -1.4633  -1.3750  -1.3689
    -1.3525  -1.3405  -1.3344  -1.3286  -1.2703  -1.2595  -1.2564  -1.1249
    -1.1182  -1.0591  -1.0267  -0.9698  -0.9117  -0.8998  -0.8805  -0.8488
    -0.8308  -0.8143  -0.7426  -0.7225  -0.7077  -0.6918  -0.6563  -0.6392
    -0.5957  -0.5498  -0.5142  -0.4861  -0.4735  -0.4732  -0.4228  -0.3543
    -0.3080  -0.2920  -0.2708  -0.2414  -0.2246  -0.2218  -0.2109  -0.1879
    -0.1715  -0.1458  -0.1345  -0.1170  -0.0807  -0.0719  -0.0571  -0.0545
    -0.0492  -0.0183   0.0124   0.0337   0.0432   0.2129   0.2611   0.2622
     0.3541   0.3699   0.4591   0.4720   0.4863   0.5272   0.5508   0.5619
     0.5712   0.5934   0.6322   0.6910   0.7094   0.7275   0.7731   0.7868
     0.8413   0.8556   0.8983   0.9921   1.0451   1.1093   1.1257   1.1420
     1.1621   1.2185   1.2462   1.2653   1.2706   1.2820   1.3002   1.3136
     1.3998   1.4182   1.4392   1.4802   1.5021   1.5121   1.5346   1.5498
     1.5511   1.6680   1.7274   1.7801   1.8397   1.8705   1.9547   1.9664
     1.9950   2.0481   2.0871   2.0970   2.1444   2.1906   2.2528   2.2700
     2.2999   2.3152   2.3183   2.3470   2.3701   2.4055   2.4711   2.4763
     2.4823   2.5083   2.5285   2.5321   2.5356   2.6018   2.7164   2.7408
     2.7472   2.7541   2.7588   2.8177   2.8620   2.9395   3.0607   3.6948
     3.8998   3.9079   4.0928   4.1619   4.2430   4.2861   4.2933   4.6175
     4.9009   4.9094   5.0970   5.3607   5.3842   5.4762   5.5018   5.6692
     5.7656   5.8332   5.8872   6.1528   6.3157   6.3292   6.7257   6.9765
     6.9839

          k = 0.2000-0.3464 0.0000 ( 43046 PWs)   bands (ev):

    -5.8634  -4.6861  -4.6303  -4.6067  -3.9037  -3.5506  -3.5421  -3.5357
    -3.5195  -3.4809  -3.4767  -3.4593  -3.3611  -3.3572  -3.1388  -2.9773
    -2.9691  -2.9620  -2.9343  -2.8978  -2.8591  -2.7335  -2.7208  -2.7099
    -2.7032  -2.6599  -2.6036  -2.5701  -2.5558  -2.5434  -2.4977  -2.4769
    -2.4523  -2.4172  -2.3985  -2.3201  -2.2274  -2.0599  -1.9668  -1.9581
    -1.9286  -1.9158  -1.9030  -1.8983  -1.8399  -1.8208  -1.7536  -1.6729
    -1.6651  -1.6024  -1.5753  -1.5404  -1.4959  -1.4855  -1.4389  -1.3941
    -1.3788  -1.2269  -1.2082  -1.1954  -1.1201  -1.1086  -1.0906  -1.0824
    -1.0556  -1.0063  -0.9740  -0.8616  -0.8482  -0.8289  -0.8214  -0.7832
    -0.7685  -0.7193  -0.7028  -0.6837  -0.6264  -0.5664  -0.5607  -0.5348
    -0.5171  -0.5037  -0.5012  -0.4776  -0.4563  -0.4369  -0.4075  -0.3802
    -0.3576  -0.3311  -0.2743  -0.2543  -0.2300  -0.2033  -0.1802  -0.1619
    -0.1545  -0.1151  -0.1069  -0.0916  -0.0855  -0.0734  -0.0650  -0.0531
    -0.0164   0.0126   0.1013   0.1056   0.1542   0.1880   0.2301   0.2378
     0.2474   0.3903   0.4376   0.4617   0.5564   0.5795   0.6101   0.6189
     0.6390   0.6597   0.6740   0.7078   0.7201   0.7373   0.7701   0.8349
     0.8799   0.9430   1.0017   1.0188   1.0468   1.0639   1.0965   1.1346
     1.1707   1.2399   1.2559   1.2736   1.3291   1.3466   1.3948   1.4543
     1.4706   1.4793   1.5143   1.5386   1.5560   1.5684   1.5739   1.5920
     1.5996   1.6073   1.6244   1.7177   1.7782   1.8139   1.9224   1.9402
     1.9632   2.0652   2.1196   2.1278   2.1322   2.1814   2.2330   2.2598
     2.2700   2.2851   2.3018   2.3190   2.3330   2.3376   2.3498   2.3851
     2.4096   2.4244   2.4863   2.5064   2.5286   2.5514   2.5628   2.6023
     2.7376   2.7668   2.7915   2.8025   2.8676   2.8751   2.8809   2.9913
     3.0243   3.3059   3.5324   3.5575   3.9184   4.0890   4.1033   4.1178
     4.5109   4.7990   4.8217   4.9897   5.0184   5.0715   5.6476   6.0094
     6.2094   6.2503   6.4289   6.6272   6.9311   6.9905   7.0190   7.0227
     7.0575

          k = 0.4000-0.2309 0.0000 ( 43046 PWs)   bands (ev):

    -5.7268  -5.0937  -4.5349  -4.0639  -4.0094  -3.9778  -3.7020  -3.5800
    -3.4905  -3.3586  -3.2900  -3.2870  -3.2041  -3.1199  -3.0768  -3.0680
    -3.0571  -3.0397  -2.9150  -2.9012  -2.8850  -2.8527  -2.8383  -2.7990
    -2.7377  -2.7149  -2.7091  -2.5552  -2.4493  -2.4459  -2.4412  -2.4331
    -2.4238  -2.3436  -2.2002  -2.1896  -2.1654  -2.1494  -2.1380  -2.0698
    -1.9478  -1.8630  -1.8606  -1.8463  -1.8249  -1.7847  -1.7433  -1.7212
    -1.7048  -1.6902  -1.6398  -1.5619  -1.5051  -1.4873  -1.4632  -1.4157
    -1.3418  -1.3191  -1.2833  -1.2663  -1.2403  -1.1196  -1.0691  -1.0449
    -1.0383  -1.0238  -0.9446  -0.9384  -0.9095  -0.8180  -0.8023  -0.7909
    -0.7452  -0.6882  -0.6833  -0.6633  -0.6556  -0.6195  -0.6058  -0.5723
    -0.5591  -0.5479  -0.5390  -0.5353  -0.5266  -0.4919  -0.4191  -0.3998
    -0.3908  -0.3833  -0.3679  -0.3595  -0.3419  -0.2787  -0.2083  -0.1923
    -0.1434  -0.1275  -0.1092  -0.0893  -0.0706  -0.0575   0.0251   0.0735
     0.0867   0.0923   0.1453   0.1742   0.2005   0.3253   0.3453   0.3837
     0.4262   0.4731   0.5043   0.5229   0.5323   0.5398   0.5469   0.5692
     0.6269   0.6423   0.6612   0.6765   0.6835   0.7075   0.7193   0.7444
     0.7638   0.8646   0.8882   0.9026   0.9658   0.9878   1.0792   1.0877
     1.1737   1.2010   1.2258   1.2818   1.3462   1.3681   1.4019   1.4311
     1.4554   1.4649   1.4867   1.5182   1.5535   1.5734   1.6019   1.6443
     1.6869   1.7128   1.7327   1.7438   1.7568   1.8210   1.8513   1.9290
     1.9755   2.0079   2.0308   2.0385   2.0763   2.1280   2.1484   2.1879
     2.2314   2.2388   2.2459   2.2939   2.3287   2.3398   2.3511   2.4432
     2.4656   2.4812   2.4937   2.4985   2.5040   2.5223   2.5242   2.7067
     2.7153   2.7384   2.7409   2.7544   2.9186   2.9628   3.1925   3.3358
     3.4094   3.5457   3.7850   3.7946   4.0913   4.1780   4.2637   4.5076
     4.7633   5.0039   5.0089   5.0687   5.2235   5.2639   5.3570   5.3975
     5.6233   5.6609   6.1247   6.2972   6.6687   6.8281   7.1170   7.3076
     7.6245

          k = 0.4000-0.0000 0.0000 ( 43046 PWs)   bands (ev):

    -5.8641  -4.6981  -4.6241  -4.6077  -3.9030  -3.5453  -3.5410  -3.5379
    -3.5145  -3.4828  -3.4755  -3.4686  -3.3644  -3.3532  -3.1162  -2.9732
    -2.9645  -2.9620  -2.9587  -2.8813  -2.8663  -2.7425  -2.7216  -2.7107
    -2.7051  -2.6414  -2.6137  -2.5676  -2.5644  -2.5476  -2.4924  -2.4747
    -2.4476  -2.4113  -2.3941  -2.3103  -2.1842  -2.0543  -1.9679  -1.9586
    -1.9322  -1.9186  -1.9041  -1.8992  -1.8692  -1.8393  -1.8066  -1.6710
    -1.6677  -1.5751  -1.5610  -1.5427  -1.4892  -1.4830  -1.4333  -1.3955
    -1.3804  -1.2316  -1.2036  -1.1841  -1.1377  -1.1112  -1.0890  -1.0813
    -1.0554  -1.0107  -0.9887  -0.8681  -0.8442  -0.8328  -0.8215  -0.7770
    -0.7653  -0.7241  -0.7075  -0.6781  -0.6480  -0.5670  -0.5487  -0.5265
    -0.5134  -0.5100  -0.4998  -0.4931  -0.4491  -0.4400  -0.3917  -0.3785
    -0.3557  -0.3404  -0.2698  -0.2626  -0.2286  -0.1979  -0.1754  -0.1593
    -0.1412  -0.1266  -0.1051  -0.0968  -0.0926  -0.0863  -0.0639  -0.0507
    -0.0065   0.0098   0.0641   0.1118   0.1527   0.1819   0.2347   0.2406
     0.2501   0.4092   0.4341   0.4477   0.5714   0.5761   0.6185   0.6283
     0.6391   0.6521   0.6894   0.6981   0.7274   0.7385   0.7658   0.8168
     0.9176   0.9539   1.0034   1.0251   1.0471   1.0653   1.0926   1.1404
     1.1986   1.2327   1.2642   1.3085   1.3204   1.3510   1.3929   1.4379
     1.4475   1.4733   1.5097   1.5395   1.5525   1.5657   1.5748   1.5871
     1.5990   1.6010   1.6191   1.6824   1.7947   1.8100   1.9042   1.9487
     1.9723   2.0676   2.1193   2.1258   2.1331   2.2143   2.2399   2.2542
     2.2660   2.2795   2.3067   2.3223   2.3323   2.3430   2.3541   2.3841
     2.4043   2.4123   2.4916   2.5190   2.5269   2.5506   2.5590   2.6069
     2.6750   2.7460   2.7858   2.8080   2.8609   2.8732   2.8794   2.9927
     3.0238   3.3429   3.5504   3.5596   3.9362   4.0830   4.0878   4.1075
     4.5148   4.8000   4.8268   5.0122   5.0194   5.0669   5.6825   6.0044
     6.2068   6.2281   6.4017   6.5899   6.9245   6.9947   7.0157   7.0325
     7.0519

          k = 0.4000 0.2309 0.0000 ( 43046 PWs)   bands (ev):

    -5.7267  -5.0935  -4.5342  -4.0641  -4.0093  -3.9763  -3.7016  -3.5811
    -3.4905  -3.3587  -3.2901  -3.2870  -3.2054  -3.1200  -3.0761  -3.0679
    -3.0568  -3.0385  -2.9149  -2.9011  -2.8846  -2.8527  -2.8380  -2.7998
    -2.7379  -2.7150  -2.7089  -2.5638  -2.4493  -2.4458  -2.4411  -2.4332
    -2.4239  -2.3447  -2.2003  -2.1897  -2.1656  -2.1491  -2.1379  -2.0690
    -1.9469  -1.8632  -1.8606  -1.8463  -1.8242  -1.7850  -1.7425  -1.7213
    -1.7047  -1.6903  -1.6401  -1.5612  -1.5047  -1.4874  -1.4634  -1.4150
    -1.3419  -1.3187  -1.2835  -1.2662  -1.2405  -1.1197  -1.0681  -1.0448
    -1.0385  -1.0237  -0.9454  -0.9382  -0.9075  -0.8179  -0.8026  -0.7911
    -0.7436  -0.6882  -0.6833  -0.6630  -0.6555  -0.6181  -0.6058  -0.5725
    -0.5586  -0.5480  -0.5392  -0.5355  -0.5265  -0.4921  -0.4181  -0.4009
    -0.3909  -0.3826  -0.3678  -0.3594  -0.3422  -0.2769  -0.2086  -0.1930
    -0.1434  -0.1286  -0.1096  -0.0892  -0.0703  -0.0575   0.0240   0.0739
     0.0869   0.0925   0.1448   0.1744   0.2013   0.3249   0.3450   0.3850
     0.4264   0.4724   0.5042   0.5230   0.5325   0.5396   0.5467   0.5696
     0.6270   0.6427   0.6614   0.6761   0.6837   0.7071   0.7189   0.7442
     0.7638   0.8650   0.8882   0.9027   0.9653   0.9870   1.0788   1.0876
     1.1732   1.2012   1.2261   1.2818   1.3460   1.3686   1.4023   1.4309
     1.4553   1.4651   1.4868   1.5181   1.5533   1.5736   1.6021   1.6443
     1.6872   1.7130   1.7332   1.7439   1.7569   1.8209   1.8507   1.9294
     1.9762   2.0078   2.0312   2.0384   2.0759   2.1280   2.1486   2.1878
     2.2306   2.2389   2.2461   2.2935   2.3286   2.3397   2.3511   2.4434
     2.4653   2.4812   2.4939   2.4985   2.5042   2.5225   2.5243   2.7067
     2.7151   2.7384   2.7410   2.7550   2.9183   2.9627   3.1905   3.3364
     3.4084   3.5468   3.7847   3.7947   4.0910   4.1778   4.2637   4.5068
     4.7616   5.0039   5.0090   5.0698   5.2236   5.2645   5.3557   5.3977
     5.6236   5.6607   6.1260   6.2973   6.6696   6.8286   7.1146   7.3081
     7.6237

          k = 0.4000-0.6928 0.0000 ( 43014 PWs)   bands (ev):

    -5.3383  -5.3206  -4.7212  -4.2750  -4.0774  -3.7064  -3.5469  -3.4247
    -3.4093  -3.3653  -3.2663  -3.2439  -3.1574  -3.1480  -3.0506  -3.0324
    -3.0173  -2.9951  -2.9869  -2.9781  -2.8651  -2.8319  -2.8224  -2.7971
    -2.7809  -2.7442  -2.6828  -2.5888  -2.5600  -2.4585  -2.4211  -2.4180
    -2.4069  -2.3911  -2.3529  -2.2843  -2.2023  -2.1793  -2.1240  -1.9907
    -1.9824  -1.9325  -1.8451  -1.7998  -1.7874  -1.7450  -1.6538  -1.6240
    -1.5874  -1.5675  -1.5340  -1.5170  -1.4962  -1.4665  -1.3824  -1.3782
    -1.3556  -1.3421  -1.3377  -1.3267  -1.2748  -1.2590  -1.2465  -1.1300
    -1.1127  -1.0624  -1.0299  -0.9531  -0.9229  -0.9007  -0.8832  -0.8421
    -0.8188  -0.8124  -0.7512  -0.7368  -0.7118  -0.6973  -0.6566  -0.6107
    -0.5891  -0.5687  -0.5153  -0.4899  -0.4810  -0.4701  -0.4253  -0.3431
    -0.3093  -0.2891  -0.2711  -0.2630  -0.2226  -0.2163  -0.2055  -0.1824
    -0.1691  -0.1546  -0.1283  -0.0976  -0.0910  -0.0736  -0.0594  -0.0543
    -0.0450  -0.0308  -0.0019   0.0439   0.0496   0.1571   0.2631   0.3320
     0.3588   0.3738   0.4614   0.4704   0.4969   0.5028   0.5469   0.5726
     0.5763   0.5890   0.6392   0.6832   0.7110   0.7225   0.7775   0.7838
     0.8414   0.8597   0.8981   0.9909   1.0597   1.1112   1.1245   1.1432
     1.1796   1.2124   1.2315   1.2518   1.2694   1.2745   1.3037   1.3097
     1.3817   1.4351   1.4416   1.4867   1.4944   1.5171   1.5248   1.5421
     1.5591   1.7017   1.7393   1.7585   1.8209   1.8762   1.9464   1.9619
     2.0093   2.0523   2.0846   2.0961   2.1569   2.1967   2.2547   2.2851
     2.2990   2.3123   2.3180   2.3381   2.3662   2.3962   2.4690   2.4767
     2.4934   2.5106   2.5265   2.5314   2.5389   2.6027   2.7051   2.7305
     2.7419   2.7453   2.7570   2.8137   2.8442   2.9355   3.0457   3.7236
     3.9016   3.9092   4.1089   4.1545   4.2652   4.2856   4.3071   4.6150
     4.8809   4.9133   5.1324   5.3612   5.3846   5.4582   5.5068   5.6387
     5.7464   5.8225   5.9053   6.1586   6.2901   6.3500   6.7307   6.9650
     6.9952

          k = 0.4000-0.4619 0.0000 ( 43014 PWs)   bands (ev):

    -5.3384  -5.3207  -4.7209  -4.2765  -4.0774  -3.7050  -3.5471  -3.4248
    -3.4097  -3.3655  -3.2664  -3.2446  -3.1574  -3.1479  -3.0506  -3.0324
    -3.0170  -2.9955  -2.9867  -2.9782  -2.8640  -2.8322  -2.8224  -2.7969
    -2.7810  -2.7460  -2.6809  -2.5869  -2.5591  -2.4561  -2.4211  -2.4179
    -2.4068  -2.3909  -2.3527  -2.2840  -2.2037  -2.1798  -2.1235  -1.9906
    -1.9825  -1.9334  -1.8450  -1.7991  -1.7869  -1.7459  -1.6541  -1.6239
    -1.5876  -1.5674  -1.5340  -1.5175  -1.4956  -1.4659  -1.3830  -1.3786
    -1.3559  -1.3422  -1.3375  -1.3265  -1.2755  -1.2590  -1.2453  -1.1305
    -1.1138  -1.0628  -1.0298  -0.9541  -0.9231  -0.9007  -0.8839  -0.8419
    -0.8193  -0.8120  -0.7515  -0.7364  -0.7120  -0.6973  -0.6566  -0.6114
    -0.5890  -0.5689  -0.5159  -0.4899  -0.4808  -0.4700  -0.4251  -0.3426
    -0.3097  -0.2894  -0.2716  -0.2640  -0.2225  -0.2161  -0.2049  -0.1823
    -0.1696  -0.1547  -0.1280  -0.0979  -0.0915  -0.0736  -0.0593  -0.0542
    -0.0449  -0.0310  -0.0023   0.0443   0.0495   0.1604   0.2630   0.3325
     0.3588   0.3746   0.4617   0.4701   0.4968   0.5029   0.5468   0.5727
     0.5765   0.5888   0.6387   0.6834   0.7114   0.7231   0.7771   0.7836
     0.8412   0.8596   0.8978   0.9886   1.0599   1.1113   1.1243   1.1432
     1.1801   1.2128   1.2313   1.2517   1.2697   1.2744   1.3038   1.3095
     1.3821   1.4349   1.4416   1.4869   1.4944   1.5170   1.5245   1.5419
     1.5591   1.7019   1.7397   1.7590   1.8204   1.8765   1.9467   1.9618
     2.0103   2.0519   2.0845   2.0961   2.1561   2.1971   2.2545   2.2850
     2.2993   2.3120   2.3184   2.3380   2.3661   2.3960   2.4689   2.4767
     2.4933   2.5109   2.5266   2.5313   2.5389   2.6027   2.7055   2.7307
     2.7417   2.7452   2.7566   2.8135   2.8442   2.9354   3.0446   3.7249
     3.9015   3.9091   4.1095   4.1541   4.2664   4.2855   4.3074   4.6153
     4.8804   4.9134   5.1339   5.3605   5.3853   5.4571   5.5074   5.6397
     5.7448   5.8215   5.9062   6.1580   6.2887   6.3508   6.7312   6.9641
     6.9958

     the Fermi energy is     2.5172 ev

!    total energy              =  -27755.48046700 Ry
     total all-electron energy =  -1326642.245884 Ry
     estimated scf accuracy    <          2.3E-09 Ry
     smearing contrib. (-TS)   =       0.00304099 Ry
     internal energy E=F+TS    =  -27755.48350799 Ry

     The total energy is F=E-TS. E is the sum of the following terms:
     one-electron contribution =  -20678.31417858 Ry
     hartree contribution      =   10646.33009269 Ry
     xc contribution           =    -890.68995721 Ry
     ewald contribution        =    8641.16819853 Ry
     one-center paw contrib.   =  -25473.97766342 Ry

     convergence has been achieved in  21 iterations

     negative rho (up, down):  3.154E-03 0.000E+00

     Forces acting on atoms (cartesian axes, Ry/au):

     atom    1 type  1   force =    -0.00028221    0.00041376   -0.00333998
     atom    2 type  1   force =     0.00026798    0.00041544   -0.00334171
     atom    3 type  1   force =     0.00000870    0.00247986   -0.00519304
     atom    4 type  1   force =    -0.00000409    0.00054742   -0.00333115
     atom    5 type  1   force =     0.00025736   -0.00011609   -0.00391656
     atom    6 type  1   force =    -0.00025633   -0.00011686   -0.00391521
     atom    7 type  1   force =    -0.00008074    0.00020247   -0.00294954
     atom    8 type  1   force =     0.00000214    0.00016041   -0.00348843
     atom    9 type  1   force =     0.00005457    0.00018777   -0.00296431
     atom   10 type  1   force =     0.00000551   -0.00067675    0.00596053
     atom   11 type  1   force =     0.00065227   -0.00167092    0.00128573
     atom   12 type  1   force =    -0.00061293   -0.00169911    0.00137240
     atom   13 type  1   force =    -0.00191736    0.00052309    0.00665139
     atom   14 type  1   force =     0.00000992   -0.00068472    0.00247046
     atom   15 type  1   force =     0.00194511    0.00052726    0.00662943
     atom   16 type  1   force =    -0.00030255   -0.00020940    0.00358746
     atom   17 type  1   force =     0.00029001   -0.00022415    0.00350496
     atom   18 type  1   force =     0.00004448    0.00035531    0.00162337
     atom   19 type  1   force =     0.00001699   -0.00000882   -0.00006597
     atom   20 type  1   force =    -0.00000208   -0.00000103   -0.00004445
     atom   21 type  1   force =    -0.00002416   -0.00003128   -0.00004466
     atom   22 type  1   force =     0.00001158   -0.00002608   -0.00003523
     atom   23 type  1   force =    -0.00002083   -0.00002876   -0.00005202
     atom   24 type  1   force =     0.00000916   -0.00001908   -0.00005646
     atom   25 type  1   force =    -0.00002377    0.00002302    0.00000098
     atom   26 type  1   force =     0.00000602    0.00004005   -0.00013690
     atom   27 type  1   force =     0.00003405    0.00002191    0.00000350
     atom   28 type  1   force =     0.00006729    0.00001486    0.00005768
     atom   29 type  1   force =    -0.00005813    0.00000597    0.00002266
     atom   30 type  1   force =    -0.00000229    0.00001341   -0.00002622
     atom   31 type  1   force =    -0.00000470    0.00004540   -0.00004436
     atom   32 type  1   force =    -0.00005799   -0.00003604   -0.00002391
     atom   33 type  1   force =     0.00006689   -0.00004292   -0.00003395
     atom   34 type  1   force =     0.00000675   -0.00005061   -0.00002646
     atom   35 type  1   force =    -0.00000014    0.00008357   -0.00000599
     atom   36 type  1   force =     0.00002018   -0.00004866   -0.00002276
     atom   37 type  2   force =    -0.00012665   -0.00036968   -0.00011127
     The non-local contrib.  to forces
     atom    1 type  1   force =     0.00023292    0.00004927   -0.01797972
     atom    2 type  1   force =    -0.00020681    0.00002586   -0.01796503
     atom    3 type  1   force =    -0.00003493   -0.00210150   -0.01761771
     atom    4 type  1   force =    -0.00000956   -0.00082669   -0.01877054
     atom    5 type  1   force =    -0.00003104    0.00013281   -0.01809645
     atom    6 type  1   force =     0.00004835    0.00012206   -0.01808228
     atom    7 type  1   force =     0.00031379    0.00075657   -0.01917371
     atom    8 type  1   force =    -0.00000589   -0.00022837   -0.01872894
     atom    9 type  1   force =    -0.00030025    0.00079393   -0.01917313
     atom   10 type  1   force =     0.00001984   -0.00113347   -0.00004183
     atom   11 type  1   force =    -0.00142619    0.00035980    0.00004697
     atom   12 type  1   force =     0.00142907    0.00033442    0.00008336
     atom   13 type  1   force =     0.00030896   -0.00104590    0.00126586
     atom   14 type  1   force =    -0.00000386   -0.00048448   -0.00063350
     atom   15 type  1   force =    -0.00026037   -0.00106420    0.00128526
     atom   16 type  1   force =     0.00101101   -0.00050844   -0.00005810
     atom   17 type  1   force =    -0.00102340   -0.00047795   -0.00007552
     atom   18 type  1   force =     0.00007999   -0.00208463    0.00043999
     atom   19 type  1   force =    -0.00256852   -0.00182767    0.00414718
     atom   20 type  1   force =     0.00264091   -0.00192228    0.00401397
     atom   21 type  1   force =    -0.00004403    0.00043337    0.00244574
     atom   22 type  1   force =    -0.00006785    0.00975032   -0.00845317
     atom   23 type  1   force =     0.00177586    0.00010583    0.00241208
     atom   24 type  1   force =    -0.00178380    0.00014479    0.00238556
     atom   25 type  1   force =    -0.00019773    0.00028838    0.00306626
     atom   26 type  1   force =     0.00006843   -0.00252646    0.00037861
     atom   27 type  1   force =     0.00010454    0.00033788    0.00322323
     atom   28 type  1   force =     0.02767534    0.02510250    0.02852156
     atom   29 type  1   force =    -0.02784233    0.02461805    0.02882998
     atom   30 type  1   force =    -0.00008313   -0.00034866    0.01534310
     atom   31 type  1   force =     0.00015237    0.00736600   -0.06606435
     atom   32 type  1   force =    -0.00595723   -0.00177329    0.01973894
     atom   33 type  1   force =     0.00641264   -0.00202338    0.01998532
     atom   34 type  1   force =    -0.00078520   -0.00171338    0.01687790
     atom   35 type  1   force =     0.00002670    0.00069476    0.01642039
     atom   36 type  1   force =     0.00076284   -0.00165336    0.01686886
     atom   37 type  2   force =     0.00026100    0.02030760   -0.02844206
     The ionic contribution  to forces
     atom    1 type  1   force =     0.00052115    0.00248300  -93.41256038
     atom    2 type  1   force =    -0.00078206    0.00247077  -93.41300428
     atom    3 type  1   force =     0.00026399   -0.00968039  -93.41420898
     atom    4 type  1   force =    -0.00014653    0.00760113  -93.39793704
     atom    5 type  1   force =    -0.01026916    0.00040528  -93.41844114
     atom    6 type  1   force =     0.01041547    0.00021311  -93.41817715
     atom    7 type  1   force =    -0.01210042   -0.00348961  -93.40096566
     atom    8 type  1   force =    -0.00009857    0.00352977  -93.42199371
     atom    9 type  1   force =     0.01219934   -0.00374420  -93.40122252
     atom   10 type  1   force =    -0.00137101    0.02782292  -31.51704626
     atom   11 type  1   force =    -0.04291477   -0.01768695  -31.55242631
     atom   12 type  1   force =     0.04436463   -0.01889004  -31.55009824
     atom   13 type  1   force =    -0.10208109    0.02723930  -31.49032209
     atom   14 type  1   force =     0.00037274   -0.00206035  -31.60971910
     atom   15 type  1   force =     0.10221400    0.02519728  -31.48860543
     atom   16 type  1   force =    -0.02396337    0.00956584  -31.56485765
     atom   17 type  1   force =     0.02183158    0.00882239  -31.56601345
     atom   18 type  1   force =     0.00281020   -0.13344792  -31.42301273
     atom   19 type  1   force =     0.10409532   -0.01147375   31.24882022
     atom   20 type  1   force =    -0.10497156   -0.01003639   31.23961052
     atom   21 type  1   force =     0.00006310   -0.06585501   30.78744698
     atom   22 type  1   force =    -0.00026041    0.09569866   31.56516675
     atom   23 type  1   force =    -0.06624501    0.01309072   30.82529375
     atom   24 type  1   force =     0.06661819    0.01260062   30.82244907
     atom   25 type  1   force =    -0.08073137   -0.04378813   30.85822584
     atom   26 type  1   force =    -0.00170163    0.07776506   31.09863342
     atom   27 type  1   force =     0.08227551   -0.04427018   30.83823082
     atom   28 type  1   force =    -0.11104616   -0.23157462   92.46971698
     atom   29 type  1   force =     0.10267510   -0.21380814   92.43892794
     atom   30 type  1   force =    -0.00220382   -0.00152600   92.70920730
     atom   31 type  1   force =     0.02407719    0.97842031   92.48096817
     atom   32 type  1   force =     0.06881573    0.04214503   92.48641149
     atom   33 type  1   force =    -0.07587087    0.04320640   92.47774994
     atom   34 type  1   force =     0.02754673    0.02145715   92.67557478
     atom   35 type  1   force =    -0.00023450    0.02074039   92.67510618
     atom   36 type  1   force =    -0.02790137    0.02643736   92.67487111
     atom   37 type  2   force =    -0.00626628   -0.63558081   12.08820084
     The local contribution  to forces
     atom    1 type  1   force =    -0.00101277   -0.00209131   93.40996575
     atom    2 type  1   force =     0.00123490   -0.00205889   93.41039329
     atom    3 type  1   force =    -0.00022209    0.01436902   93.40912468
     atom    4 type  1   force =     0.00014789   -0.00626196   93.39619629
     atom    5 type  1   force =     0.01053193   -0.00058075   93.41539895
     atom    6 type  1   force =    -0.01069204   -0.00037565   93.41513216
     atom    7 type  1   force =     0.01164931    0.00296600   93.40000451
     atom    8 type  1   force =     0.00010966   -0.00315743   93.42002108
     atom    9 type  1   force =    -0.01179349    0.00316701   93.40025400
     atom   10 type  1   force =     0.00134355   -0.02728716   31.52197080
     atom   11 type  1   force =     0.04501701    0.01554658   31.55239285
     atom   12 type  1   force =    -0.04641693    0.01676337   31.55013310
     atom   13 type  1   force =     0.09958183   -0.02559953   31.49471984
     atom   14 type  1   force =    -0.00033874    0.00184405   31.61143902
     atom   15 type  1   force =    -0.09975277   -0.02353637   31.49298158
     atom   16 type  1   force =     0.02267715   -0.00926517   31.56718674
     atom   17 type  1   force =    -0.02053463   -0.00858446   31.56827646
     atom   18 type  1   force =    -0.00285405    0.13536003   31.42362726
     atom   19 type  1   force =    -0.10125441    0.01323422  -31.25053007
     atom   20 type  1   force =     0.10205198    0.01188717  -31.24115397
     atom   21 type  1   force =    -0.00003036    0.06518806  -30.78799172
     atom   22 type  1   force =     0.00031470   -0.10535714  -31.55504369
     atom   23 type  1   force =     0.06439967   -0.01320632  -30.82588355
     atom   24 type  1   force =    -0.06475196   -0.01275135  -30.82303001
     atom   25 type  1   force =     0.08054546    0.04338295  -30.85949198
     atom   26 type  1   force =     0.00163977   -0.07508270  -31.09693976
     atom   27 type  1   force =    -0.08198494    0.04379184  -30.83966168
     atom   28 type  1   force =     0.08335403    0.20593197  -92.48314628
     atom   29 type  1   force =    -0.07488840    0.18873329  -92.45261105
     atom   30 type  1   force =     0.00229614    0.00198584  -92.70808459
     atom   31 type  1   force =    -0.02401920   -0.97447331  -92.41071436
     atom   32 type  1   force =    -0.06347855   -0.04044771  -92.48977189
     atom   33 type  1   force =     0.07009152   -0.04128016  -92.48139350
     atom   34 type  1   force =    -0.02680878   -0.02011729  -92.67570390
     atom   35 type  1   force =     0.00020392   -0.02095577  -92.67499212
     atom   36 type  1   force =     0.02721290   -0.02515930  -92.67500179
     atom   37 type  2   force =     0.00587828    0.61490440  -12.05987285
     The core correction contribution to forces
     atom    1 type  1   force =    -0.00002253   -0.00001029    0.01726564
     atom    2 type  1   force =     0.00002217   -0.00001072    0.01726615
     atom    3 type  1   force =     0.00000056   -0.00010088    0.01753868
     atom    4 type  1   force =     0.00000060    0.00004347    0.01721906
     atom    5 type  1   force =     0.00002298   -0.00006908    0.01725121
     atom    6 type  1   force =    -0.00002191   -0.00006898    0.01725318
     atom    7 type  1   force =     0.00004709   -0.00004888    0.01721563
     atom    8 type  1   force =     0.00000135   -0.00000094    0.01724929
     atom    9 type  1   force =    -0.00004598   -0.00004854    0.01722083
     atom   10 type  1   force =     0.00000329   -0.00006278    0.00109216
     atom   11 type  1   force =    -0.00002157    0.00011195    0.00128463
     atom   12 type  1   force =     0.00001803    0.00011603    0.00127570
     atom   13 type  1   force =     0.00025796   -0.00006764    0.00099595
     atom   14 type  1   force =    -0.00000125    0.00001917    0.00140648
     atom   15 type  1   force =    -0.00025953   -0.00006550    0.00099037
     atom   16 type  1   force =    -0.00002241   -0.00000958    0.00134534
     atom   17 type  1   force =     0.00002552   -0.00000679    0.00135187
     atom   18 type  1   force =    -0.00000569    0.00050651    0.00059530
     atom   19 type  1   force =    -0.00026506    0.00007603   -0.00250245
     atom   20 type  1   force =     0.00026933    0.00007615   -0.00250784
     atom   21 type  1   force =     0.00000399    0.00021119   -0.00193206
     atom   22 type  1   force =     0.00000556   -0.00011210   -0.00169955
     atom   23 type  1   force =     0.00005933   -0.00001237   -0.00186248
     atom   24 type  1   force =    -0.00006421   -0.00001384   -0.00186363
     atom   25 type  1   force =     0.00035372    0.00013648   -0.00178013
     atom   26 type  1   force =     0.00000176   -0.00013119   -0.00220111
     atom   27 type  1   force =    -0.00035722    0.00013695   -0.00177756
     atom   28 type  1   force =     0.00007335    0.00055066   -0.01506622
     atom   29 type  1   force =     0.00000488    0.00045186   -0.01515271
     atom   30 type  1   force =    -0.00000785   -0.00010178   -0.01652046
     atom   31 type  1   force =    -0.00022179   -0.01124956   -0.00426274
     atom   32 type  1   force =     0.00057097    0.00004714   -0.01642543
     atom   33 type  1   force =    -0.00056766    0.00005782   -0.01641208
     atom   34 type  1   force =     0.00004883    0.00032340   -0.01680597
     atom   35 type  1   force =     0.00000447   -0.00040221   -0.01657675
     atom   36 type  1   force =    -0.00004969    0.00032243   -0.01680191
     atom   37 type  2   force =     0.00000000    0.00000000    0.00000000
     The Hubbard contrib.    to forces
     atom    1 type  1   force =     0.00000000    0.00000000    0.00000000
     atom    2 type  1   force =     0.00000000    0.00000000    0.00000000
     atom    3 type  1   force =     0.00000000    0.00000000    0.00000000
     atom    4 type  1   force =     0.00000000    0.00000000    0.00000000
     atom    5 type  1   force =     0.00000000    0.00000000    0.00000000
     atom    6 type  1   force =     0.00000000    0.00000000    0.00000000
     atom    7 type  1   force =     0.00000000    0.00000000    0.00000000
     atom    8 type  1   force =     0.00000000    0.00000000    0.00000000
     atom    9 type  1   force =     0.00000000    0.00000000    0.00000000
     atom   10 type  1   force =     0.00000000    0.00000000    0.00000000
     atom   11 type  1   force =     0.00000000    0.00000000    0.00000000
     atom   12 type  1   force =     0.00000000    0.00000000    0.00000000
     atom   13 type  1   force =     0.00000000    0.00000000    0.00000000
     atom   14 type  1   force =     0.00000000    0.00000000    0.00000000
     atom   15 type  1   force =     0.00000000    0.00000000    0.00000000
     atom   16 type  1   force =     0.00000000    0.00000000    0.00000000
     atom   17 type  1   force =     0.00000000    0.00000000    0.00000000
     atom   18 type  1   force =     0.00000000    0.00000000    0.00000000
     atom   19 type  1   force =     0.00000000    0.00000000    0.00000000
     atom   20 type  1   force =     0.00000000    0.00000000    0.00000000
     atom   21 type  1   force =     0.00000000    0.00000000    0.00000000
     atom   22 type  1   force =     0.00000000    0.00000000    0.00000000
     atom   23 type  1   force =     0.00000000    0.00000000    0.00000000
     atom   24 type  1   force =     0.00000000    0.00000000    0.00000000
     atom   25 type  1   force =     0.00000000    0.00000000    0.00000000
     atom   26 type  1   force =     0.00000000    0.00000000    0.00000000
     atom   27 type  1   force =     0.00000000    0.00000000    0.00000000
     atom   28 type  1   force =     0.00000000    0.00000000    0.00000000
     atom   29 type  1   force =     0.00000000    0.00000000    0.00000000
     atom   30 type  1   force =     0.00000000    0.00000000    0.00000000
     atom   31 type  1   force =     0.00000000    0.00000000    0.00000000
     atom   32 type  1   force =     0.00000000    0.00000000    0.00000000
     atom   33 type  1   force =     0.00000000    0.00000000    0.00000000
     atom   34 type  1   force =     0.00000000    0.00000000    0.00000000
     atom   35 type  1   force =     0.00000000    0.00000000    0.00000000
     atom   36 type  1   force =     0.00000000    0.00000000    0.00000000
     atom   37 type  2   force =     0.00000000    0.00000000    0.00000000
     The SCF correction term to forces
     atom    1 type  1   force =    -0.00000000   -0.00000000   -0.00000000
     atom    2 type  1   force =    -0.00000000   -0.00000000   -0.00000000
     atom    3 type  1   force =     0.00000000   -0.00000000   -0.00000000
     atom    4 type  1   force =     0.00000000   -0.00000000   -0.00000000
     atom    5 type  1   force =     0.00000000   -0.00000000   -0.00000000
     atom    6 type  1   force =    -0.00000000   -0.00000000   -0.00000000
     atom    7 type  1   force =     0.00000000    0.00000000   -0.00000000
     atom    8 type  1   force =    -0.00000000    0.00000000   -0.00000000
     atom    9 type  1   force =    -0.00000000    0.00000000   -0.00000000
     atom   10 type  1   force =     0.00000000   -0.00000000   -0.00000000
     atom   11 type  1   force =    -0.00000000   -0.00000000   -0.00000000
     atom   12 type  1   force =    -0.00000000   -0.00000000   -0.00000000
     atom   13 type  1   force =     0.00000000   -0.00000000   -0.00000000
     atom   14 type  1   force =    -0.00000000   -0.00000000   -0.00000000
     atom   15 type  1   force =     0.00000000   -0.00000000   -0.00000000
     atom   16 type  1   force =    -0.00000000    0.00000000   -0.00000000
     atom   17 type  1   force =    -0.00000000    0.00000000   -0.00000000
     atom   18 type  1   force =     0.00000000    0.00000000   -0.00000000
     atom   19 type  1   force =     0.00000968   -0.00001764   -0.00000263
     atom   20 type  1   force =     0.00000728   -0.00000567   -0.00000892
     atom   21 type  1   force =    -0.00001684   -0.00000887   -0.00001538
     atom   22 type  1   force =     0.00001960   -0.00000580   -0.00000735
     atom   23 type  1   force =    -0.00001066   -0.00000661   -0.00001362
     atom   24 type  1   force =    -0.00000903    0.00000070    0.00000076
     atom   25 type  1   force =     0.00000618    0.00000335   -0.00002080
     atom   26 type  1   force =    -0.00000229    0.00001534   -0.00000985
     atom   27 type  1   force =    -0.00000381    0.00002543   -0.00001310
     atom   28 type  1   force =     0.00001074    0.00000436    0.00002984
     atom   29 type  1   force =    -0.00000737    0.00001091    0.00002671
     atom   30 type  1   force =    -0.00000361    0.00000402    0.00002664
     atom   31 type  1   force =     0.00000676   -0.00001804    0.00002713
     atom   32 type  1   force =    -0.00000889   -0.00000720    0.00002119
     atom   33 type  1   force =     0.00000127   -0.00000359    0.00003458
     atom   34 type  1   force =     0.00000519   -0.00000048    0.00002893
     atom   35 type  1   force =    -0.00000071    0.00000642    0.00003452
     atom   36 type  1   force =    -0.00000447    0.00000421    0.00003919
     atom   37 type  2   force =     0.00000037   -0.00000085    0.00000101

     Total force =     0.000501     Total SCF correction =     0.000114
     SCF correction compared to forces is large: reduce conv_thr to get better values

     Writing all to output data dir ./pwscf.save/

     init_run     :     10.27s CPU     10.57s WALL (       1 calls)
     electrons    :    350.15s CPU    360.55s WALL (       1 calls)
     forces       :      3.40s CPU      4.05s WALL (       1 calls)

     Called by init_run:
     wfcinit      :      5.81s CPU      5.98s WALL (       1 calls)
     potinit      :      3.05s CPU      3.12s WALL (       1 calls)
     hinit0       :      0.85s CPU      0.86s WALL (       1 calls)

     Called by electrons:
     c_bands      :    297.36s CPU    303.35s WALL (      22 calls)
     sum_band     :     32.23s CPU     33.41s WALL (      22 calls)
     v_of_rho     :     10.58s CPU     12.53s WALL (      22 calls)
     newd         :      3.13s CPU      3.92s WALL (      22 calls)
     PAW_pot      :      4.64s CPU      4.89s WALL (      22 calls)
     mix_rho      :      4.20s CPU      4.27s WALL (      22 calls)
     vdW_kernel   :      1.70s CPU      1.71s WALL (       1 calls)

     Called by c_bands:
     init_us_2    :      3.16s CPU      3.29s WALL (     598 calls)
     init_us_2:cp :      3.15s CPU      3.29s WALL (     598 calls)
     cegterg      :    289.11s CPU    294.85s WALL (     286 calls)

     Called by *egterg:
     cdiaghg      :     77.83s CPU     78.76s WALL (    1398 calls)
     h_psi        :    134.98s CPU    137.56s WALL (    1424 calls)
     s_psi        :     16.21s CPU     16.49s WALL (    1424 calls)
     g_psi        :      0.54s CPU      0.55s WALL (    1125 calls)

     Called by h_psi:
     h_psi:calbec :     21.81s CPU     22.44s WALL (    1424 calls)
     vloc_psi     :     94.86s CPU     96.31s WALL (    1424 calls)
     add_vuspsi   :     17.04s CPU     17.51s WALL (    1424 calls)

     General routines
     calbec       :     30.05s CPU     30.82s WALL (    1762 calls)
     fft          :      6.82s CPU      8.83s WALL (    1446 calls)
     ffts         :      2.45s CPU      2.47s WALL (    5108 calls)
     fftw         :     90.94s CPU     92.21s WALL (  378670 calls)
     interpolate  :      0.60s CPU      0.64s WALL (      22 calls)

     Parallel routines

     PWSCF        :   6m 5.43s CPU   6m19.26s WALL


   This run was terminated on:  17: 3:40  23Feb2025            

=------------------------------------------------------------------------------=
   JOB DONE.
=------------------------------------------------------------------------------=
