  37  37   0   0
  0.4190497E+02  0.8468310E-09  0.8468310E-09  0.2496566E-08  0.5000000E-15
  1.000000000000000E-004
  CAR 
 unknown system                          
      8.63273483     -9.89538145  301     -0.07291705      1.00000000
     -9.895  0.0000E+00  0.0000E+00
     -9.834  0.0000E+00  0.0000E+00
     -9.772  0.0000E+00  0.0000E+00
     -9.710 -0.4434E-28 -0.2738E-29
     -9.648 -0.6567E-24 -0.4056E-25
     -9.587 -0.4505E-20 -0.2783E-21
     -9.525 -0.1430E-16 -0.8832E-18
     -9.463 -0.2030E-13 -0.1255E-14
     -9.401 -0.1359E-10 -0.8409E-12
     -9.340 -0.4162E-08 -0.2579E-09
     -9.278 -0.5779E-06 -0.3595E-07
     -9.216 -0.3585E-04 -0.2250E-05
     -9.154 -0.9639E-03 -0.6178E-04
     -9.092 -0.1040E-01 -0.7041E-03
     -9.031 -0.3354E-01 -0.2775E-02
     -8.969  0.5256E-01  0.4706E-03
     -8.907  0.3321E+00  0.2098E-01
     -8.845  0.6065E+00  0.5844E-01
     -8.784  0.2046E+01  0.1848E+00
     -8.722  0.3811E+01  0.4202E+00
     -8.660  0.2252E+01  0.5593E+00
     -8.598 -0.2113E-01  0.5580E+00
     -8.537  0.1757E+00  0.5688E+00
     -8.475  0.2542E+01  0.7258E+00
     -8.413  0.3805E+01  0.9608E+00
     -8.351  0.3537E+01  0.1179E+01
     -8.290  0.3753E+01  0.1411E+01
     -8.228  0.1915E+01  0.1529E+01
     -8.166  0.1960E-01  0.1530E+01
     -8.104 -0.3541E+00  0.1509E+01
     -8.043 -0.3021E+00  0.1490E+01
     -7.981  0.1964E+01  0.1611E+01
     -7.919  0.6580E+01  0.2018E+01
     -7.857  0.6161E+01  0.2398E+01
     -7.796  0.1560E+01  0.2495E+01
     -7.734  0.1325E+01  0.2576E+01
     -7.672  0.4291E+01  0.2841E+01
     -7.610  0.5362E+01  0.3172E+01
     -7.548  0.4142E+01  0.3428E+01
     -7.487  0.1306E+01  0.3509E+01
     -7.425  0.6713E+00  0.3550E+01
     -7.363  0.4226E+01  0.3811E+01
     -7.301  0.7420E+01  0.4270E+01
     -7.240  0.1010E+02  0.4893E+01
     -7.178  0.1132E+02  0.5592E+01
     -7.116  0.5382E+01  0.5924E+01
     -7.054  0.2651E+01  0.6088E+01
     -6.993  0.6376E+01  0.6482E+01
     -6.931  0.5859E+01  0.6844E+01
     -6.869  0.2461E+01  0.6996E+01
     -6.807  0.3408E+01  0.7206E+01
     -6.746  0.7211E+01  0.7652E+01
     -6.684  0.1026E+02  0.8285E+01
     -6.622  0.1223E+02  0.9041E+01
     -6.560  0.1507E+02  0.9972E+01
     -6.499  0.1286E+02  0.1077E+02
     -6.437  0.8694E+01  0.1130E+02
     -6.375  0.1068E+02  0.1196E+02
     -6.313  0.1134E+02  0.1266E+02
     -6.252  0.1158E+02  0.1338E+02
     -6.190  0.1877E+02  0.1454E+02
     -6.128  0.3076E+02  0.1644E+02
     -6.066  0.3688E+02  0.1871E+02
     -6.004  0.3234E+02  0.2071E+02
     -5.943  0.3005E+02  0.2257E+02
     -5.881  0.3279E+02  0.2459E+02
     -5.819  0.3441E+02  0.2672E+02
     -5.757  0.2944E+02  0.2854E+02
     -5.696  0.2799E+02  0.3026E+02
     -5.634  0.3481E+02  0.3241E+02
     -5.572  0.4065E+02  0.3493E+02
     -5.510  0.4315E+02  0.3759E+02
     -5.449  0.5208E+02  0.4081E+02
     -5.387  0.6354E+02  0.4473E+02
     -5.325  0.6314E+02  0.4863E+02
     -5.263  0.5312E+02  0.5191E+02
     -5.202  0.4540E+02  0.5471E+02
     -5.140  0.4353E+02  0.5740E+02
     -5.078  0.5220E+02  0.6063E+02
     -5.016  0.7107E+02  0.6502E+02
     -4.955  0.6055E+02  0.6876E+02
     -4.893  0.2948E+02  0.7058E+02
     -4.831  0.2455E+02  0.7209E+02
     -4.769  0.4172E+02  0.7467E+02
     -4.708  0.3908E+02  0.7708E+02
     -4.646  0.2293E+02  0.7850E+02
     -4.584  0.2530E+02  0.8006E+02
     -4.522  0.4177E+02  0.8264E+02
     -4.460  0.5793E+02  0.8622E+02
     -4.399  0.6202E+02  0.9005E+02
     -4.337  0.5227E+02  0.9328E+02
     -4.275  0.4297E+02  0.9593E+02
     -4.213  0.3899E+02  0.9834E+02
     -4.152  0.4856E+02  0.1013E+03
     -4.090  0.6315E+02  0.1052E+03
     -4.028  0.5861E+02  0.1089E+03
     -3.966  0.4794E+02  0.1118E+03
     -3.905  0.4420E+02  0.1145E+03
     -3.843  0.4120E+02  0.1171E+03
     -3.781  0.3577E+02  0.1193E+03
     -3.719  0.4355E+02  0.1220E+03
     -3.658  0.6113E+02  0.1258E+03
     -3.596  0.6133E+02  0.1296E+03
     -3.534  0.5433E+02  0.1329E+03
     -3.472  0.5698E+02  0.1364E+03
     -3.411  0.6955E+02  0.1407E+03
     -3.349  0.7633E+02  0.1454E+03
     -3.287  0.7105E+02  0.1498E+03
     -3.225  0.6543E+02  0.1539E+03
     -3.163  0.7411E+02  0.1584E+03
     -3.102  0.8926E+02  0.1640E+03
     -3.040  0.8440E+02  0.1692E+03
     -2.978  0.7753E+02  0.1740E+03
     -2.916  0.7859E+02  0.1788E+03
     -2.855  0.7500E+02  0.1834E+03
     -2.793  0.8674E+02  0.1888E+03
     -2.731  0.1042E+03  0.1952E+03
     -2.669  0.1026E+03  0.2016E+03
     -2.608  0.7964E+02  0.2065E+03
     -2.546  0.6085E+02  0.2102E+03
     -2.484  0.6402E+02  0.2142E+03
     -2.422  0.6081E+02  0.2180E+03
     -2.361  0.4272E+02  0.2206E+03
     -2.299  0.2758E+02  0.2223E+03
     -2.237  0.2511E+02  0.2239E+03
     -2.175  0.3224E+02  0.2258E+03
     -2.114  0.4524E+02  0.2286E+03
     -2.052  0.6633E+02  0.2327E+03
     -1.990  0.8822E+02  0.2382E+03
     -1.928  0.9211E+02  0.2439E+03
     -1.867  0.7909E+02  0.2488E+03
     -1.805  0.5768E+02  0.2523E+03
     -1.743  0.4296E+02  0.2550E+03
     -1.681  0.4306E+02  0.2576E+03
     -1.619  0.4926E+02  0.2607E+03
     -1.558  0.5740E+02  0.2642E+03
     -1.496  0.5682E+02  0.2677E+03
     -1.434  0.5348E+02  0.2710E+03
     -1.372  0.5963E+02  0.2747E+03
     -1.311  0.6001E+02  0.2784E+03
     -1.249  0.5050E+02  0.2815E+03
     -1.187  0.5570E+02  0.2850E+03
     -1.125  0.7586E+02  0.2897E+03
     -1.064  0.8641E+02  0.2950E+03
     -1.002  0.8465E+02  0.3002E+03
     -0.940  0.6882E+02  0.3045E+03
     -0.878  0.5652E+02  0.3080E+03
     -0.817  0.5667E+02  0.3115E+03
     -0.755  0.5047E+02  0.3146E+03
     -0.693  0.4216E+02  0.3172E+03
     -0.631  0.5200E+02  0.3204E+03
     -0.570  0.6377E+02  0.3243E+03
     -0.508  0.6046E+02  0.3281E+03
     -0.446  0.5970E+02  0.3318E+03
     -0.384  0.7078E+02  0.3361E+03
     -0.323  0.9004E+02  0.3417E+03
     -0.261  0.9363E+02  0.3475E+03
     -0.199  0.6823E+02  0.3517E+03
     -0.137  0.5769E+02  0.3553E+03
     -0.075  0.8883E+02  0.3607E+03
     -0.014  0.9342E+02  0.3665E+03
      0.048  0.5069E+02  0.3696E+03
      0.110  0.3372E+02  0.3717E+03
      0.172  0.5421E+02  0.3751E+03
      0.233  0.5461E+02  0.3784E+03
      0.295  0.4205E+02  0.3810E+03
      0.357  0.3741E+02  0.3833E+03
      0.419  0.2563E+02  0.3849E+03
      0.480  0.1192E+02  0.3857E+03
      0.542  0.3275E+01  0.3859E+03
      0.604  0.1737E+01  0.3860E+03
      0.666  0.5809E+01  0.3863E+03
      0.727  0.1265E+02  0.3871E+03
      0.789  0.1620E+02  0.3881E+03
      0.851  0.1094E+02  0.3888E+03
      0.913  0.7745E+01  0.3893E+03
      0.974  0.1137E+02  0.3900E+03
      1.036  0.8975E+01  0.3905E+03
      1.098  0.2103E+01  0.3907E+03
      1.160  0.4197E+01  0.3909E+03
      1.221  0.1211E+02  0.3917E+03
      1.283  0.1392E+02  0.3925E+03
      1.345  0.1193E+02  0.3933E+03
      1.407  0.1005E+02  0.3939E+03
      1.469  0.1526E+02  0.3948E+03
      1.530  0.2685E+02  0.3965E+03
      1.592  0.2524E+02  0.3980E+03
      1.654  0.1773E+02  0.3991E+03
      1.716  0.1554E+02  0.4001E+03
      1.777  0.9286E+01  0.4007E+03
      1.839  0.1562E+01  0.4008E+03
      1.901  0.2237E+01  0.4009E+03
      1.963  0.6459E+01  0.4013E+03
      2.024  0.7143E+01  0.4017E+03
      2.086  0.4773E+01  0.4020E+03
      2.148  0.4485E+01  0.4023E+03
      2.210  0.9019E+01  0.4029E+03
      2.271  0.1086E+02  0.4035E+03
      2.333  0.1103E+02  0.4042E+03
      2.395  0.1580E+02  0.4052E+03
      2.457  0.2177E+02  0.4065E+03
      2.518  0.2007E+02  0.4078E+03
      2.580  0.1043E+02  0.4084E+03
      2.642  0.5852E+01  0.4088E+03
      2.704  0.6879E+01  0.4092E+03
      2.765  0.1284E+02  0.4100E+03
      2.827  0.1989E+02  0.4112E+03
      2.889  0.1740E+02  0.4123E+03
      2.951  0.1114E+02  0.4130E+03
      3.013  0.7932E+01  0.4135E+03
      3.074  0.1230E+02  0.4142E+03
      3.136  0.1444E+02  0.4151E+03
      3.198  0.1089E+02  0.4158E+03
      3.260  0.9569E+01  0.4164E+03
      3.321  0.7466E+01  0.4169E+03
      3.383  0.2626E+01  0.4170E+03
      3.445  0.1773E+01  0.4171E+03
      3.507  0.6832E+01  0.4176E+03
      3.568  0.1252E+02  0.4183E+03
      3.630  0.1853E+02  0.4195E+03
      3.692  0.2378E+02  0.4209E+03
      3.754  0.2061E+02  0.4222E+03
      3.815  0.1117E+02  0.4229E+03
      3.877  0.4695E+01  0.4232E+03
      3.939  0.3281E+01  0.4234E+03
      4.001  0.3989E+01  0.4236E+03
      4.062  0.5646E+01  0.4240E+03
      4.124  0.8231E+01  0.4245E+03
      4.186  0.8291E+01  0.4250E+03
      4.248  0.5702E+01  0.4254E+03
      4.310  0.5172E+01  0.4257E+03
      4.371  0.1436E+02  0.4266E+03
      4.433  0.2543E+02  0.4281E+03
      4.495  0.1936E+02  0.4293E+03
      4.557  0.8625E+01  0.4299E+03
      4.618  0.8737E+01  0.4304E+03
      4.680  0.1220E+02  0.4312E+03
      4.742  0.1414E+02  0.4320E+03
      4.804  0.1141E+02  0.4327E+03
      4.865  0.6822E+01  0.4332E+03
      4.927  0.5829E+01  0.4335E+03
      4.989  0.9526E+01  0.4341E+03
      5.051  0.1102E+02  0.4348E+03
      5.112  0.7888E+01  0.4353E+03
      5.174  0.7481E+01  0.4357E+03
      5.236  0.1185E+02  0.4365E+03
      5.298  0.1601E+02  0.4375E+03
      5.359  0.1318E+02  0.4383E+03
      5.421  0.8944E+01  0.4388E+03
      5.483  0.1328E+02  0.4397E+03
      5.545  0.2115E+02  0.4410E+03
      5.606  0.2409E+02  0.4424E+03
      5.668  0.2351E+02  0.4439E+03
      5.730  0.2359E+02  0.4454E+03
      5.792  0.2132E+02  0.4467E+03
      5.854  0.1619E+02  0.4477E+03
      5.915  0.1524E+02  0.4486E+03
      5.977  0.2511E+02  0.4502E+03
      6.039  0.3519E+02  0.4523E+03
      6.101  0.2603E+02  0.4539E+03
      6.162  0.1176E+02  0.4547E+03
      6.224  0.1376E+02  0.4555E+03
      6.286  0.2353E+02  0.4570E+03
      6.348  0.2997E+02  0.4588E+03
      6.409  0.2503E+02  0.4604E+03
      6.471  0.1627E+02  0.4614E+03
      6.533  0.1642E+02  0.4624E+03
      6.595  0.2345E+02  0.4638E+03
      6.656  0.2631E+02  0.4655E+03
      6.718  0.2685E+02  0.4671E+03
      6.780  0.2559E+02  0.4687E+03
      6.842  0.1853E+02  0.4698E+03
      6.903  0.1565E+02  0.4708E+03
      6.965  0.1557E+02  0.4718E+03
      7.027  0.1334E+02  0.4726E+03
      7.089  0.1752E+02  0.4737E+03
      7.150  0.2338E+02  0.4751E+03
      7.212  0.2325E+02  0.4766E+03
      7.274  0.1785E+02  0.4777E+03
      7.336  0.9917E+01  0.4783E+03
      7.398  0.3600E+01  0.4785E+03
      7.459  0.2533E+01  0.4787E+03
      7.521  0.5046E+01  0.4790E+03
      7.583  0.7229E+01  0.4794E+03
      7.645  0.6942E+01  0.4798E+03
      7.706  0.2912E+01  0.4800E+03
      7.768 -0.2791E-02  0.4800E+03
      7.830 -0.2555E+00  0.4800E+03
      7.892 -0.5128E-01  0.4800E+03
      7.953 -0.3755E-02  0.4800E+03
      8.015 -0.1184E-03  0.4800E+03
      8.077 -0.1687E-05  0.4800E+03
      8.139 -0.1107E-07  0.4800E+03
      8.200 -0.3370E-10  0.4800E+03
      8.262 -0.4832E-13  0.4800E+03
      8.324  0.0000E+00  0.4800E+03
      8.386  0.0000E+00  0.4800E+03
      8.447  0.0000E+00  0.4800E+03
      8.509  0.0000E+00  0.4800E+03
      8.571  0.0000E+00  0.4800E+03
      8.633  0.0000E+00  0.4800E+03
