   37   37    1    1
  0.4190497E+02  0.8468310E-09  0.8468310E-09  0.2496566E-08  0.5000000E-15
  1.000000000000000E-004
  CAR 
 unknown system                          
    361     13    240
 
  0.1276756E-14  0.1276756E-14  0.1276756E-14  0.4000000E-01
      1         -8.895381   1.000000
      2         -7.720304   1.000000
      3         -6.920556   1.000000
      4         -6.499806   1.000000
      5         -6.466266   1.000000
      6         -6.461181   1.000000
      7         -6.453944   1.000000
      8         -6.441260   1.000000
      9         -6.437314   1.000000
     10         -6.431587   1.000000
     11         -6.079415   1.000000
     12         -5.917022   1.000000
     13         -5.912308   1.000000
     14         -5.909160   1.000000
     15         -5.907015   1.000000
     16         -5.900866   1.000000
     17         -5.805247   1.000000
     18         -5.471121   1.000000
     19         -5.461316   1.000000
     20         -5.451601   1.000000
     21         -5.448336   1.000000
     22         -5.441358   1.000000
     23         -5.352974   1.000000
     24         -5.231468   1.000000
     25         -5.225408   1.000000
     26         -5.224253   1.000000
     27         -5.220701   1.000000
     28         -5.218762   1.000000
     29         -5.123005   1.000000
     30         -5.032648   1.000000
     31         -5.027292   1.000000
     32         -5.021853   1.000000
     33         -5.018929   1.000000
     34         -5.008323   1.000000
     35         -4.972104   1.000000
     36         -4.960505   1.000000
     37         -4.956010   1.000000
     38         -4.951798   1.000000
     39         -4.919974   1.000000
     40         -4.913830   1.000000
     41         -4.633272   1.000000
     42         -4.380406   1.000000
     43         -4.376092   1.000000
     44         -4.356400   1.000000
     45         -4.342765   1.000000
     46         -4.323092   1.000000
     47         -4.314286   1.000000
     48         -4.297150   1.000000
     49         -4.293579   1.000000
     50         -4.289136   1.000000
     51         -4.136973   1.000000
     52         -4.134397   1.000000
     53         -4.084135   1.000000
     54         -4.039676   1.000000
     55         -4.020877   1.000000
     56         -3.586230   1.000000
     57         -3.578665   1.000000
     58         -3.567200   1.000000
     59         -3.559654   1.000000
     60         -3.556739   1.000000
     61         -3.496188   1.000000
     62         -3.484546   1.000000
     63         -3.383902   1.000000
     64         -3.372781   1.000000
     65         -3.371721   1.000000
     66         -3.367114   1.000000
     67         -3.363771   1.000000
     68         -3.357028   1.000000
     69         -3.351693   1.000000
     70         -3.318615   1.000000
     71         -3.307744   1.000000
     72         -3.304138   1.000000
     73         -3.303113   1.000000
     74         -3.299060   1.000000
     75         -3.261834   1.000000
     76         -3.260962   1.000000
     77         -3.250491   1.000000
     78         -3.152742   1.000000
     79         -3.150330   1.000000
     80         -3.147477   1.000000
     81         -3.138396   1.000000
     82         -3.133746   1.000000
     83         -3.129891   1.000000
     84         -2.938229   1.000000
     85         -2.935075   1.000000
     86         -2.927340   1.000000
     87         -2.917064   1.000000
     88         -2.909092   1.000000
     89         -2.906261   1.000000
     90         -2.901658   1.000000
     91         -2.898408   1.000000
     92         -2.835559   1.000000
     93         -2.822029   1.000000
     94         -2.765340   1.000000
     95         -2.756487   1.000000
     96         -2.746474   1.000000
     97         -2.728742   1.000000
     98         -2.718632   1.000000
     99         -2.691768   1.000000
    100         -2.686692   1.000000
    101         -2.633708   1.000000
    102         -2.522402   1.000000
    103         -2.519315   1.000000
    104         -2.518102   1.000000
    105         -2.503551   1.000000
    106         -2.499620   1.000000
    107         -2.495914   1.000000
    108         -2.248419   1.000000
    109         -2.028058   1.000000
    110         -1.999455   1.000000
    111         -1.997308   1.000000
    112         -1.988474   1.000000
    113         -1.986385   1.000000
    114         -1.983253   1.000000
    115         -1.982159   1.000000
    116         -1.971195   1.000000
    117         -1.955533   1.000000
    118         -1.951922   1.000000
    119         -1.947437   1.000000
    120         -1.869480   1.000000
    121         -1.861808   1.000000
    122         -1.807125   1.000000
    123         -1.734105   1.000000
    124         -1.729920   1.000000
    125         -1.721543   1.000000
    126         -1.713890   1.000000
    127         -1.708775   1.000000
    128         -1.595512   1.000000
    129         -1.587127   1.000000
    130         -1.536508   1.000000
    131         -1.534965   1.000000
    132         -1.512453   1.000000
    133         -1.499094   1.000000
    134         -1.306765   1.000000
    135         -1.277226   1.000000
    136         -1.267600   1.000000
    137         -1.260256   1.000000
    138         -1.248360   1.000000
    139         -1.246563   1.000000
    140         -1.186769   1.000000
    141         -1.174015   1.000000
    142         -1.082619   1.000000
    143         -1.034748   1.000000
    144         -1.030814   1.000000
    145         -1.022192   1.000000
    146         -1.019390   1.000000
    147         -1.018964   1.000000
    148         -0.934773   1.000000
    149         -0.876663   1.000000
    150         -0.862993   1.000000
    151         -0.840680   1.000000
    152         -0.830558   1.000000
    153         -0.824315   1.000000
    154         -0.819438   1.000000
    155         -0.813342   1.000000
    156         -0.804016   1.000000
    157         -0.803128   1.000000
    158         -0.797896   1.000000
    159         -0.794744   1.000000
    160         -0.730410   1.000000
    161         -0.714298   1.000000
    162         -0.683161   1.000000
    163         -0.677331   1.000000
    164         -0.660309   1.000000
    165         -0.654298   1.000000
    166         -0.647462   1.000000
    167         -0.640373   1.000000
    168         -0.601433   1.000000
    169         -0.592649   1.000000
    170         -0.572035   1.000000
    171         -0.557669   1.000000
    172         -0.550065   1.000000
    173         -0.542842   1.000000
    174         -0.535915   1.000000
    175         -0.535081   1.000000
    176         -0.455808   1.000000
    177         -0.444784   1.000001
    178         -0.439636   1.000001
    179         -0.436817   1.000002
    180         -0.430788   1.000003
    181         -0.426244   1.000003
    182         -0.405336   1.000014
    183         -0.345806   1.000392
    184         -0.332396   1.000750
    185         -0.319593   1.001342
    186         -0.319365   1.001355
    187         -0.311182   1.001925
    188         -0.303889   1.002597
    189         -0.111821   0.803235
    190         -0.105595   0.760858
    191         -0.019397   0.111183
    192         -0.010874   0.071028
    193         -0.003280   0.041398
    194          0.009056   0.005075
    195          0.009327   0.004433
    196          0.012717  -0.003090
    197          0.495319  -0.000000
    198          0.823497  -0.000000
    199          0.852259  -0.000000
    200          0.869696  -0.000000
    201          0.899700  -0.000000
    202          0.901772  -0.000000
    203          0.905539  -0.000000
    204          2.774915   0.000000
    205          3.142107   0.000000
    206          3.157020   0.000000
    207          3.208618   0.000000
    208          3.214190   0.000000
    209          3.223351   0.000000
    210          4.549530   0.000000
    211          4.737579   0.000000
    212          4.780796   0.000000
    213          4.817591   0.000000
    214          4.821712   0.000000
    215          4.824173   0.000000
    216          4.922589   0.000000
    217          5.046491   0.000000
    218          5.139131   0.000000
    219          5.466136   0.000000
    220          5.491637   0.000000
    221          5.794820   0.000000
    222          5.804353   0.000000
    223          5.849463   0.000000
    224          5.860891   0.000000
    225          5.868379   0.000000
    226          6.109238   0.000000
    227          6.399679   0.000000
    228          6.608729   0.000000
    229          6.614748   0.000000
    230          6.625706   0.000000
    231          6.820126   0.000000
    232          6.981273   0.000000
    233          7.138286   0.000000
    234          7.147122   0.000000
    235          7.164188   0.000000
    236          7.171019   0.000000
    237          7.171813   0.000000
    238          7.199956   0.000000
    239          7.286178   0.000000
    240          7.551385   0.000000
 
  0.2000000E+00  0.1278043E-14  0.1276756E-14  0.8000000E-01
      1         -8.747384   1.000000
      2         -7.586734   1.000000
      3         -7.000073   1.000000
      4         -6.794396   1.000000
      5         -6.561863   1.000000
      6         -6.548625   1.000000
      7         -6.357137   1.000000
      8         -6.270289   1.000000
      9         -6.223366   1.000000
     10         -6.213609   1.000000
     11         -6.104657   1.000000
     12         -6.002111   1.000000
     13         -5.918835   1.000000
     14         -5.843309   1.000000
     15         -5.838796   1.000000
     16         -5.830330   1.000000
     17         -5.744938   1.000000
     18         -5.535817   1.000000
     19         -5.419629   1.000000
     20         -5.413215   1.000000
     21         -5.410453   1.000000
     22         -5.369727   1.000000
     23         -5.334105   1.000000
     24         -5.304754   1.000000
     25         -5.275686   1.000000
     26         -5.245779   1.000000
     27         -5.221896   1.000000
     28         -5.212840   1.000000
     29         -5.141992   1.000000
     30         -5.114231   1.000000
     31         -5.110336   1.000000
     32         -5.034095   1.000000
     33         -5.017640   1.000000
     34         -5.009943   1.000000
     35         -5.005574   1.000000
     36         -4.859677   1.000000
     37         -4.810193   1.000000
     38         -4.783204   1.000000
     39         -4.774023   1.000000
     40         -4.754171   1.000000
     41         -4.611839   1.000000
     42         -4.499494   1.000000
     43         -4.493905   1.000000
     44         -4.454512   1.000000
     45         -4.419195   1.000000
     46         -4.410019   1.000000
     47         -4.389770   1.000000
     48         -4.299852   1.000000
     49         -4.214647   1.000000
     50         -4.143502   1.000000
     51         -4.126745   1.000000
     52         -4.116962   1.000000
     53         -4.072106   1.000000
     54         -4.052365   1.000000
     55         -3.991202   1.000000
     56         -3.832051   1.000000
     57         -3.737712   1.000000
     58         -3.728039   1.000000
     59         -3.680608   1.000000
     60         -3.663668   1.000000
     61         -3.637628   1.000000
     62         -3.583868   1.000000
     63         -3.565820   1.000000
     64         -3.554111   1.000000
     65         -3.527890   1.000000
     66         -3.523973   1.000000
     67         -3.458249   1.000000
     68         -3.444609   1.000000
     69         -3.403510   1.000000
     70         -3.373729   1.000000
     71         -3.363790   1.000000
     72         -3.324705   1.000000
     73         -3.269104   1.000000
     74         -3.262440   1.000000
     75         -3.255020   1.000000
     76         -3.181766   1.000000
     77         -3.178028   1.000000
     78         -3.151931   1.000000
     79         -3.131301   1.000000
     80         -3.092405   1.000000
     81         -3.077660   1.000000
     82         -3.068203   1.000000
     83         -3.031680   1.000000
     84         -3.005380   1.000000
     85         -2.966875   1.000000
     86         -2.949880   1.000000
     87         -2.938385   1.000000
     88         -2.934754   1.000000
     89         -2.914772   1.000000
     90         -2.906674   1.000000
     91         -2.860959   1.000000
     92         -2.822537   1.000000
     93         -2.802706   1.000000
     94         -2.788298   1.000000
     95         -2.777215   1.000000
     96         -2.764393   1.000000
     97         -2.756545   1.000000
     98         -2.724264   1.000000
     99         -2.698781   1.000000
    100         -2.683443   1.000000
    101         -2.611751   1.000000
    102         -2.554965   1.000000
    103         -2.545743   1.000000
    104         -2.525508   1.000000
    105         -2.512569   1.000000
    106         -2.500828   1.000000
    107         -2.498223   1.000000
    108         -2.488819   1.000000
    109         -2.448831   1.000000
    110         -2.433456   1.000000
    111         -2.424620   1.000000
    112         -2.415795   1.000000
    113         -2.192177   1.000000
    114         -2.082003   1.000000
    115         -2.041461   1.000000
    116         -2.004359   1.000000
    117         -1.996614   1.000000
    118         -1.986243   1.000000
    119         -1.982433   1.000000
    120         -1.950235   1.000000
    121         -1.937937   1.000000
    122         -1.895562   1.000000
    123         -1.809075   1.000000
    124         -1.782161   1.000000
    125         -1.710730   1.000000
    126         -1.659218   1.000000
    127         -1.649438   1.000000
    128         -1.600712   1.000000
    129         -1.592333   1.000000
    130         -1.576835   1.000000
    131         -1.539753   1.000000
    132         -1.530008   1.000000
    133         -1.523692   1.000000
    134         -1.441689   1.000000
    135         -1.401814   1.000000
    136         -1.394791   1.000000
    137         -1.382297   1.000000
    138         -1.375855   1.000000
    139         -1.249676   1.000000
    140         -1.192001   1.000000
    141         -1.172690   1.000000
    142         -1.160620   1.000000
    143         -1.149269   1.000000
    144         -1.140571   1.000000
    145         -1.125120   1.000000
    146         -1.064665   1.000000
    147         -1.036763   1.000000
    148         -1.009554   1.000000
    149         -0.989083   1.000000
    150         -0.979559   1.000000
    151         -0.938009   1.000000
    152         -0.913870   1.000000
    153         -0.908604   1.000000
    154         -0.898596   1.000000
    155         -0.830158   1.000000
    156         -0.794691   1.000000
    157         -0.767285   1.000000
    158         -0.757640   1.000000
    159         -0.720256   1.000000
    160         -0.666984   1.000000
    161         -0.647856   1.000000
    162         -0.617172   1.000000
    163         -0.602858   1.000000
    164         -0.593282   1.000000
    165         -0.562286   1.000000
    166         -0.540879   1.000000
    167         -0.482402   1.000000
    168         -0.469226   1.000000
    169         -0.409290   1.000011
    170         -0.403425   1.000015
    171         -0.389987   1.000035
    172         -0.376003   1.000079
    173         -0.356652   1.000225
    174         -0.348662   1.000340
    175         -0.344544   1.000418
    176         -0.334602   1.000676
    177         -0.328290   1.000908
    178         -0.271388   1.008397
    179         -0.266041   1.009920
    180         -0.125900   0.886038
    181         -0.119339   0.849820
    182         -0.104092   0.750147
    183         -0.083432   0.588441
    184         -0.068353   0.461422
    185         -0.066738   0.447822
    186         -0.036339   0.212215
    187         -0.015468   0.091762
    188         -0.004670   0.046397
    189          0.005868   0.013125
    190          0.085779  -0.023669
    191          0.108627  -0.013845
    192          0.130757  -0.007087
    193          0.180713  -0.000983
    194          0.295007  -0.000001
    195          0.304293  -0.000001
    196          0.314060  -0.000000
    197          0.358428  -0.000000
    198          0.692336  -0.000000
    199          0.746318  -0.000000
    200          1.244320  -0.000000
    201          1.461484  -0.000000
    202          1.484598  -0.000000
    203          1.605694  -0.000000
    204          2.370165  -0.000000
    205          2.818677   0.000000
    206          2.908106   0.000000
    207          3.515567   0.000000
    208          3.652386   0.000000
    209          3.675357   0.000000
    210          3.741513   0.000000
    211          3.957217   0.000000
    212          4.404488   0.000000
    213          4.607850   0.000000
    214          4.723393   0.000000
    215          4.955706   0.000000
    216          5.002895   0.000000
    217          5.019079   0.000000
    218          5.217124   0.000000
    219          5.268217   0.000000
    220          5.460587   0.000000
    221          5.618461   0.000000
    222          5.710822   0.000000
    223          5.824781   0.000000
    224          5.914493   0.000000
    225          6.061365   0.000000
    226          6.223196   0.000000
    227          6.225093   0.000000
    228          6.337991   0.000000
    229          6.350622   0.000000
    230          6.594529   0.000000
    231          6.698326   0.000000
    232          6.740116   0.000000
    233          6.797487   0.000000
    234          6.819443   0.000000
    235          6.929286   0.000000
    236          7.066069   0.000000
    237          7.235843   0.000000
    238          7.473451   0.000000
    239          7.594829   0.000000
    240          7.610029   0.000000
 
  0.2000000E+00  0.2000000E+00  0.1276756E-14  0.8000000E-01
      1         -8.747413   1.000000
      2         -7.586843   1.000000
      3         -6.999686   1.000000
      4         -6.796774   1.000000
      5         -6.561474   1.000000
      6         -6.546303   1.000000
      7         -6.357419   1.000000
      8         -6.272714   1.000000
      9         -6.220869   1.000000
     10         -6.213390   1.000000
     11         -6.104597   1.000000
     12         -6.001011   1.000000
     13         -5.919228   1.000000
     14         -5.844407   1.000000
     15         -5.840004   1.000000
     16         -5.831161   1.000000
     17         -5.744344   1.000000
     18         -5.534682   1.000000
     19         -5.419672   1.000000
     20         -5.412231   1.000000
     21         -5.409813   1.000000
     22         -5.370528   1.000000
     23         -5.334105   1.000000
     24         -5.307444   1.000000
     25         -5.275372   1.000000
     26         -5.244491   1.000000
     27         -5.222306   1.000000
     28         -5.214450   1.000000
     29         -5.142321   1.000000
     30         -5.113340   1.000000
     31         -5.109311   1.000000
     32         -5.036418   1.000000
     33         -5.018333   1.000000
     34         -5.009472   1.000000
     35         -5.005342   1.000000
     36         -4.859503   1.000000
     37         -4.810128   1.000000
     38         -4.781687   1.000000
     39         -4.775454   1.000000
     40         -4.751552   1.000000
     41         -4.612381   1.000000
     42         -4.498378   1.000000
     43         -4.492245   1.000000
     44         -4.454327   1.000000
     45         -4.419687   1.000000
     46         -4.409591   1.000000
     47         -4.389471   1.000000
     48         -4.301362   1.000000
     49         -4.213283   1.000000
     50         -4.144890   1.000000
     51         -4.126039   1.000000
     52         -4.117418   1.000000
     53         -4.072421   1.000000
     54         -4.053076   1.000000
     55         -3.990134   1.000000
     56         -3.829444   1.000000
     57         -3.737743   1.000000
     58         -3.728946   1.000000
     59         -3.678509   1.000000
     60         -3.661478   1.000000
     61         -3.636147   1.000000
     62         -3.580394   1.000000
     63         -3.569168   1.000000
     64         -3.555859   1.000000
     65         -3.529049   1.000000
     66         -3.524745   1.000000
     67         -3.457643   1.000000
     68         -3.444725   1.000000
     69         -3.399491   1.000000
     70         -3.373528   1.000000
     71         -3.361536   1.000000
     72         -3.325076   1.000000
     73         -3.274171   1.000000
     74         -3.265903   1.000000
     75         -3.260889   1.000000
     76         -3.182732   1.000000
     77         -3.175114   1.000000
     78         -3.152226   1.000000
     79         -3.131585   1.000000
     80         -3.090481   1.000000
     81         -3.070761   1.000000
     82         -3.067153   1.000000
     83         -3.036404   1.000000
     84         -3.004839   1.000000
     85         -2.967073   1.000000
     86         -2.948928   1.000000
     87         -2.938535   1.000000
     88         -2.935307   1.000000
     89         -2.914164   1.000000
     90         -2.907353   1.000000
     91         -2.861076   1.000000
     92         -2.823006   1.000000
     93         -2.802242   1.000000
     94         -2.788965   1.000000
     95         -2.775581   1.000000
     96         -2.763775   1.000000
     97         -2.758114   1.000000
     98         -2.724848   1.000000
     99         -2.699693   1.000000
    100         -2.685298   1.000000
    101         -2.611985   1.000000
    102         -2.554937   1.000000
    103         -2.545353   1.000000
    104         -2.526360   1.000000
    105         -2.515399   1.000000
    106         -2.500750   1.000000
    107         -2.497778   1.000000
    108         -2.488278   1.000000
    109         -2.444571   1.000000
    110         -2.431536   1.000000
    111         -2.426076   1.000000
    112         -2.418761   1.000000
    113         -2.188757   1.000000
    114         -2.080144   1.000000
    115         -2.043476   1.000000
    116         -2.002415   1.000000
    117         -1.998969   1.000000
    118         -1.987525   1.000000
    119         -1.983697   1.000000
    120         -1.949654   1.000000
    121         -1.938664   1.000000
    122         -1.895555   1.000000
    123         -1.809053   1.000000
    124         -1.783713   1.000000
    125         -1.711684   1.000000
    126         -1.661156   1.000000
    127         -1.651350   1.000000
    128         -1.599405   1.000000
    129         -1.587707   1.000000
    130         -1.581224   1.000000
    131         -1.541592   1.000000
    132         -1.530219   1.000000
    133         -1.524991   1.000000
    134         -1.443757   1.000000
    135         -1.400088   1.000000
    136         -1.392785   1.000000
    137         -1.379786   1.000000
    138         -1.378012   1.000000
    139         -1.249738   1.000000
    140         -1.192200   1.000000
    141         -1.174527   1.000000
    142         -1.159494   1.000000
    143         -1.150318   1.000000
    144         -1.139536   1.000000
    145         -1.126397   1.000000
    146         -1.062473   1.000000
    147         -1.036072   1.000000
    148         -1.008102   1.000000
    149         -0.989167   1.000000
    150         -0.979207   1.000000
    151         -0.938105   1.000000
    152         -0.912066   1.000000
    153         -0.906600   1.000000
    154         -0.901279   1.000000
    155         -0.828933   1.000000
    156         -0.795391   1.000000
    157         -0.767373   1.000000
    158         -0.756907   1.000000
    159         -0.719038   1.000000
    160         -0.667847   1.000000
    161         -0.648100   1.000000
    162         -0.617840   1.000000
    163         -0.603335   1.000000
    164         -0.595537   1.000000
    165         -0.565762   1.000000
    166         -0.541984   1.000000
    167         -0.482097   1.000000
    168         -0.468800   1.000000
    169         -0.408420   1.000011
    170         -0.403208   1.000016
    171         -0.392111   1.000031
    172         -0.375396   1.000081
    173         -0.354562   1.000251
    174         -0.348621   1.000340
    175         -0.344134   1.000426
    176         -0.336461   1.000619
    177         -0.327089   1.000959
    178         -0.273545   1.007834
    179         -0.268576   1.009175
    180         -0.127148   0.892447
    181         -0.121770   0.863731
    182         -0.101244   0.729394
    183         -0.082305   0.579065
    184         -0.068112   0.459391
    185         -0.064377   0.428021
    186         -0.035525   0.206753
    187         -0.013652   0.083312
    188         -0.001814   0.036335
    189          0.008802   0.005685
    190          0.084996  -0.024032
    191          0.109089  -0.013672
    192          0.129986  -0.007271
    193          0.180591  -0.000989
    194          0.295100  -0.000001
    195          0.306675  -0.000001
    196          0.313704  -0.000000
    197          0.355154  -0.000000
    198          0.696256  -0.000000
    199          0.749791  -0.000000
    200          1.242910  -0.000000
    201          1.461255  -0.000000
    202          1.483676  -0.000000
    203          1.603983  -0.000000
    204          2.367133  -0.000000
    205          2.822030   0.000000
    206          2.910300   0.000000
    207          3.516120   0.000000
    208          3.652738   0.000000
    209          3.673031   0.000000
    210          3.741258   0.000000
    211          3.958244   0.000000
    212          4.402605   0.000000
    213          4.607401   0.000000
    214          4.719903   0.000000
    215          4.956864   0.000000
    216          5.003452   0.000000
    217          5.018785   0.000000
    218          5.216582   0.000000
    219          5.269410   0.000000
    220          5.463277   0.000000
    221          5.616872   0.000000
    222          5.709892   0.000000
    223          5.825920   0.000000
    224          5.916696   0.000000
    225          6.062611   0.000000
    226          6.222762   0.000000
    227          6.224684   0.000000
    228          6.339742   0.000000
    229          6.352745   0.000000
    230          6.595103   0.000000
    231          6.698512   0.000000
    232          6.739295   0.000000
    233          6.796714   0.000000
    234          6.820060   0.000000
    235          6.929399   0.000000
    236          7.065611   0.000000
    237          7.231267   0.000000
    238          7.471904   0.000000
    239          7.592132   0.000000
    240          7.610380   0.000000
 
  0.1276756E-14  0.2000000E+00  0.1276756E-14  0.8000000E-01
      1         -8.746832   1.000000
      2         -7.582525   1.000000
      3         -6.969734   1.000000
      4         -6.834092   1.000000
      5         -6.562690   1.000000
      6         -6.537098   1.000000
      7         -6.356908   1.000000
      8         -6.265367   1.000000
      9         -6.228581   1.000000
     10         -6.215517   1.000000
     11         -6.079379   1.000000
     12         -5.999956   1.000000
     13         -5.966799   1.000000
     14         -5.845570   1.000000
     15         -5.841994   1.000000
     16         -5.826656   1.000000
     17         -5.717329   1.000000
     18         -5.535298   1.000000
     19         -5.419863   1.000000
     20         -5.417827   1.000000
     21         -5.408969   1.000000
     22         -5.387200   1.000000
     23         -5.336921   1.000000
     24         -5.302865   1.000000
     25         -5.278226   1.000000
     26         -5.226884   1.000000
     27         -5.218666   1.000000
     28         -5.215953   1.000000
     29         -5.160672   1.000000
     30         -5.118865   1.000000
     31         -5.104816   1.000000
     32         -5.034716   1.000000
     33         -5.022823   1.000000
     34         -5.009232   1.000000
     35         -5.007795   1.000000
     36         -4.868052   1.000000
     37         -4.811432   1.000000
     38         -4.781206   1.000000
     39         -4.771451   1.000000
     40         -4.757116   1.000000
     41         -4.618611   1.000000
     42         -4.498710   1.000000
     43         -4.495457   1.000000
     44         -4.435998   1.000000
     45         -4.420778   1.000000
     46         -4.402730   1.000000
     47         -4.386597   1.000000
     48         -4.293255   1.000000
     49         -4.210558   1.000000
     50         -4.161707   1.000000
     51         -4.125152   1.000000
     52         -4.120963   1.000000
     53         -4.069119   1.000000
     54         -4.048013   1.000000
     55         -4.007329   1.000000
     56         -3.834366   1.000000
     57         -3.735637   1.000000
     58         -3.732125   1.000000
     59         -3.683598   1.000000
     60         -3.668391   1.000000
     61         -3.633038   1.000000
     62         -3.585974   1.000000
     63         -3.563292   1.000000
     64         -3.556613   1.000000
     65         -3.525506   1.000000
     66         -3.524526   1.000000
     67         -3.450926   1.000000
     68         -3.443354   1.000000
     69         -3.403070   1.000000
     70         -3.367650   1.000000
     71         -3.360942   1.000000
     72         -3.320396   1.000000
     73         -3.271103   1.000000
     74         -3.259125   1.000000
     75         -3.256701   1.000000
     76         -3.181908   1.000000
     77         -3.177234   1.000000
     78         -3.160545   1.000000