unknown system                          
           1
     8.468310    0.000000    0.000000
     4.234155    7.333772    0.000000
     0.000000    0.000000   24.965662
   Pt   H 
    36     1
Direct configuration=     1
   0.00000000  0.00000000  0.34046764
   0.33400137  0.00000000  0.34046764
   0.66800274  0.00000000  0.34046764
   0.00000000  0.33400137  0.34046764
   0.33400137  0.33400137  0.34046764
   0.66800274  0.33400137  0.34046764
   0.00000000  0.66800274  0.34046764
   0.33400137  0.66800274  0.34046764
   0.66800274  0.66800274  0.34046764
   0.11133379  0.11133379  0.43297074
   0.44533516  0.11133379  0.43297074
   0.77933653  0.11133379  0.43297074
   0.11133379  0.44533516  0.43297074
   0.44533516  0.44533516  0.43297074
   0.77933653  0.44533516  0.43297074
   0.11133379  0.77933653  0.43297074
   0.44533516  0.77933653  0.43297074
   0.77933653  0.77933653  0.43297074
   0.89039085  0.22339450  0.52515264
   0.22307709  0.22331506  0.52507595
   0.55681303  0.22312150  0.52415784
   0.89103649  0.55509746  0.52528036
   0.22331146  0.55682514  0.52423967
   0.55659853  0.55686284  0.52419711
   0.89058762  0.89045962  0.52482746
   0.22304852  0.89077540  0.52507654
   0.55617771  0.89029654  0.52467086
   0.99965280  0.99989262  0.61923748
   0.33753932  0.99991156  0.61907106
   0.66751488  0.00200562  0.61786561
   0.99803576  0.34111386  0.61999972
   0.33600675  0.33561948  0.61750327
   0.66552464  0.33557517  0.61744161
   0.00131930  0.66945974  0.61774694
   0.33482959  0.66733904  0.61753567
   0.66638043  0.66948641  0.61767418
   0.08575907  0.16535005  0.66280555
