
     Program PWSCF v.7.1 starts on 14Dec2025 at  9:13: 4 
        Git branch: heads/qe-7.1
        Last git commit: 48ba0178f8fede6d020eb786884699a9f063f55d-dirty
        Last git commit date: Fri Jan 27 14:22:33 2023 +0000
        Last git commit subject: Merge branch 'fix_hubbard' into 'develop'

     This program is part of the open-source Quantum ESPRESSO suite
     for quantum simulation of materials; please cite
         "P. Giannozzi et al., J. Phys.:Condens. Matter 21 395502 (2009);
         "P. Giannozzi et al., J. Phys.:Condens. Matter 29 465901 (2017);
         "P. Giannozzi et al., J. Chem. Phys. 152 154105 (2020);
          URL http://www.quantum-espresso.org", 
     in publications or presentations arising from this work. More details at
     http://www.quantum-espresso.org/quote

     Parallel version (MPI), running on    96 processors

     MPI processes distributed on     2 nodes
     29813 MiB available memory on the printing compute node when the environment starts

     Reading input from espresso.pwi
Warning: card &CELL ignored
Warning: card / ignored
Warning: card &FCP ignored
Warning: card / ignored
Warning: card &RISM ignored
Warning: card / ignored

     Current dimensions of program PWSCF are:
     Max number of different atomic species (ntypx) = 10
     Max number of k-points (npk) =  40000
     Max angular momentum in pseudopotentials (lmaxx) =  4
     file Co.pbe-n-kjpaw_psl.1.0.0.UPF: wavefunction(s)  4S 3D renormalized
     file C.pbe-n-kjpaw_psl.1.0.0.UPF: wavefunction(s)  2S 2P renormalized
     file O.pbe-nl-kjpaw_psl.1.0.0.UPF: wavefunction(s)  2S 2P renormalized
     file H.pbe-kjpaw_psl.1.0.0.UPF: wavefunction(s)  1S renormalized

     **************************************************************************
     Initializing libbeef V0.1.2 with the BEEF-vdW functional.
     Citation: Wellendorff et al., PRB 85, 235149 (2012).
     **************************************************************************


     IMPORTANT: XC functional enforced from input :
     Exchange-correlation= BEEF-VDW
                           (   1   4  43  14   2   0   0)
     Any further DFT definition will be discarded
     Please, verify this is what you really want


     R & G space division:  proc/nbgrp/npool/nimage =      96
     Subspace diagonalization in iterative solution of the eigenvalue problem:
     one sub-group per band group will be used
     custom distributed-memory algorithm (size of sub-group:  2*  2 procs)


     Parallelization info
     --------------------
     sticks:   dense  smooth     PW     G-vecs:    dense   smooth      PW
     Min          43      28      7                 7829     4248     595
     Max          44      29      8                 7845     4281     630
     Sum        4153    2773    757               752179   409445   59217

     Using Slab Decomposition



     bravais-lattice index     =            0
     lattice parameter (alat)  =      14.1729  a.u.
     unit-cell volume          =    8574.3059 (a.u.)^3
     number of atoms/cell      =           39
     number of atomic types    =            4
     number of electrons       =       335.00
     number of Kohn-Sham states=          202
     kinetic-energy cutoff     =      50.0000  Ry
     charge density cutoff     =     300.0000  Ry
     scf convergence threshold =      1.0E-08
     mixing beta               =       0.7000
     number of iterations used =            8  local-TF  mixing
     Exchange-correlation= BEEF-VDW
                           (   1   4  43  14   2   0   0)

     celldm(1)=  14.172946  celldm(2)=   0.000000  celldm(3)=   0.000000
     celldm(4)=   0.000000  celldm(5)=   0.000000  celldm(6)=   0.000000

     crystal axes: (cart. coord. in units of alat)
               a(1) = (   1.000000   0.000000   0.000000 )  
               a(2) = (   0.500000   0.866025   0.000000 )  
               a(3) = (   0.000000   0.000000   3.477667 )  

     reciprocal axes: (cart. coord. in units 2 pi/alat)
               b(1) = (  1.000000 -0.577350  0.000000 )  
               b(2) = (  0.000000  1.154701  0.000000 )  
               b(3) = (  0.000000  0.000000  0.287549 )  


     PseudoPot. # 1 for Co read from file:
     /users/kbadger1/espresso/pseudo/pslibrary.1.0.0/pbe/PSEUDOPOTENTIALS/Co.pbe-n-kjpaw_psl.1.0.0.UPF
     MD5 check sum: 88af6ec42553d4236c267fdfcb472151
     Pseudo is Projector augmented-wave + core cor, Zval =  9.0
     Generated using 'atomic' code by A. Dal Corso  v.7.0
     Shape of augmentation charge: PSQ
     Using radial grid of 1193 points,  6 beta functions with: 
                l(1) =   0
                l(2) =   0
                l(3) =   1
                l(4) =   1
                l(5) =   2
                l(6) =   2
     Q(r) pseudized with 0 coefficients 


     PseudoPot. # 2 for C  read from file:
     /users/kbadger1/espresso/pseudo/pslibrary.1.0.0/pbe/PSEUDOPOTENTIALS/C.pbe-n-kjpaw_psl.1.0.0.UPF
     MD5 check sum: 6408e75cdba28732cea38a4db8498ce4
     Pseudo is Projector augmented-wave + core cor, Zval =  4.0
     Generated using 'atomic' code by A. Dal Corso  v.7.0
     Shape of augmentation charge: PSQ
     Using radial grid of 1073 points,  4 beta functions with: 
                l(1) =   0
                l(2) =   0
                l(3) =   1
                l(4) =   1
     Q(r) pseudized with 0 coefficients 


     PseudoPot. # 3 for O  read from file:
     /users/kbadger1/espresso/pseudo/pslibrary.1.0.0/pbe/PSEUDOPOTENTIALS/O.pbe-nl-kjpaw_psl.1.0.0.UPF
     MD5 check sum: f0439fab3598ca4e468f064226030408
     Pseudo is Projector augmented-wave + core cor, Zval =  6.0
     Generated using 'atomic' code by A. Dal Corso  v.7.0
     Shape of augmentation charge: PSQ
     Using radial grid of 1095 points,  4 beta functions with: 
                l(1) =   0
                l(2) =   0
                l(3) =   1
                l(4) =   1
     Q(r) pseudized with 0 coefficients 


     PseudoPot. # 4 for H  read from file:
     /users/kbadger1/espresso/pseudo/pslibrary.1.0.0/pbe/PSEUDOPOTENTIALS/H.pbe-kjpaw_psl.1.0.0.UPF
     MD5 check sum: fe4c6fa958fa6d3815bf5d2419cbf1df
     Pseudo is Projector augmented-wave, Zval =  1.0
     Generated using 'atomic' code by A. Dal Corso  v.7.0
     Shape of augmentation charge: PSQ
     Using radial grid of  929 points,  2 beta functions with: 
                l(1) =   0
                l(2) =   0
     Q(r) pseudized with 0 coefficients 


     atomic species   valence    mass     pseudopotential
        Co             9.00    58.93319     Co( 1.00)
        C              4.00    12.01100     C ( 1.00)
        O              6.00    15.99900     O ( 1.00)
        H              1.00     1.00800     H ( 1.00)

     Starting magnetic structure 
     atomic species   magnetization
        Co           1.000
        C            1.000
        O            0.000
        H            0.000

     No symmetry found



   Cartesian axes

     site n.     atom                  positions (alat units)
         1           Co  tau(   1) = (   0.0000000   0.1924501   1.3333333  )
         2           Co  tau(   2) = (   0.3333333   0.1924501   1.3333333  )
         3           Co  tau(   3) = (   0.6666667   0.1924501   1.3333333  )
         4           Co  tau(   4) = (   0.1666667   0.4811252   1.3333333  )
         5           Co  tau(   5) = (   0.5000000   0.4811252   1.3333333  )
         6           Co  tau(   6) = (   0.8333333   0.4811252   1.3333333  )
         7           Co  tau(   7) = (   0.3333333   0.7698004   1.3333333  )
         8           Co  tau(   8) = (   0.6666667   0.7698004   1.3333333  )
         9           Co  tau(   9) = (   1.0000000   0.7698004   1.3333333  )
        10           Co  tau(  10) = (   0.0000000   0.0000000   1.6036667  )
        11           Co  tau(  11) = (   0.3333333   0.0000000   1.6036667  )
        12           Co  tau(  12) = (   0.6666667   0.0000000   1.6036667  )
        13           Co  tau(  13) = (   0.1666667   0.2886751   1.6036667  )
        14           Co  tau(  14) = (   0.5000000   0.2886751   1.6036667  )
        15           Co  tau(  15) = (   0.8333333   0.2886751   1.6036667  )
        16           Co  tau(  16) = (   0.3333333   0.5773503   1.6036667  )
        17           Co  tau(  17) = (   0.6666667   0.5773503   1.6036667  )
        18           Co  tau(  18) = (   1.0000000   0.5773503   1.6036667  )
        19           Co  tau(  19) = (   0.0000000   0.1924501   1.8740000  )
        20           Co  tau(  20) = (   0.3333333   0.1924501   1.8740000  )
        21           Co  tau(  21) = (   0.6666667   0.1924501   1.8740000  )
        22           Co  tau(  22) = (   0.1666667   0.4811252   1.8740000  )
        23           Co  tau(  23) = (   0.5000000   0.4811252   1.8740000  )
        24           Co  tau(  24) = (   0.8333333   0.4811252   1.8740000  )
        25           Co  tau(  25) = (   0.3333333   0.7698004   1.8740000  )
        26           Co  tau(  26) = (   0.6666667   0.7698004   1.8740000  )
        27           Co  tau(  27) = (   1.0000000   0.7698004   1.8740000  )
        28           Co  tau(  28) = (   0.0000000   0.0000000   2.1443333  )
        29           Co  tau(  29) = (   0.3333333   0.0000000   2.1443333  )
        30           Co  tau(  30) = (   0.6666667   0.0000000   2.1443333  )
        31           Co  tau(  31) = (   0.1666667   0.2886751   2.1443333  )
        32           Co  tau(  32) = (   0.5000000   0.2886751   2.1443333  )
        33           Co  tau(  33) = (   0.8333333   0.2886751   2.1443333  )
        34           Co  tau(  34) = (   0.3333333   0.5773503   2.1443333  )
        35           Co  tau(  35) = (   0.6666667   0.5773503   2.1443333  )
        36           Co  tau(  36) = (   1.0000000   0.5773503   2.1443333  )
        37           C   tau(  37) = (   0.1617543   0.0208312   2.3410084  )
        38           O   tau(  38) = (   0.1603486   0.0298626   2.4988347  )
        39           H   tau(  39) = (   0.4940710   0.0568110   2.2810214  )

     number of k points=    13  Marzari-Vanderbilt smearing, width (Ry)=  0.0010
                       cart. coord. in units 2pi/alat
        k(    1) = (   0.0000000   0.0000000   0.0000000), wk =   0.0400000
        k(    2) = (   0.0000000   0.2309401   0.0000000), wk =   0.0800000
        k(    3) = (   0.0000000   0.4618802   0.0000000), wk =   0.0800000
        k(    4) = (   0.2000000  -0.1154701   0.0000000), wk =   0.0800000
        k(    5) = (   0.2000000   0.1154701   0.0000000), wk =   0.0800000
        k(    6) = (   0.2000000   0.3464102   0.0000000), wk =   0.0800000
        k(    7) = (   0.2000000  -0.5773503   0.0000000), wk =   0.0800000
        k(    8) = (   0.2000000  -0.3464102   0.0000000), wk =   0.0800000
        k(    9) = (   0.4000000  -0.2309401   0.0000000), wk =   0.0800000
        k(   10) = (   0.4000000   0.0000000   0.0000000), wk =   0.0800000
        k(   11) = (   0.4000000   0.2309401   0.0000000), wk =   0.0800000
        k(   12) = (   0.4000000  -0.6928203   0.0000000), wk =   0.0800000
        k(   13) = (   0.4000000  -0.4618802   0.0000000), wk =   0.0800000

     Dense  grid:   752179 G-vectors     FFT dimensions: (  80,  80, 288)

     Smooth grid:   409445 G-vectors     FFT dimensions: (  64,  64, 225)

     Estimated max dynamical RAM per process >      99.02 MB

     Estimated total dynamical RAM >       9.28 GB
     Generating pointlists ...
     new r_m :   0.0901 (alat units)  1.2775 (a.u.) for type    1
     new r_m :   0.0652 (alat units)  0.9243 (a.u.) for type    2
     new r_m :   0.0652 (alat units)  0.9243 (a.u.) for type    3
     new r_m :   0.0901 (alat units)  1.2775 (a.u.) for type    4

     Initial potential from superposition of free atoms

     starting charge     334.9897, renormalised to     335.0000

     negative rho (up, down):  3.044E-03 4.492E-04


     %%%%%%%%%%%%%%%%%%%%%%%%%%%%%%%%%%%%%%%%%%%%%%%%%%%%%%%%%%%%%%%%%%%%%%%%
     %                                                                      %
     % You are using vdW-DF, which was implemented by the Thonhauser group. %
     % Please cite the following two papers that made this development      %
     % possible and the two reviews that describe the various versions:     %
     %                                                                      %
     %   T. Thonhauser et al., PRL 115, 136402 (2015).                      %
     %   T. Thonhauser et al., PRB 76, 125112 (2007).                       %
     %   K. Berland et al., Rep. Prog. Phys. 78, 066501 (2015).             %
     %   D.C. Langreth et al., J. Phys.: Condens. Matter 21, 084203 (2009). %
     %                                                                      %
     % If you are calculating stress with vdW-DF, please also cite:         %
     %                                                                      %
     %   R. Sabatini et al., J. Phys.: Condens. Matter 24, 424209 (2012).   %
     %   C.M. Frostenson et al., Electr. Struct. 4, 014001 (2022).          %
     %                                                                      %
     %%%%%%%%%%%%%%%%%%%%%%%%%%%%%%%%%%%%%%%%%%%%%%%%%%%%%%%%%%%%%%%%%%%%%%%%

     %%%%%%%%%%%%%%%%%%%%%%%%%%%%%%%%%%%%%%%%%%%%%%%%%%%%%%%%%%%%%%%%%%%%%%%%
     %                                                                      %
     %  vdW-DF NEWS:                                                        %
     %                                                                      %
     %  * vdW-DF3 is now available. DOI: 10.1021/acs.jctc.0c00471           %
     %    use with input_dft = 'vdW-DF3-opt1' or 'vdW-DF3-opt2'             %
     %                                                                      %
     %  * Unscreened and range-separated hybrid vdW-DF-cx functionals       %
     %    DOI: 10.1063/1.4986522 and 10.1088/1361-648X/ac2ad2               %
     %    use with input_dft = 'vdW-DF-cx0'    and 'vdW-DF-ahcx'            %
     %  * Unscreened and range-separated hybrid vdW-DF2-b86r functionals    %
     %    DOI: 10.1063/1.4986522 and DOI: 10.1103/PhysRevX.12.041003        %
     %    use with input_dft = 'vdW-DF2-br0' and 'vdW-DF2-ahbr'             %
     %                                                                      %
     %%%%%%%%%%%%%%%%%%%%%%%%%%%%%%%%%%%%%%%%%%%%%%%%%%%%%%%%%%%%%%%%%%%%%%%%


     Starting wfcs are  333 randomized atomic wfcs
     Checking if some PAW data can be deallocated... 

     total cpu time spent up to now is       12.5 secs

     per-process dynamical memory:   231.0 Mb

     Self-consistent Calculation

     iteration #  1     ecut=    50.00 Ry     beta= 0.70
     Davidson diagonalization with overlap
     ethr =  1.00E-02,  avg # of iterations =  2.0

     negative rho (up, down):  3.408E-05 8.832E-08

     total cpu time spent up to now is       35.6 secs

     total energy              =   -6053.12344352 Ry
     estimated scf accuracy    <      39.14868021 Ry

     total magnetization       =    69.00 Bohr mag/cell
     absolute magnetization    =    81.18 Bohr mag/cell

     iteration #  2     ecut=    50.00 Ry     beta= 0.70
     Davidson diagonalization with overlap
     ethr =  1.00E-02,  avg # of iterations =  1.0

     negative rho (up, down):  5.200E-06 4.148E-08

     total cpu time spent up to now is       50.0 secs

     total energy              =   -6052.69304377 Ry
     estimated scf accuracy    <      24.16996569 Ry

     total magnetization       =    69.00 Bohr mag/cell
     absolute magnetization    =    76.76 Bohr mag/cell

     iteration #  3     ecut=    50.00 Ry     beta= 0.70
     Davidson diagonalization with overlap
     ethr =  7.21E-03,  avg # of iterations =  1.5

     negative rho (up, down):  4.655E-08 0.000E+00

     total cpu time spent up to now is       68.2 secs

     total energy              =   -6055.17800535 Ry
     estimated scf accuracy    <      86.62022653 Ry

     total magnetization       =    66.12 Bohr mag/cell
     absolute magnetization    =    73.58 Bohr mag/cell

     iteration #  4     ecut=    50.00 Ry     beta= 0.70
     Davidson diagonalization with overlap
     ethr =  7.21E-03,  avg # of iterations =  1.0

     total cpu time spent up to now is       82.5 secs

     total energy              =   -6056.47029241 Ry
     estimated scf accuracy    <       5.59603458 Ry

     total magnetization       =    60.32 Bohr mag/cell
     absolute magnetization    =    70.13 Bohr mag/cell

     iteration #  5     ecut=    50.00 Ry     beta= 0.70
     Davidson diagonalization with overlap
     ethr =  1.67E-03,  avg # of iterations =  1.1

     total cpu time spent up to now is      100.3 secs

     total energy              =   -6056.45027166 Ry
     estimated scf accuracy    <       2.02673161 Ry

     total magnetization       =    60.59 Bohr mag/cell
     absolute magnetization    =    69.85 Bohr mag/cell

     iteration #  6     ecut=    50.00 Ry     beta= 0.70
     Davidson diagonalization with overlap
     ethr =  6.05E-04,  avg # of iterations =  2.5

     total cpu time spent up to now is      121.1 secs

     total energy              =   -6056.54733921 Ry
     estimated scf accuracy    <       0.90485313 Ry

     total magnetization       =    60.23 Bohr mag/cell
     absolute magnetization    =    69.18 Bohr mag/cell

     iteration #  7     ecut=    50.00 Ry     beta= 0.70
     Davidson diagonalization with overlap
     ethr =  2.70E-04,  avg # of iterations =  4.0

     total cpu time spent up to now is      138.5 secs

     total energy              =   -6056.57903339 Ry
     estimated scf accuracy    <       0.56628970 Ry

     total magnetization       =    60.29 Bohr mag/cell
     absolute magnetization    =    68.93 Bohr mag/cell

     iteration #  8     ecut=    50.00 Ry     beta= 0.70
     Davidson diagonalization with overlap
     ethr =  1.69E-04,  avg # of iterations =  1.9

     total cpu time spent up to now is      157.6 secs

     total energy              =   -6056.60428377 Ry
     estimated scf accuracy    <       0.16358305 Ry

     total magnetization       =    60.34 Bohr mag/cell
     absolute magnetization    =    68.82 Bohr mag/cell

     iteration #  9     ecut=    50.00 Ry     beta= 0.70
     Davidson diagonalization with overlap
     c_bands:  1 eigenvalues not converged
     c_bands:  2 eigenvalues not converged
     c_bands:  1 eigenvalues not converged
     ethr =  4.88E-05,  avg # of iterations =  9.0

     total cpu time spent up to now is      184.5 secs

     total energy              =   -6056.60963047 Ry
     estimated scf accuracy    <       0.10105419 Ry

     total magnetization       =    60.51 Bohr mag/cell
     absolute magnetization    =    68.69 Bohr mag/cell

     iteration # 10     ecut=    50.00 Ry     beta= 0.70
     Davidson diagonalization with overlap
     ethr =  3.02E-05,  avg # of iterations =  4.3

     total cpu time spent up to now is      201.8 secs

     total energy              =   -6056.61346396 Ry
     estimated scf accuracy    <       0.14815954 Ry

     total magnetization       =    60.60 Bohr mag/cell
     absolute magnetization    =    68.60 Bohr mag/cell

     iteration # 11     ecut=    50.00 Ry     beta= 0.70
     Davidson diagonalization with overlap
     ethr =  3.02E-05,  avg # of iterations =  1.9

     total cpu time spent up to now is      220.5 secs

     total energy              =   -6056.61031049 Ry
     estimated scf accuracy    <       0.11975863 Ry

     total magnetization       =    60.57 Bohr mag/cell
     absolute magnetization    =    68.50 Bohr mag/cell

     iteration # 12     ecut=    50.00 Ry     beta= 0.70
     Davidson diagonalization with overlap
     ethr =  3.02E-05,  avg # of iterations =  2.1

     negative rho (up, down):  2.571E-08 0.000E+00

     total cpu time spent up to now is      240.8 secs

     total energy              =   -6056.61079236 Ry
     estimated scf accuracy    <       0.08777230 Ry

     total magnetization       =    60.53 Bohr mag/cell
     absolute magnetization    =    68.37 Bohr mag/cell

     iteration # 13     ecut=    50.00 Ry     beta= 0.70
     Davidson diagonalization with overlap
     ethr =  2.62E-05,  avg # of iterations =  1.7

     negative rho (up, down):  4.557E-07 0.000E+00

     total cpu time spent up to now is      254.9 secs

     total energy              =   -6056.61028556 Ry
     estimated scf accuracy    <       0.12206050 Ry

     total magnetization       =    60.57 Bohr mag/cell
     absolute magnetization    =    68.34 Bohr mag/cell

     iteration # 14     ecut=    50.00 Ry     beta= 0.70
     Davidson diagonalization with overlap
     ethr =  2.62E-05,  avg # of iterations =  1.1

     negative rho (up, down):  1.110E-02 9.348E-03

     total cpu time spent up to now is      273.2 secs

     total energy              =   -6056.60414571 Ry
     estimated scf accuracy    <       0.07960608 Ry

     total magnetization       =    60.57 Bohr mag/cell
     absolute magnetization    =    68.31 Bohr mag/cell

     iteration # 15     ecut=    50.00 Ry     beta= 0.70
     Davidson diagonalization with overlap
     ethr =  2.38E-05,  avg # of iterations =  1.3

     negative rho (up, down):  1.400E-02 1.243E-02

     total cpu time spent up to now is      286.8 secs

     total energy              =   -6056.60181554 Ry
     estimated scf accuracy    <       0.02697155 Ry

     total magnetization       =    60.55 Bohr mag/cell
     absolute magnetization    =    68.27 Bohr mag/cell

     iteration # 16     ecut=    50.00 Ry     beta= 0.70
     Davidson diagonalization with overlap
     c_bands:  1 eigenvalues not converged
     c_bands:  5 eigenvalues not converged
     c_bands:  2 eigenvalues not converged
     c_bands:  1 eigenvalues not converged
     c_bands:  2 eigenvalues not converged
     ethr =  8.05E-06,  avg # of iterations =  7.8

     negative rho (up, down):  2.275E-02 2.094E-02

     total cpu time spent up to now is      313.4 secs

     total energy              =   -6056.60107820 Ry
     estimated scf accuracy    <       0.05665332 Ry

     total magnetization       =    60.54 Bohr mag/cell
     absolute magnetization    =    68.23 Bohr mag/cell

     iteration # 17     ecut=    50.00 Ry     beta= 0.70
     Davidson diagonalization with overlap
     ethr =  8.05E-06,  avg # of iterations =  1.9

     negative rho (up, down):  1.788E-02 1.625E-02

     total cpu time spent up to now is      332.4 secs

     total energy              =   -6056.60211988 Ry
     estimated scf accuracy    <       0.01205487 Ry

     total magnetization       =    60.56 Bohr mag/cell
     absolute magnetization    =    68.22 Bohr mag/cell

     iteration # 18     ecut=    50.00 Ry     beta= 0.70
     Davidson diagonalization with overlap
     c_bands:  1 eigenvalues not converged
     c_bands:  1 eigenvalues not converged
     c_bands:  2 eigenvalues not converged
     c_bands:  2 eigenvalues not converged
     ethr =  3.60E-06,  avg # of iterations =  7.2

     negative rho (up, down):  5.330E-03 4.280E-03

     total cpu time spent up to now is      352.4 secs

     total energy              =   -6056.60175233 Ry
     estimated scf accuracy    <       0.01026618 Ry

     total magnetization       =    60.60 Bohr mag/cell
     absolute magnetization    =    68.23 Bohr mag/cell

     iteration # 19     ecut=    50.00 Ry     beta= 0.70
     Davidson diagonalization with overlap
     ethr =  3.06E-06,  avg # of iterations =  2.2

     negative rho (up, down):  1.154E-02 1.087E-02

     total cpu time spent up to now is      372.4 secs

     total energy              =   -6056.59914695 Ry
     estimated scf accuracy    <       0.01019452 Ry

     total magnetization       =    60.60 Bohr mag/cell
     absolute magnetization    =    68.24 Bohr mag/cell

     iteration # 20     ecut=    50.00 Ry     beta= 0.70
     Davidson diagonalization with overlap
     ethr =  3.04E-06,  avg # of iterations =  2.0

     negative rho (up, down):  1.319E-02 1.270E-02

     total cpu time spent up to now is      392.1 secs

     total energy              =   -6056.59923014 Ry
     estimated scf accuracy    <       0.00881070 Ry

     total magnetization       =    60.59 Bohr mag/cell
     absolute magnetization    =    68.20 Bohr mag/cell

     iteration # 21     ecut=    50.00 Ry     beta= 0.70
     Davidson diagonalization with overlap
     ethr =  2.63E-06,  avg # of iterations =  1.5

     negative rho (up, down):  1.386E-02 1.333E-02

     total cpu time spent up to now is      406.0 secs

     total energy              =   -6056.59963965 Ry
     estimated scf accuracy    <       0.00249452 Ry

     total magnetization       =    60.59 Bohr mag/cell
     absolute magnetization    =    68.19 Bohr mag/cell

     iteration # 22     ecut=    50.00 Ry     beta= 0.70
     Davidson diagonalization with overlap
     ethr =  7.45E-07,  avg # of iterations =  3.2

     negative rho (up, down):  1.307E-02 1.249E-02

     total cpu time spent up to now is      426.9 secs

     total energy              =   -6056.59964119 Ry
     estimated scf accuracy    <       0.00322877 Ry

     total magnetization       =    60.60 Bohr mag/cell
     absolute magnetization    =    68.20 Bohr mag/cell

     iteration # 23     ecut=    50.00 Ry     beta= 0.70
     Davidson diagonalization with overlap
     ethr =  7.45E-07,  avg # of iterations =  1.3

     negative rho (up, down):  1.052E-02 9.929E-03

     total cpu time spent up to now is      441.0 secs

     total energy              =   -6056.59957341 Ry
     estimated scf accuracy    <       0.00199832 Ry

     total magnetization       =    60.60 Bohr mag/cell
     absolute magnetization    =    68.20 Bohr mag/cell

     iteration # 24     ecut=    50.00 Ry     beta= 0.70
     Davidson diagonalization with overlap
     c_bands:  1 eigenvalues not converged
     c_bands:  3 eigenvalues not converged
     c_bands:  1 eigenvalues not converged
     ethr =  5.97E-07,  avg # of iterations =  3.7

     negative rho (up, down):  8.822E-03 8.022E-03

     total cpu time spent up to now is      461.6 secs

     total energy              =   -6056.59928476 Ry
     estimated scf accuracy    <       0.00388470 Ry

     total magnetization       =    60.61 Bohr mag/cell
     absolute magnetization    =    68.21 Bohr mag/cell

     iteration # 25     ecut=    50.00 Ry     beta= 0.70
     Davidson diagonalization with overlap
     ethr =  5.97E-07,  avg # of iterations =  2.8

     negative rho (up, down):  8.847E-03 8.083E-03

     total cpu time spent up to now is      482.0 secs

     total energy              =   -6056.59963178 Ry
     estimated scf accuracy    <       0.00213817 Ry

     total magnetization       =    60.62 Bohr mag/cell
     absolute magnetization    =    68.22 Bohr mag/cell

     iteration # 26     ecut=    50.00 Ry     beta= 0.70
     Davidson diagonalization with overlap
     ethr =  5.97E-07,  avg # of iterations =  1.5

     negative rho (up, down):  6.852E-03 6.114E-03

     total cpu time spent up to now is      496.1 secs

     total energy              =   -6056.59971409 Ry
     estimated scf accuracy    <       0.00133933 Ry

     total magnetization       =    60.62 Bohr mag/cell
     absolute magnetization    =    68.22 Bohr mag/cell

     iteration # 27     ecut=    50.00 Ry     beta= 0.70
     Davidson diagonalization with overlap
     ethr =  4.00E-07,  avg # of iterations =  1.6

     negative rho (up, down):  6.052E-03 5.318E-03

     total cpu time spent up to now is      515.0 secs

     total energy              =   -6056.59973341 Ry
     estimated scf accuracy    <       0.00149832 Ry

     total magnetization       =    60.63 Bohr mag/cell
     absolute magnetization    =    68.22 Bohr mag/cell

     iteration # 28     ecut=    50.00 Ry     beta= 0.70
     Davidson diagonalization with overlap
     ethr =  4.00E-07,  avg # of iterations =  1.1

     negative rho (up, down):  4.329E-03 3.548E-03

     total cpu time spent up to now is      528.6 secs

     total energy              =   -6056.59972275 Ry
     estimated scf accuracy    <       0.00015510 Ry

     total magnetization       =    60.62 Bohr mag/cell
     absolute magnetization    =    68.22 Bohr mag/cell

     iteration # 29     ecut=    50.00 Ry     beta= 0.70
     Davidson diagonalization with overlap
     ethr =  4.63E-08,  avg # of iterations =  6.1

     negative rho (up, down):  3.242E-03 2.305E-03

     total cpu time spent up to now is      553.4 secs

     total energy              =   -6056.59979551 Ry
     estimated scf accuracy    <       0.00012949 Ry

     total magnetization       =    60.62 Bohr mag/cell
     absolute magnetization    =    68.21 Bohr mag/cell

     iteration # 30     ecut=    50.00 Ry     beta= 0.70
     Davidson diagonalization with overlap
     ethr =  3.87E-08,  avg # of iterations =  2.0

     negative rho (up, down):  3.081E-03 2.024E-03

     total cpu time spent up to now is      573.0 secs

     total energy              =   -6056.59982268 Ry
     estimated scf accuracy    <       0.00015142 Ry

     total magnetization       =    60.62 Bohr mag/cell
     absolute magnetization    =    68.21 Bohr mag/cell

     iteration # 31     ecut=    50.00 Ry     beta= 0.70
     Davidson diagonalization with overlap
     ethr =  3.87E-08,  avg # of iterations =  1.3

     negative rho (up, down):  2.881E-03 1.805E-03

     total cpu time spent up to now is      586.8 secs

     total energy              =   -6056.59982125 Ry
     estimated scf accuracy    <       0.00004897 Ry

     total magnetization       =    60.62 Bohr mag/cell
     absolute magnetization    =    68.21 Bohr mag/cell

     iteration # 32     ecut=    50.00 Ry     beta= 0.70
     Davidson diagonalization with overlap
     ethr =  1.46E-08,  avg # of iterations =  2.2

     negative rho (up, down):  2.897E-03 1.802E-03

     total cpu time spent up to now is      607.0 secs

     total energy              =   -6056.59983215 Ry
     estimated scf accuracy    <       0.00013192 Ry

     total magnetization       =    60.62 Bohr mag/cell
     absolute magnetization    =    68.21 Bohr mag/cell

     iteration # 33     ecut=    50.00 Ry     beta= 0.70
     Davidson diagonalization with overlap
     ethr =  1.46E-08,  avg # of iterations =  1.9

     negative rho (up, down):  2.817E-03 1.716E-03

     total cpu time spent up to now is      621.8 secs

     total energy              =   -6056.59983634 Ry
     estimated scf accuracy    <       0.00001586 Ry

     total magnetization       =    60.62 Bohr mag/cell
     absolute magnetization    =    68.21 Bohr mag/cell

     iteration # 34     ecut=    50.00 Ry     beta= 0.70
     Davidson diagonalization with overlap
     ethr =  4.73E-09,  avg # of iterations =  3.8

     negative rho (up, down):  2.756E-03 1.656E-03

     total cpu time spent up to now is      642.5 secs

     total energy              =   -6056.59983726 Ry
     estimated scf accuracy    <       0.00001298 Ry

     total magnetization       =    60.62 Bohr mag/cell
     absolute magnetization    =    68.21 Bohr mag/cell

     iteration # 35     ecut=    50.00 Ry     beta= 0.70
     Davidson diagonalization with overlap
     ethr =  3.88E-09,  avg # of iterations =  1.5

     negative rho (up, down):  2.603E-03 1.520E-03

     total cpu time spent up to now is      661.2 secs

     total energy              =   -6056.59983823 Ry
     estimated scf accuracy    <       0.00000404 Ry

     total magnetization       =    60.62 Bohr mag/cell
     absolute magnetization    =    68.21 Bohr mag/cell

     iteration # 36     ecut=    50.00 Ry     beta= 0.70
     Davidson diagonalization with overlap
     ethr =  1.21E-09,  avg # of iterations =  6.8

     negative rho (up, down):  2.630E-03 1.551E-03

     total cpu time spent up to now is      682.6 secs

     total energy              =   -6056.59983852 Ry
     estimated scf accuracy    <       0.00000801 Ry

     total magnetization       =    60.62 Bohr mag/cell
     absolute magnetization    =    68.21 Bohr mag/cell

     iteration # 37     ecut=    50.00 Ry     beta= 0.70
     Davidson diagonalization with overlap
     ethr =  1.21E-09,  avg # of iterations =  1.5

     negative rho (up, down):  2.598E-03 1.510E-03

     total cpu time spent up to now is      700.9 secs

     total energy              =   -6056.59983846 Ry
     estimated scf accuracy    <       0.00000604 Ry

     total magnetization       =    60.62 Bohr mag/cell
     absolute magnetization    =    68.21 Bohr mag/cell

     iteration # 38     ecut=    50.00 Ry     beta= 0.70
     Davidson diagonalization with overlap
     ethr =  1.21E-09,  avg # of iterations =  1.0

     negative rho (up, down):  2.555E-03 1.469E-03

     total cpu time spent up to now is      714.6 secs

     total energy              =   -6056.59983865 Ry
     estimated scf accuracy    <       0.00000442 Ry

     total magnetization       =    60.62 Bohr mag/cell
     absolute magnetization    =    68.21 Bohr mag/cell

     iteration # 39     ecut=    50.00 Ry     beta= 0.70
     Davidson diagonalization with overlap
     ethr =  1.21E-09,  avg # of iterations =  1.1

     negative rho (up, down):  2.530E-03 1.446E-03

     total cpu time spent up to now is      733.6 secs

     total energy              =   -6056.59983875 Ry
     estimated scf accuracy    <       0.00000318 Ry

     total magnetization       =    60.62 Bohr mag/cell
     absolute magnetization    =    68.21 Bohr mag/cell

     iteration # 40     ecut=    50.00 Ry     beta= 0.70
     Davidson diagonalization with overlap
     ethr =  9.49E-10,  avg # of iterations =  1.0

     negative rho (up, down):  2.385E-03 1.302E-03

     total cpu time spent up to now is      751.6 secs

     total energy              =   -6056.59983859 Ry
     estimated scf accuracy    <       0.00000197 Ry

     total magnetization       =    60.62 Bohr mag/cell
     absolute magnetization    =    68.21 Bohr mag/cell

     iteration # 41     ecut=    50.00 Ry     beta= 0.70
     Davidson diagonalization with overlap
     ethr =  5.87E-10,  avg # of iterations =  2.0

     negative rho (up, down):  2.387E-03 1.298E-03

     total cpu time spent up to now is      766.8 secs

     total energy              =   -6056.59983868 Ry
     estimated scf accuracy    <       0.00000322 Ry

     total magnetization       =    60.62 Bohr mag/cell
     absolute magnetization    =    68.20 Bohr mag/cell

     iteration # 42     ecut=    50.00 Ry     beta= 0.70
     Davidson diagonalization with overlap
     ethr =  5.87E-10,  avg # of iterations =  1.0

     negative rho (up, down):  2.357E-03 1.271E-03

     total cpu time spent up to now is      785.8 secs

     total energy              =   -6056.59983855 Ry
     estimated scf accuracy    <       0.00000357 Ry

     total magnetization       =    60.62 Bohr mag/cell
     absolute magnetization    =    68.20 Bohr mag/cell

     iteration # 43     ecut=    50.00 Ry     beta= 0.70
     Davidson diagonalization with overlap
     ethr =  5.87E-10,  avg # of iterations =  1.2

     negative rho (up, down):  2.319E-03 1.230E-03

     total cpu time spent up to now is      800.0 secs

     total energy              =   -6056.59983859 Ry
     estimated scf accuracy    <       0.00000209 Ry

     total magnetization       =    60.62 Bohr mag/cell
     absolute magnetization    =    68.20 Bohr mag/cell

     iteration # 44     ecut=    50.00 Ry     beta= 0.70
     Davidson diagonalization with overlap
     ethr =  5.87E-10,  avg # of iterations =  1.0

     negative rho (up, down):  2.268E-03 1.182E-03

     total cpu time spent up to now is      818.4 secs

     total energy              =   -6056.59983856 Ry
     estimated scf accuracy    <       0.00000112 Ry

     total magnetization       =    60.62 Bohr mag/cell
     absolute magnetization    =    68.20 Bohr mag/cell

     iteration # 45     ecut=    50.00 Ry     beta= 0.70
     Davidson diagonalization with overlap
     ethr =  3.35E-10,  avg # of iterations =  1.2

     negative rho (up, down):  2.275E-03 1.187E-03

     total cpu time spent up to now is      832.6 secs

     total energy              =   -6056.59983861 Ry
     estimated scf accuracy    <       0.00000025 Ry

     total magnetization       =    60.62 Bohr mag/cell
     absolute magnetization    =    68.20 Bohr mag/cell

     iteration # 46     ecut=    50.00 Ry     beta= 0.70
     Davidson diagonalization with overlap
     c_bands:  1 eigenvalues not converged
     ethr =  7.55E-11,  avg # of iterations =  4.2

     negative rho (up, down):  2.249E-03 1.162E-03

     total cpu time spent up to now is      856.0 secs

     total energy              =   -6056.59983855 Ry
     estimated scf accuracy    <       0.00000131 Ry

     total magnetization       =    60.62 Bohr mag/cell
     absolute magnetization    =    68.20 Bohr mag/cell

     iteration # 47     ecut=    50.00 Ry     beta= 0.70
     Davidson diagonalization with overlap
     ethr =  7.55E-11,  avg # of iterations =  1.9

     negative rho (up, down):  2.260E-03 1.173E-03

     total cpu time spent up to now is      875.3 secs

     total energy              =   -6056.59983862 Ry
     estimated scf accuracy    <       0.00000021 Ry

     total magnetization       =    60.62 Bohr mag/cell
     absolute magnetization    =    68.20 Bohr mag/cell

     iteration # 48     ecut=    50.00 Ry     beta= 0.70
     Davidson diagonalization with overlap
     ethr =  6.29E-11,  avg # of iterations =  1.2

     negative rho (up, down):  2.262E-03 1.174E-03

     total cpu time spent up to now is      889.3 secs

     total energy              =   -6056.59983863 Ry
     estimated scf accuracy    <       0.00000003 Ry

     total magnetization       =    60.62 Bohr mag/cell
     absolute magnetization    =    68.20 Bohr mag/cell

     iteration # 49     ecut=    50.00 Ry     beta= 0.70
     Davidson diagonalization with overlap
     c_bands:  1 eigenvalues not converged
     c_bands:  1 eigenvalues not converged
     ethr =  7.68E-12,  avg # of iterations =  7.5

     negative rho (up, down):  2.259E-03 1.170E-03

     total cpu time spent up to now is      916.4 secs

     total energy              =   -6056.59983863 Ry
     estimated scf accuracy    <       0.00000004 Ry

     total magnetization       =    60.62 Bohr mag/cell
     absolute magnetization    =    68.20 Bohr mag/cell

     iteration # 50     ecut=    50.00 Ry     beta= 0.70
     Davidson diagonalization with overlap
     ethr =  7.68E-12,  avg # of iterations =  1.7

     negative rho (up, down):  2.259E-03 1.170E-03

     total cpu time spent up to now is      935.2 secs

     total energy              =   -6056.59983863 Ry
     estimated scf accuracy    <       0.00000002 Ry

     total magnetization       =    60.62 Bohr mag/cell
     absolute magnetization    =    68.20 Bohr mag/cell

     iteration # 51     ecut=    50.00 Ry     beta= 0.70
     Davidson diagonalization with overlap
     ethr =  6.52E-12,  avg # of iterations =  2.0

     negative rho (up, down):  2.258E-03 1.169E-03

     total cpu time spent up to now is      950.3 secs

     total energy              =   -6056.59983862 Ry
     estimated scf accuracy    <       0.00000003 Ry

     total magnetization       =    60.62 Bohr mag/cell
     absolute magnetization    =    68.20 Bohr mag/cell

     iteration # 52     ecut=    50.00 Ry     beta= 0.70
     Davidson diagonalization with overlap
     ethr =  6.52E-12,  avg # of iterations =  1.7

     negative rho (up, down):  2.257E-03 1.168E-03

     total cpu time spent up to now is      970.4 secs

     total energy              =   -6056.59983862 Ry
     estimated scf accuracy    <       0.00000007 Ry

     total magnetization       =    60.62 Bohr mag/cell
     absolute magnetization    =    68.20 Bohr mag/cell

     iteration # 53     ecut=    50.00 Ry     beta= 0.70
     Davidson diagonalization with overlap
     ethr =  6.52E-12,  avg # of iterations =  1.0

     negative rho (up, down):  2.256E-03 1.167E-03

     total cpu time spent up to now is      984.4 secs

     total energy              =   -6056.59983862 Ry
     estimated scf accuracy    <       0.00000001 Ry

     total magnetization       =    60.62 Bohr mag/cell
     absolute magnetization    =    68.20 Bohr mag/cell

     iteration # 54     ecut=    50.00 Ry     beta= 0.70
     Davidson diagonalization with overlap
     ethr =  4.03E-12,  avg # of iterations =  1.1

     negative rho (up, down):  2.249E-03 1.160E-03

     Magnetic moment per site  (integrated on atomic sphere of radius R)
     atom   1 (R=0.090)  charge=  5.6590  magn=  1.6523
     atom   2 (R=0.090)  charge=  5.6587  magn=  1.6464
     atom   3 (R=0.090)  charge=  5.6582  magn=  1.6536
     atom   4 (R=0.090)  charge=  5.6585  magn=  1.6585
     atom   5 (R=0.090)  charge=  5.6586  magn=  1.6566
     atom   6 (R=0.090)  charge=  5.6587  magn=  1.6540
     atom   7 (R=0.090)  charge=  5.6594  magn=  1.6507
     atom   8 (R=0.090)  charge=  5.6596  magn=  1.6488
     atom   9 (R=0.090)  charge=  5.6587  magn=  1.6509
     atom  10 (R=0.090)  charge=  5.6565  magn=  1.5886
     atom  11 (R=0.090)  charge=  5.6557  magn=  1.5910
     atom  12 (R=0.090)  charge=  5.6553  magn=  1.5945
     atom  13 (R=0.090)  charge=  5.6551  magn=  1.5961
     atom  14 (R=0.090)  charge=  5.6551  magn=  1.5903
     atom  15 (R=0.090)  charge=  5.6556  magn=  1.5934
     atom  16 (R=0.090)  charge=  5.6552  magn=  1.5863
     atom  17 (R=0.090)  charge=  5.6554  magn=  1.5940
     atom  18 (R=0.090)  charge=  5.6550  magn=  1.5875
     atom  19 (R=0.090)  charge=  5.6551  magn=  1.5874
     atom  20 (R=0.090)  charge=  5.6544  magn=  1.6023
     atom  21 (R=0.090)  charge=  5.6539  magn=  1.6088
     atom  22 (R=0.090)  charge=  5.6542  magn=  1.5812
     atom  23 (R=0.090)  charge=  5.6549  magn=  1.5696
     atom  24 (R=0.090)  charge=  5.6550  magn=  1.5811
     atom  25 (R=0.090)  charge=  5.6552  magn=  1.5400
     atom  26 (R=0.090)  charge=  5.6538  magn=  1.5996
     atom  27 (R=0.090)  charge=  5.6545  magn=  1.5805
     atom  28 (R=0.090)  charge=  5.6663  magn=  1.2549
     atom  29 (R=0.090)  charge=  5.6705  magn=  1.0718
     atom  30 (R=0.090)  charge=  5.6572  magn=  1.5354
     atom  31 (R=0.090)  charge=  5.6632  magn=  1.6399
     atom  32 (R=0.090)  charge=  5.6591  magn=  1.6418
     atom  33 (R=0.090)  charge=  5.6577  magn=  1.6840
     atom  34 (R=0.090)  charge=  5.6561  magn=  1.6802
     atom  35 (R=0.090)  charge=  5.6606  magn=  1.6646
     atom  36 (R=0.090)  charge=  5.6573  magn=  1.6871
     atom  37 (R=0.065)  charge=  1.0316  magn= -0.0190
     atom  38 (R=0.065)  charge=  2.9025  magn= -0.0419
     atom  39 (R=0.090)  charge=  0.8531  magn= -0.0163

     total cpu time spent up to now is     1001.9 secs

     End of self-consistent calculation

 ------ SPIN UP ------------


          k = 0.0000 0.0000 0.0000 ( 51087 PWs)   bands (ev):

   -22.0728  -9.0574  -7.6581  -6.5448  -5.8195  -5.6592  -5.3467  -5.1282
    -4.8272  -4.8166  -4.8137  -4.8024  -4.7899  -4.7790  -4.6205  -4.3824
    -4.2862  -4.2831  -4.2662  -4.2504  -4.2324  -4.0808  -3.7718  -3.7666
    -3.7570  -3.7427  -3.7278  -3.6863  -3.6346  -3.6312  -3.6293  -3.6196
    -3.6134  -3.5571  -3.5536  -3.4728  -3.2497  -3.2442  -3.2426  -3.2395
    -3.1867  -3.1803  -3.1776  -3.1732  -3.1714  -3.1616  -3.1482  -3.0935
    -3.0130  -3.0120  -2.9480  -2.9423  -2.9389  -2.9339  -2.9089  -2.9044
    -2.9037  -2.9024  -2.8760  -2.8572  -2.8065  -2.8051  -2.7960  -2.7897
    -2.7401  -2.6035  -2.3074  -2.2691  -2.2675  -2.2668  -2.2620  -2.1590
    -2.1440  -2.1251  -2.1201  -2.1151  -2.1016  -2.0968  -2.0810  -2.0771
    -2.0591  -2.0364  -2.0326  -2.0137  -1.9865  -1.9789  -1.9648  -1.9554
    -1.9538  -1.9469  -1.9383  -1.9321  -1.9197  -1.9131  -1.9065  -1.8953
    -1.8947  -1.8931  -1.8902  -1.8881  -1.8856  -1.8826  -1.8799  -1.8699
    -1.8642  -1.8457  -1.8341  -1.8192  -1.8154  -1.7375  -1.7339  -1.6207
    -1.5513  -1.4466  -1.4445  -1.4414  -1.4359  -1.4291  -1.4190  -1.4018
    -1.3957  -1.3949  -1.3774  -1.3571  -1.3506  -1.2224  -1.2212  -1.2005
    -1.1972  -1.1293  -1.0818  -1.0529  -1.0337  -1.0221  -0.9914  -0.9717
    -0.9599  -0.9560  -0.9415  -0.9327  -0.9039  -0.9000  -0.8412  -0.8198
    -0.7624  -0.7016  -0.6997  -0.6973  -0.6839  -0.6506  -0.6410  -0.6353
    -0.6339  -0.6281  -0.6254  -0.6232  -0.6195  -0.6104  -0.6087  -0.6012
    -0.5943  -0.5855  -0.5698  -0.5678  -0.5588  -0.5555  -0.5403  -0.5332
    -0.5303  -0.5255  -0.5156  -0.5081  -0.5003  -0.4951  -0.4878  -0.4838
    -0.4802  -0.4744  -0.4583  -0.4379  -0.4229  -0.4020  -0.3994  -0.3938
    -0.3890  -0.3851  -0.3781  -0.3688  -0.3659  -0.3212  -0.3085  -0.3039
    -0.2988  -0.2984  -0.2419  -0.2373  -0.2327  -0.2245  -0.2130  -0.1915
     0.5035   0.7184

          k = 0.0000 0.2309 0.0000 ( 51134 PWs)   bands (ev):

   -22.0728  -9.0473  -7.5170  -6.4519  -5.8267  -5.6864  -5.5180  -5.3331
    -5.1301  -5.0328  -4.9998  -4.6509  -4.4832  -4.4717  -4.4564  -4.4044
    -4.3139  -4.2889  -4.2396  -4.1528  -4.1463  -4.0905  -3.8699  -3.7743
    -3.7692  -3.6964  -3.6504  -3.6400  -3.6351  -3.6206  -3.6144  -3.6066
    -3.5863  -3.5226  -3.5140  -3.4931  -3.4862  -3.4314  -3.2632  -3.2597
    -3.2423  -3.2058  -3.2041  -3.1904  -3.1690  -3.0941  -3.0707  -3.0552
    -3.0390  -3.0369  -3.0131  -2.9873  -2.9591  -2.8981  -2.8897  -2.8636
    -2.8346  -2.8298  -2.7921  -2.7890  -2.7692  -2.7358  -2.7200  -2.7104
    -2.6910  -2.5953  -2.3859  -2.3790  -2.3582  -2.3428  -2.3274  -2.2389
    -2.2301  -2.2165  -2.2121  -2.2027  -2.1951  -2.1857  -2.1567  -2.1034
    -2.0888  -2.0830  -2.0638  -2.0401  -2.0278  -2.0169  -2.0137  -2.0000
    -1.9860  -1.9826  -1.9769  -1.9714  -1.9696  -1.9601  -1.9562  -1.8892
    -1.8713  -1.8612  -1.8023  -1.8006  -1.7893  -1.7830  -1.7742  -1.7718
    -1.7604  -1.7512  -1.7429  -1.7406  -1.7325  -1.7101  -1.7031  -1.6798
    -1.6747  -1.6710  -1.6183  -1.5740  -1.5660  -1.4781  -1.4682  -1.4636
    -1.4588  -1.4371  -1.4316  -1.4222  -1.4072  -1.4008  -1.3787  -1.2742
    -1.2472  -1.2007  -1.1828  -1.1587  -1.1507  -1.0945  -1.0800  -1.0736
    -1.0583  -0.9764  -0.9637  -0.9490  -0.9419  -0.9267  -0.8979  -0.8818
    -0.8760  -0.8558  -0.8482  -0.8278  -0.8020  -0.7869  -0.7818  -0.7771
    -0.7330  -0.7000  -0.6966  -0.6934  -0.6835  -0.6597  -0.6381  -0.6240
    -0.6220  -0.6179  -0.6076  -0.5971  -0.5891  -0.5749  -0.5618  -0.5465
    -0.5161  -0.5006  -0.4896  -0.4624  -0.4386  -0.4263  -0.4020  -0.3763
    -0.3730  -0.3607  -0.3558  -0.3417  -0.3246  -0.3164  -0.3119  -0.2809
    -0.2486  -0.2418  -0.2233  -0.2058  -0.1998  -0.1901  -0.1790  -0.1581
    -0.1044  -0.0388   0.1369   0.1517   0.2412   0.2842   0.3992   0.4223
     0.4609   0.7328

          k = 0.0000 0.4619 0.0000 ( 51204 PWs)   bands (ev):

   -22.0728  -9.0316  -7.1010  -6.4733  -6.1769  -5.7591  -5.6204  -5.3418
    -5.2364  -5.1416  -5.1056  -4.8590  -4.3163  -4.2999  -4.2880  -4.2462
    -4.1991  -4.1140  -4.1090  -4.0498  -3.9812  -3.9744  -3.9701  -3.8141
    -3.7961  -3.7947  -3.7849  -3.7834  -3.7258  -3.6802  -3.6792  -3.5395
    -3.5090  -3.5023  -3.4811  -3.4679  -3.4649  -3.4419  -3.3553  -3.3496
    -3.3359  -3.3320  -3.2486  -3.1803  -3.1298  -3.0887  -3.0413  -3.0308
    -2.9923  -2.9747  -2.9531  -2.9392  -2.9327  -2.9125  -2.9054  -2.8492
    -2.8404  -2.8150  -2.7924  -2.7828  -2.6463  -2.6396  -2.6223  -2.6141
    -2.5515  -2.5248  -2.4991  -2.4885  -2.4784  -2.4078  -2.3555  -2.3537
    -2.3494  -2.3409  -2.3325  -2.3126  -2.3055  -2.2813  -2.2693  -2.2573
    -2.2240  -2.1920  -2.1741  -2.1440  -2.1310  -2.0826  -2.0595  -2.0346
    -2.0204  -2.0089  -1.9875  -1.9814  -1.9662  -1.9243  -1.9171  -1.9061
    -1.9006  -1.8907  -1.8711  -1.8443  -1.8418  -1.8279  -1.8252  -1.8125
    -1.7892  -1.7583  -1.7431  -1.7211  -1.6588  -1.6408  -1.6294  -1.6156
    -1.5994  -1.5653  -1.5346  -1.5167  -1.5099  -1.4858  -1.4855  -1.4778
    -1.4734  -1.4660  -1.4576  -1.4442  -1.4379  -1.4283  -1.4183  -1.4128
    -1.4070  -1.3444  -1.2879  -1.2842  -1.2644  -1.2433  -1.2224  -1.2145
    -1.1813  -1.1225  -1.1147  -1.1057  -1.0583  -1.0361  -1.0147  -0.9785
    -0.9541  -0.9486  -0.9242  -0.9055  -0.8961  -0.8790  -0.8570  -0.7690
    -0.7520  -0.7288  -0.7165  -0.7026  -0.6963  -0.6872  -0.6835  -0.6739
    -0.6653  -0.6356  -0.5601  -0.5464  -0.5372  -0.5296  -0.5272  -0.5139
    -0.5011  -0.4907  -0.4660  -0.4564  -0.4471  -0.4218  -0.3669  -0.3498
    -0.3451  -0.3250  -0.3134  -0.2530  -0.2453  -0.2203  -0.2135  -0.1680
    -0.1481  -0.1390  -0.1290  -0.1182  -0.1021  -0.0950  -0.0932  -0.0524
     0.0019   0.0188   0.4940   0.5759   0.8869   1.1195   1.1406   1.3736
     1.4374   1.4918

          k = 0.2000-0.1155 0.0000 ( 51134 PWs)   bands (ev):

   -22.0728  -9.0447  -7.5187  -6.4524  -5.8752  -5.6763  -5.4895  -5.3331
    -5.1040  -5.0520  -5.0020  -4.5932  -4.5206  -4.4715  -4.4613  -4.4033
    -4.3422  -4.2875  -4.2088  -4.1939  -4.1439  -4.0416  -3.8888  -3.7721
    -3.7588  -3.6913  -3.6581  -3.6406  -3.6353  -3.6313  -3.6146  -3.6078
    -3.5731  -3.5397  -3.5155  -3.4915  -3.4863  -3.4348  -3.2758  -3.2619
    -3.2538  -3.2080  -3.2033  -3.1869  -3.1632  -3.1008  -3.0731  -3.0524
    -3.0379  -3.0323  -3.0228  -2.9854  -2.9458  -2.8988  -2.8894  -2.8702
    -2.8309  -2.8189  -2.7924  -2.7876  -2.7691  -2.7292  -2.7217  -2.7167
    -2.6719  -2.6044  -2.3889  -2.3782  -2.3509  -2.3366  -2.3274  -2.2386
    -2.2333  -2.2200  -2.2163  -2.2015  -2.1918  -2.1768  -2.1436  -2.1015
    -2.0954  -2.0819  -2.0631  -2.0411  -2.0333  -2.0172  -2.0133  -2.0003
    -1.9901  -1.9863  -1.9817  -1.9777  -1.9701  -1.9609  -1.9299  -1.8866
    -1.8673  -1.8547  -1.8082  -1.8017  -1.7913  -1.7833  -1.7781  -1.7698
    -1.7679  -1.7592  -1.7515  -1.7388  -1.7376  -1.7168  -1.6995  -1.6852
    -1.6734  -1.6590  -1.6314  -1.5869  -1.5633  -1.5063  -1.4653  -1.4617
    -1.4499  -1.4425  -1.4285  -1.4264  -1.4161  -1.3866  -1.3034  -1.2791
    -1.2442  -1.2043  -1.1862  -1.1608  -1.1439  -1.1185  -1.0886  -1.0775
    -1.0196  -0.9998  -0.9861  -0.9554  -0.9433  -0.9265  -0.9035  -0.8934
    -0.8744  -0.8546  -0.8354  -0.8142  -0.8095  -0.7943  -0.7860  -0.7735
    -0.7123  -0.7078  -0.6960  -0.6928  -0.6780  -0.6430  -0.6351  -0.6306
    -0.6224  -0.6159  -0.6100  -0.5984  -0.5914  -0.5703  -0.5645  -0.5416
    -0.5046  -0.4914  -0.4813  -0.4591  -0.4400  -0.4332  -0.3978  -0.3773
    -0.3724  -0.3656  -0.3507  -0.3472  -0.3254  -0.3179  -0.3110  -0.2771
    -0.2496  -0.2357  -0.2238  -0.2046  -0.1973  -0.1839  -0.1684  -0.1527
    -0.1089  -0.0455   0.1192   0.1489   0.1837   0.2698   0.3871   0.4198
     0.4564   0.7951

          k = 0.2000 0.1155 0.0000 ( 51134 PWs)   bands (ev):

   -22.0728  -9.0445  -7.5191  -6.4533  -5.8822  -5.6693  -5.4837  -5.3401
    -5.1003  -5.0391  -5.0205  -4.5870  -4.5128  -4.4707  -4.4645  -4.4012
    -4.3411  -4.2989  -4.2138  -4.1883  -4.1468  -4.0372  -3.8885  -3.7761
    -3.7539  -3.6863  -3.6563  -3.6410  -3.6353  -3.6331  -3.6256  -3.6053
    -3.5612  -3.5445  -3.5181  -3.4907  -3.4872  -3.4370  -3.2796  -3.2601
    -3.2556  -3.2075  -3.2044  -3.1884  -3.1587  -3.1010  -3.0751  -3.0502
    -3.0365  -3.0342  -3.0244  -2.9893  -2.9428  -2.8987  -2.8881  -2.8695
    -2.8333  -2.8134  -2.7929  -2.7880  -2.7721  -2.7270  -2.7240  -2.7146
    -2.6685  -2.6068  -2.3856  -2.3798  -2.3488  -2.3370  -2.3274  -2.2384
    -2.2333  -2.2229  -2.2138  -2.2076  -2.1900  -2.1781  -2.1334  -2.1008
    -2.0944  -2.0848  -2.0590  -2.0385  -2.0344  -2.0214  -2.0155  -2.0012
    -1.9904  -1.9849  -1.9817  -1.9783  -1.9739  -1.9610  -1.9267  -1.8949
    -1.8635  -1.8540  -1.8092  -1.8016  -1.7947  -1.7849  -1.7758  -1.7695
    -1.7652  -1.7594  -1.7524  -1.7389  -1.7371  -1.7238  -1.6936  -1.6880
    -1.6709  -1.6635  -1.6300  -1.5872  -1.5678  -1.5073  -1.4693  -1.4625
    -1.4512  -1.4366  -1.4307  -1.4259  -1.4162  -1.3799  -1.2958  -1.2774
    -1.2442  -1.2061  -1.1833  -1.1629  -1.1400  -1.1242  -1.0878  -1.0767
    -1.0227  -0.9950  -0.9852  -0.9579  -0.9441  -0.9293  -0.9043  -0.8942
    -0.8728  -0.8530  -0.8363  -0.8207  -0.8100  -0.7943  -0.7858  -0.7735
    -0.7100  -0.7051  -0.6961  -0.6942  -0.6837  -0.6432  -0.6385  -0.6268
    -0.6222  -0.6147  -0.6110  -0.5965  -0.5879  -0.5706  -0.5660  -0.5488
    -0.5045  -0.4843  -0.4772  -0.4597  -0.4476  -0.4334  -0.3973  -0.3765
    -0.3741  -0.3656  -0.3515  -0.3465  -0.3250  -0.3150  -0.3137  -0.2764
    -0.2453  -0.2368  -0.2229  -0.2035  -0.1988  -0.1770  -0.1584  -0.1543
    -0.1044  -0.0566   0.1195   0.1489   0.1773   0.2701   0.3902   0.4153
     0.4604   0.7656

          k = 0.2000 0.3464 0.0000 ( 51202 PWs)   bands (ev):

   -22.0728  -9.0317  -7.2404  -6.3202  -6.0110  -5.9172  -5.6802  -5.5155
    -5.3244  -5.0690  -4.7230  -4.6528  -4.4798  -4.4648  -4.3200  -4.2591
    -4.2527  -4.1593  -4.1514  -4.0578  -4.0230  -4.0029  -3.8868  -3.8689
    -3.8123  -3.7673  -3.6754  -3.6611  -3.6358  -3.6296  -3.6201  -3.6038
    -3.5791  -3.5685  -3.5333  -3.5062  -3.4675  -3.4291  -3.4190  -3.3961
    -3.2814  -3.2197  -3.2006  -3.1886  -3.1564  -3.1345  -3.0772  -3.0417
    -2.9999  -2.9843  -2.9632  -2.9456  -2.9365  -2.9039  -2.8966  -2.8747
    -2.8584  -2.8489  -2.7419  -2.7179  -2.6781  -2.6606  -2.6438  -2.6228
    -2.6014  -2.5700  -2.4899  -2.4212  -2.4101  -2.3794  -2.3678  -2.3360
    -2.3233  -2.3104  -2.3028  -2.2788  -2.2740  -2.2552  -2.2460  -2.2393
    -2.2247  -2.1747  -2.1458  -2.1155  -2.0564  -2.0539  -2.0284  -2.0229
    -2.0125  -1.9852  -1.9587  -1.9499  -1.9421  -1.9194  -1.9018  -1.8943
    -1.8898  -1.8780  -1.8727  -1.8599  -1.8425  -1.8312  -1.8246  -1.8083
    -1.7949  -1.7889  -1.7609  -1.7131  -1.7040  -1.6677  -1.6628  -1.6584
    -1.6507  -1.6381  -1.6052  -1.5709  -1.5569  -1.5422  -1.5277  -1.4960
    -1.4923  -1.4823  -1.4737  -1.4513  -1.4388  -1.4189  -1.4118  -1.3654
    -1.3513  -1.3184  -1.3011  -1.2460  -1.2102  -1.1800  -1.1604  -1.0961
    -1.0724  -1.0505  -1.0450  -1.0314  -1.0249  -1.0188  -0.9911  -0.9746
    -0.9624  -0.9494  -0.9319  -0.8941  -0.8846  -0.8624  -0.8491  -0.8315
    -0.8130  -0.7945  -0.7806  -0.7661  -0.7607  -0.7390  -0.6303  -0.6056
    -0.5919  -0.5759  -0.5590  -0.5526  -0.5337  -0.5279  -0.5076  -0.5021
    -0.4852  -0.4589  -0.4319  -0.4178  -0.4000  -0.3897  -0.3525  -0.3309
    -0.3220  -0.3192  -0.3142  -0.2905  -0.2847  -0.2788  -0.2664  -0.2549
    -0.2419  -0.1669  -0.1540  -0.1479  -0.1075  -0.1001  -0.0896   0.0427
     0.1396   0.2474   0.2593   0.4373   0.5275   0.6420   1.0463   1.1226
     1.2361   1.3960

          k = 0.2000-0.5774 0.0000 ( 51262 PWs)   bands (ev):

   -22.0728  -9.0243  -6.7373  -6.6748  -6.1653  -6.0307  -5.6788  -5.5446
    -5.2463  -5.1977  -4.9007  -4.6745  -4.4608  -4.2246  -4.1733  -4.0788
    -4.0444  -4.0335  -4.0119  -4.0073  -3.9569  -3.9422  -3.9301  -3.9283
    -3.9034  -3.8472  -3.7822  -3.7766  -3.7543  -3.7498  -3.7150  -3.6115
    -3.5992  -3.5922  -3.5647  -3.5225  -3.4484  -3.4390  -3.3891  -3.3026
    -3.2962  -3.2334  -3.2207  -3.1911  -3.1696  -3.1112  -3.0860  -3.0698
    -3.0264  -3.0168  -2.9879  -2.9224  -2.8948  -2.8654  -2.8579  -2.8140
    -2.8102  -2.7257  -2.7203  -2.7036  -2.6982  -2.6840  -2.6606  -2.6422
    -2.5639  -2.5108  -2.4976  -2.4836  -2.4576  -2.4275  -2.4019  -2.3581
    -2.3532  -2.3191  -2.3068  -2.3056  -2.2988  -2.2817  -2.2520  -2.2455
    -2.2305  -2.2179  -2.2014  -2.1750  -2.1705  -2.1394  -2.0929  -2.0769
    -2.0561  -2.0142  -2.0054  -1.9837  -1.9616  -1.9325  -1.9223  -1.9093
    -1.8945  -1.8861  -1.8811  -1.8667  -1.8585  -1.8328  -1.8290  -1.8038
    -1.7618  -1.7392  -1.7310  -1.7184  -1.7024  -1.6985  -1.6919  -1.6805
    -1.6704  -1.6595  -1.6483  -1.6197  -1.5860  -1.5712  -1.5644  -1.5380
    -1.4823  -1.4706  -1.4491  -1.4320  -1.4209  -1.4048  -1.3874  -1.3777
    -1.3372  -1.3184  -1.3089  -1.2649  -1.2089  -1.1778  -1.1714  -1.1619
    -1.1368  -1.1271  -1.1189  -1.0776  -1.0700  -1.0522  -1.0367  -1.0286
    -0.9777  -0.9600  -0.9487  -0.9388  -0.9203  -0.8759  -0.8649  -0.8485
    -0.8424  -0.8313  -0.8190  -0.7934  -0.7783  -0.7563  -0.7338  -0.5982
    -0.5701  -0.5622  -0.5500  -0.5353  -0.5260  -0.5192  -0.5072  -0.4845
    -0.4668  -0.4524  -0.4480  -0.4342  -0.3918  -0.3373  -0.3234  -0.3156
    -0.3132  -0.2945  -0.2794  -0.2622  -0.2253  -0.2230  -0.2131  -0.2031
    -0.2011  -0.1324  -0.1216  -0.1175  -0.1044  -0.0949  -0.0720  -0.0446
     0.1183   0.2592   0.4807   0.8561   1.1070   1.1879   1.3157   1.4985
     1.6817   1.7199

          k = 0.2000-0.3464 0.0000 ( 51202 PWs)   bands (ev):

   -22.0728  -9.0321  -7.2394  -6.3201  -6.0017  -5.9213  -5.6777  -5.5310
    -5.3210  -5.0589  -4.7187  -4.6718  -4.4746  -4.4663  -4.3182  -4.2599
    -4.2522  -4.1586  -4.1536  -4.0534  -4.0177  -4.0104  -3.8898  -3.8677
    -3.8131  -3.7686  -3.6742  -3.6608  -3.6476  -3.6286  -3.6173  -3.5961
    -3.5795  -3.5699  -3.5351  -3.5067  -3.4691  -3.4250  -3.4163  -3.3956
    -3.2796  -3.2190  -3.2018  -3.1879  -3.1600  -3.1296  -3.0668  -3.0403
    -2.9972  -2.9875  -2.9585  -2.9531  -2.9380  -2.9082  -2.8889  -2.8767
    -2.8570  -2.8534  -2.7448  -2.7218  -2.6799  -2.6631  -2.6375  -2.6229
    -2.6062  -2.5677  -2.4892  -2.4219  -2.4039  -2.3800  -2.3680  -2.3367
    -2.3251  -2.3096  -2.3043  -2.2799  -2.2713  -2.2524  -2.2422  -2.2398
    -2.2268  -2.1775  -2.1503  -2.1185  -2.0591  -2.0539  -2.0281  -2.0206
    -2.0099  -1.9850  -1.9620  -1.9484  -1.9396  -1.9198  -1.9030  -1.8919
    -1.8902  -1.8792  -1.8727  -1.8564  -1.8423  -1.8363  -1.8199  -1.8072
    -1.7961  -1.7904  -1.7685  -1.7122  -1.7077  -1.6719  -1.6630  -1.6559
    -1.6517  -1.6354  -1.5990  -1.5759  -1.5581  -1.5303  -1.5237  -1.4994
    -1.4925  -1.4820  -1.4763  -1.4473  -1.4363  -1.4203  -1.4137  -1.3644
    -1.3532  -1.3166  -1.3001  -1.2511  -1.2068  -1.1773  -1.1555  -1.0982
    -1.0727  -1.0487  -1.0395  -1.0349  -1.0296  -1.0189  -0.9904  -0.9767
    -0.9596  -0.9519  -0.9332  -0.8971  -0.8836  -0.8629  -0.8491  -0.8288
    -0.8110  -0.7984  -0.7763  -0.7651  -0.7590  -0.7412  -0.6268  -0.6120
    -0.5909  -0.5711  -0.5570  -0.5497  -0.5424  -0.5221  -0.5166  -0.4976
    -0.4868  -0.4623  -0.4249  -0.4175  -0.4004  -0.3920  -0.3540  -0.3296
    -0.3234  -0.3167  -0.3137  -0.2896  -0.2876  -0.2778  -0.2660  -0.2540
    -0.2437  -0.1667  -0.1553  -0.1502  -0.1056  -0.1003  -0.0996   0.0458
     0.1329   0.2476   0.2590   0.4481   0.5246   0.6389   1.0573   1.1215
     1.2385   1.3698

          k = 0.4000-0.2309 0.0000 ( 51204 PWs)   bands (ev):

   -22.0728  -9.0248  -7.1087  -6.4752  -6.1924  -5.8694  -5.5107  -5.3549
    -5.1881  -5.1502  -5.0856  -4.8773  -4.3475  -4.3070  -4.2751  -4.2301
    -4.1899  -4.1156  -4.1109  -4.0124  -3.9852  -3.9739  -3.9413  -3.8205
    -3.7962  -3.7891  -3.7861  -3.7827  -3.7082  -3.6834  -3.6748  -3.6333
    -3.5131  -3.5048  -3.4911  -3.4678  -3.4647  -3.4242  -3.3576  -3.3494
    -3.3383  -3.3289  -3.2984  -3.2025  -3.1235  -3.0926  -3.0307  -3.0163
    -2.9908  -2.9755  -2.9532  -2.9373  -2.9278  -2.9220  -2.8989  -2.8566
    -2.8404  -2.8168  -2.7836  -2.7502  -2.6475  -2.6338  -2.6102  -2.5951
    -2.5611  -2.5216  -2.5054  -2.4865  -2.4792  -2.4124  -2.3575  -2.3525
    -2.3488  -2.3385  -2.3310  -2.3126  -2.2998  -2.2885  -2.2642  -2.2344
    -2.2247  -2.1940  -2.1760  -2.1488  -2.1258  -2.1000  -2.0523  -2.0473
    -2.0231  -2.0156  -1.9951  -1.9726  -1.9635  -1.9211  -1.9149  -1.9021
    -1.8990  -1.8840  -1.8679  -1.8540  -1.8409  -1.8363  -1.8267  -1.7986
    -1.7895  -1.7598  -1.7406  -1.7224  -1.6556  -1.6469  -1.6156  -1.6104
    -1.5957  -1.5689  -1.5467  -1.5089  -1.5025  -1.4935  -1.4898  -1.4779
    -1.4716  -1.4619  -1.4571  -1.4527  -1.4403  -1.4257  -1.4086  -1.4008
    -1.3743  -1.3633  -1.3125  -1.2760  -1.2581  -1.2447  -1.2273  -1.1997
    -1.1842  -1.1387  -1.1097  -1.1020  -1.0812  -1.0576  -1.0230  -0.9974
    -0.9773  -0.9474  -0.9262  -0.9202  -0.8888  -0.8680  -0.8406  -0.7887
    -0.7382  -0.7229  -0.7105  -0.6959  -0.6917  -0.6851  -0.6790  -0.6667
    -0.6513  -0.6409  -0.5533  -0.5464  -0.5360  -0.5292  -0.5168  -0.5027
    -0.4935  -0.4783  -0.4653  -0.4617  -0.4459  -0.4258  -0.3611  -0.3443
    -0.3394  -0.3319  -0.3071  -0.2557  -0.2456  -0.2172  -0.2080  -0.1694
    -0.1465  -0.1308  -0.1234  -0.1045  -0.0997  -0.0949  -0.0886  -0.0575
     0.0003   0.0156   0.3957   0.6179   0.9254   1.0792   1.1320   1.2394
     1.4529   1.5148

          k = 0.4000 0.0000 0.0000 ( 51202 PWs)   bands (ev):

   -22.0728  -9.0274  -7.2450  -6.3116  -6.0746  -5.9068  -5.6783  -5.4722
    -5.3410  -5.0360  -4.7719  -4.5960  -4.4826  -4.4776  -4.3203  -4.2614
    -4.2463  -4.1583  -4.1486  -4.0928  -4.0297  -3.9277  -3.8865  -3.8783
    -3.8102  -3.7719  -3.6789  -3.6731  -3.6383  -3.6304  -3.6214  -3.5976
    -3.5772  -3.5660  -3.5534  -3.5128  -3.4671  -3.4483  -3.4284  -3.3864
    -3.2968  -3.2375  -3.2027  -3.1775  -3.1514  -3.1406  -3.0720  -3.0354
    -3.0120  -2.9714  -2.9633  -2.9521  -2.9309  -2.9013  -2.8890  -2.8802
    -2.8603  -2.8539  -2.7567  -2.6855  -2.6813  -2.6585  -2.6276  -2.6163
    -2.6075  -2.5631  -2.4901  -2.4211  -2.3977  -2.3787  -2.3707  -2.3359
    -2.3299  -2.3126  -2.3051  -2.2866  -2.2663  -2.2578  -2.2470  -2.2380
    -2.2062  -2.1772  -2.1552  -2.0974  -2.0591  -2.0543  -2.0424  -2.0241
    -2.0023  -1.9939  -1.9652  -1.9447  -1.9416  -1.9167  -1.8943  -1.8900
    -1.8858  -1.8819  -1.8772  -1.8613  -1.8488  -1.8316  -1.8156  -1.8086
    -1.7938  -1.7666  -1.7337  -1.7136  -1.7069  -1.6866  -1.6604  -1.6554
    -1.6465  -1.6286  -1.6204  -1.5741  -1.5542  -1.5421  -1.5252  -1.5149
    -1.4967  -1.4827  -1.4786  -1.4657  -1.4456  -1.4261  -1.4145  -1.3573
    -1.3452  -1.3238  -1.3164  -1.2313  -1.2070  -1.1893  -1.1683  -1.0937
    -1.0683  -1.0557  -1.0512  -1.0303  -1.0266  -1.0123  -0.9928  -0.9847
    -0.9712  -0.9431  -0.9282  -0.8870  -0.8696  -0.8595  -0.8558  -0.8373
    -0.8079  -0.7956  -0.7836  -0.7701  -0.7581  -0.7388  -0.6229  -0.5991
    -0.5817  -0.5663  -0.5575  -0.5478  -0.5429  -0.5227  -0.5111  -0.5078
    -0.4865  -0.4658  -0.4359  -0.4205  -0.4016  -0.3842  -0.3469  -0.3291
    -0.3222  -0.3197  -0.3109  -0.2925  -0.2837  -0.2747  -0.2726  -0.2507
    -0.2407  -0.1637  -0.1558  -0.1491  -0.1122  -0.1055  -0.0763   0.0458
     0.2260   0.2431   0.2963   0.3326   0.5513   0.6205   0.9301   1.1312
     1.2208   1.4511

          k = 0.4000 0.2309 0.0000 ( 51204 PWs)   bands (ev):

   -22.0728  -9.0241  -7.1102  -6.4776  -6.1946  -5.8773  -5.4801  -5.3626
    -5.2036  -5.1455  -5.0841  -4.8761  -4.3467  -4.3050  -4.2862  -4.2275
    -4.1870  -4.1148  -4.1128  -4.0057  -3.9834  -3.9746  -3.9315  -3.8232
    -3.7961  -3.7906  -3.7848  -3.7810  -3.6962  -3.6818  -3.6753  -3.6539
    -3.5149  -3.5107  -3.4943  -3.4680  -3.4672  -3.4181  -3.3573  -3.3491
    -3.3359  -3.3251  -3.3038  -3.2053  -3.1246  -3.0885  -3.0318  -3.0155
    -2.9950  -2.9689  -2.9538  -2.9474  -2.9310  -2.9180  -2.8859  -2.8565
    -2.8431  -2.8179  -2.7863  -2.7437  -2.6424  -2.6373  -2.6139  -2.5967
    -2.5621  -2.5208  -2.5001  -2.4923  -2.4811  -2.4111  -2.3574  -2.3524
    -2.3458  -2.3412  -2.3310  -2.3123  -2.2979  -2.2885  -2.2658  -2.2286
    -2.2237  -2.1943  -2.1749  -2.1521  -2.1264  -2.0937  -2.0523  -2.0431
    -2.0290  -2.0174  -1.9968  -1.9785  -1.9633  -1.9233  -1.9158  -1.9052
    -1.8936  -1.8885  -1.8691  -1.8562  -1.8414  -1.8328  -1.8271  -1.7958
    -1.7892  -1.7667  -1.7386  -1.7223  -1.6551  -1.6487  -1.6173  -1.6105
    -1.5934  -1.5681  -1.5439  -1.5080  -1.5034  -1.4950  -1.4905  -1.4789
    -1.4749  -1.4624  -1.4581  -1.4495  -1.4407  -1.4243  -1.4073  -1.3928
    -1.3798  -1.3626  -1.3144  -1.2743  -1.2563  -1.2385  -1.2249  -1.1971
    -1.1878  -1.1384  -1.1125  -1.1006  -1.0800  -1.0621  -1.0294  -0.9979
    -0.9757  -0.9499  -0.9224  -0.9203  -0.8880  -0.8677  -0.8386  -0.8036
    -0.7381  -0.7208  -0.7032  -0.6962  -0.6908  -0.6835  -0.6757  -0.6653
    -0.6603  -0.6489  -0.5553  -0.5441  -0.5393  -0.5268  -0.5172  -0.4998
    -0.4940  -0.4810  -0.4706  -0.4577  -0.4406  -0.4257  -0.3600  -0.3430
    -0.3392  -0.3336  -0.3048  -0.2515  -0.2475  -0.2140  -0.2092  -0.1692
    -0.1461  -0.1290  -0.1246  -0.1047  -0.1001  -0.0927  -0.0823  -0.0609
     0.0009   0.0189   0.3956   0.6361   0.9054   1.0539   1.1359   1.2164
     1.4773   1.5277

          k = 0.4000-0.6928 0.0000 ( 51262 PWs)   bands (ev):

   -22.0728  -9.0197  -6.7616  -6.6651  -6.1829  -5.9586  -5.8580  -5.3946
    -5.2117  -5.1967  -4.9666  -4.6679  -4.4595  -4.2217  -4.1716  -4.0483
    -4.0432  -4.0208  -4.0094  -3.9925  -3.9585  -3.9370  -3.9322  -3.9268
    -3.9116  -3.8177  -3.7865  -3.7800  -3.7595  -3.7468  -3.7405  -3.6158
    -3.5961  -3.5939  -3.5784  -3.5520  -3.4967  -3.4369  -3.3436  -3.3016
    -3.2980  -3.2887  -3.2027  -3.1888  -3.1655  -3.1186  -3.0834  -3.0803
    -3.0464  -3.0018  -2.9825  -2.9205  -2.8962  -2.8650  -2.8530  -2.8075
    -2.7896  -2.7284  -2.7182  -2.7136  -2.7004  -2.6887  -2.6418  -2.6239
    -2.5622  -2.5064  -2.4962  -2.4826  -2.4712  -2.4317  -2.4097  -2.3591
    -2.3443  -2.3200  -2.3137  -2.3034  -2.2893  -2.2678  -2.2467  -2.2420
    -2.2253  -2.2118  -2.1898  -2.1771  -2.1693  -2.1295  -2.1112  -2.0897
    -2.0716  -2.0467  -2.0106  -1.9739  -1.9542  -1.9297  -1.9201  -1.9125
    -1.8939  -1.8888  -1.8784  -1.8631  -1.8447  -1.8381  -1.8307  -1.7662
    -1.7499  -1.7376  -1.7294  -1.7196  -1.7029  -1.6954  -1.6885  -1.6846
    -1.6776  -1.6679  -1.6470  -1.6352  -1.5930  -1.5664  -1.5601  -1.5381
    -1.5075  -1.4823  -1.4583  -1.4253  -1.4122  -1.4038  -1.3908  -1.3710
    -1.3282  -1.3228  -1.2991  -1.2474  -1.2090  -1.1906  -1.1702  -1.1622
    -1.1339  -1.1193  -1.1143  -1.0974  -1.0847  -1.0620  -1.0390  -1.0187
    -0.9753  -0.9674  -0.9539  -0.9297  -0.9197  -0.8814  -0.8743  -0.8580
    -0.8379  -0.8315  -0.8096  -0.7981  -0.7718  -0.7587  -0.7322  -0.5838
    -0.5670  -0.5543  -0.5471  -0.5382  -0.5349  -0.5175  -0.5091  -0.4750
    -0.4686  -0.4544  -0.4500  -0.4300  -0.3869  -0.3333  -0.3251  -0.3184
    -0.3040  -0.2901  -0.2741  -0.2468  -0.2303  -0.2221  -0.2135  -0.2051
    -0.1941  -0.1830  -0.1222  -0.1169  -0.1034  -0.0953  -0.0700  -0.0420
     0.1516   0.2777   0.5507   0.7926   1.0069   1.1959   1.2327   1.5796
     1.6857   1.7236

          k = 0.4000-0.4619 0.0000 ( 51262 PWs)   bands (ev):

   -22.0728  -9.0201  -6.7584  -6.6648  -6.1837  -5.9757  -5.8300  -5.4164
    -5.2180  -5.1932  -4.9529  -4.6680  -4.4594  -4.2194  -4.1742  -4.0484
    -4.0426  -4.0254  -4.0095  -4.0015  -3.9584  -3.9370  -3.9308  -3.9282
    -3.9111  -3.8253  -3.7865  -3.7794  -3.7570  -3.7517  -3.7285  -3.6163
    -3.5962  -3.5907  -3.5724  -3.5497  -3.4955  -3.4400  -3.3488  -3.3010
    -3.2984  -3.2837  -3.2061  -3.1892  -3.1668  -3.1156  -3.0848  -3.0760
    -3.0383  -3.0071  -2.9833  -2.9198  -2.8981  -2.8685  -2.8527  -2.8097
    -2.7894  -2.7286  -2.7187  -2.7116  -2.6990  -2.6884  -2.6485  -2.6159
    -2.5629  -2.5039  -2.4961  -2.4852  -2.4692  -2.4265  -2.4150  -2.3599
    -2.3476  -2.3202  -2.3115  -2.3010  -2.2912  -2.2688  -2.2499  -2.2438
    -2.2232  -2.2175  -2.1951  -2.1764  -2.1687  -2.1272  -2.0972  -2.0895
    -2.0705  -2.0529  -2.0053  -1.9750  -1.9537  -1.9265  -1.9203  -1.9129
    -1.8937  -1.8887  -1.8803  -1.8652  -1.8481  -1.8358  -1.8290  -1.7659
    -1.7560  -1.7335  -1.7268  -1.7244  -1.7061  -1.7003  -1.6930  -1.6808
    -1.6768  -1.6707  -1.6439  -1.6315  -1.5917  -1.5661  -1.5627  -1.5321
    -1.4931  -1.4802  -1.4694  -1.4260  -1.4106  -1.4031  -1.3929  -1.3715
    -1.3283  -1.3253  -1.3027  -1.2491  -1.2062  -1.1910  -1.1692  -1.1615
    -1.1352  -1.1209  -1.1086  -1.1046  -1.0766  -1.0612  -1.0387  -1.0200
    -0.9777  -0.9720  -0.9521  -0.9330  -0.9158  -0.8842  -0.8686  -0.8524
    -0.8392  -0.8308  -0.8160  -0.7925  -0.7719  -0.7552  -0.7363  -0.5873
    -0.5654  -0.5516  -0.5461  -0.5399  -0.5287  -0.5208  -0.5041  -0.4749
    -0.4698  -0.4584  -0.4474  -0.4334  -0.3878  -0.3337  -0.3266  -0.3183
    -0.2977  -0.2901  -0.2804  -0.2552  -0.2361  -0.2209  -0.2154  -0.1995
    -0.1931  -0.1744  -0.1199  -0.1188  -0.1036  -0.0945  -0.0703  -0.0448
     0.1442   0.2753   0.5283   0.8386   1.0001   1.1939   1.2401   1.5538
     1.6708   1.7317

 ------ SPIN DOWN ----------


          k = 0.0000 0.0000 0.0000 ( 51087 PWs)   bands (ev):

   -22.1639  -9.1459  -7.7904  -6.6132  -5.8152  -5.6723  -5.3994  -5.0312
    -4.6330  -4.6185  -4.6171  -4.6030  -4.5892  -4.5613  -4.2213  -3.7507
    -3.7476  -3.7352  -3.7244  -3.7101  -3.6479  -3.3285  -2.8129  -2.8027
    -2.7937  -2.7902  -2.7176  -2.5902  -2.3488  -2.3401  -2.3325  -2.3285
    -2.3075  -2.2289  -2.1323  -2.1306  -2.0592  -2.0520  -2.0352  -2.0328
    -1.9476  -1.9473  -1.8982  -1.8949  -1.8310  -1.8137  -1.8004  -1.7848
    -1.7526  -1.7190  -1.5498  -1.5467  -1.5262  -1.5218  -1.5188  -1.5128
    -1.4969  -1.4965  -1.4662  -1.4535  -1.4281  -1.4244  -1.4201  -1.4188
    -1.3428  -1.2587  -0.8982  -0.8749  -0.8389  -0.8363  -0.7744  -0.7148
    -0.6478  -0.5716  -0.5519  -0.5331  -0.5192  -0.5143  -0.5025  -0.4895
    -0.4718  -0.4579  -0.4407  -0.4338  -0.4237  -0.4219  -0.4208  -0.3883
    -0.3634  -0.3184  -0.3107  -0.2952  -0.2872  -0.2755  -0.2631  -0.2606
    -0.2557  -0.2397  -0.2363  -0.2313  -0.2306  -0.2294  -0.2076  -0.1545
    -0.1293  -0.1098  -0.0984  -0.0559  -0.0227  -0.0177  -0.0036  -0.0016
     0.0009   0.0060   0.0076   0.0673   0.0744   0.0790   0.1273   0.1440
     0.1516   0.1701   0.1760   0.2114   0.2988   0.3899   0.3935   0.4551
     0.4610   0.4697   0.4779   0.4824   0.6437   0.6803   0.7807   0.7931
     0.8280   0.8425   1.0023   1.0153   1.0345   1.0437   1.0452   1.0525
     1.0778   1.1633   1.1950   1.2138   1.2234   1.2249   1.2401   1.2587
     1.2600   1.2760   1.2890   1.3057   1.3189   1.3198   1.3340   1.3584
     1.3695   1.3735   1.3802   1.4054   1.4236   1.4275   1.4374   1.4535
     1.4566   1.4650   1.4812   1.4879   1.4937   1.5049   1.5081   1.5425
     1.5543   1.5687   1.5712   1.5807   1.5834   1.5898   1.5966   1.6345
     1.6404   1.6409   1.6442   1.6502   1.6508   1.6616   1.6673   1.6778
     1.6821   1.7262   1.7292   1.8673   1.8759   1.8785   1.8823   1.8837
     1.8860   2.0637

          k = 0.0000 0.2309 0.0000 ( 51134 PWs)   bands (ev):

   -22.1639  -9.1357  -7.6486  -6.5130  -5.8476  -5.7021  -5.5440  -5.3766
    -5.0707  -4.9771  -4.8714  -4.4706  -4.0962  -4.0705  -4.0519  -3.9512
    -3.8529  -3.7595  -3.4499  -3.3987  -3.3736  -3.2502  -2.9187  -2.8036
    -2.7667  -2.7111  -2.6798  -2.6159  -2.4319  -2.3671  -2.3615  -2.3403
    -2.3308  -2.2855  -2.2759  -2.2746  -2.2333  -2.2040  -2.0974  -2.0921
    -2.0103  -2.0063  -1.9329  -1.8570  -1.8281  -1.8144  -1.8092  -1.6937
    -1.6701  -1.6515  -1.6029  -1.5667  -1.5507  -1.5303  -1.5242  -1.5170
    -1.5052  -1.5001  -1.4054  -1.3930  -1.3776  -1.3615  -1.3232  -1.2773
    -1.2422  -1.1513  -0.9482  -0.9142  -0.8876  -0.8846  -0.8244  -0.7887
    -0.7233  -0.7008  -0.6798  -0.6484  -0.5860  -0.5719  -0.5582  -0.5397
    -0.5029  -0.4888  -0.4823  -0.4773  -0.4634  -0.4395  -0.4103  -0.3995
    -0.3842  -0.3112  -0.3111  -0.3021  -0.2776  -0.2665  -0.2481  -0.2385
    -0.2349  -0.2260  -0.2222  -0.2095  -0.2080  -0.2071  -0.1716  -0.1580
    -0.1435  -0.1260  -0.1131  -0.1036  -0.0766  -0.0706  -0.0530  -0.0268
    -0.0232   0.0071   0.0228   0.0851   0.0978   0.1100   0.1333   0.1416
     0.2378   0.2648   0.3010   0.3534   0.3648   0.3677   0.4276   0.4340
     0.4414   0.4472   0.4567   0.4613   0.6028   0.7091   0.7742   0.7870
     0.7961   0.8086   0.8188   0.8297   0.8858   0.8948   0.9454   0.9630
     1.0038   1.0340   1.0690   1.0748   1.0976   1.1174   1.1441   1.1955
     1.2192   1.2425   1.2502   1.2531   1.2843   1.2901   1.3319   1.3385
     1.3592   1.3799   1.4238   1.4316   1.4446   1.4515   1.4708   1.4876
     1.5200   1.5306   1.5341   1.5381   1.5650   1.6209   1.6221   1.6351
     1.6376   1.6622   1.6651   1.6908   1.7000   1.7058   1.7138   1.7210
     1.7425   1.7813   1.7894   1.8022   1.8043   1.8157   1.8274   1.8431
     1.8675   1.8698   1.8745   1.9084   1.9645   1.9761   1.9776   2.0269
     2.0576   2.1168

          k = 0.0000 0.4619 0.0000 ( 51204 PWs)   bands (ev):

   -22.1639  -9.1199  -7.2266  -6.5670  -6.2294  -5.7673  -5.6750  -5.3867
    -5.2561  -5.1530  -5.0888  -4.7181  -4.1038  -4.0115  -3.8680  -3.4522
    -3.4496  -3.3942  -3.3255  -3.1611  -3.0353  -3.0104  -2.9926  -2.8518
    -2.8482  -2.7892  -2.7356  -2.7031  -2.6278  -2.6121  -2.6046  -2.5471
    -2.5373  -2.3691  -2.3260  -2.3191  -2.2463  -2.2297  -2.1251  -2.1159
    -2.0985  -2.0884  -2.0144  -1.8314  -1.8139  -1.7910  -1.7702  -1.7442
    -1.6009  -1.5895  -1.5829  -1.5688  -1.5550  -1.5300  -1.5239  -1.5010
    -1.4850  -1.4114  -1.4009  -1.3848  -1.3696  -1.3541  -1.2065  -1.1750
    -1.0695  -1.0419  -0.9404  -0.9145  -0.8997  -0.8646  -0.8544  -0.8421
    -0.8205  -0.7974  -0.7825  -0.7698  -0.7026  -0.6847  -0.6570  -0.6351
    -0.6161  -0.5983  -0.5752  -0.5642  -0.5317  -0.5076  -0.4566  -0.4257
    -0.4195  -0.3669  -0.3536  -0.3431  -0.2906  -0.2734  -0.2568  -0.2183
    -0.2086  -0.1943  -0.1785  -0.1738  -0.1629  -0.1566  -0.1117  -0.0997
    -0.0970  -0.0690  -0.0603  -0.0530  -0.0453  -0.0268  -0.0187   0.0043
     0.0155   0.0305   0.0782   0.0988   0.1522   0.1650   0.1778   0.2069
     0.2156   0.2268   0.2498   0.2690   0.3161   0.3267   0.3429   0.3636
     0.3905   0.4090   0.4237   0.4318   0.4686   0.5218   0.5917   0.5988
     0.6836   0.7044   0.7646   0.7843   0.8423   0.8543   0.8809   0.8847
     0.9127   0.9226   0.9471   0.9933   0.9981   1.0538   1.1730   1.1824
     1.1953   1.2280   1.2360   1.2409   1.2925   1.3121   1.3452   1.3513
     1.3768   1.3956   1.4058   1.4758   1.4861   1.4901   1.5476   1.5519
     1.5561   1.5580   1.5888   1.5941   1.6275   1.6379   1.6504   1.6697
     1.6733   1.7279   1.7349   1.7779   1.7903   1.8031   1.8164   1.8286
     1.8329   1.8695   1.8706   1.8869   1.8968   1.9076   1.9169   1.9189
     1.9655   2.0221   2.0472   2.0996   2.1271   2.1958   2.5512   2.6306
     2.6565   2.7127

          k = 0.2000-0.1155 0.0000 ( 51134 PWs)   bands (ev):

   -22.1639  -9.1334  -7.6502  -6.5144  -5.8989  -5.6824  -5.5133  -5.3820
    -5.0502  -4.9840  -4.8904  -4.3859  -4.2132  -4.0662  -4.0543  -3.9293
    -3.8204  -3.7718  -3.4699  -3.3920  -3.3118  -3.2526  -2.9786  -2.7853
    -2.7638  -2.7372  -2.6827  -2.5774  -2.4568  -2.3658  -2.3619  -2.3511
    -2.3229  -2.2952  -2.2784  -2.2765  -2.2351  -2.1840  -2.0955  -2.0911
    -2.0109  -2.0049  -1.9564  -1.8424  -1.8221  -1.8143  -1.7947  -1.6961
    -1.6707  -1.6449  -1.6066  -1.5625  -1.5536  -1.5279  -1.5223  -1.5167
    -1.5031  -1.4841  -1.4125  -1.3917  -1.3760  -1.3560  -1.3283  -1.2889
    -1.2318  -1.1622  -0.9414  -0.9056  -0.8924  -0.8830  -0.8268  -0.7829
    -0.7617  -0.7104  -0.6792  -0.6445  -0.6014  -0.5633  -0.5522  -0.5354
    -0.5048  -0.4961  -0.4780  -0.4645  -0.4529  -0.4498  -0.4256  -0.4006
    -0.3590  -0.3185  -0.3101  -0.3075  -0.2869  -0.2663  -0.2572  -0.2401
    -0.2302  -0.2262  -0.2164  -0.2124  -0.2070  -0.2035  -0.1732  -0.1565
    -0.1369  -0.1284  -0.1139  -0.0988  -0.0935  -0.0816  -0.0557  -0.0278
    -0.0052  -0.0021   0.0376   0.0796   0.0966   0.1135   0.1190   0.1437
     0.2414   0.2750   0.3081   0.3499   0.3586   0.3811   0.4167   0.4333
     0.4427   0.4533   0.4570   0.4619   0.6038   0.7166   0.7778   0.7909
     0.7991   0.8070   0.8199   0.8353   0.8666   0.8789   0.9541   0.9767
     1.0038   1.0412   1.0752   1.0842   1.1107   1.1295   1.1425   1.1547
     1.2202   1.2400   1.2512   1.2644   1.2825   1.2938   1.3280   1.3378
     1.3518   1.3695   1.4199   1.4303   1.4396   1.4508   1.4702   1.5091
     1.5256   1.5301   1.5366   1.5421   1.5593   1.6076   1.6196   1.6285
     1.6345   1.6594   1.6676   1.6926   1.7036   1.7075   1.7144   1.7271
     1.7435   1.7864   1.7884   1.8046   1.8074   1.8163   1.8269   1.8459
     1.8579   1.8683   1.8733   1.8859   1.9681   1.9756   1.9811   2.0319
     2.0558   2.1087

          k = 0.2000 0.1155 0.0000 ( 51134 PWs)   bands (ev):

   -22.1639  -9.1332  -7.6505  -6.5151  -5.9059  -5.6752  -5.5056  -5.3914
    -5.0425  -4.9834  -4.9006  -4.3677  -4.2142  -4.0699  -4.0562  -3.9465
    -3.8129  -3.7707  -3.4698  -3.3978  -3.3031  -3.2464  -2.9812  -2.8022
    -2.7574  -2.7309  -2.6903  -2.5669  -2.4599  -2.3692  -2.3604  -2.3501
    -2.3260  -2.2957  -2.2787  -2.2759  -2.2370  -2.1789  -2.0946  -2.0923
    -2.0091  -2.0061  -1.9576  -1.8501  -1.8168  -1.8127  -1.7879  -1.6921
    -1.6770  -1.6534  -1.5947  -1.5768  -1.5463  -1.5315  -1.5182  -1.5119
    -1.5073  -1.4735  -1.4241  -1.3904  -1.3749  -1.3557  -1.3288  -1.2898
    -1.2368  -1.1595  -0.9400  -0.9081  -0.8905  -0.8795  -0.8281  -0.8057
    -0.7721  -0.6939  -0.6628  -0.6432  -0.6059  -0.5655  -0.5569  -0.5265
    -0.5081  -0.4962  -0.4767  -0.4698  -0.4588  -0.4419  -0.4326  -0.3878
    -0.3570  -0.3130  -0.3101  -0.3069  -0.2902  -0.2625  -0.2504  -0.2405
    -0.2344  -0.2267  -0.2176  -0.2106  -0.2080  -0.2038  -0.1752  -0.1561
    -0.1424  -0.1276  -0.1132  -0.0994  -0.0957  -0.0801  -0.0513  -0.0291
    -0.0117   0.0090   0.0407   0.0710   0.0972   0.1151   0.1232   0.1440
     0.2188   0.2697   0.2993   0.3462   0.3583   0.3886   0.4177   0.4347
     0.4434   0.4510   0.4583   0.4626   0.6216   0.7104   0.7770   0.7905
     0.8005   0.8099   0.8189   0.8346   0.8572   0.8917   0.9555   0.9675
     1.0031   1.0544   1.0701   1.0900   1.1096   1.1309   1.1393   1.1582
     1.2207   1.2412   1.2571   1.2678   1.2839   1.2916   1.3243   1.3381
     1.3487   1.3675   1.4230   1.4278   1.4410   1.4500   1.4708   1.5077
     1.5278   1.5298   1.5354   1.5476   1.5559   1.6027   1.6182   1.6293
     1.6366   1.6613   1.6649   1.6935   1.7018   1.7101   1.7128   1.7270
     1.7445   1.7864   1.7891   1.8038   1.8070   1.8171   1.8301   1.8446
     1.8595   1.8671   1.8731   1.8827   1.9680   1.9745   1.9831   2.0300
     2.0556   2.1064

          k = 0.2000 0.3464 0.0000 ( 51202 PWs)   bands (ev):

   -22.1639  -9.1203  -7.3685  -6.3664  -6.0767  -5.9989  -5.6896  -5.5539
    -5.3755  -5.0107  -4.6438  -4.5111  -4.2575  -4.2348  -3.9011  -3.4338
    -3.4195  -3.4148  -3.4061  -3.2885  -3.1515  -3.1208  -3.1043  -2.8915
    -2.7506  -2.6821  -2.6668  -2.6364  -2.5739  -2.5668  -2.5536  -2.4683
    -2.4630  -2.4551  -2.4219  -2.3076  -2.2797  -2.2519  -2.0901  -2.0791
    -2.0577  -1.9894  -1.9529  -1.9378  -1.8990  -1.7866  -1.7295  -1.7226
    -1.6389  -1.6033  -1.5620  -1.5583  -1.5465  -1.5362  -1.5103  -1.5031
    -1.4896  -1.4709  -1.4145  -1.3740  -1.3420  -1.2898  -1.1870  -1.1605
    -1.0968  -1.0743  -0.9826  -0.9196  -0.8864  -0.8615  -0.8254  -0.8196
    -0.7923  -0.7708  -0.7330  -0.7163  -0.7003  -0.6763  -0.6488  -0.6378
    -0.6281  -0.6128  -0.5956  -0.5612  -0.5371  -0.4433  -0.4392  -0.4139
    -0.3973  -0.3748  -0.3512  -0.3326  -0.3105  -0.2952  -0.2812  -0.2738
    -0.2565  -0.2374  -0.2170  -0.2071  -0.1890  -0.1720  -0.1538  -0.1240
    -0.1146  -0.1057  -0.0957  -0.0792  -0.0608  -0.0551  -0.0422  -0.0328
     0.0482   0.0557   0.0699   0.0772   0.1253   0.1866   0.2136   0.2320
     0.2567   0.2672   0.3071   0.3330   0.3636   0.3744   0.3809   0.3910
     0.4013   0.4204   0.4387   0.4801   0.5244   0.6299   0.6816   0.7069
     0.7529   0.7771   0.8065   0.8333   0.8473   0.8601   0.8716   0.8881
     0.9034   0.9161   0.9357   0.9492   0.9887   1.0356   1.0925   1.0996
     1.1251   1.1563   1.1588   1.1902   1.2104   1.2576   1.2765   1.3223
[...]
     atom    8 type  1   force =     0.00349446   -0.00220040   -0.10305356
     atom    9 type  1   force =    -0.00089692   -0.00168670   -0.10411165
     atom   10 type  1   force =    -0.00047947    0.00089746   -0.01172883
     atom   11 type  1   force =    -0.00028854    0.00085629   -0.00763105
     atom   12 type  1   force =     0.00121585    0.00086052   -0.00971074
     atom   13 type  1   force =     0.00192312   -0.00185426   -0.01101687
     atom   14 type  1   force =    -0.00123109   -0.00127648   -0.01053031
     atom   15 type  1   force =    -0.00077051   -0.00069449   -0.01323142
     atom   16 type  1   force =    -0.00109505    0.00028580   -0.01701086
     atom   17 type  1   force =     0.00255630   -0.00025848   -0.01130746
     atom   18 type  1   force =    -0.00157559    0.00107435   -0.01494316
     atom   19 type  1   force =    -0.00021339    0.00774460    0.01006520
     atom   20 type  1   force =    -0.00152941    0.01101742    0.00060071
     atom   21 type  1   force =     0.00163261    0.00322010    0.01412258
     atom   22 type  1   force =     0.00103622   -0.00030765    0.01795831
     atom   23 type  1   force =     0.00036525    0.00001241    0.01377477
     atom   24 type  1   force =    -0.00157356    0.00003382    0.01622082
     atom   25 type  1   force =    -0.00289227   -0.00431940   -0.00057754
     atom   26 type  1   force =     0.00054189   -0.00718696   -0.00132835
     atom   27 type  1   force =     0.00335356   -0.00562640    0.00355424
     atom   28 type  1   force =     0.05581197    0.00834600    0.07623794
     atom   29 type  1   force =    -0.06071046    0.00761737    0.06032884
     atom   30 type  1   force =     0.00910985    0.00276473    0.07191368
     atom   31 type  1   force =     0.00469710   -0.04320327    0.14445681
     atom   32 type  1   force =    -0.00196257   -0.02320204    0.11852290
     atom   33 type  1   force =    -0.00111750    0.00018162    0.11362754
     atom   34 type  1   force =    -0.00169265   -0.00383632    0.11140183
     atom   35 type  1   force =     0.00342558    0.03399951    0.13875314
     atom   36 type  1   force =    -0.00062849    0.00908327    0.11918261
     atom   37 type  2   force =     0.02452307    0.04913633    0.43822351
     atom   38 type  3   force =     0.03016813   -0.14956083   -2.72414049
     atom   39 type  4   force =    -0.00116518   -0.00325383   -0.02272893
     The ionic contribution  to forces
     atom    1 type  1   force =    -0.00626728    0.00687622 -111.11294272
     atom    2 type  1   force =     0.00469034    0.00769504 -111.11606138
     atom    3 type  1   force =     0.00157692    0.00327240 -111.10360505
     atom    4 type  1   force =    -0.00008360    0.00364051 -111.10107485
     atom    5 type  1   force =    -0.00067236   -0.00217820 -111.10255267
     atom    6 type  1   force =     0.00075595   -0.00391330 -111.10236403
     atom    7 type  1   force =    -0.00543698   -0.00371090 -111.10667163
     atom    8 type  1   force =    -0.00146506   -0.00699087 -111.12055448
     atom    9 type  1   force =     0.00690205   -0.00469092 -111.10963648
     atom   10 type  1   force =    -0.05526510   -0.00976949  -40.14112598
     atom   11 type  1   force =     0.04254502   -0.01292021  -40.16542319
     atom   12 type  1   force =     0.01271545   -0.00782687  -40.05689100
     atom   13 type  1   force =    -0.00811336    0.07041401  -40.09775380
     atom   14 type  1   force =     0.03019706    0.03506694  -40.05332867
     atom   15 type  1   force =    -0.02208170    0.02542540  -40.03648336
     atom   16 type  1   force =    -0.01870702   -0.01327505  -40.02796760
     atom   17 type  1   force =    -0.00333014   -0.06221324  -40.07272969
     atom   18 type  1   force =     0.02203822   -0.02490434  -40.03497836
     atom   19 type  1   force =    -0.32946174    0.35599656   31.17262916
     atom   20 type  1   force =     0.23905867    0.41019395   31.03130795
     atom   21 type  1   force =     0.08981929    0.15523985   31.61549137
     atom   22 type  1   force =    -0.00145209    0.16392636   31.73680889
     atom   23 type  1   force =    -0.03563733   -0.10511230   31.68187629
     atom   24 type  1   force =     0.03707898   -0.17634551   31.69158761
     atom   25 type  1   force =    -0.26777035   -0.17195312   31.49870934
     atom   26 type  1   force =    -0.06334193   -0.39028925   30.74680996
     atom   27 type  1   force =     0.33176477   -0.24582642   31.33623457
     atom   28 type  1   force =    -4.30386921   -0.64612301   99.13006282
     atom   29 type  1   force =     2.94240143   -1.03541121   98.52571074
     atom   30 type  1   force =     1.16261868   -0.48381667  103.49071983
     atom   31 type  1   force =    -0.16498965    3.37407664  102.22817779
     atom   32 type  1   force =     0.96088474    1.57055722  103.79549129
     atom   33 type  1   force =    -0.77944870    0.82447316  104.19501925
     atom   34 type  1   force =    -0.59878296   -0.45676546  104.36775145
     atom   35 type  1   force =    -0.04238101   -2.63348600  103.15278248
     atom   36 type  1   force =     0.64628020   -0.79715343  104.29311166
     atom   37 type  2   force =    -0.07845710   -0.44313596   50.81492326
     atom   38 type  3   force =    -0.28569145    0.52583425   89.12061950
     atom   39 type  4   force =     0.54137830    0.20512323   15.03631973
     The local contribution  to forces
     atom    1 type  1   force =     0.00651119   -0.00796737  111.21787673
     atom    2 type  1   force =    -0.00264354   -0.00989073  111.22491001
     atom    3 type  1   force =    -0.00373212   -0.00421641  111.20825894
     atom    4 type  1   force =    -0.00145746   -0.00265048  111.20692710
     atom    5 type  1   force =    -0.00040675    0.00235084  111.20783357
     atom    6 type  1   force =     0.00134831    0.00193205  111.21020855
     atom    7 type  1   force =     0.00799871    0.00405482  111.21334342
     atom    8 type  1   force =    -0.00246923    0.01029539  111.22770701
     atom    9 type  1   force =    -0.00572541    0.00745374  111.21690465
     atom   10 type  1   force =     0.05509774    0.00703937   40.13222792
     atom   11 type  1   force =    -0.04111689    0.01182147   40.15101353
     atom   12 type  1   force =    -0.01388795    0.00645766   40.04724284
     atom   13 type  1   force =     0.00551628   -0.06782087   40.09109741
     atom   14 type  1   force =    -0.02932090   -0.03297444   40.04391651
     atom   15 type  1   force =     0.02382569   -0.02330997   40.02809930
     atom   16 type  1   force =     0.01972128    0.01385320   40.02440978
     atom   17 type  1   force =     0.00033503    0.06112551   40.06653364
     atom   18 type  1   force =    -0.01988854    0.02374052   40.02929143
     atom   19 type  1   force =     0.32991582   -0.36171087  -31.16490629
     atom   20 type  1   force =    -0.23887314   -0.41867634  -31.01623440
     atom   21 type  1   force =    -0.09050122   -0.15849275  -31.60872937
     atom   22 type  1   force =    -0.00075263   -0.16552734  -31.73004994
     atom   23 type  1   force =     0.03476520    0.10362807  -31.67314786
     atom   24 type  1   force =    -0.03447462    0.17568640  -31.68735238
     atom   25 type  1   force =     0.27055420    0.17648563  -31.48429160
     atom   26 type  1   force =     0.06274397    0.39818344  -30.72872385
     atom   27 type  1   force =    -0.33615021    0.25017648  -31.32587734
     atom   28 type  1   force =     4.23566444    0.63681447  -99.20030919
     atom   29 type  1   force =    -2.89017938    1.02238907  -98.56846496
     atom   30 type  1   force =    -1.15679134    0.47586943 -103.57027602
     atom   31 type  1   force =     0.15643564   -3.31986306 -102.37987518
     atom   32 type  1   force =    -0.95503325   -1.54053128 -103.91927914
     atom   33 type  1   force =     0.78001267   -0.82147490 -104.31900729
     atom   34 type  1   force =     0.60036233    0.45997828 -104.48593900
     atom   35 type  1   force =     0.03823026    2.58905919 -103.29786828
     atom   36 type  1   force =    -0.64371438    0.78164403 -104.42052006
     atom   37 type  2   force =     0.05422134    0.39242707  -51.25951493
     atom   38 type  3   force =     0.25718923   -0.37762546  -86.41997134
     atom   39 type  4   force =    -0.53408589   -0.19262141  -15.01394148
     The core correction contribution to forces
     atom    1 type  1   force =    -0.00006855   -0.00014369    0.00971453
     atom    2 type  1   force =     0.00002861   -0.00036600    0.00997243
     atom    3 type  1   force =     0.00014683   -0.00001190    0.00986137
     atom    4 type  1   force =     0.00006392    0.00006363    0.01006616
     atom    5 type  1   force =     0.00010082    0.00011029    0.01006875
     atom    6 type  1   force =     0.00001058   -0.00004775    0.00992270
     atom    7 type  1   force =    -0.00000171    0.00017466    0.01024120
     atom    8 type  1   force =    -0.00011029    0.00044122    0.00996370
     atom    9 type  1   force =    -0.00006677    0.00018945    0.01022696
     atom   10 type  1   force =     0.00017292    0.00011297   -0.00188522
     atom   11 type  1   force =     0.00001686    0.00016814   -0.00153923
     atom   12 type  1   force =    -0.00022343    0.00016228   -0.00175406
     atom   13 type  1   force =    -0.00044606   -0.00003715   -0.00182815
     atom   14 type  1   force =     0.00016245    0.00001555   -0.00199541
     atom   15 type  1   force =     0.00029674    0.00003242   -0.00167416
     atom   16 type  1   force =     0.00009726   -0.00010376   -0.00181172
     atom   17 type  1   force =    -0.00019654   -0.00001096   -0.00212098
     atom   18 type  1   force =    -0.00000754   -0.00025978   -0.00167189
     atom   19 type  1   force =    -0.00020291    0.00054411    0.00094115
     atom   20 type  1   force =    -0.00008917    0.00057281    0.00042591
     atom   21 type  1   force =     0.00043488    0.00013009    0.00177800
     atom   22 type  1   force =    -0.00008787    0.00004461    0.00221592
     atom   23 type  1   force =    -0.00025663    0.00043745    0.00159351
     atom   24 type  1   force =     0.00026369   -0.00039570    0.00136618
     atom   25 type  1   force =     0.00020191   -0.00041949    0.00124817
     atom   26 type  1   force =    -0.00103533   -0.00124267    0.00044926
     atom   27 type  1   force =     0.00057556   -0.00023659    0.00150737
     atom   28 type  1   force =     0.01138848    0.00105843   -0.00553011
     atom   29 type  1   force =    -0.00121687    0.00531774    0.00007330
     atom   30 type  1   force =    -0.01009319    0.00289872   -0.00558608
     atom   31 type  1   force =     0.00006815   -0.00761531   -0.00622253
     atom   32 type  1   force =    -0.00078725   -0.00853003   -0.00626951
     atom   33 type  1   force =     0.00052103   -0.00201097   -0.00967833
     atom   34 type  1   force =     0.00053022    0.00102005   -0.00954797
     atom   35 type  1   force =    -0.00023282    0.00567703   -0.00741460
     atom   36 type  1   force =    -0.00032997    0.00366745   -0.00817400
     atom   37 type  2   force =    -0.00063634   -0.00055192   -0.00058625
     atom   38 type  3   force =    -0.00024506    0.00107092    0.01965706
     atom   39 type  4   force =     0.00000000    0.00000000    0.00000000
     The Hubbard contrib.    to forces
     atom    1 type  1   force =     0.00000000    0.00000000    0.00000000
     atom    2 type  1   force =     0.00000000    0.00000000    0.00000000
     atom    3 type  1   force =     0.00000000    0.00000000    0.00000000
     atom    4 type  1   force =     0.00000000    0.00000000    0.00000000
     atom    5 type  1   force =     0.00000000    0.00000000    0.00000000
     atom    6 type  1   force =     0.00000000    0.00000000    0.00000000
     atom    7 type  1   force =     0.00000000    0.00000000    0.00000000
     atom    8 type  1   force =     0.00000000    0.00000000    0.00000000
     atom    9 type  1   force =     0.00000000    0.00000000    0.00000000
     atom   10 type  1   force =     0.00000000    0.00000000    0.00000000
     atom   11 type  1   force =     0.00000000    0.00000000    0.00000000
     atom   12 type  1   force =     0.00000000    0.00000000    0.00000000
     atom   13 type  1   force =     0.00000000    0.00000000    0.00000000
     atom   14 type  1   force =     0.00000000    0.00000000    0.00000000
     atom   15 type  1   force =     0.00000000    0.00000000    0.00000000
     atom   16 type  1   force =     0.00000000    0.00000000    0.00000000
     atom   17 type  1   force =     0.00000000    0.00000000    0.00000000
     atom   18 type  1   force =     0.00000000    0.00000000    0.00000000
     atom   19 type  1   force =     0.00000000    0.00000000    0.00000000
     atom   20 type  1   force =     0.00000000    0.00000000    0.00000000
     atom   21 type  1   force =     0.00000000    0.00000000    0.00000000
     atom   22 type  1   force =     0.00000000    0.00000000    0.00000000
     atom   23 type  1   force =     0.00000000    0.00000000    0.00000000
     atom   24 type  1   force =     0.00000000    0.00000000    0.00000000
     atom   25 type  1   force =     0.00000000    0.00000000    0.00000000
     atom   26 type  1   force =     0.00000000    0.00000000    0.00000000
     atom   27 type  1   force =     0.00000000    0.00000000    0.00000000
     atom   28 type  1   force =     0.00000000    0.00000000    0.00000000
     atom   29 type  1   force =     0.00000000    0.00000000    0.00000000
     atom   30 type  1   force =     0.00000000    0.00000000    0.00000000
     atom   31 type  1   force =     0.00000000    0.00000000    0.00000000
     atom   32 type  1   force =     0.00000000    0.00000000    0.00000000
     atom   33 type  1   force =     0.00000000    0.00000000    0.00000000
     atom   34 type  1   force =     0.00000000    0.00000000    0.00000000
     atom   35 type  1   force =     0.00000000    0.00000000    0.00000000
     atom   36 type  1   force =     0.00000000    0.00000000    0.00000000
     atom   37 type  2   force =     0.00000000    0.00000000    0.00000000
     atom   38 type  3   force =     0.00000000    0.00000000    0.00000000
     atom   39 type  4   force =     0.00000000    0.00000000    0.00000000
     The SCF correction term to forces
     atom    1 type  1   force =    -0.00000000    0.00000000    0.00000000
     atom    2 type  1   force =     0.00000000    0.00000000    0.00000000
     atom    3 type  1   force =    -0.00000000    0.00000000    0.00000000
     atom    4 type  1   force =    -0.00000000   -0.00000000    0.00000000
     atom    5 type  1   force =     0.00000000   -0.00000000    0.00000000
     atom    6 type  1   force =    -0.00000000   -0.00000000    0.00000000
     atom    7 type  1   force =    -0.00000000    0.00000000    0.00000000
     atom    8 type  1   force =     0.00000000    0.00000000    0.00000000
     atom    9 type  1   force =    -0.00000000    0.00000000    0.00000000
     atom   10 type  1   force =    -0.00000000   -0.00000000    0.00000000
     atom   11 type  1   force =     0.00000000    0.00000000    0.00000000
     atom   12 type  1   force =    -0.00000000   -0.00000000    0.00000000
     atom   13 type  1   force =     0.00000000    0.00000000    0.00000000
     atom   14 type  1   force =    -0.00000000    0.00000000    0.00000000
     atom   15 type  1   force =    -0.00000000    0.00000000    0.00000000
     atom   16 type  1   force =    -0.00000000   -0.00000000    0.00000000
     atom   17 type  1   force =     0.00000000   -0.00000000    0.00000000
     atom   18 type  1   force =     0.00000000   -0.00000000    0.00000000
     atom   19 type  1   force =    -0.00000000    0.00000000    0.00000000
     atom   20 type  1   force =    -0.00000000    0.00000000    0.00000000
     atom   21 type  1   force =     0.00000000   -0.00000000    0.00000000
     atom   22 type  1   force =     0.00000000    0.00000000    0.00000000
     atom   23 type  1   force =    -0.00000000    0.00000000    0.00000000
     atom   24 type  1   force =     0.00000000   -0.00000000    0.00000000
     atom   25 type  1   force =    -0.00000000   -0.00000000    0.00000000
     atom   26 type  1   force =    -0.00000000    0.00000000    0.00000000
     atom   27 type  1   force =     0.00000000   -0.00000000    0.00000000
     atom   28 type  1   force =    -0.00000000   -0.00000000    0.00000000
     atom   29 type  1   force =    -0.00000000    0.00000000    0.00000000
     atom   30 type  1   force =     0.00000000   -0.00000000    0.00000000
     atom   31 type  1   force =    -0.00000000   -0.00000000    0.00000000
     atom   32 type  1   force =    -0.00000000   -0.00000000    0.00000000
     atom   33 type  1   force =     0.00000000   -0.00000000    0.00000000
     atom   34 type  1   force =    -0.00000000    0.00000000    0.00000000
     atom   35 type  1   force =    -0.00000000    0.00000000    0.00000000
     atom   36 type  1   force =     0.00000000    0.00000000    0.00000000
     atom   37 type  2   force =    -0.00000407   -0.00000085   -0.00000864
     atom   38 type  3   force =    -0.00000221   -0.00000123   -0.00002784
     atom   39 type  4   force =     0.00000019   -0.00000210   -0.00000116

     Total force =     0.013943     Total SCF correction =     0.000030

     Writing all to output data dir ./pwscf.save/

     init_run     :     11.66s CPU     12.19s WALL (       1 calls)
     electrons    :    965.69s CPU    989.52s WALL (       1 calls)
     forces       :      3.45s CPU      3.55s WALL (       1 calls)

     Called by init_run:
     wfcinit      :      8.60s CPU      9.00s WALL (       1 calls)
     potinit      :      1.96s CPU      2.06s WALL (       1 calls)
     hinit0       :      0.85s CPU      0.86s WALL (       1 calls)

     Called by electrons:
     c_bands      :    801.98s CPU    821.60s WALL (      54 calls)
     sum_band     :    109.98s CPU    112.46s WALL (      54 calls)
     v_of_rho     :     13.64s CPU     14.31s WALL (      55 calls)
     newd         :      3.03s CPU      3.12s WALL (      55 calls)
     PAW_pot      :     13.82s CPU     14.07s WALL (      55 calls)
     mix_rho      :     24.48s CPU     25.09s WALL (      54 calls)
     vdW_kernel   :      1.09s CPU      1.11s WALL (       1 calls)

     Called by c_bands:
     init_us_2    :      9.35s CPU      9.68s WALL (    2860 calls)
     init_us_2:cp :      9.33s CPU      9.67s WALL (    2860 calls)
     cegterg      :    775.74s CPU    794.36s WALL (    1404 calls)

     Called by *egterg:
     cdiaghg      :    215.78s CPU    218.80s WALL (    4856 calls)
     h_psi        :    363.43s CPU    374.69s WALL (    4882 calls)
     s_psi        :     40.67s CPU     41.78s WALL (    4882 calls)
     g_psi        :      0.96s CPU      1.00s WALL (    3452 calls)

     Called by h_psi:
     h_psi:calbec :     64.28s CPU     66.56s WALL (    4882 calls)
     vloc_psi     :    255.38s CPU    262.66s WALL (    4882 calls)
     add_vuspsi   :     41.20s CPU     42.82s WALL (    4882 calls)

     General routines
     calbec       :     92.77s CPU     95.68s WALL (    6390 calls)
     fft          :     12.91s CPU     13.57s WALL (    4972 calls)
     ffts         :     13.48s CPU     13.82s WALL (   24549 calls)
     fftw         :    300.65s CPU    308.60s WALL ( 1457406 calls)
     interpolate  :      0.43s CPU      0.44s WALL (     110 calls)

     Parallel routines

     PWSCF        :  16m26.58s CPU  16m55.86s WALL


   This run was terminated on:   9:30: 0  14Dec2025            

=------------------------------------------------------------------------------=
   JOB DONE.
=------------------------------------------------------------------------------=
