
     Program PWSCF v.7.1 starts on  7Nov2025 at 13:15:49 
        Git branch: heads/qe-7.1
        Last git commit: 48ba0178f8fede6d020eb786884699a9f063f55d-dirty
        Last git commit date: Fri Jan 27 14:22:33 2023 +0000
        Last git commit subject: Merge branch 'fix_hubbard' into 'develop'

     This program is part of the open-source Quantum ESPRESSO suite
     for quantum simulation of materials; please cite
         "P. Giannozzi et al., J. Phys.:Condens. Matter 21 395502 (2009);
         "P. Giannozzi et al., J. Phys.:Condens. Matter 29 465901 (2017);
         "P. Giannozzi et al., J. Chem. Phys. 152 154105 (2020);
          URL http://www.quantum-espresso.org", 
     in publications or presentations arising from this work. More details at
     http://www.quantum-espresso.org/quote

     Parallel version (MPI), running on    48 processors

     MPI processes distributed on     1 nodes
     271560 MiB available memory on the printing compute node when the environment starts

     Reading input from espresso.pwi
Warning: card &CELL ignored
Warning: card / ignored
Warning: card &FCP ignored
Warning: card / ignored
Warning: card &RISM ignored
Warning: card / ignored

     Current dimensions of program PWSCF are:
     Max number of different atomic species (ntypx) = 10
     Max number of k-points (npk) =  40000
     Max angular momentum in pseudopotentials (lmaxx) =  4
     file Pt.pbe-n-kjpaw_psl.1.0.0.UPF: wavefunction(s)  6S 5D renormalized
     file C.pbe-n-kjpaw_psl.1.0.0.UPF: wavefunction(s)  2S 2P renormalized
     file H.pbe-kjpaw_psl.1.0.0.UPF: wavefunction(s)  1S renormalized

     **************************************************************************
     Initializing libbeef V0.1.2 with the BEEF-vdW functional.
     Citation: Wellendorff et al., PRB 85, 235149 (2012).
     **************************************************************************


     IMPORTANT: XC functional enforced from input :
     Exchange-correlation= BEEF-VDW
                           (   1   4  43  14   2   0   0)
     Any further DFT definition will be discarded
     Please, verify this is what you really want


     R & G space division:  proc/nbgrp/npool/nimage =      48
     Subspace diagonalization in iterative solution of the eigenvalue problem:
     one sub-group per band group will be used
     custom distributed-memory algorithm (size of sub-group:  2*  2 procs)


     Parallelization info
     --------------------
     sticks:   dense  smooth     PW     G-vecs:    dense   smooth      PW
     Min         151      59     16                29407     7165    1028
     Max         152      60     17                29420     7176    1042
     Sum        7267    2839    769              1411785   344073   49691

     Using Slab Decomposition



     bravais-lattice index     =            0
     lattice parameter (alat)  =      16.0349  a.u.
     unit-cell volume          =   10068.6169 (a.u.)^3
     number of atoms/cell      =           38
     number of atomic types    =            3
     number of electrons       =       365.00
     number of Kohn-Sham states=          220
     kinetic-energy cutoff     =      40.0000  Ry
     charge density cutoff     =     410.0000  Ry
     scf convergence threshold =      1.0E-06
     mixing beta               =       0.7000
     number of iterations used =            8  local-TF  mixing
     Exchange-correlation= BEEF-VDW
                           (   1   4  43  14   2   0   0)

     celldm(1)=  16.034858  celldm(2)=   0.000000  celldm(3)=   0.000000
     celldm(4)=   0.000000  celldm(5)=   0.000000  celldm(6)=   0.000000

     crystal axes: (cart. coord. in units of alat)
               a(1) = (   1.000000   0.000000   0.000000 )  
               a(2) = (   0.500000   0.866025   0.000000 )  
               a(3) = (   0.000000   0.000000   2.819966 )  

     reciprocal axes: (cart. coord. in units 2 pi/alat)
               b(1) = (  1.000000 -0.577350  0.000000 )  
               b(2) = (  0.000000  1.154701  0.000000 )  
               b(3) = (  0.000000  0.000000  0.354614 )  


     PseudoPot. # 1 for Pt read from file:
     /users/kbadger1/espresso/pseudo/pslibrary.1.0.0/pbe/PSEUDOPOTENTIALS/Pt.pbe-n-kjpaw_psl.1.0.0.UPF
     MD5 check sum: 2e24a0b5bf98a4ed1a57fa81bca8c143
     Pseudo is Projector augmented-wave + core cor, Zval = 10.0
     Generated using 'atomic' code by A. Dal Corso  v.7.0
     Shape of augmentation charge: PSQ
     Using radial grid of 1277 points,  6 beta functions with: 
                l(1) =   0
                l(2) =   0
                l(3) =   1
                l(4) =   1
                l(5) =   2
                l(6) =   2
     Q(r) pseudized with 0 coefficients 


     PseudoPot. # 2 for C  read from file:
     /users/kbadger1/espresso/pseudo/pslibrary.1.0.0/pbe/PSEUDOPOTENTIALS/C.pbe-n-kjpaw_psl.1.0.0.UPF
     MD5 check sum: 6408e75cdba28732cea38a4db8498ce4
     Pseudo is Projector augmented-wave + core cor, Zval =  4.0
     Generated using 'atomic' code by A. Dal Corso  v.7.0
     Shape of augmentation charge: PSQ
     Using radial grid of 1073 points,  4 beta functions with: 
                l(1) =   0
                l(2) =   0
                l(3) =   1
                l(4) =   1
     Q(r) pseudized with 0 coefficients 


     PseudoPot. # 3 for H  read from file:
     /users/kbadger1/espresso/pseudo/pslibrary.1.0.0/pbe/PSEUDOPOTENTIALS/H.pbe-kjpaw_psl.1.0.0.UPF
     MD5 check sum: fe4c6fa958fa6d3815bf5d2419cbf1df
     Pseudo is Projector augmented-wave, Zval =  1.0
     Generated using 'atomic' code by A. Dal Corso  v.7.0
     Shape of augmentation charge: PSQ
     Using radial grid of  929 points,  2 beta functions with: 
                l(1) =   0
                l(2) =   0
     Q(r) pseudized with 0 coefficients 


     atomic species   valence    mass     pseudopotential
        Pt            10.00   195.08400     Pt( 1.00)
        C              4.00    12.01100     C ( 1.00)
        H              1.00     1.00800     H ( 1.00)

     No symmetry found



   Cartesian axes

     site n.     atom                  positions (alat units)
         1           Pt  tau(   1) = (   0.0000000   0.0000000   1.0017346  )
         2           Pt  tau(   2) = (   0.3333333   0.0000000   1.0017346  )
         3           Pt  tau(   3) = (   0.6666667   0.0000000   1.0017346  )
         4           Pt  tau(   4) = (   0.1666667   0.2886751   1.0017346  )
         5           Pt  tau(   5) = (   0.5000000   0.2886751   1.0017346  )
         6           Pt  tau(   6) = (   0.8333333   0.2886751   1.0017346  )
         7           Pt  tau(   7) = (   0.3333333   0.5773503   1.0017346  )
         8           Pt  tau(   8) = (   0.6666667   0.5773503   1.0017346  )
         9           Pt  tau(   9) = (   1.0000000   0.5773503   1.0017346  )
        10           Pt  tau(  10) = (   0.1666667   0.0962250   1.2739001  )
        11           Pt  tau(  11) = (   0.5000000   0.0962250   1.2739001  )
        12           Pt  tau(  12) = (   0.8333333   0.0962250   1.2739001  )
        13           Pt  tau(  13) = (   0.3333333   0.3849002   1.2739001  )
        14           Pt  tau(  14) = (   0.6666667   0.3849002   1.2739001  )
        15           Pt  tau(  15) = (   1.0000000   0.3849002   1.2739001  )
        16           Pt  tau(  16) = (   0.5000000   0.6735753   1.2739001  )
        17           Pt  tau(  17) = (   0.8333333   0.6735753   1.2739001  )
        18           Pt  tau(  18) = (   1.1666667   0.6735753   1.2739001  )
        19           Pt  tau(  19) = (   0.0005980   0.1965526   1.5469351  )
        20           Pt  tau(  20) = (   0.3327270   0.1965492   1.5469458  )
        21           Pt  tau(  21) = (   0.6666789   0.1964341   1.5430532  )
        22           Pt  tau(  22) = (   0.1666592   0.4860590   1.5440618  )
        23           Pt  tau(  23) = (   0.4999250   0.4857871   1.5431666  )
        24           Pt  tau(  24) = (   0.8334163   0.4857863   1.5431602  )
        25           Pt  tau(  25) = (   0.3351653   0.7757255   1.5463397  )
        26           Pt  tau(  26) = (   0.6666679   0.7753140   1.5484051  )
        27           Pt  tau(  27) = (   0.9981761   0.7757137   1.5463388  )
        28           Pt  tau(  28) = (  -0.0040041   0.0075762   1.8364719  )
        29           Pt  tau(  29) = (   0.3373433   0.0075696   1.8364765  )
        30           Pt  tau(  30) = (   0.6666735   0.0095332   1.8193558  )
        31           Pt  tau(  31) = (   0.1666634   0.3082475   1.8280512  )
        32           Pt  tau(  32) = (   0.5033435   0.2994853   1.8169659  )
        33           Pt  tau(  33) = (   0.8300079   0.2994863   1.8169549  )
        34           Pt  tau(  34) = (   0.3343722   0.5877252   1.8187446  )
        35           Pt  tau(  35) = (   0.6666717   0.5828518   1.8177361  )
        36           Pt  tau(  36) = (   0.9989657   0.5877200   1.8187416  )
        37           C   tau(  37) = (   0.1666706   0.1143936   1.9585523  )
        38           H   tau(  38) = (   0.1666746   0.1306516   2.0862011  )

     number of k points=    13  Marzari-Vanderbilt smearing, width (Ry)=  0.0010
                       cart. coord. in units 2pi/alat
        k(    1) = (   0.0000000   0.0000000   0.0000000), wk =   0.0800000
        k(    2) = (   0.0000000   0.2309401   0.0000000), wk =   0.1600000
        k(    3) = (   0.0000000   0.4618802   0.0000000), wk =   0.1600000
        k(    4) = (   0.2000000  -0.1154701   0.0000000), wk =   0.1600000
        k(    5) = (   0.2000000   0.1154701   0.0000000), wk =   0.1600000
        k(    6) = (   0.2000000   0.3464102   0.0000000), wk =   0.1600000
        k(    7) = (   0.2000000  -0.5773503   0.0000000), wk =   0.1600000
        k(    8) = (   0.2000000  -0.3464102   0.0000000), wk =   0.1600000
        k(    9) = (   0.4000000  -0.2309401   0.0000000), wk =   0.1600000
        k(   10) = (   0.4000000  -0.0000000   0.0000000), wk =   0.1600000
        k(   11) = (   0.4000000   0.2309401   0.0000000), wk =   0.1600000
        k(   12) = (   0.4000000  -0.6928203   0.0000000), wk =   0.1600000
        k(   13) = (   0.4000000  -0.4618802   0.0000000), wk =   0.1600000

     Dense  grid:  1411785 G-vectors     FFT dimensions: ( 108, 108, 300)

     Smooth grid:   344073 G-vectors     FFT dimensions: (  72,  72, 192)

     Estimated max dynamical RAM per process >     206.88 MB

     Estimated total dynamical RAM >       9.70 GB

     Initial potential from superposition of free atoms

     starting charge     364.9938, renormalised to     365.0000

     negative rho (up, down):  3.253E-03 0.000E+00


     %%%%%%%%%%%%%%%%%%%%%%%%%%%%%%%%%%%%%%%%%%%%%%%%%%%%%%%%%%%%%%%%%%%%%%%%
     %                                                                      %
     % You are using vdW-DF, which was implemented by the Thonhauser group. %
     % Please cite the following two papers that made this development      %
     % possible and the two reviews that describe the various versions:     %
     %                                                                      %
     %   T. Thonhauser et al., PRL 115, 136402 (2015).                      %
     %   T. Thonhauser et al., PRB 76, 125112 (2007).                       %
     %   K. Berland et al., Rep. Prog. Phys. 78, 066501 (2015).             %
     %   D.C. Langreth et al., J. Phys.: Condens. Matter 21, 084203 (2009). %
     %                                                                      %
     % If you are calculating stress with vdW-DF, please also cite:         %
     %                                                                      %
     %   R. Sabatini et al., J. Phys.: Condens. Matter 24, 424209 (2012).   %
     %                                                                      %
     %%%%%%%%%%%%%%%%%%%%%%%%%%%%%%%%%%%%%%%%%%%%%%%%%%%%%%%%%%%%%%%%%%%%%%%%

     %%%%%%%%%%%%%%%%%%%%%%%%%%%%%%%%%%%%%%%%%%%%%%%%%%%%%%%%%%%%%%%%%%%%%%%%
     %                                                                      %
     %  vdW-DF NEWS:                                                        %
     %                                                                      %
     %  * vdW-DF3 is now available. DOI: 10.1021/acs.jctc.0c00471           %
     %    use with input_dft = 'vdW-DF3-opt1' or 'vdW-DF3-opt2'             %
     %                                                                      %
     %  * Unscreened and range-separated hybrid vdW-DF-cx functionals       %
     %    DOI: 10.1063/1.4986522 and 10.1088/1361-648X/ac2ad2               %
     %    use with input_dft = 'vdW-DF-cx0'    and 'vdW-DF-ahcx'            %
     %  * Unscreened and range-separated hybrid vdW-DF2-b86r functionals    %
     %    DOI: 10.1063/1.4986522 and DOI: 10.1103/PhysRevX.12.041003        %
     %    use with input_dft = 'vdW-DF2-br0' and 'vdW-DF2-ahbr'             %
     %                                                                      %
     %%%%%%%%%%%%%%%%%%%%%%%%%%%%%%%%%%%%%%%%%%%%%%%%%%%%%%%%%%%%%%%%%%%%%%%%


     Starting wfcs are  329 randomized atomic wfcs
     Checking if some PAW data can be deallocated... 

     total cpu time spent up to now is       11.2 secs

     per-process dynamical memory:   211.8 Mb

     Self-consistent Calculation

     iteration #  1     ecut=    40.00 Ry     beta= 0.70
     Davidson diagonalization with overlap
     ethr =  1.00E-02,  avg # of iterations =  2.0

     Threshold (ethr) on eigenvalues was too large:
     Diagonalizing with lowered threshold

     Davidson diagonalization with overlap
     ethr =  5.19E-04,  avg # of iterations =  4.9

     negative rho (up, down):  9.887E-03 0.000E+00

     total cpu time spent up to now is       60.3 secs

     total energy              =  -27774.16039797 Ry
     estimated scf accuracy    <       2.16730559 Ry

     iteration #  2     ecut=    40.00 Ry     beta= 0.70
     Davidson diagonalization with overlap
     ethr =  5.94E-04,  avg # of iterations =  2.0

     negative rho (up, down):  7.381E-03 0.000E+00

     total cpu time spent up to now is       76.3 secs

     total energy              =  -27774.35726669 Ry
     estimated scf accuracy    <       0.75678935 Ry

     iteration #  3     ecut=    40.00 Ry     beta= 0.70
     Davidson diagonalization with overlap
     ethr =  2.07E-04,  avg # of iterations =  3.6

     negative rho (up, down):  4.088E-03 0.000E+00

     total cpu time spent up to now is       94.8 secs

     total energy              =  -27774.42351378 Ry
     estimated scf accuracy    <       0.19167414 Ry

     iteration #  4     ecut=    40.00 Ry     beta= 0.70
     Davidson diagonalization with overlap
     ethr =  5.25E-05,  avg # of iterations =  9.4

     negative rho (up, down):  1.493E-03 0.000E+00

     total cpu time spent up to now is      130.3 secs

     total energy              =  -27774.46893726 Ry
     estimated scf accuracy    <       0.06910620 Ry

     iteration #  5     ecut=    40.00 Ry     beta= 0.70
     Davidson diagonalization with overlap
     c_bands:  1 eigenvalues not converged
     ethr =  1.89E-05,  avg # of iterations =  6.4

     negative rho (up, down):  6.675E-04 0.000E+00

     total cpu time spent up to now is      155.3 secs

     total energy              =  -27774.47566945 Ry
     estimated scf accuracy    <       0.02607327 Ry

     iteration #  6     ecut=    40.00 Ry     beta= 0.70
     Davidson diagonalization with overlap
     c_bands:  1 eigenvalues not converged
     ethr =  7.14E-06,  avg # of iterations =  7.8

     negative rho (up, down):  2.620E-04 0.000E+00

     total cpu time spent up to now is      182.4 secs

     total energy              =  -27774.47804495 Ry
     estimated scf accuracy    <       0.00687483 Ry

     iteration #  7     ecut=    40.00 Ry     beta= 0.70
     Davidson diagonalization with overlap
     c_bands:  1 eigenvalues not converged
     c_bands:  1 eigenvalues not converged
     ethr =  1.88E-06,  avg # of iterations = 12.0

     negative rho (up, down):  1.431E-04 0.000E+00

     total cpu time spent up to now is      220.3 secs

     total energy              =  -27774.47928908 Ry
     estimated scf accuracy    <       0.00301165 Ry

     iteration #  8     ecut=    40.00 Ry     beta= 0.70
     Davidson diagonalization with overlap
     ethr =  8.25E-07,  avg # of iterations =  2.0

     negative rho (up, down):  1.134E-04 0.000E+00

     total cpu time spent up to now is      243.8 secs

     total energy              =  -27774.47952125 Ry
     estimated scf accuracy    <       0.00071417 Ry

     iteration #  9     ecut=    40.00 Ry     beta= 0.70
     Davidson diagonalization with overlap
     ethr =  1.96E-07,  avg # of iterations =  4.4

     negative rho (up, down):  1.063E-04 0.000E+00

     total cpu time spent up to now is      271.6 secs

     total energy              =  -27774.47970462 Ry
     estimated scf accuracy    <       0.00053581 Ry

     iteration # 10     ecut=    40.00 Ry     beta= 0.70
     Davidson diagonalization with overlap
     ethr =  1.47E-07,  avg # of iterations =  1.8

     negative rho (up, down):  1.269E-04 0.000E+00

     total cpu time spent up to now is      292.4 secs

     total energy              =  -27774.47973931 Ry
     estimated scf accuracy    <       0.00034432 Ry

     iteration # 11     ecut=    40.00 Ry     beta= 0.70
     Davidson diagonalization with overlap
     ethr =  9.43E-08,  avg # of iterations =  2.6

     negative rho (up, down):  2.690E-04 0.000E+00

     total cpu time spent up to now is      307.3 secs

     total energy              =  -27774.47980873 Ry
     estimated scf accuracy    <       0.00025141 Ry

     iteration # 12     ecut=    40.00 Ry     beta= 0.70
     Davidson diagonalization with overlap
     ethr =  6.89E-08,  avg # of iterations =  4.9

     negative rho (up, down):  5.227E-04 0.000E+00

     total cpu time spent up to now is      329.2 secs

     total energy              =  -27774.47985640 Ry
     estimated scf accuracy    <       0.00013067 Ry

     iteration # 13     ecut=    40.00 Ry     beta= 0.70
     Davidson diagonalization with overlap
     ethr =  3.58E-08,  avg # of iterations =  2.2

     negative rho (up, down):  1.188E-03 0.000E+00

     total cpu time spent up to now is      341.9 secs

     total energy              =  -27774.47991138 Ry
     estimated scf accuracy    <       0.00004780 Ry

     iteration # 14     ecut=    40.00 Ry     beta= 0.70
     Davidson diagonalization with overlap
     ethr =  1.31E-08,  avg # of iterations =  6.4

     negative rho (up, down):  1.615E-03 0.000E+00

     total cpu time spent up to now is      367.4 secs

     total energy              =  -27774.47993056 Ry
     estimated scf accuracy    <       0.00003023 Ry

     iteration # 15     ecut=    40.00 Ry     beta= 0.70
     Davidson diagonalization with overlap
     ethr =  8.28E-09,  avg # of iterations =  2.2

     negative rho (up, down):  2.390E-03 0.000E+00

     total cpu time spent up to now is      388.8 secs

     total energy              =  -27774.47993602 Ry
     estimated scf accuracy    <       0.00001580 Ry

     iteration # 16     ecut=    40.00 Ry     beta= 0.70
     Davidson diagonalization with overlap
     ethr =  4.33E-09,  avg # of iterations =  2.0

     negative rho (up, down):  2.763E-03 0.000E+00

     total cpu time spent up to now is      401.7 secs

     total energy              =  -27774.47993585 Ry
     estimated scf accuracy    <       0.00000619 Ry

     iteration # 17     ecut=    40.00 Ry     beta= 0.70
     Davidson diagonalization with overlap
     ethr =  1.70E-09,  avg # of iterations =  3.5

     negative rho (up, down):  3.035E-03 0.000E+00

     total cpu time spent up to now is      425.9 secs

     total energy              =  -27774.47993547 Ry
     estimated scf accuracy    <       0.00000392 Ry

     iteration # 18     ecut=    40.00 Ry     beta= 0.70
     Davidson diagonalization with overlap
     ethr =  1.07E-09,  avg # of iterations =  2.0

     negative rho (up, down):  3.137E-03 0.000E+00

     total cpu time spent up to now is      448.5 secs

     End of self-consistent calculation

          k = 0.0000 0.0000 0.0000 ( 42913 PWs)   bands (ev):

    -9.8117  -6.0606  -4.8940  -4.4278  -3.7458  -3.7385  -3.7093  -3.6671
    -3.6496  -3.6382  -3.6216  -3.4727  -3.3428  -3.3400  -3.1234  -3.1113
    -3.1105  -3.0421  -2.9740  -2.9541  -2.6762  -2.6720  -2.6573  -2.5407
    -2.4824  -2.4816  -2.4411  -2.4405  -2.4302  -2.3354  -2.3297  -2.3158
    -2.2550  -2.2526  -2.2319  -2.1710  -2.1628  -2.1466  -2.1324  -2.1008
    -2.0921  -1.7881  -1.7186  -1.6671  -1.5947  -1.5915  -1.5817  -1.5438
    -1.5243  -1.5177  -1.5046  -1.4488  -1.4366  -1.3447  -1.3440  -1.3104
    -1.2174  -1.2105  -0.8747  -0.8572  -0.8040  -0.7915  -0.7846  -0.7456
    -0.7205  -0.6389  -0.6278  -0.5950  -0.5837  -0.5814  -0.5769  -0.5591
    -0.5449  -0.5243  -0.5238  -0.4949  -0.4833  -0.4792  -0.4717  -0.4498
    -0.4258  -0.3959  -0.3913  -0.3863  -0.3675  -0.3581  -0.1693  -0.1613
    -0.1525  -0.1166  -0.1141  -0.1125  -0.1055  -0.0981  -0.0687  -0.0632
    -0.0382   0.0393   0.0396   0.0796   0.0897   0.1195   0.1892   0.1904
     0.2004   0.2474   0.2546   0.2622   0.2957   0.3424   0.3855   0.6659
     0.6738   0.6967   0.7488   0.7496   0.7581   0.7774   0.7878   0.7953
     0.8834   0.8894   0.9469   0.9515   0.9556   0.9846   0.9942   1.0432
     1.0585   1.1104   1.1910   1.2128   1.2220   1.2954   1.2963   1.3027
     1.4534   1.4823   1.4912   1.5046   1.5400   1.5538   1.5843   1.5912
     1.6522   1.6538   1.6988   1.7224   1.7325   1.7443   1.7634   1.8484
     1.8633   1.8960   1.9108   1.9228   1.9428   1.9435   1.9479   1.9506
     1.9632   1.9737   1.9769   2.0394   2.0554   2.0624   2.0631   2.0753
     2.1339   2.1407   2.1487   2.1530   2.1601   2.1935   2.1964   2.2384
     2.2901   2.2903   2.2998   2.3019   2.3046   2.3410   2.3810   2.3830
     2.4249   2.4286   2.4552   2.4601   2.5073   2.5762   2.6135   2.6941
     2.7026   2.7154   2.7397   2.7446   2.7649   3.2632   3.2812   3.3790
     3.5849   3.6109   3.6266   3.6506   4.7442   4.7476   5.6158   5.9143
     5.9224   5.9384   6.3985   6.4570   7.0878   7.5348   7.5360   7.5690
     7.5943   7.6994   7.7100   7.7108

          k = 0.0000 0.2309 0.0000 ( 42996 PWs)   bands (ev):

    -9.8084  -5.9167  -4.7846  -4.3804  -4.1623  -3.8097  -3.7882  -3.5712
    -3.5197  -3.4672  -3.4388  -3.4150  -3.2924  -3.2620  -3.2091  -3.0658
    -3.0421  -3.0201  -2.9050  -2.8857  -2.7213  -2.6289  -2.5910  -2.5896
    -2.5204  -2.5101  -2.4880  -2.4098  -2.4078  -2.3562  -2.3450  -2.3292
    -2.2999  -2.2829  -2.2211  -2.2190  -2.0990  -2.0980  -2.0174  -1.9857
    -1.9666  -1.8151  -1.7587  -1.7333  -1.6887  -1.6837  -1.6585  -1.6333
    -1.5534  -1.5440  -1.4915  -1.4212  -1.4016  -1.3255  -1.3003  -1.2746
    -1.2288  -1.2031  -1.0453  -0.9618  -0.9527  -0.9298  -0.9084  -0.8843
    -0.8323  -0.7875  -0.7729  -0.7674  -0.7297  -0.6904  -0.6512  -0.6333
    -0.6068  -0.5848  -0.5644  -0.4829  -0.4807  -0.4560  -0.3992  -0.3946
    -0.3855  -0.3573  -0.3415  -0.3390  -0.3222  -0.2235  -0.2217  -0.1910
    -0.1673  -0.1490  -0.1422  -0.1348  -0.1150  -0.0779  -0.0565  -0.0401
    -0.0125  -0.0008   0.0312   0.0382   0.0496   0.0945   0.1273   0.1393
     0.1593   0.2121   0.2620   0.2641   0.2682   0.3048   0.3048   0.3325
     0.3335   0.4793   0.4985   0.5388   0.6643   0.7106   0.7380   0.7669
     0.7749   0.7954   0.8062   0.8606   0.9685   1.0309   1.0426   1.0628
     1.1144   1.1173   1.1277   1.1482   1.1989   1.2006   1.2187   1.2299
     1.3426   1.3721   1.3791   1.4028   1.4370   1.4870   1.5194   1.5745
     1.5752   1.6076   1.6130   1.6784   1.6915   1.7366   1.7441   1.7628
     1.7699   1.8222   1.8386   1.9018   1.9043   1.9428   1.9538   1.9670
     1.9899   2.0391   2.0822   2.1207   2.1234   2.1801   2.2272   2.2497
     2.2514   2.2730   2.3003   2.3078   2.3186   2.3771   2.3791   2.3827
     2.4157   2.4195   2.4791   2.4825   2.5389   2.5759   2.6062   2.6294
     2.6594   2.6639   2.6780   2.7077   2.7172   2.7362   2.7902   2.8219
     2.8695   2.9269   2.9895   3.0226   3.0401   3.1141   3.2949   3.4141
     3.7260   4.0078   4.2481   4.3248   4.6488   4.8302   5.4220   5.7031
     5.9170   6.2347   6.3971   6.5470   6.6982   6.7410   7.2924   7.3880
     7.4877   7.7091   7.8133   7.8148

          k = 0.0000 0.4619 0.0000 ( 43046 PWs)   bands (ev):

    -9.8030  -5.5027  -4.8832  -4.5540  -4.1712  -3.8403  -3.8365  -3.6911
    -3.4232  -3.3075  -3.2201  -3.2152  -3.1668  -3.0845  -3.0488  -2.9915
    -2.8792  -2.8657  -2.8357  -2.7658  -2.7372  -2.7300  -2.6761  -2.6628
    -2.6145  -2.6054  -2.5760  -2.5633  -2.4925  -2.4727  -2.2874  -2.2700
    -2.2489  -2.2299  -2.1587  -2.1233  -2.0395  -2.0217  -1.9937  -1.9892
    -1.9396  -1.8558  -1.8459  -1.7795  -1.7110  -1.6675  -1.6373  -1.6180
    -1.5567  -1.5516  -1.5144  -1.4916  -1.4871  -1.4592  -1.3515  -1.3183
    -1.3117  -1.2409  -1.1918  -1.1552  -1.1288  -1.1000  -1.0656  -1.0654
    -0.9397  -0.9154  -0.8731  -0.8330  -0.8289  -0.7818  -0.7503  -0.7378
    -0.6618  -0.6040  -0.5846  -0.5631  -0.5360  -0.5296  -0.4902  -0.4562
    -0.4443  -0.4213  -0.3932  -0.3809  -0.3718  -0.3506  -0.3430  -0.3183
    -0.2897  -0.2322  -0.2193  -0.1920  -0.1632  -0.1488  -0.1296  -0.1114
    -0.0546  -0.0037   0.0233   0.0357   0.0659   0.0902   0.1074   0.1312
     0.1640   0.1999   0.2401   0.2815   0.2933   0.3298   0.3807   0.4318
     0.4764   0.4989   0.5718   0.5812   0.5872   0.6246   0.6617   0.6865
     0.6968   0.7402   0.7644   0.7937   0.8050   0.8092   0.8357   0.8713
     0.8828   0.9346   0.9939   1.0039   1.0607   1.0879   1.1566   1.1608
     1.2192   1.2970   1.3050   1.3723   1.3754   1.4054   1.4911   1.4966
     1.5605   1.5752   1.6152   1.6238   1.6392   1.6727   1.6959   1.7036
     1.7349   1.8072   1.8120   1.8607   1.8850   1.9113   1.9404   1.9678
     2.0303   2.0716   2.1358   2.1502   2.1848   2.2361   2.2880   2.2905
     2.3274   2.3294   2.3521   2.3873   2.4432   2.4549   2.4695   2.5063
     2.5815   2.6056   2.6170   2.6306   2.6370   2.6647   2.6722   2.7004
     2.8252   2.8471   2.8784   2.8831   2.8935   2.9830   3.1158   3.2475
     3.2954   3.4029   3.6241   3.8954   3.9240   4.0763   4.1682   4.2020
     4.5642   4.6359   4.7781   4.9054   5.1773   5.2152   5.3155   5.3880
     5.4411   5.6023   5.7044   6.0933   6.1813   6.3540   6.5907   6.9899
     7.0515   7.4847   7.5723   7.6997

          k = 0.2000-0.1155 0.0000 ( 42996 PWs)   bands (ev):

    -9.8086  -5.9168  -4.7834  -4.3778  -4.1736  -3.8113  -3.7740  -3.5715
    -3.5235  -3.4674  -3.4437  -3.4060  -3.3045  -3.2644  -3.2038  -3.0670
    -3.0454  -3.0271  -2.9207  -2.8711  -2.7110  -2.6333  -2.5968  -2.5854
    -2.5159  -2.5111  -2.4891  -2.4253  -2.4032  -2.3629  -2.3403  -2.3237
    -2.2933  -2.2836  -2.2261  -2.2177  -2.1064  -2.0930  -2.0106  -1.9806
    -1.9585  -1.8112  -1.7481  -1.7335  -1.6914  -1.6814  -1.6538  -1.6413
    -1.5433  -1.5342  -1.5040  -1.4116  -1.4040  -1.3324  -1.3102  -1.2716
    -1.2246  -1.1991  -1.0252  -0.9531  -0.9449  -0.9144  -0.8954  -0.8594
    -0.8232  -0.8134  -0.7979  -0.7755  -0.7347  -0.6895  -0.6550  -0.6185
    -0.6124  -0.5880  -0.5559  -0.5227  -0.5045  -0.4792  -0.3959  -0.3861
    -0.3737  -0.3475  -0.3377  -0.3228  -0.2846  -0.2408  -0.2253  -0.1962
    -0.1684  -0.1533  -0.1505  -0.1312  -0.1146  -0.0902  -0.0496  -0.0353
    -0.0094  -0.0028   0.0140   0.0424   0.0575   0.1003   0.1221   0.1476
     0.1541   0.2091   0.2383   0.2509   0.2725   0.3032   0.3131   0.3318
     0.3370   0.4498   0.5124   0.5749   0.6734   0.7049   0.7315   0.7506
     0.7646   0.7871   0.8062   0.8687   0.9548   1.0206   1.0457   1.0556
     1.1010   1.1210   1.1326   1.1420   1.1896   1.1989   1.2212   1.2313
     1.3491   1.3737   1.3831   1.3958   1.4149   1.4895   1.5185   1.5623
     1.5738   1.5960   1.6251   1.6784   1.6890   1.7347   1.7435   1.7716
     1.7813   1.8307   1.8371   1.9013   1.9055   1.9440   1.9571   1.9731
     1.9934   2.0235   2.0931   2.1126   2.1224   2.1735   2.2065   2.2472
     2.2517   2.2713   2.2975   2.3067   2.3182   2.3727   2.3863   2.3880
     2.4121   2.4260   2.4640   2.4698   2.5472   2.5648   2.6076   2.6350
     2.6627   2.6747   2.6907   2.7220   2.7351   2.7564   2.7947   2.8235
     2.8687   2.9243   2.9902   3.0222   3.0512   3.1044   3.3016   3.4428
     3.7338   4.0160   4.2399   4.3091   4.6427   4.8263   5.4118   5.7172
     5.9464   6.2297   6.3921   6.5409   6.7088   6.7301   7.2982   7.3686
     7.4637   7.7116   7.7869   7.8360

          k = 0.2000 0.1155 0.0000 ( 42996 PWs)   bands (ev):

    -9.8086  -5.9168  -4.7834  -4.3777  -4.1737  -3.8112  -3.7740  -3.5715
    -3.5235  -3.4674  -3.4437  -3.4060  -3.3045  -3.2644  -3.2038  -3.0670
    -3.0455  -3.0271  -2.9207  -2.8711  -2.7110  -2.6332  -2.5968  -2.5854
    -2.5159  -2.5111  -2.4891  -2.4253  -2.4032  -2.3629  -2.3402  -2.3236
    -2.2933  -2.2836  -2.2261  -2.2177  -2.1064  -2.0930  -2.0105  -1.9806
    -1.9585  -1.8112  -1.7481  -1.7335  -1.6913  -1.6814  -1.6537  -1.6413
    -1.5434  -1.5343  -1.5040  -1.4115  -1.4040  -1.3324  -1.3103  -1.2716
    -1.2246  -1.1991  -1.0252  -0.9531  -0.9449  -0.9144  -0.8954  -0.8594
    -0.8232  -0.8134  -0.7979  -0.7755  -0.7347  -0.6895  -0.6550  -0.6185
    -0.6124  -0.5879  -0.5559  -0.5228  -0.5045  -0.4792  -0.3959  -0.3861
    -0.3737  -0.3475  -0.3377  -0.3228  -0.2846  -0.2408  -0.2253  -0.1962
    -0.1684  -0.1533  -0.1505  -0.1312  -0.1146  -0.0903  -0.0496  -0.0353
    -0.0094  -0.0028   0.0140   0.0424   0.0575   0.1003   0.1222   0.1476
     0.1540   0.2091   0.2383   0.2509   0.2725   0.3032   0.3131   0.3318
     0.3370   0.4497   0.5124   0.5749   0.6734   0.7049   0.7315   0.7506
     0.7646   0.7871   0.8062   0.8687   0.9548   1.0206   1.0458   1.0556
     1.1010   1.1210   1.1326   1.1420   1.1896   1.1989   1.2212   1.2313
     1.3491   1.3737   1.3831   1.3958   1.4149   1.4894   1.5184   1.5623
     1.5738   1.5961   1.6251   1.6784   1.6890   1.7347   1.7435   1.7716
     1.7813   1.8307   1.8371   1.9013   1.9055   1.9440   1.9571   1.9732
     1.9934   2.0235   2.0931   2.1125   2.1224   2.1735   2.2065   2.2472
     2.2517   2.2713   2.2975   2.3067   2.3182   2.3727   2.3863   2.3880
     2.4121   2.4260   2.4640   2.4698   2.5472   2.5648   2.6076   2.6349
     2.6627   2.6747   2.6908   2.7220   2.7351   2.7565   2.7947   2.8235
     2.8687   2.9243   2.9902   3.0222   3.0512   3.1044   3.3016   3.4428
     3.7338   4.0160   4.2398   4.3091   4.6427   4.8263   5.4118   5.7172
     5.9464   6.2296   6.3921   6.5409   6.7088   6.7301   7.2987   7.3685
     7.4637   7.7121   7.7867   7.8361

          k = 0.2000 0.3464 0.0000 ( 43046 PWs)   bands (ev):

    -9.8042  -5.6370  -4.6212  -4.4445  -4.4316  -4.1930  -3.5433  -3.4546
    -3.3460  -3.3326  -3.3141  -3.2905  -3.2524  -3.1797  -3.1618  -3.1059
    -3.0032  -2.9044  -2.7632  -2.7501  -2.7403  -2.7093  -2.6470  -2.6152
    -2.5515  -2.5436  -2.4951  -2.4532  -2.4317  -2.4086  -2.3767  -2.3321
    -2.3056  -2.2731  -2.2552  -2.2111  -2.1301  -2.0906  -1.9753  -1.9010
    -1.8711  -1.8090  -1.7801  -1.7511  -1.7176  -1.6864  -1.6655  -1.6103
    -1.5622  -1.5393  -1.5032  -1.4611  -1.4063  -1.3628  -1.3399  -1.2837
    -1.2685  -1.2244  -1.1987  -1.1815  -1.0642  -1.0541  -1.0043  -0.9757
    -0.9554  -0.8919  -0.8823  -0.8663  -0.8401  -0.8000  -0.7034  -0.6817
    -0.6554  -0.6391  -0.6158  -0.5968  -0.5463  -0.5188  -0.4717  -0.4495
    -0.3946  -0.3800  -0.3691  -0.3347  -0.3207  -0.2975  -0.2793  -0.2597
    -0.2495  -0.2186  -0.1996  -0.1636  -0.1162  -0.0923  -0.0712  -0.0543
    -0.0483  -0.0317  -0.0001   0.0263   0.0479   0.0624   0.0761   0.0867
     0.0975   0.1051   0.1315   0.2156   0.2276   0.2843   0.3460   0.3713
     0.3977   0.4105   0.5080   0.5382   0.5767   0.6257   0.6380   0.7066
     0.7468   0.7595   0.7852   0.8223   0.8356   0.8765   0.9047   0.9145
     0.9702   0.9877   1.0575   1.1219   1.1286   1.1565   1.1819   1.2144
     1.2726   1.2850   1.3321   1.3499   1.3728   1.4493   1.4631   1.4889
     1.5083   1.5341   1.5886   1.6216   1.6512   1.6917   1.7088   1.7233
     1.7317   1.7520   1.7683   1.7829   1.8191   1.8804   1.9246   2.0113
     2.0383   2.0910   2.1572   2.2537   2.2663   2.2773   2.3051   2.3217
     2.3734   2.4074   2.4233   2.4462   2.4689   2.4758   2.4943   2.5131
     2.5293   2.5537   2.5793   2.6198   2.6480   2.6592   2.6914   2.7094
     2.7652   2.8235   2.8746   2.9214   2.9371   2.9530   2.9945   3.0314
     3.0920   3.1533   3.3395   3.5950   3.6976   3.8977   3.9669   4.1868
     4.2219   4.3395   4.7243   4.8220   5.0449   5.1252   5.1940   5.3563
     5.4730   6.0908   6.2089   6.4037   6.4945   6.6978   6.9138   7.1004
     7.1592   7.1740   7.3016   7.5466

          k = 0.2000-0.5774 0.0000 ( 43014 PWs)   bands (ev):

    -9.8015  -5.1308  -5.0960  -4.5498  -4.4479  -3.9839  -3.7876  -3.4497
    -3.3179  -3.2738  -3.1891  -3.1217  -3.0563  -3.0398  -2.9994  -2.9241
    -2.8835  -2.8418  -2.8358  -2.8034  -2.7828  -2.7417  -2.7175  -2.6611
    -2.6129  -2.5970  -2.5749  -2.5585  -2.4986  -2.4780  -2.3661  -2.3212
    -2.2916  -2.2370  -2.2080  -2.1801  -2.1711  -2.0506  -1.9959  -1.9695
    -1.8938  -1.8777  -1.7809  -1.7646  -1.7341  -1.6663  -1.6356  -1.5700
    -1.5313  -1.4649  -1.4361  -1.4028  -1.3865  -1.3581  -1.3352  -1.2858
    -1.2816  -1.2148  -1.2113  -1.1817  -1.1590  -1.1312  -1.1104  -1.0946
    -1.0558  -1.0193  -0.9716  -0.9178  -0.8924  -0.8679  -0.7681  -0.7506
    -0.7128  -0.6855  -0.6632  -0.6599  -0.6216  -0.5960  -0.5407  -0.5362
    -0.5249  -0.4869  -0.4548  -0.4106  -0.3646  -0.3225  -0.3018  -0.2867
    -0.2742  -0.1839  -0.1725  -0.1553  -0.1367  -0.0975  -0.0796  -0.0420
    -0.0237  -0.0144   0.0089   0.0268   0.0454   0.0492   0.0909   0.0959
     0.1262   0.1367   0.1477   0.1611   0.1920   0.2006   0.2375   0.4009
     0.4312   0.4721   0.4928   0.5383   0.5986   0.6141   0.6470   0.6698
     0.6911   0.7271   0.7405   0.7666   0.7954   0.8149   0.8508   0.8933
     0.9344   0.9909   1.0056   1.0116   1.0760   1.0993   1.1813   1.2160
     1.2459   1.2627   1.3127   1.3505   1.3606   1.3931   1.4176   1.4302
     1.4593   1.4814   1.5451   1.5634   1.5896   1.5913   1.6401   1.6685
     1.7089   1.7205   1.7791   1.8321   1.9214   1.9488   2.0069   2.0636
     2.1069   2.1198   2.1742   2.1875   2.2521   2.2603   2.3097   2.3596
     2.3954   2.4221   2.4465   2.4742   2.4870   2.5263   2.5390   2.5989
     2.6103   2.6220   2.6388   2.6829   2.6910   2.7053   2.7653   2.7934
     2.8373   2.8786   2.9004   2.9020   2.9571   2.9808   3.0377   3.1456
     3.5697   3.8290   3.9595   4.0770   4.1490   4.3110   4.3745   4.4029
     4.5784   4.7754   4.9113   5.0981   5.1974   5.2104   5.5581   5.5616
     5.7367   5.8088   5.8927   5.9686   6.1018   6.2390   6.4067   6.4763
     6.7689   7.0536   7.1568   7.2349

          k = 0.2000-0.3464 0.0000 ( 43046 PWs)   bands (ev):

    -9.8042  -5.6370  -4.6212  -4.4444  -4.4317  -4.1930  -3.5432  -3.4547
    -3.3460  -3.3326  -3.3141  -3.2905  -3.2524  -3.1797  -3.1618  -3.1059
    -3.0032  -2.9044  -2.7632  -2.7501  -2.7403  -2.7092  -2.6470  -2.6152
    -2.5515  -2.5436  -2.4951  -2.4532  -2.4317  -2.4086  -2.3768  -2.3321
    -2.3056  -2.2731  -2.2551  -2.2112  -2.1301  -2.0905  -1.9753  -1.9010
    -1.8711  -1.8090  -1.7801  -1.7511  -1.7176  -1.6864  -1.6655  -1.6103
    -1.5623  -1.5393  -1.5032  -1.4612  -1.4063  -1.3628  -1.3399  -1.2836
    -1.2685  -1.2244  -1.1988  -1.1815  -1.0642  -1.0540  -1.0043  -0.9757
    -0.9554  -0.8919  -0.8823  -0.8663  -0.8401  -0.8000  -0.7034  -0.6817
    -0.6554  -0.6391  -0.6158  -0.5968  -0.5463  -0.5188  -0.4717  -0.4495
    -0.3946  -0.3800  -0.3691  -0.3347  -0.3207  -0.2975  -0.2793  -0.2597
    -0.2495  -0.2186  -0.1996  -0.1635  -0.1162  -0.0923  -0.0712  -0.0543
    -0.0483  -0.0317  -0.0002   0.0263   0.0480   0.0624   0.0760   0.0867
     0.0975   0.1051   0.1315   0.2156   0.2276   0.2843   0.3461   0.3713
     0.3977   0.4105   0.5079   0.5382   0.5767   0.6257   0.6380   0.7066
     0.7468   0.7595   0.7851   0.8223   0.8356   0.8765   0.9046   0.9145
     0.9702   0.9877   1.0576   1.1218   1.1286   1.1565   1.1819   1.2144
     1.2727   1.2850   1.3321   1.3499   1.3728   1.4493   1.4631   1.4888
     1.5083   1.5341   1.5886   1.6216   1.6512   1.6917   1.7088   1.7233
     1.7317   1.7520   1.7683   1.7828   1.8191   1.8804   1.9246   2.0113
     2.0383   2.0910   2.1573   2.2537   2.2663   2.2773   2.3051   2.3217
     2.3734   2.4074   2.4233   2.4461   2.4689   2.4758   2.4943   2.5131
     2.5293   2.5537   2.5793   2.6198   2.6480   2.6592   2.6914   2.7094
     2.7652   2.8235   2.8746   2.9214   2.9371   2.9530   2.9945   3.0314
     3.0920   3.1533   3.3394   3.5950   3.6976   3.8978   3.9669   4.1868
     4.2219   4.3394   4.7243   4.8220   5.0449   5.1252   5.1940   5.3563
     5.4729   6.0909   6.2088   6.4038   6.4945   6.6977   6.9138   7.1005
     7.1592   7.1740   7.3017   7.5466

          k = 0.4000-0.2309 0.0000 ( 43046 PWs)   bands (ev):

    -9.8034  -5.5031  -4.8836  -4.5509  -4.1720  -3.8416  -3.8253  -3.6929
    -3.4465  -3.3160  -3.2444  -3.2175  -3.1705  -3.0721  -3.0423  -2.9941
    -2.8812  -2.8737  -2.8361  -2.7814  -2.7404  -2.7295  -2.6687  -2.6568
    -2.6252  -2.6127  -2.5713  -2.5632  -2.4904  -2.4674  -2.2767  -2.2627
    -2.2389  -2.2265  -2.1545  -2.1163  -2.0274  -2.0123  -1.9933  -1.9760
    -1.9069  -1.8455  -1.8297  -1.7677  -1.7138  -1.6733  -1.6456  -1.6139
    -1.5772  -1.5567  -1.5143  -1.5015  -1.4730  -1.4559  -1.3416  -1.3101
    -1.3005  -1.2431  -1.1992  -1.1415  -1.0888  -1.0796  -1.0618  -1.0548
    -0.9311  -0.9042  -0.8904  -0.8533  -0.8393  -0.7746  -0.7635  -0.7455
    -0.6708  -0.6390  -0.6160  -0.5766  -0.5328  -0.5310  -0.4764  -0.4571
    -0.4361  -0.4092  -0.3913  -0.3686  -0.3612  -0.3439  -0.3401  -0.3144
    -0.2965  -0.2477  -0.2071  -0.1893  -0.1759  -0.1452  -0.1215  -0.0937
    -0.0600  -0.0265   0.0091   0.0292   0.0611   0.0689   0.0872   0.1275
     0.1531   0.1865   0.2370   0.2862   0.2986   0.3225   0.3617   0.4160
     0.4518   0.5168   0.5648   0.5763   0.5851   0.6315   0.6798   0.6929
     0.7151   0.7367   0.7721   0.7929   0.8035   0.8291   0.8381   0.8424
     0.8728   0.9398   0.9883   0.9945   1.0468   1.0741   1.1415   1.1638
     1.2055   1.2785   1.2880   1.3566   1.3827   1.4298   1.4869   1.5071
     1.5555   1.5743   1.6112   1.6362   1.6505   1.6633   1.7091   1.7144
     1.7342   1.8089   1.8219   1.8639   1.8883   1.9093   1.9144   1.9655
     2.0269   2.0671   2.1214   2.1514   2.1842   2.2288   2.2865   2.2908
     2.3187   2.3265   2.3489   2.3866   2.4327   2.4450   2.4620   2.4962
     2.5849   2.5977   2.6209   2.6297   2.6452   2.6586   2.6996   2.7213
     2.8404   2.8703   2.8823   2.8955   2.9146   2.9894   3.1151   3.2093
     3.3115   3.4406   3.6164   3.9069   3.9187   4.0668   4.1866   4.2124
     4.5691   4.6464   4.7932   4.9299   5.1778   5.2232   5.3287   5.3729
     5.4293   5.6146   5.7223   6.0955   6.1753   6.3757   6.5644   6.9782
     7.0238   7.4814   7.5777   7.6984

          k = 0.4000-0.0000 0.0000 ( 43046 PWs)   bands (ev):

    -9.8045  -5.6373  -4.6171  -4.4439  -4.4354  -4.1950  -3.5414  -3.4609
    -3.3516  -3.3404  -3.3098  -3.2933  -3.2368  -3.1831  -3.1553  -3.1203
    -3.0087  -2.9055  -2.7823  -2.7464  -2.7389  -2.7153  -2.6449  -2.6239
    -2.5525  -2.5407  -2.4778  -2.4514  -2.4343  -2.3857  -2.3708  -2.3276
    -2.3124  -2.2711  -2.2628  -2.2133  -2.1517  -2.0915  -1.9300  -1.8957
    -1.8650  -1.8103  -1.7835  -1.7510  -1.7094  -1.6859  -1.6637  -1.6038
    -1.5550  -1.5445  -1.5007  -1.4527  -1.4039  -1.3714  -1.3424  -1.2863
    -1.2752  -1.2195  -1.2003  -1.1830  -1.0520  -1.0391  -0.9913  -0.9562
    -0.9187  -0.8959  -0.8833  -0.8569  -0.8301  -0.7994  -0.7055  -0.6802
    -0.6739  -0.6536  -0.6382  -0.6217  -0.5389  -0.5110  -0.4854  -0.4668
    -0.3886  -0.3605  -0.3509  -0.3403  -0.3214  -0.3117  -0.2884  -0.2614
    -0.2398  -0.2321  -0.2210  -0.1859  -0.1148  -0.1053  -0.0724  -0.0643
    -0.0483  -0.0156   0.0006   0.0205   0.0468   0.0523   0.0773   0.0963
     0.1039   0.1244   0.1344   0.2217   0.2327   0.2888   0.3364   0.3650
     0.3707   0.4102   0.5059   0.5128   0.5787   0.6281   0.6435   0.7159
     0.7362   0.7406   0.7746   0.8235   0.8466   0.8769   0.9005   0.9072
     0.9725   1.0320   1.0592   1.0999   1.1187   1.1502   1.1732   1.2055
     1.2539   1.2896   1.3210   1.3515   1.3709   1.4474   1.4615   1.4772
     1.4979   1.5242   1.6007   1.6337   1.6553   1.6960   1.7104   1.7320
     1.7474   1.7559   1.7735   1.7961   1.8208   1.8813   1.9204   2.0089
     2.0317   2.0784   2.1573   2.2581   2.2614   2.2699   2.3042   2.3169
     2.3666   2.4157   2.4317   2.4374   2.4607   2.4752   2.4858   2.5090
     2.5190   2.5503   2.5896   2.6190   2.6405   2.6690   2.6853   2.7070
     2.7582   2.8367   2.8946   2.9324   2.9614   2.9697   3.0100   3.0282
     3.0900   3.1470   3.3461   3.5912   3.6802   3.8816   3.9822   4.2044
     4.2316   4.3835   4.7229   4.8104   5.0432   5.1280   5.1894   5.3654
     5.4748   6.0705   6.2486   6.4060   6.5194   6.6888   6.8917   7.0868
     7.1535   7.1715   7.2982   7.5459

          k = 0.4000 0.2309 0.0000 ( 43046 PWs)   bands (ev):

    -9.8034  -5.5031  -4.8836  -4.5509  -4.1720  -3.8416  -3.8254  -3.6929
    -3.4465  -3.3160  -3.2443  -3.2175  -3.1705  -3.0721  -3.0423  -2.9941
    -2.8813  -2.8738  -2.8361  -2.7814  -2.7405  -2.7296  -2.6687  -2.6567
    -2.6252  -2.6127  -2.5713  -2.5632  -2.4904  -2.4674  -2.2767  -2.2627
    -2.2390  -2.2264  -2.1545  -2.1163  -2.0275  -2.0123  -1.9933  -1.9760
    -1.9069  -1.8455  -1.8297  -1.7677  -1.7138  -1.6732  -1.6456  -1.6139
    -1.5771  -1.5567  -1.5143  -1.5015  -1.4730  -1.4559  -1.3416  -1.3101
    -1.3005  -1.2431  -1.1992  -1.1414  -1.0888  -1.0796  -1.0618  -1.0548
    -0.9310  -0.9042  -0.8904  -0.8533  -0.8393  -0.7746  -0.7635  -0.7455
    -0.6708  -0.6390  -0.6160  -0.5766  -0.5328  -0.5310  -0.4764  -0.4571
    -0.4361  -0.4092  -0.3913  -0.3686  -0.3612  -0.3439  -0.3402  -0.3144
    -0.2966  -0.2476  -0.2071  -0.1893  -0.1759  -0.1452  -0.1215  -0.0937
    -0.0600  -0.0265   0.0091   0.0292   0.0610   0.0688   0.0872   0.1275
     0.1530   0.1865   0.2370   0.2862   0.2986   0.3225   0.3617   0.4160
     0.4517   0.5168   0.5648   0.5763   0.5851   0.6315   0.6798   0.6929
     0.7151   0.7367   0.7721   0.7930   0.8035   0.8290   0.8381   0.8423
     0.8727   0.9398   0.9883   0.9945   1.0468   1.0741   1.1415   1.1638
     1.2055   1.2785   1.2880   1.3565   1.3827   1.4298   1.4869   1.5071
     1.5555   1.5743   1.6112   1.6363   1.6505   1.6633   1.7091   1.7144
     1.7342   1.8090   1.8219   1.8639   1.8883   1.9093   1.9144   1.9655
     2.0269   2.0671   2.1214   2.1514   2.1842   2.2288   2.2865   2.2908
     2.3187   2.3265   2.3489   2.3866   2.4327   2.4450   2.4620   2.4962
     2.5849   2.5976   2.6210   2.6297   2.6452   2.6586   2.6996   2.7213
     2.8404   2.8703   2.8823   2.8955   2.9146   2.9894   3.1151   3.2093
     3.3115   3.4407   3.6165   3.9069   3.9187   4.0668   4.1866   4.2124
     4.5692   4.6464   4.7932   4.9299   5.1778   5.2232   5.3287   5.3728
     5.4293   5.6146   5.7223   6.0955   6.1753   6.3757   6.5644   6.9782
     7.0238   7.4814   7.5777   7.6984

          k = 0.4000-0.6928 0.0000 ( 43014 PWs)   bands (ev):

    -9.8018  -5.1309  -5.0969  -4.5529  -4.4393  -3.9815  -3.7931  -3.4556
    -3.3391  -3.2748  -3.1881  -3.1230  -3.0579  -3.0382  -2.9946  -2.9321
    -2.8880  -2.8412  -2.8364  -2.8021  -2.7673  -2.7372  -2.7249  -2.6742
    -2.6119  -2.6008  -2.5942  -2.5582  -2.4941  -2.4722  -2.3598  -2.3144
    -2.2857  -2.2320  -2.1974  -2.1757  -2.1618  -2.0323  -1.9919  -1.9623
    -1.8818  -1.8606  -1.7988  -1.7621  -1.7394  -1.6642  -1.6180  -1.5856
    -1.5401  -1.4829  -1.4434  -1.4188  -1.3851  -1.3469  -1.2972  -1.2825
    -1.2589  -1.2143  -1.2071  -1.1682  -1.1548  -1.1344  -1.1087  -1.0844
    -1.0539  -1.0305  -0.9677  -0.9233  -0.8914  -0.8516  -0.7838  -0.7392
    -0.7310  -0.7086  -0.6675  -0.6639  -0.6310  -0.5955  -0.5431  -0.5327
    -0.5168  -0.4869  -0.4504  -0.4206  -0.3462  -0.3156  -0.3047  -0.2939
    -0.2760  -0.2184  -0.1818  -0.1469  -0.1143  -0.0981  -0.0718  -0.0535
    -0.0357  -0.0248  -0.0033   0.0076   0.0367   0.0712   0.0827   0.1101
     0.1223   0.1319   0.1467   0.1581   0.1829   0.2129   0.2443   0.3756
     0.4265   0.4659   0.4832   0.5360   0.5939   0.6340   0.6507   0.6732
     0.6919   0.7193   0.7456   0.7702   0.7877   0.8219   0.8555   0.8975
     0.9136   0.9847   1.0031   1.0159   1.0661   1.0811   1.1776   1.2277
     1.2382   1.2729   1.3169   1.3419   1.3740   1.3895   1.4193   1.4315
     1.4620   1.4774   1.5479   1.5651   1.5937   1.5971   1.6483   1.6626
     1.7013   1.7125   1.7690   1.8279   1.9198   1.9452   2.0049   2.0657
     2.1084   2.1281   2.1736   2.1882   2.2513   2.2617   2.3107   2.3514
     2.3893   2.4151   2.4452   2.4629   2.4800   2.5326   2.5493   2.5956
     2.6131   2.6196   2.6412   2.6738   2.6859   2.7004   2.7611   2.7869
     2.8428   2.8889   2.9071   2.9297   2.9685   3.0063   3.0358   3.1461
     3.5744   3.8020   3.9860   4.0760   4.1570   4.3194   4.3689   4.3793
     4.5870   4.7678   4.9305   5.1063   5.2062   5.2355   5.5524   5.5727
     5.7750   5.8065   5.9226   5.9669   6.0775   6.2237   6.4256   6.4587
     6.7654   7.0569   7.1346   7.2010

          k = 0.4000-0.4619 0.0000 ( 43014 PWs)   bands (ev):

    -9.8018  -5.1310  -5.0968  -4.5529  -4.4393  -3.9816  -3.7930  -3.4556
    -3.3392  -3.2749  -3.1881  -3.1230  -3.0578  -3.0382  -2.9946  -2.9321
    -2.8880  -2.8412  -2.8363  -2.8022  -2.7673  -2.7372  -2.7248  -2.6743
    -2.6119  -2.6008  -2.5942  -2.5582  -2.4941  -2.4722  -2.3598  -2.3144
    -2.2856  -2.2320  -2.1974  -2.1757  -2.1619  -2.0323  -1.9919  -1.9623
    -1.8818  -1.8606  -1.7988  -1.7621  -1.7394  -1.6642  -1.6180  -1.5856
    -1.5401  -1.4829  -1.4435  -1.4188  -1.3851  -1.3469  -1.2971  -1.2825
    -1.2589  -1.2143  -1.2071  -1.1682  -1.1548  -1.1344  -1.1087  -1.0843
    -1.0539  -1.0306  -0.9677  -0.9232  -0.8914  -0.8517  -0.7838  -0.7392
    -0.7310  -0.7086  -0.6676  -0.6639  -0.6309  -0.5955  -0.5431  -0.5326
    -0.5169  -0.4869  -0.4504  -0.4206  -0.3462  -0.3156  -0.3047  -0.2939
    -0.2760  -0.2183  -0.1818  -0.1469  -0.1143  -0.0981  -0.0718  -0.0535
    -0.0357  -0.0247  -0.0033   0.0076   0.0367   0.0712   0.0827   0.1101
     0.1223   0.1320   0.1467   0.1580   0.1829   0.2128   0.2443   0.3756
     0.4265   0.4659   0.4833   0.5360   0.5939   0.6340   0.6506   0.6732
     0.6919   0.7193   0.7456   0.7702   0.7877   0.8218   0.8554   0.8975
     0.9137   0.9847   1.0031   1.0160   1.0661   1.0811   1.1776   1.2277
     1.2382   1.2729   1.3169   1.3419   1.3740   1.3895   1.4194   1.4315
     1.4620   1.4774   1.5479   1.5651   1.5937   1.5971   1.6482   1.6626
     1.7012   1.7125   1.7690   1.8279   1.9198   1.9452   2.0049   2.0657
     2.1084   2.1281   2.1736   2.1882   2.2513   2.2617   2.3107   2.3514
     2.3893   2.4151   2.4451   2.4629   2.4800   2.5326   2.5493   2.5956
     2.6131   2.6196   2.6412   2.6738   2.6859   2.7004   2.7611   2.7869
     2.8428   2.8889   2.9071   2.9297   2.9685   3.0062   3.0358   3.1461
     3.5744   3.8020   3.9860   4.0760   4.1570   4.3195   4.3689   4.3793
     4.5870   4.7678   4.9305   5.1064   5.2062   5.2354   5.5524   5.5727
     5.7750   5.8065   5.9225   5.9669   6.0776   6.2237   6.4256   6.4587
     6.7654   7.0569   7.1346   7.2011

     the Fermi energy is     2.6712 ev

!    total energy              =  -27774.47993482 Ry
     total all-electron energy =  -1326719.009449 Ry
     estimated scf accuracy    <       0.00000079 Ry
     smearing contrib. (-TS)   =      -0.00004666 Ry
     internal energy E=F+TS    =  -27774.47988815 Ry

     The total energy is F=E-TS. E is the sum of the following terms:
     one-electron contribution =  -20675.20254534 Ry
     hartree contribution      =   10648.44472886 Ry
     xc contribution           =    -895.52046901 Ry
     ewald contribution        =    8628.34821591 Ry
     one-center paw contrib.   =  -25480.54981857 Ry

     convergence has been achieved in  18 iterations

     negative rho (up, down):  3.137E-03 0.000E+00

     Forces acting on atoms (cartesian axes, Ry/au):

     atom    1 type  1   force =     0.00017583   -0.00060748   -0.00350556
     atom    2 type  1   force =    -0.00016726   -0.00063985   -0.00349815
     atom    3 type  1   force =    -0.00000612   -0.00051035   -0.00630447
     atom    4 type  1   force =    -0.00001963   -0.00078195   -0.00456772
     atom    5 type  1   force =     0.00071680   -0.00078525   -0.00646590
     atom    6 type  1   force =    -0.00069082   -0.00076639   -0.00643554
     atom    7 type  1   force =    -0.00013303   -0.00080527   -0.00676587
     atom    8 type  1   force =     0.00002689   -0.00156958   -0.00639282
     atom    9 type  1   force =     0.00010371   -0.00081675   -0.00676085
     atom   10 type  1   force =    -0.00002751    0.00086934    0.01439565
     atom   11 type  1   force =     0.00055373   -0.00047975    0.00520277
     atom   12 type  1   force =    -0.00052071   -0.00045206    0.00521150
     atom   13 type  1   force =    -0.00074691    0.00170357    0.00405644
     atom   14 type  1   force =     0.00003653    0.00099201    0.00288001
     atom   15 type  1   force =     0.00070490    0.00169274    0.00403994
     atom   16 type  1   force =    -0.00087524    0.00312189    0.00542333
     atom   17 type  1   force =     0.00088645    0.00308665    0.00541570
     atom   18 type  1   force =    -0.00001449    0.00368131   -0.00594484
     atom   19 type  1   force =     0.00000387    0.00028588    0.00018648
     atom   20 type  1   force =     0.00000312    0.00028752    0.00019885
     atom   21 type  1   force =    -0.00000628    0.00027399    0.00002344
     atom   22 type  1   force =     0.00000564   -0.00021697    0.00068508
     atom   23 type  1   force =    -0.00005515    0.00019916    0.00001320
     atom   24 type  1   force =     0.00005791    0.00019184    0.00000833
     atom   25 type  1   force =    -0.00000981    0.00014039   -0.00002448
     atom   26 type  1   force =    -0.00000273    0.00026279    0.00015568
     atom   27 type  1   force =     0.00000539    0.00014325   -0.00002326
     atom   28 type  1   force =    -0.00004443    0.00031767    0.00007322
     atom   29 type  1   force =     0.00004395    0.00031864    0.00007752
     atom   30 type  1   force =     0.00000047    0.00034142   -0.00006661
     atom   31 type  1   force =    -0.00000681   -0.00088260    0.00228789
     atom   32 type  1   force =     0.00003099    0.00036037    0.00024725
     atom   33 type  1   force =    -0.00002679    0.00036469    0.00024999
     atom   34 type  1   force =    -0.00018514    0.00016029   -0.00012400
     atom   35 type  1   force =     0.00000553    0.00042984    0.00005759
     atom   36 type  1   force =     0.00018063    0.00016370   -0.00011977
     atom   37 type  2   force =     0.00000067   -0.00109640    0.00187358
     atom   38 type  3   force =    -0.00000414   -0.00897833    0.00423637
     The non-local contrib.  to forces
     atom    1 type  1   force =     0.00025149    0.00032987   -0.01777253
     atom    2 type  1   force =    -0.00023780    0.00029923   -0.01777097
     atom    3 type  1   force =    -0.00000437   -0.00075954   -0.02074114
     atom    4 type  1   force =    -0.00001743   -0.00034699   -0.01831842
     atom    5 type  1   force =     0.00083829   -0.00013951   -0.01846375
     atom    6 type  1   force =    -0.00081021   -0.00012169   -0.01843680
     atom    7 type  1   force =    -0.00147583    0.00132100   -0.02106892
     atom    8 type  1   force =     0.00002601   -0.00014939   -0.01845998
     atom    9 type  1   force =     0.00145456    0.00131085   -0.02106764
     atom   10 type  1   force =    -0.00003020    0.00167623    0.00259211
     atom   11 type  1   force =    -0.00041420    0.00368434   -0.00061430
     atom   12 type  1   force =     0.00045431    0.00371593   -0.00058924
     atom   13 type  1   force =     0.00144583   -0.00045073   -0.00058643
     atom   14 type  1   force =     0.00004347    0.00143163   -0.00254405
     atom   15 type  1   force =    -0.00149020   -0.00046051   -0.00058234
     atom   16 type  1   force =     0.00222562    0.00217529    0.00006525
     atom   17 type  1   force =    -0.00220639    0.00213303    0.00006435
     atom   18 type  1   force =    -0.00001620    0.00277627    0.00501396
     atom   19 type  1   force =    -0.00104201    0.00168236    0.01333101
     atom   20 type  1   force =     0.00102655    0.00167618    0.01334520
     atom   21 type  1   force =     0.00001956    0.00420346    0.00629919
     atom   22 type  1   force =    -0.00001149    0.00274820    0.00218065
     atom   23 type  1   force =     0.00294753   -0.00182118    0.00624817
     atom   24 type  1   force =    -0.00292132   -0.00184336    0.00624559
     atom   25 type  1   force =    -0.00629038   -0.00279192   -0.00253926
     atom   26 type  1   force =    -0.00000609   -0.00117776    0.01234368
     atom   27 type  1   force =     0.00629197   -0.00281585   -0.00253535
     atom   28 type  1   force =     0.03502827    0.01843966   -0.03407848
     atom   29 type  1   force =    -0.03502699    0.01843101   -0.03405842
     atom   30 type  1   force =     0.00000873   -0.00095846    0.01470639
     atom   31 type  1   force =    -0.00001354   -0.04936010   -0.02441436
     atom   32 type  1   force =    -0.01430440   -0.00779448    0.01754348
     atom   33 type  1   force =     0.01431091   -0.00779391    0.01751307
     atom   34 type  1   force =    -0.00115311   -0.00391267    0.01579625
     atom   35 type  1   force =     0.00000948    0.01089451    0.01695577
     atom   36 type  1   force =     0.00114615   -0.00391649    0.01578203
     atom   37 type  2   force =    -0.00000119    0.00439445   -0.09756705
     atom   38 type  3   force =    -0.00000276   -0.01090034   -0.07944323
     The ionic contribution  to forces
     atom    1 type  1   force =     0.00853767   -0.00019315  -93.82989965
     atom    2 type  1   force =    -0.00848390   -0.00008162  -93.82979396
     atom    3 type  1   force =    -0.00005353   -0.01175646  -93.84536455
     atom    4 type  1   force =     0.00012067   -0.01278291  -93.84209013
     atom    5 type  1   force =    -0.01366570   -0.01018293  -93.86707494
     atom    6 type  1   force =     0.01354517   -0.01018689  -93.86731765
     atom    7 type  1   force =    -0.00510123    0.01117511  -93.85131506
     atom    8 type  1   force =    -0.00006695    0.02323319  -93.85920252
     atom    9 type  1   force =     0.00516799    0.01127225  -93.85145663
     atom   10 type  1   force =     0.00057511   -0.03357968  -32.30361505
     atom   11 type  1   force =    -0.10010897   -0.06241435  -32.43465717
     atom   12 type  1   force =     0.09953807   -0.06310409  -32.43613021
     atom   13 type  1   force =    -0.06761865   -0.05891520  -32.45581781
     atom   14 type  1   force =    -0.00077789    0.03345464  -32.60035925
     atom   15 type  1   force =     0.06838636   -0.05873213  -32.45736121
     atom   16 type  1   force =     0.03055183    0.16768470  -32.39105004
     atom   17 type  1   force =    -0.03084158    0.16847939  -32.39141221
     atom   18 type  1   force =     0.00035123    0.10554212  -32.31537203
     atom   19 type  1   force =     0.11081335   -0.13867307   29.80278389
     atom   20 type  1   force =    -0.10794220   -0.13779203   29.80515543
     atom   21 type  1   force =    -0.00277629   -0.17645667   28.92063016
     atom   22 type  1   force =     0.00228649    0.10864741   29.15042068
     atom   23 type  1   force =    -0.12533625    0.11875410   28.93353112
     atom   24 type  1   force =     0.12315344    0.12014688   28.93210907
     atom   25 type  1   force =    -0.05055352   -0.02386228   29.68692108
     atom   26 type  1   force =     0.00030247    0.15003218   30.14137899
     atom   27 type  1   force =     0.05015794   -0.02062745   29.68697843
     atom   28 type  1   force =    -3.20548357   -1.99522463   90.38469634
     atom   29 type  1   force =     3.20636073   -1.99412285   90.38491022
     atom   30 type  1   force =    -0.00095759   -0.17445222   90.99718469
     atom   31 type  1   force =     0.00158867    3.50275440   88.94652672
     atom   32 type  1   force =     0.38854072    0.22499206   90.54586683
     atom   33 type  1   force =    -0.39043049    0.22519101   90.54521119
     atom   34 type  1   force =    -0.09212607    0.09836799   90.94800398
     atom   35 type  1   force =    -0.00057685   -0.39859644   90.68171749
     atom   36 type  1   force =     0.09266131    0.09998198   90.94835110
     atom   37 type  2   force =     0.00018664   -0.03975728   44.56029092
     atom   38 type  3   force =     0.00007537    0.25178493   12.42662170
     The local contribution  to forces
     atom    1 type  1   force =    -0.00856963   -0.00091458   93.82732667
     atom    2 type  1   force =     0.00850222   -0.00093396   93.82723660
     atom    3 type  1   force =     0.00006392    0.01165920   93.84285658
     atom    4 type  1   force =    -0.00004931    0.01257667   93.83908890
     atom    5 type  1   force =     0.01330089    0.00979651   93.86242583
     atom    6 type  1   force =    -0.01325554    0.00974646   93.86258586
     atom    7 type  1   force =     0.00633801   -0.01350023   93.84882215
     atom    8 type  1   force =    -0.00001926   -0.02468930   93.85465635
     atom    9 type  1   force =    -0.00632006   -0.01356505   93.84892347
     atom   10 type  1   force =    -0.00047094    0.03277350   32.31585229
     atom   11 type  1   force =     0.10052956    0.05822498   32.44025728
     atom   12 type  1   force =    -0.10006522    0.05878658   32.44162447
     atom   13 type  1   force =     0.06515199    0.06111492   32.45996315
     atom   14 type  1   force =     0.00061891   -0.03352006   32.60481917
     atom   15 type  1   force =    -0.06576176    0.06096224   32.46143208
     atom   16 type  1   force =    -0.03351949   -0.16645147   32.39622490
     atom   17 type  1   force =     0.03375005   -0.16709507   32.39660150
     atom   18 type  1   force =    -0.00029121   -0.10451196   32.30420253
     atom   19 type  1   force =    -0.10873319    0.13675750  -29.81363082
     atom   20 type  1   force =     0.10605818    0.13594095  -29.81604019
     atom   21 type  1   force =     0.00257723    0.17236265  -28.92618118
     atom   22 type  1   force =    -0.00213903   -0.11198390  -29.15030387
     atom   23 type  1   force =     0.12201383   -0.11647335  -28.93928082
     atom   24 type  1   force =    -0.11997895   -0.11774104  -28.93782142
     atom   25 type  1   force =     0.05717356    0.02681145  -29.68285915
     atom   26 type  1   force =    -0.00027460   -0.14764437  -30.15155193
     atom   27 type  1   force =    -0.05680339    0.02378525  -29.68290534
     atom   28 type  1   force =     3.15625693    1.96825807  -90.34618181
     atom   29 type  1   force =    -3.15708641    1.96723139  -90.34646535
     atom   30 type  1   force =     0.00089718    0.17615105  -90.99608686
     atom   31 type  1   force =    -0.00149152   -3.43870791  -88.91702385
     atom   32 type  1   force =    -0.37628924   -0.21799342  -90.54705120
     atom   33 type  1   force =     0.37807661   -0.21818026  -90.54624770
     atom   34 type  1   force =     0.09357149   -0.09423937  -90.94814616
     atom   35 type  1   force =     0.00053957    0.39057263  -90.68255210
     atom   36 type  1   force =    -0.09406775   -0.09575683  -90.94842744
     atom   37 type  2   force =    -0.00016282    0.03398700  -44.46362307
     atom   38 type  3   force =    -0.00007305   -0.24986477  -12.34289458
     The core correction contribution to forces
     atom    1 type  1   force =    -0.00003476    0.00000002    0.01720747
     atom    2 type  1   force =     0.00003444    0.00000000    0.01720666
     atom    3 type  1   force =     0.00000042    0.00016461    0.01720007
     atom    4 type  1   force =    -0.00000013    0.00012538    0.01715387
     atom    5 type  1   force =     0.00012912    0.00008113    0.01700037
     atom    6 type  1   force =    -0.00012935    0.00008083    0.01699998
     atom    7 type  1   force =     0.00009724   -0.00000898    0.01718231
     atom    8 type  1   force =    -0.00000021   -0.00008781    0.01700058
     atom    9 type  1   force =    -0.00009687   -0.00000922    0.01718234
     atom   10 type  1   force =    -0.00000066    0.00002926   -0.00006336
     atom   11 type  1   force =     0.00030362    0.00014739    0.00039869
     atom   12 type  1   force =    -0.00030318    0.00014789    0.00040228
     atom   13 type  1   force =     0.00023740    0.00003912    0.00048216
     atom   14 type  1   force =     0.00000064   -0.00010197    0.00094138
     atom   15 type  1   force =    -0.00023800    0.00003923    0.00048599
     atom   16 type  1   force =    -0.00002724   -0.00048780    0.00027617
     atom   17 type  1   force =     0.00002745   -0.00048894    0.00027689
     atom   18 type  1   force =    -0.00000043   -0.00044677    0.00007690
     atom   19 type  1   force =    -0.00067174    0.00032875   -0.00280203
     atom   20 type  1   force =     0.00066351    0.00032666   -0.00280114
     atom   21 type  1   force =     0.00000725    0.00025122   -0.00127211
     atom   22 type  1   force =    -0.00000627    0.00001950   -0.00244226
     atom   23 type  1   force =     0.00035503   -0.00019880   -0.00126648
     atom   24 type  1   force =    -0.00034968   -0.00020186   -0.00126734
     atom   25 type  1   force =     0.00008313    0.00002291   -0.00216529
     atom   26 type  1   force =    -0.00000088   -0.00077514   -0.00252712
     atom   27 type  1   force =    -0.00008176    0.00001406   -0.00216574
     atom   28 type  1   force =     0.01421631    0.00874536   -0.00471031
     atom   29 type  1   force =    -0.01421852    0.00874308   -0.00470963
     atom   30 type  1   force =     0.00000250   -0.00018278   -0.01584319
     atom   31 type  1   force =    -0.00000352   -0.01569350   -0.00315760
     atom   32 type  1   force =     0.00198889    0.00104782   -0.01621248
     atom   33 type  1   force =    -0.00198477    0.00104732   -0.01621434
     atom   34 type  1   force =    -0.00021388   -0.00006720   -0.01583390
     atom   35 type  1   force =     0.00000105   -0.00218928   -0.01619379
     atom   36 type  1   force =     0.00021288   -0.00007148   -0.01583582
     atom   37 type  2   force =     0.00000006    0.00021478    0.00270360
     atom   38 type  3   force =     0.00000000    0.00000000    0.00000000
     The Hubbard contrib.    to forces
     atom    1 type  1   force =     0.00000000    0.00000000    0.00000000
     atom    2 type  1   force =     0.00000000    0.00000000    0.00000000
     atom    3 type  1   force =     0.00000000    0.00000000    0.00000000
     atom    4 type  1   force =     0.00000000    0.00000000    0.00000000
     atom    5 type  1   force =     0.00000000    0.00000000    0.00000000
     atom    6 type  1   force =     0.00000000    0.00000000    0.00000000
     atom    7 type  1   force =     0.00000000    0.00000000    0.00000000
     atom    8 type  1   force =     0.00000000    0.00000000    0.00000000
     atom    9 type  1   force =     0.00000000    0.00000000    0.00000000
     atom   10 type  1   force =     0.00000000    0.00000000    0.00000000
     atom   11 type  1   force =     0.00000000    0.00000000    0.00000000
     atom   12 type  1   force =     0.00000000    0.00000000    0.00000000
     atom   13 type  1   force =     0.00000000    0.00000000    0.00000000
     atom   14 type  1   force =     0.00000000    0.00000000    0.00000000
     atom   15 type  1   force =     0.00000000    0.00000000    0.00000000
     atom   16 type  1   force =     0.00000000    0.00000000    0.00000000
     atom   17 type  1   force =     0.00000000    0.00000000    0.00000000
     atom   18 type  1   force =     0.00000000    0.00000000    0.00000000
     atom   19 type  1   force =     0.00000000    0.00000000    0.00000000
     atom   20 type  1   force =     0.00000000    0.00000000    0.00000000
     atom   21 type  1   force =     0.00000000    0.00000000    0.00000000
     atom   22 type  1   force =     0.00000000    0.00000000    0.00000000
     atom   23 type  1   force =     0.00000000    0.00000000    0.00000000
     atom   24 type  1   force =     0.00000000    0.00000000    0.00000000
     atom   25 type  1   force =     0.00000000    0.00000000    0.00000000
     atom   26 type  1   force =     0.00000000    0.00000000    0.00000000
     atom   27 type  1   force =     0.00000000    0.00000000    0.00000000
     atom   28 type  1   force =     0.00000000    0.00000000    0.00000000
     atom   29 type  1   force =     0.00000000    0.00000000    0.00000000
     atom   30 type  1   force =     0.00000000    0.00000000    0.00000000
     atom   31 type  1   force =     0.00000000    0.00000000    0.00000000
     atom   32 type  1   force =     0.00000000    0.00000000    0.00000000
     atom   33 type  1   force =     0.00000000    0.00000000    0.00000000
     atom   34 type  1   force =     0.00000000    0.00000000    0.00000000
     atom   35 type  1   force =     0.00000000    0.00000000    0.00000000
     atom   36 type  1   force =     0.00000000    0.00000000    0.00000000
     atom   37 type  2   force =     0.00000000    0.00000000    0.00000000
     atom   38 type  3   force =     0.00000000    0.00000000    0.00000000
     The SCF correction term to forces
     atom    1 type  1   force =    -0.00000000    0.00000000   -0.00000000
     atom    2 type  1   force =     0.00000000    0.00000000   -0.00000000
     atom    3 type  1   force =    -0.00000000    0.00000000   -0.00000000
     atom    4 type  1   force =    -0.00000000   -0.00000000   -0.00000000
     atom    5 type  1   force =     0.00000000   -0.00000000   -0.00000000
     atom    6 type  1   force =    -0.00000000   -0.00000000   -0.00000000
     atom    7 type  1   force =     0.00000000    0.00000000   -0.00000000
     atom    8 type  1   force =     0.00000000    0.00000000   -0.00000000
     atom    9 type  1   force =    -0.00000000    0.00000000   -0.00000000
     atom   10 type  1   force =    -0.00000000   -0.00000000   -0.00000000
     atom   11 type  1   force =     0.00000000   -0.00000000   -0.00000000
     atom   12 type  1   force =    -0.00000000    0.00000000   -0.00000000
     atom   13 type  1   force =     0.00000000   -0.00000000    0.00000000
     atom   14 type  1   force =     0.00000000   -0.00000000    0.00000000
     atom   15 type  1   force =    -0.00000000   -0.00000000    0.00000000
     atom   16 type  1   force =    -0.00000000    0.00000000   -0.00000000
     atom   17 type  1   force =     0.00000000    0.00000000   -0.00000000
     atom   18 type  1   force =    -0.00000000    0.00000000    0.00000000
     atom   19 type  1   force =    -0.00036128    0.00019527    0.00054568
     atom   20 type  1   force =     0.00019833    0.00014069    0.00058080
     atom   21 type  1   force =     0.00016725   -0.00008174    0.00058864
     atom   22 type  1   force =    -0.00012280    0.00035677    0.00087113
     atom   23 type  1   force =    -0.00003404   -0.00005667    0.00082246
     atom   24 type  1   force =     0.00015567   -0.00016385    0.00078368
     atom   25 type  1   force =    -0.00042133   -0.00003483    0.00065938
     atom   26 type  1   force =    -0.00002236   -0.00016717    0.00055330
     atom   27 type  1   force =     0.00044189   -0.00020782    0.00064600
     atom   28 type  1   force =    -0.00006111    0.00010414    0.00038874
     atom   29 type  1   force =     0.00001640    0.00004094    0.00044194
     atom   30 type  1   force =     0.00005092   -0.00021124    0.00001361
     atom   31 type  1   force =    -0.00008563    0.00012945    0.00039822
     atom   32 type  1   force =     0.00009629    0.00011332    0.00014187
     atom   33 type  1   force =     0.00000221    0.00010547    0.00002901
     atom   34 type  1   force =    -0.00026231    0.00001648    0.00009708
     atom   35 type  1   force =     0.00003355   -0.00024664    0.00017147
     atom   36 type  1   force =     0.00022931   -0.00006855    0.00005160
     atom   37 type  2   force =    -0.00002076    0.00006959    0.00011043
     atom   38 type  3   force =    -0.00000245    0.00000678   -0.00000628

     Total force =     0.010554     Total SCF correction =     0.002447
     SCF correction compared to forces is large: reduce conv_thr to get better values

     Writing all to output data dir ./pwscf.save/

     init_run     :     10.66s CPU     10.99s WALL (       1 calls)
     electrons    :    413.65s CPU    437.57s WALL (       1 calls)
     forces       :      3.76s CPU      4.31s WALL (       1 calls)

     Called by init_run:
     wfcinit      :      5.79s CPU      5.96s WALL (       1 calls)
     potinit      :      3.26s CPU      3.34s WALL (       1 calls)
     hinit0       :      1.02s CPU      1.04s WALL (       1 calls)

     Called by electrons:
     c_bands      :    358.71s CPU    374.79s WALL (      19 calls)
     sum_band     :     37.80s CPU     38.96s WALL (      19 calls)
     v_of_rho     :      8.44s CPU     10.23s WALL (      19 calls)
     newd         :      2.95s CPU      6.80s WALL (      19 calls)
     PAW_pot      :      4.06s CPU      4.58s WALL (      19 calls)
     mix_rho      :      3.87s CPU      3.95s WALL (      19 calls)
     vdW_kernel   :      1.73s CPU      1.74s WALL (       1 calls)

     Called by c_bands:
     init_us_2    :      2.75s CPU      2.96s WALL (     520 calls)
     init_us_2:cp :      2.75s CPU      2.96s WALL (     520 calls)
     cegterg      :    349.17s CPU    363.95s WALL (     247 calls)

     Called by *egterg:
     cdiaghg      :     79.84s CPU     86.11s WALL (    1303 calls)
     h_psi        :    169.98s CPU    176.36s WALL (    1329 calls)
     s_psi        :     14.72s CPU     15.26s WALL (    1329 calls)
     g_psi        :      0.41s CPU      0.42s WALL (    1069 calls)

     Called by h_psi:
     h_psi:calbec :     25.64s CPU     27.50s WALL (    1329 calls)
     vloc_psi     :    128.11s CPU    130.30s WALL (    1329 calls)
     add_vuspsi   :     15.15s CPU     17.28s WALL (    1329 calls)

     General routines
     calbec       :     35.11s CPU     37.11s WALL (    1628 calls)
     fft          :      4.63s CPU      6.96s WALL (    1257 calls)
     ffts         :      2.26s CPU      2.29s WALL (    4707 calls)
     fftw         :    131.81s CPU    134.06s WALL (  309604 calls)
     interpolate  :      0.59s CPU      0.84s WALL (      19 calls)

     Parallel routines

     PWSCF        :   7m 9.76s CPU   7m37.69s WALL


   This run was terminated on:  13:23:27   7Nov2025            

=------------------------------------------------------------------------------=
   JOB DONE.
=------------------------------------------------------------------------------=
