
     Program PWSCF v.7.1 starts on 28Jan2025 at 19:40:51 
        Git branch: heads/qe-7.1
        Last git commit: 48ba0178f8fede6d020eb786884699a9f063f55d-dirty
        Last git commit date: Fri Jan 27 14:22:33 2023 +0000
        Last git commit subject: Merge branch 'fix_hubbard' into 'develop'

     This program is part of the open-source Quantum ESPRESSO suite
     for quantum simulation of materials; please cite
         "P. Giannozzi et al., J. Phys.:Condens. Matter 21 395502 (2009);
         "P. Giannozzi et al., J. Phys.:Condens. Matter 29 465901 (2017);
         "P. Giannozzi et al., J. Chem. Phys. 152 154105 (2020);
          URL http://www.quantum-espresso.org", 
     in publications or presentations arising from this work. More details at
     http://www.quantum-espresso.org/quote

     Parallel version (MPI), running on    48 processors

     MPI processes distributed on     1 nodes
     262744 MiB available memory on the printing compute node when the environment starts

     Reading input from espresso.pwi
Warning: card &CELL ignored
Warning: card / ignored
Warning: card &FCP ignored
Warning: card / ignored
Warning: card &RISM ignored
Warning: card / ignored

     Current dimensions of program PWSCF are:
     Max number of different atomic species (ntypx) = 10
     Max number of k-points (npk) =  40000
     Max angular momentum in pseudopotentials (lmaxx) =  4
     file Pt.pbe-n-kjpaw_psl.1.0.0.UPF: wavefunction(s)  6S 5D renormalized
     file H.pbe-kjpaw_psl.1.0.0.UPF: wavefunction(s)  1S renormalized
     file C.pbe-n-kjpaw_psl.1.0.0.UPF: wavefunction(s)  2S 2P renormalized

     **************************************************************************
     Initializing libbeef V0.1.2 with the BEEF-vdW functional.
     Citation: Wellendorff et al., PRB 85, 235149 (2012).
     **************************************************************************


     IMPORTANT: XC functional enforced from input :
     Exchange-correlation= BEEF-VDW
                           (   1   4  43  14   2   0   0)
     Any further DFT definition will be discarded
     Please, verify this is what you really want


     R & G space division:  proc/nbgrp/npool/nimage =      48
     Subspace diagonalization in iterative solution of the eigenvalue problem:
     one sub-group per band group will be used
     custom distributed-memory algorithm (size of sub-group:  2*  2 procs)


     Parallelization info
     --------------------
     sticks:   dense  smooth     PW     G-vecs:    dense   smooth      PW
     Min         150      59     16                30552     7447    1068
     Max         151      60     17                30571     7456    1081
     Sum        7243    2839    769              1467143   357639   51591

     Using Slab Decomposition



     bravais-lattice index     =            0
     lattice parameter (alat)  =      16.0028  a.u.
     unit-cell volume          =   10463.1828 (a.u.)^3
     number of atoms/cell      =           38
     number of atomic types    =            3
     number of electrons       =       365.00
     number of Kohn-Sham states=          220
     kinetic-energy cutoff     =      40.0000  Ry
     charge density cutoff     =     410.0000  Ry
     scf convergence threshold =      1.0E-06
     mixing beta               =       0.7000
     number of iterations used =            8  local-TF  mixing
     Exchange-correlation= BEEF-VDW
                           (   1   4  43  14   2   0   0)

     celldm(1)=  16.002787  celldm(2)=   0.000000  celldm(3)=   0.000000
     celldm(4)=   0.000000  celldm(5)=   0.000000  celldm(6)=   0.000000

     crystal axes: (cart. coord. in units of alat)
               a(1) = (   1.000000   0.000000   0.000000 )  
               a(2) = (   0.500000   0.866025   0.000000 )  
               a(3) = (   0.000000   0.000000   2.948128 )  

     reciprocal axes: (cart. coord. in units 2 pi/alat)
               b(1) = (  1.000000 -0.577350  0.000000 )  
               b(2) = (  0.000000  1.154701  0.000000 )  
               b(3) = (  0.000000  0.000000  0.339198 )  


     PseudoPot. # 1 for Pt read from file:
     /users/kbadger1/espresso/pseudo/pslibrary.1.0.0/pbe/PSEUDOPOTENTIALS/Pt.pbe-n-kjpaw_psl.1.0.0.UPF
     MD5 check sum: 2e24a0b5bf98a4ed1a57fa81bca8c143
     Pseudo is Projector augmented-wave + core cor, Zval = 10.0
     Generated using 'atomic' code by A. Dal Corso  v.7.0
     Shape of augmentation charge: PSQ
     Using radial grid of 1277 points,  6 beta functions with: 
                l(1) =   0
                l(2) =   0
                l(3) =   1
                l(4) =   1
                l(5) =   2
                l(6) =   2
     Q(r) pseudized with 0 coefficients 


     PseudoPot. # 2 for H  read from file:
     /users/kbadger1/espresso/pseudo/pslibrary.1.0.0/pbe/PSEUDOPOTENTIALS/H.pbe-kjpaw_psl.1.0.0.UPF
     MD5 check sum: fe4c6fa958fa6d3815bf5d2419cbf1df
     Pseudo is Projector augmented-wave, Zval =  1.0
     Generated using 'atomic' code by A. Dal Corso  v.7.0
     Shape of augmentation charge: PSQ
     Using radial grid of  929 points,  2 beta functions with: 
                l(1) =   0
                l(2) =   0
     Q(r) pseudized with 0 coefficients 


     PseudoPot. # 3 for C  read from file:
     /users/kbadger1/espresso/pseudo/pslibrary.1.0.0/pbe/PSEUDOPOTENTIALS/C.pbe-n-kjpaw_psl.1.0.0.UPF
     MD5 check sum: 6408e75cdba28732cea38a4db8498ce4
     Pseudo is Projector augmented-wave + core cor, Zval =  4.0
     Generated using 'atomic' code by A. Dal Corso  v.7.0
     Shape of augmentation charge: PSQ
     Using radial grid of 1073 points,  4 beta functions with: 
                l(1) =   0
                l(2) =   0
                l(3) =   1
                l(4) =   1
     Q(r) pseudized with 0 coefficients 


     atomic species   valence    mass     pseudopotential
        Pt            10.00   195.08400     Pt( 1.00)
        H              1.00     1.00800     H ( 1.00)
        C              4.00    12.01100     C ( 1.00)

     No symmetry found



   Cartesian axes

     site n.     atom                  positions (alat units)
         1           Pt  tau(   1) = (   0.0000000   0.0000000   1.0037422  )
         2           Pt  tau(   2) = (   0.3340014   0.0000000   1.0037422  )
         3           Pt  tau(   3) = (   0.6680027   0.0000000   1.0037422  )
         4           Pt  tau(   4) = (   0.1670007   0.2892537   1.0037422  )
         5           Pt  tau(   5) = (   0.5010021   0.2892537   1.0037422  )
         6           Pt  tau(   6) = (   0.8350034   0.2892537   1.0037422  )
         7           Pt  tau(   7) = (   0.3340014   0.5785073   1.0037422  )
         8           Pt  tau(   8) = (   0.6680027   0.5785073   1.0037422  )
         9           Pt  tau(   9) = (   1.0020041   0.5785073   1.0037422  )
        10           Pt  tau(  10) = (   0.1670007   0.0964179   1.2764532  )
        11           Pt  tau(  11) = (   0.5010021   0.0964179   1.2764532  )
        12           Pt  tau(  12) = (   0.8350034   0.0964179   1.2764532  )
        13           Pt  tau(  13) = (   0.3340014   0.3856716   1.2764532  )
        14           Pt  tau(  14) = (   0.6680027   0.3856716   1.2764532  )
        15           Pt  tau(  15) = (   1.0020041   0.3856716   1.2764532  )
        16           Pt  tau(  16) = (   0.5010021   0.6749252   1.2764532  )
        17           Pt  tau(  17) = (   0.8350034   0.6749252   1.2764532  )
        18           Pt  tau(  18) = (   1.1690048   0.6749252   1.2764532  )
        19           Pt  tau(  19) = (   0.0018848   0.1965803   1.5492154  )
        20           Pt  tau(  20) = (   0.3340310   0.1964635   1.5489294  )
        21           Pt  tau(  21) = (   0.6679944   0.1964030   1.5458798  )
        22           Pt  tau(  22) = (   0.1680386   0.4861092   1.5470686  )
        23           Pt  tau(  23) = (   0.5011962   0.4856678   1.5460476  )
        24           Pt  tau(  24) = (   0.8348339   0.4856864   1.5459532  )
        25           Pt  tau(  25) = (   0.3366086   0.7756430   1.5495642  )
        26           Pt  tau(  26) = (   0.6680425   0.7752325   1.5505388  )
        27           Pt  tau(  27) = (   0.9996218   0.7755319   1.5491858  )
        28           Pt  tau(  28) = (  -0.0027343   0.0074805   1.8398997  )
        29           Pt  tau(  29) = (   0.3385112   0.0075600   1.8397485  )
        30           Pt  tau(  30) = (   0.6678835   0.0089712   1.8227901  )
        31           Pt  tau(  31) = (   0.1679731   0.3069093   1.8308838  )
        32           Pt  tau(  32) = (   0.5047206   0.2992628   1.8212414  )
        33           Pt  tau(  33) = (   0.8311886   0.2993018   1.8212893  )
        34           Pt  tau(  34) = (   0.3353364   0.5874124   1.8223019  )
        35           Pt  tau(  35) = (   0.6679837   0.5829665   1.8219278  )
        36           Pt  tau(  36) = (   1.0005412   0.5874665   1.8221870  )
        37           H   tau(  37) = (   0.1679389   0.1299966   2.0914729  )
        38           C   tau(  38) = (   0.1678414   0.1137675   1.9635863  )

     number of k points=    13  Marzari-Vanderbilt smearing, width (Ry)=  0.0200
                       cart. coord. in units 2pi/alat
        k(    1) = (   0.0000000   0.0000000   0.0000000), wk =   0.0800000
        k(    2) = (   0.0000000   0.2309401   0.0000000), wk =   0.1600000
        k(    3) = (   0.0000000   0.4618802   0.0000000), wk =   0.1600000
        k(    4) = (   0.2000000  -0.1154701   0.0000000), wk =   0.1600000
        k(    5) = (   0.2000000   0.1154701   0.0000000), wk =   0.1600000
        k(    6) = (   0.2000000   0.3464102   0.0000000), wk =   0.1600000
        k(    7) = (   0.2000000  -0.5773503   0.0000000), wk =   0.1600000
        k(    8) = (   0.2000000  -0.3464102   0.0000000), wk =   0.1600000
        k(    9) = (   0.4000000  -0.2309401   0.0000000), wk =   0.1600000
        k(   10) = (   0.4000000   0.0000000   0.0000000), wk =   0.1600000
        k(   11) = (   0.4000000   0.2309401   0.0000000), wk =   0.1600000
        k(   12) = (   0.4000000  -0.6928203   0.0000000), wk =   0.1600000
        k(   13) = (   0.4000000  -0.4618802   0.0000000), wk =   0.1600000

     Dense  grid:  1467143 G-vectors     FFT dimensions: ( 108, 108, 320)

     Smooth grid:   357639 G-vectors     FFT dimensions: (  72,  72, 192)

     Estimated max dynamical RAM per process >     214.57 MB

     Estimated total dynamical RAM >      10.06 GB

     Initial potential from superposition of free atoms

     starting charge     364.9938, renormalised to     365.0000

     negative rho (up, down):  3.489E-03 0.000E+00


     %%%%%%%%%%%%%%%%%%%%%%%%%%%%%%%%%%%%%%%%%%%%%%%%%%%%%%%%%%%%%%%%%%%%%%%%
     %                                                                      %
     % You are using vdW-DF, which was implemented by the Thonhauser group. %
     % Please cite the following two papers that made this development      %
     % possible and the two reviews that describe the various versions:     %
     %                                                                      %
     %   T. Thonhauser et al., PRL 115, 136402 (2015).                      %
     %   T. Thonhauser et al., PRB 76, 125112 (2007).                       %
     %   K. Berland et al., Rep. Prog. Phys. 78, 066501 (2015).             %
     %   D.C. Langreth et al., J. Phys.: Condens. Matter 21, 084203 (2009). %
     %                                                                      %
     % If you are calculating stress with vdW-DF, please also cite:         %
     %                                                                      %
     %   R. Sabatini et al., J. Phys.: Condens. Matter 24, 424209 (2012).   %
     %                                                                      %
     %%%%%%%%%%%%%%%%%%%%%%%%%%%%%%%%%%%%%%%%%%%%%%%%%%%%%%%%%%%%%%%%%%%%%%%%

     %%%%%%%%%%%%%%%%%%%%%%%%%%%%%%%%%%%%%%%%%%%%%%%%%%%%%%%%%%%%%%%%%%%%%%%%
     %                                                                      %
     %  vdW-DF NEWS:                                                        %
     %                                                                      %
     %  * vdW-DF3 is now available. DOI: 10.1021/acs.jctc.0c00471           %
     %    use with input_dft = 'vdW-DF3-opt1' or 'vdW-DF3-opt2'             %
     %                                                                      %
     %  * Unscreened and range-separated hybrid vdW-DF-cx functionals       %
     %    DOI: 10.1063/1.4986522 and 10.1088/1361-648X/ac2ad2               %
     %    use with input_dft = 'vdW-DF-cx0'    and 'vdW-DF-ahcx'            %
     %  * Unscreened and range-separated hybrid vdW-DF2-b86r functionals    %
     %    DOI: 10.1063/1.4986522 and DOI: 10.1103/PhysRevX.12.041003        %
     %    use with input_dft = 'vdW-DF2-br0' and 'vdW-DF2-ahbr'             %
     %                                                                      %
     %%%%%%%%%%%%%%%%%%%%%%%%%%%%%%%%%%%%%%%%%%%%%%%%%%%%%%%%%%%%%%%%%%%%%%%%


     Starting wfcs are  329 randomized atomic wfcs
     Checking if some PAW data can be deallocated... 

     total cpu time spent up to now is       22.7 secs

     per-process dynamical memory:   213.0 Mb

     Self-consistent Calculation

     iteration #  1     ecut=    40.00 Ry     beta= 0.70
     Davidson diagonalization with overlap
     ethr =  1.00E-02,  avg # of iterations =  2.0

     Threshold (ethr) on eigenvalues was too large:
     Diagonalizing with lowered threshold

     Davidson diagonalization with overlap
     ethr =  5.37E-04,  avg # of iterations =  4.8

     negative rho (up, down):  1.095E-02 0.000E+00

     total cpu time spent up to now is       78.1 secs

     total energy              =  -27774.15847656 Ry
     estimated scf accuracy    <       2.22268622 Ry

     iteration #  2     ecut=    40.00 Ry     beta= 0.70
     Davidson diagonalization with overlap
     ethr =  6.09E-04,  avg # of iterations =  2.0

     negative rho (up, down):  8.476E-03 0.000E+00

     total cpu time spent up to now is       91.0 secs

     total energy              =  -27774.36153906 Ry
     estimated scf accuracy    <       0.89788180 Ry

     iteration #  3     ecut=    40.00 Ry     beta= 0.70
     Davidson diagonalization with overlap
     ethr =  2.46E-04,  avg # of iterations =  2.8

     negative rho (up, down):  5.343E-03 0.000E+00

     total cpu time spent up to now is      115.6 secs

     total energy              =  -27774.43170505 Ry
     estimated scf accuracy    <       0.28411307 Ry

     iteration #  4     ecut=    40.00 Ry     beta= 0.70
     Davidson diagonalization with overlap
     ethr =  7.78E-05,  avg # of iterations =  8.1

     negative rho (up, down):  2.805E-03 0.000E+00

     total cpu time spent up to now is      146.4 secs

     total energy              =  -27774.46551691 Ry
     estimated scf accuracy    <       0.09498189 Ry

     iteration #  5     ecut=    40.00 Ry     beta= 0.70
     Davidson diagonalization with overlap
     ethr =  2.60E-05,  avg # of iterations =  6.3

     negative rho (up, down):  1.141E-03 0.000E+00

     total cpu time spent up to now is      178.9 secs

     total energy              =  -27774.48133477 Ry
     estimated scf accuracy    <       0.05640626 Ry

     iteration #  6     ecut=    40.00 Ry     beta= 0.70
     Davidson diagonalization with overlap
     ethr =  1.55E-05,  avg # of iterations =  2.0

     negative rho (up, down):  3.712E-04 0.000E+00

     total cpu time spent up to now is      203.2 secs

     total energy              =  -27774.48399488 Ry
     estimated scf accuracy    <       0.00645802 Ry

     iteration #  7     ecut=    40.00 Ry     beta= 0.70
     Davidson diagonalization with overlap
     c_bands:  1 eigenvalues not converged
     ethr =  1.77E-06,  avg # of iterations = 15.6

     negative rho (up, down):  1.841E-04 0.000E+00

     total cpu time spent up to now is      264.5 secs

     total energy              =  -27774.48634780 Ry
     estimated scf accuracy    <       0.00226874 Ry

     iteration #  8     ecut=    40.00 Ry     beta= 0.70
     Davidson diagonalization with overlap
     ethr =  6.22E-07,  avg # of iterations =  3.2

     negative rho (up, down):  1.306E-04 0.000E+00

     total cpu time spent up to now is      290.8 secs

     total energy              =  -27774.48662176 Ry
     estimated scf accuracy    <       0.00081279 Ry

     iteration #  9     ecut=    40.00 Ry     beta= 0.70
     Davidson diagonalization with overlap
     ethr =  2.23E-07,  avg # of iterations =  3.4

     negative rho (up, down):  1.218E-04 0.000E+00

     total cpu time spent up to now is      316.7 secs

     total energy              =  -27774.48670933 Ry
     estimated scf accuracy    <       0.00051858 Ry

     iteration # 10     ecut=    40.00 Ry     beta= 0.70
     Davidson diagonalization with overlap
     ethr =  1.42E-07,  avg # of iterations =  2.4

     negative rho (up, down):  1.462E-04 0.000E+00

     total cpu time spent up to now is      331.5 secs

     total energy              =  -27774.48675524 Ry
     estimated scf accuracy    <       0.00034836 Ry

     iteration # 11     ecut=    40.00 Ry     beta= 0.70
     Davidson diagonalization with overlap
     ethr =  9.54E-08,  avg # of iterations =  3.3

     negative rho (up, down):  3.777E-04 0.000E+00

     total cpu time spent up to now is      356.4 secs

     total energy              =  -27774.48683152 Ry
     estimated scf accuracy    <       0.00022273 Ry

     iteration # 12     ecut=    40.00 Ry     beta= 0.70
     Davidson diagonalization with overlap
     ethr =  6.10E-08,  avg # of iterations =  5.8

     negative rho (up, down):  5.401E-04 0.000E+00

     total cpu time spent up to now is      383.3 secs

     total energy              =  -27774.48687361 Ry
     estimated scf accuracy    <       0.00013265 Ry

     iteration # 13     ecut=    40.00 Ry     beta= 0.70
     Davidson diagonalization with overlap
     ethr =  3.63E-08,  avg # of iterations =  2.0

     negative rho (up, down):  1.664E-03 0.000E+00

     total cpu time spent up to now is      408.7 secs

     total energy              =  -27774.48693233 Ry
     estimated scf accuracy    <       0.00006986 Ry

     iteration # 14     ecut=    40.00 Ry     beta= 0.70
     Davidson diagonalization with overlap
     ethr =  1.91E-08,  avg # of iterations =  6.2

     negative rho (up, down):  1.543E-03 0.000E+00

     total cpu time spent up to now is      436.0 secs

     total energy              =  -27774.48695324 Ry
     estimated scf accuracy    <       0.00003112 Ry

     iteration # 15     ecut=    40.00 Ry     beta= 0.70
     Davidson diagonalization with overlap
     ethr =  8.53E-09,  avg # of iterations =  2.0

     negative rho (up, down):  2.776E-03 0.000E+00

     total cpu time spent up to now is      450.8 secs

     total energy              =  -27774.48695766 Ry
     estimated scf accuracy    <       0.00001787 Ry

     iteration # 16     ecut=    40.00 Ry     beta= 0.70
     Davidson diagonalization with overlap
     ethr =  4.90E-09,  avg # of iterations =  2.4

     negative rho (up, down):  3.308E-03 0.000E+00

     total cpu time spent up to now is      477.0 secs

     total energy              =  -27774.48695727 Ry
     estimated scf accuracy    <       0.00000369 Ry

     iteration # 17     ecut=    40.00 Ry     beta= 0.70
     Davidson diagonalization with overlap
     ethr =  1.01E-09,  avg # of iterations =  5.1

     negative rho (up, down):  3.458E-03 0.000E+00

     total cpu time spent up to now is      513.4 secs

     total energy              =  -27774.48695849 Ry
     estimated scf accuracy    <       0.00000113 Ry

     iteration # 18     ecut=    40.00 Ry     beta= 0.70
     Davidson diagonalization with overlap
     ethr =  3.10E-10,  avg # of iterations =  2.6

     negative rho (up, down):  3.362E-03 0.000E+00

     total cpu time spent up to now is      539.3 secs

     End of self-consistent calculation

          k = 0.0000 0.0000 0.0000 ( 44645 PWs)   bands (ev):

   -10.1370  -6.4159  -5.2415  -4.7775  -4.0935  -4.0869  -4.0609  -4.0085
    -3.9936  -3.9869  -3.9731  -3.8186  -3.6882  -3.6845  -3.4725  -3.4585
    -3.4544  -3.3906  -3.3176  -3.2960  -3.0171  -3.0131  -3.0001  -2.8889
    -2.8386  -2.8350  -2.7837  -2.7808  -2.7770  -2.6801  -2.6735  -2.6638
    -2.5959  -2.5914  -2.5690  -2.5178  -2.5069  -2.4951  -2.4811  -2.4563
    -2.4475  -2.1343  -2.0594  -2.0139  -1.9232  -1.9207  -1.9101  -1.8896
    -1.8634  -1.8545  -1.8412  -1.7849  -1.7735  -1.6796  -1.6796  -1.6476
    -1.5473  -1.5371  -1.2175  -1.2017  -1.1519  -1.1357  -1.1273  -1.0883
    -1.0592  -0.9667  -0.9550  -0.9356  -0.9157  -0.9141  -0.9082  -0.8993
    -0.8742  -0.8630  -0.8610  -0.8270  -0.8165  -0.8149  -0.8002  -0.7835
    -0.7568  -0.7360  -0.7237  -0.7204  -0.7063  -0.6945  -0.4946  -0.4860
    -0.4747  -0.4483  -0.4467  -0.4419  -0.4373  -0.4271  -0.3908  -0.3893
    -0.3749  -0.2865  -0.2859  -0.2448  -0.2414  -0.2066  -0.1435  -0.1372
    -0.1198  -0.0829  -0.0787  -0.0688  -0.0309   0.0156   0.0584   0.3543
     0.3593   0.3782   0.4314   0.4384   0.4516   0.4601   0.4683   0.4747
     0.5596   0.5669   0.6234   0.6286   0.6369   0.6664   0.6745   0.7215
     0.7266   0.7732   0.8696   0.8818   0.8969   0.9700   0.9741   0.9813
     1.1420   1.1778   1.1841   1.1950   1.2278   1.2429   1.2592   1.2662
     1.3339   1.3355   1.3760   1.4067   1.4193   1.4286   1.4413   1.5282
     1.5427   1.5671   1.6039   1.6076   1.6197   1.6240   1.6296   1.6437
     1.6550   1.6617   1.6659   1.7259   1.7393   1.7484   1.7493   1.7582
     1.8259   1.8310   1.8407   1.8433   1.8547   1.8863   1.8971   1.9298
     1.9838   1.9887   1.9921   1.9973   2.0015   2.0420   2.0638   2.0651
     2.1022   2.1077   2.1332   2.1443   2.1742   2.2611   2.2934   2.3809
     2.3861   2.4026   2.4262   2.4299   2.4464   2.9352   2.9551   3.0537
     3.2486   3.2942   3.3074   3.3280   4.4277   4.4336   5.3003   5.6021
     5.6084   5.6232   6.0950   6.1530   6.7692   7.2545   7.2570   7.2817
     7.3095   7.3891   7.4216   7.4245

          k = 0.0000 0.2309 0.0000 ( 44694 PWs)   bands (ev):

   -10.1336  -6.2712  -5.1320  -4.7284  -4.5110  -4.1564  -4.1325  -3.9195
    -3.8678  -3.8116  -3.7853  -3.7627  -3.6364  -3.6085  -3.5576  -3.4086
    -3.3864  -3.3721  -3.2477  -3.2284  -3.0705  -2.9732  -2.9365  -2.9351
    -2.8642  -2.8578  -2.8291  -2.7625  -2.7582  -2.7017  -2.6866  -2.6763
    -2.6467  -2.6268  -2.5686  -2.5643  -2.4398  -2.4361  -2.3570  -2.3323
    -2.3112  -2.1606  -2.0986  -2.0702  -2.0331  -2.0265  -1.9961  -1.9675
    -1.8896  -1.8748  -1.8288  -1.7562  -1.7353  -1.6613  -1.6354  -1.6131
    -1.5597  -1.5353  -1.3801  -1.2987  -1.2918  -1.2679  -1.2440  -1.2228
    -1.1717  -1.1287  -1.1156  -1.1040  -1.0714  -1.0320  -0.9899  -0.9733
    -0.9390  -0.9171  -0.8937  -0.8192  -0.8130  -0.7953  -0.7303  -0.7274
    -0.7146  -0.6893  -0.6765  -0.6730  -0.6574  -0.5531  -0.5493  -0.5207
    -0.4981  -0.4807  -0.4717  -0.4669  -0.4428  -0.4113  -0.3867  -0.3662
    -0.3400  -0.3290  -0.2960  -0.2857  -0.2745  -0.2371  -0.1977  -0.1901
    -0.1679  -0.1165  -0.0646  -0.0635  -0.0597  -0.0221  -0.0203   0.0102
     0.0125   0.1543   0.1717   0.2098   0.3502   0.3890   0.4184   0.4467
     0.4517   0.4736   0.4943   0.5417   0.6500   0.7015   0.7165   0.7387
     0.7881   0.7957   0.8048   0.8223   0.8653   0.8771   0.8958   0.9121
     1.0171   1.0490   1.0626   1.0883   1.1192   1.1646   1.2097   1.2573
     1.2640   1.2873   1.2899   1.3555   1.3685   1.4243   1.4346   1.4445
     1.4549   1.4991   1.5285   1.5836   1.5894   1.6300   1.6368   1.6498
     1.6718   1.7185   1.7690   1.8084   1.8103   1.8670   1.9041   1.9325
     1.9408   1.9615   1.9881   1.9935   2.0037   2.0636   2.0672   2.0744
     2.1082   2.1179   2.1602   2.1643   2.2268   2.2614   2.2959   2.3142
     2.3454   2.3476   2.3726   2.3914   2.4063   2.4286   2.4828   2.5235
     2.5690   2.6180   2.6717   2.7236   2.7345   2.7918   2.9766   3.0962
     3.4057   3.6939   3.9253   4.0041   4.3334   4.5143   5.1096   5.3912
     5.6099   5.9328   6.1114   6.2499   6.3940   6.4361   6.9750   7.1059
     7.1859   7.4211   7.5173   7.5314

          k = 0.0000 0.4619 0.0000 ( 44748 PWs)   bands (ev):

   -10.1281  -5.8548  -5.2326  -4.9043  -4.5133  -4.1834  -4.1813  -4.0331
    -3.7746  -3.6582  -3.5624  -3.5573  -3.5160  -3.4285  -3.3939  -3.3337
    -3.2245  -3.2143  -3.1893  -3.1111  -3.0802  -3.0753  -3.0273  -3.0083
    -2.9690  -2.9483  -2.9239  -2.9054  -2.8418  -2.8224  -2.6232  -2.6140
    -2.5882  -2.5760  -2.5021  -2.4639  -2.3806  -2.3624  -2.3380  -2.3274
    -2.2734  -2.1997  -2.1825  -2.1138  -2.0403  -2.0071  -1.9769  -1.9613
    -1.8954  -1.8880  -1.8548  -1.8262  -1.8231  -1.7967  -1.6878  -1.6534
    -1.6482  -1.5799  -1.5284  -1.4879  -1.4665  -1.4372  -1.4066  -1.4006
    -1.2773  -1.2538  -1.2085  -1.1725  -1.1663  -1.1278  -1.0830  -1.0727
    -0.9947  -0.9416  -0.9261  -0.9008  -0.8693  -0.8616  -0.8215  -0.7867
    -0.7761  -0.7548  -0.7321  -0.7148  -0.7017  -0.6831  -0.6761  -0.6511
    -0.6201  -0.5642  -0.5533  -0.5192  -0.4890  -0.4850  -0.4643  -0.4380
    -0.3891  -0.3348  -0.3101  -0.2950  -0.2686  -0.2405  -0.2233  -0.1964
    -0.1667  -0.1269  -0.0798  -0.0387  -0.0328   0.0080   0.0577   0.1035
     0.1511   0.1737   0.2484   0.2598   0.2623   0.3046   0.3403   0.3603
     0.3823   0.4222   0.4339   0.4697   0.4836   0.4903   0.5122   0.5415
     0.5608   0.6063   0.6725   0.6835   0.7368   0.7730   0.8257   0.8367
     0.8868   0.9689   0.9851   1.0429   1.0519   1.0811   1.1671   1.1746
     1.2364   1.2637   1.2978   1.3019   1.3166   1.3557   1.3782   1.3887
     1.4173   1.4826   1.4946   1.5448   1.5669   1.6004   1.6195   1.6501
     1.7150   1.7514   1.8212   1.8457   1.8705   1.9126   1.9791   1.9834
     2.0058   2.0083   2.0338   2.0673   2.1267   2.1378   2.1561   2.1896
     2.2684   2.2877   2.3018   2.3167   2.3248   2.3491   2.3584   2.4046
     2.5205   2.5399   2.5684   2.5825   2.5850   2.6801   2.8237   2.9339
     2.9818   3.0864   3.3101   3.6013   3.6251   3.7702   3.8742   3.8979
     4.2641   4.3322   4.4702   4.6028   4.8914   4.9176   5.0085   5.0751
     5.1349   5.2966   5.4140   5.7944   5.8778   6.0529   6.2802   6.6844
     6.7570   7.1812   7.2674   7.3934

          k = 0.2000-0.1155 0.0000 ( 44694 PWs)   bands (ev):

   -10.1337  -6.2712  -5.1309  -4.7258  -4.5207  -4.1587  -4.1197  -3.9200
    -3.8721  -3.8122  -3.7894  -3.7535  -3.6476  -3.6107  -3.5545  -3.4100
    -3.3869  -3.3780  -3.2651  -3.2121  -3.0635  -2.9762  -2.9411  -2.9311
    -2.8603  -2.8589  -2.8305  -2.7743  -2.7548  -2.7100  -2.6833  -2.6694
    -2.6414  -2.6288  -2.5724  -2.5616  -2.4452  -2.4325  -2.3520  -2.3248
    -2.3057  -2.1559  -2.0892  -2.0732  -2.0328  -2.0228  -1.9928  -1.9798
    -1.8759  -1.8686  -1.8397  -1.7476  -1.7379  -1.6661  -1.6461  -1.6064
    -1.5563  -1.5336  -1.3615  -1.2890  -1.2822  -1.2541  -1.2371  -1.1970
    -1.1626  -1.1547  -1.1391  -1.1109  -1.0791  -1.0296  -0.9872  -0.9588
    -0.9441  -0.9190  -0.8905  -0.8568  -0.8403  -0.8069  -0.7275  -0.7180
    -0.7075  -0.6831  -0.6726  -0.6592  -0.6218  -0.5699  -0.5524  -0.5258
    -0.4981  -0.4827  -0.4786  -0.4643  -0.4442  -0.4187  -0.3799  -0.3619
    -0.3407  -0.3313  -0.3091  -0.2842  -0.2692  -0.2298  -0.2035  -0.1819
    -0.1726  -0.1184  -0.0898  -0.0770  -0.0563  -0.0233  -0.0139   0.0114
     0.0151   0.1258   0.1863   0.2448   0.3536   0.3881   0.4114   0.4293
     0.4445   0.4669   0.4964   0.5501   0.6376   0.6894   0.7251   0.7332
     0.7758   0.7976   0.8076   0.8223   0.8592   0.8745   0.8974   0.9139
     1.0236   1.0549   1.0649   1.0781   1.0967   1.1695   1.2086   1.2459
     1.2583   1.2745   1.2997   1.3553   1.3659   1.4216   1.4333   1.4516
     1.4652   1.5084   1.5243   1.5809   1.5908   1.6296   1.6433   1.6549
     1.6749   1.7067   1.7792   1.7985   1.8104   1.8615   1.8857   1.9312
     1.9438   1.9577   1.9844   1.9941   2.0051   2.0574   2.0717   2.0822
     2.1053   2.1242   2.1466   2.1511   2.2357   2.2508   2.2926   2.3231
     2.3461   2.3617   2.3835   2.4049   2.4235   2.4459   2.4858   2.5247
     2.5675   2.6154   2.6734   2.7229   2.7452   2.7842   2.9808   3.1213
     3.4141   3.7008   3.9172   3.9915   4.3260   4.5110   5.1008   5.4046
     5.6370   5.9277   6.1078   6.2450   6.4029   6.4265   6.9808   7.0878
     7.1636   7.4179   7.4954   7.5501

          k = 0.2000 0.1155 0.0000 ( 44694 PWs)   bands (ev):

   -10.1337  -6.2713  -5.1309  -4.7251  -4.5222  -4.1576  -4.1190  -3.9206
    -3.8725  -3.8123  -3.7900  -3.7537  -3.6495  -3.6075  -3.5526  -3.4101
    -3.3906  -3.3774  -3.2642  -3.2116  -3.0629  -2.9751  -2.9403  -2.9303
    -2.8633  -2.8599  -2.8313  -2.7753  -2.7555  -2.7070  -2.6876  -2.6696
    -2.6371  -2.6301  -2.5710  -2.5627  -2.4451  -2.4320  -2.3505  -2.3262
    -2.3057  -2.1573  -2.0896  -2.0731  -2.0304  -2.0213  -1.9923  -1.9808
    -1.8776  -1.8690  -1.8392  -1.7466  -1.7398  -1.6646  -1.6475  -1.6065
    -1.5558  -1.5337  -1.3605  -1.2880  -1.2821  -1.2544  -1.2377  -1.1960
    -1.1642  -1.1550  -1.1393  -1.1089  -1.0788  -1.0282  -0.9872  -0.9573
    -0.9445  -0.9189  -0.8893  -0.8570  -0.8433  -0.8069  -0.7287  -0.7187
    -0.7072  -0.6821  -0.6721  -0.6591  -0.6231  -0.5715  -0.5510  -0.5257
    -0.4971  -0.4809  -0.4784  -0.4672  -0.4437  -0.4173  -0.3828  -0.3653
    -0.3387  -0.3315  -0.3100  -0.2814  -0.2678  -0.2299  -0.2046  -0.1822
    -0.1731  -0.1188  -0.0905  -0.0778  -0.0549  -0.0205  -0.0097   0.0074
     0.0117   0.1270   0.1861   0.2469   0.3525   0.3878   0.4105   0.4297
     0.4449   0.4684   0.4967   0.5496   0.6359   0.6909   0.7246   0.7320
     0.7761   0.7979   0.8072   0.8214   0.8594   0.8740   0.8967   0.9134
     1.0272   1.0552   1.0645   1.0782   1.0974   1.1705   1.2056   1.2447
     1.2574   1.2769   1.2993   1.3563   1.3682   1.4210   1.4309   1.4512
     1.4646   1.5086   1.5245   1.5828   1.5883   1.6292   1.6423   1.6547
     1.6750   1.7085   1.7791   1.7984   1.8090   1.8619   1.8848   1.9314
     1.9435   1.9576   1.9859   1.9927   2.0054   2.0577   2.0730   2.0819
     2.1042   2.1242   2.1459   2.1500   2.2374   2.2510   2.2915   2.3236
     2.3478   2.3612   2.3830   2.4060   2.4243   2.4476   2.4861   2.5247
     2.5666   2.6144   2.6727   2.7232   2.7456   2.7844   2.9816   3.1228
     3.4138   3.7012   3.9166   3.9902   4.3251   4.5126   5.1004   5.4059
     5.6365   5.9274   6.1072   6.2441   6.4045   6.4269   6.9805   7.0872
     7.1636   7.4182   7.4950   7.5495

          k = 0.2000 0.3464 0.0000 ( 44714 PWs)   bands (ev):

   -10.1293  -5.9900  -4.9690  -4.7983  -4.7730  -4.5393  -3.8861  -3.7906
    -3.6928  -3.6794  -3.6589  -3.6401  -3.5960  -3.5298  -3.5128  -3.4554
    -3.3456  -3.2451  -3.1123  -3.0981  -3.0909  -3.0544  -2.9953  -2.9671
    -2.8942  -2.8854  -2.8463  -2.7952  -2.7740  -2.7534  -2.7170  -2.6735
    -2.6529  -2.6189  -2.6078  -2.5559  -2.4713  -2.4324  -2.3120  -2.2436
    -2.2122  -2.1412  -2.1169  -2.0893  -2.0590  -2.0238  -2.0008  -1.9544
    -1.8997  -1.8700  -1.8349  -1.8027  -1.7456  -1.6984  -1.6782  -1.6214
    -1.6035  -1.5580  -1.5328  -1.5208  -1.4049  -1.3881  -1.3419  -1.3195
    -1.2925  -1.2281  -1.2143  -1.2051  -1.1728  -1.1343  -1.0449  -1.0169
    -0.9921  -0.9795  -0.9546  -0.9360  -0.8785  -0.8510  -0.8055  -0.7834
    -0.7268  -0.7104  -0.7008  -0.6645  -0.6509  -0.6303  -0.6121  -0.5902
    -0.5792  -0.5513  -0.5342  -0.5020  -0.4429  -0.4236  -0.4011  -0.3829
    -0.3760  -0.3617  -0.3342  -0.3020  -0.2791  -0.2661  -0.2544  -0.2402
    -0.2315  -0.2230  -0.1943  -0.1061  -0.0951  -0.0396   0.0184   0.0426
     0.0694   0.0866   0.1835   0.2092   0.2507   0.3009   0.3166   0.3799
     0.4188   0.4342   0.4626   0.5009   0.5142   0.5586   0.5843   0.5937
     0.6493   0.6674   0.7434   0.7951   0.8058   0.8288   0.8578   0.8860
     0.9455   0.9592   1.0054   1.0375   1.0520   1.1283   1.1387   1.1706
     1.1896   1.2160   1.2653   1.2996   1.3276   1.3738   1.3887   1.4037
     1.4150   1.4346   1.4520   1.4659   1.5014   1.5616   1.6122   1.6947
     1.7199   1.7719   1.8382   1.9358   1.9495   1.9620   1.9873   2.0073
     2.0590   2.0921   2.1138   2.1291   2.1556   2.1677   2.1816   2.2019
     2.2137   2.2387   2.2630   2.3034   2.3332   2.3512   2.3823   2.4052
     2.4507   2.5153   2.5680   2.6116   2.6281   2.6485   2.6799   2.7335
     2.7885   2.8570   3.0298   3.2859   3.3951   3.5878   3.6608   3.8855
     3.9196   4.0348   4.4105   4.5091   4.7251   4.8271   4.8939   5.0469
     5.1740   5.7953   5.9062   6.1135   6.1929   6.4094   6.6092   6.7997
     6.8543   6.8663   7.0035   7.2361

          k = 0.2000-0.5774 0.0000 ( 44692 PWs)   bands (ev):

   -10.1266  -5.4767  -5.4507  -4.8982  -4.7984  -4.3232  -4.1264  -3.7885
    -3.6657  -3.6201  -3.5390  -3.4651  -3.3990  -3.3908  -3.3476  -3.2761
    -3.2278  -3.1948  -3.1724  -3.1556  -3.1272  -3.0904  -3.0592  -3.0067
    -2.9610  -2.9485  -2.9244  -2.9077  -2.8453  -2.8218  -2.7126  -2.6613
    -2.6312  -2.5764  -2.5506  -2.5229  -2.5098  -2.3905  -2.3362  -2.3045
    -2.2312  -2.2167  -2.1229  -2.1076  -2.0671  -2.0038  -1.9723  -1.9027
    -1.8655  -1.8109  -1.7717  -1.7399  -1.7225  -1.6976  -1.6666  -1.6260
    -1.6191  -1.5506  -1.5446  -1.5195  -1.4984  -1.4655  -1.4491  -1.4323
    -1.3915  -1.3569  -1.3140  -1.2564  -1.2246  -1.1982  -1.1083  -1.0845
    -1.0469  -1.0263  -0.9996  -0.9968  -0.9620  -0.9305  -0.8750  -0.8666
    -0.8615  -0.8190  -0.7867  -0.7459  -0.6984  -0.6544  -0.6341  -0.6221
    -0.6080  -0.5172  -0.5086  -0.4831  -0.4679  -0.4290  -0.4102  -0.3712
    -0.3503  -0.3426  -0.3211  -0.3030  -0.2827  -0.2814  -0.2362  -0.2332
    -0.1982  -0.1894  -0.1789  -0.1670  -0.1389  -0.1329  -0.0909   0.0813
     0.1075   0.1443   0.1809   0.2088   0.2829   0.2923   0.3191   0.3405
     0.3661   0.4007   0.4143   0.4392   0.4684   0.4891   0.5310   0.5746
     0.6033   0.6637   0.6811   0.6952   0.7545   0.7705   0.8571   0.8916
     0.9269   0.9366   0.9904   1.0304   1.0366   1.0681   1.0948   1.1155
     1.1407   1.1567   1.2207   1.2401   1.2608   1.2663   1.3194   1.3537
     1.3916   1.4045   1.4624   1.5166   1.5999   1.6300   1.6902   1.7474
     1.7904   1.8049   1.8566   1.8745   1.9373   1.9401   1.9913   2.0427
     2.0822   2.1040   2.1304   2.1594   2.1717   2.2102   2.2279   2.2871
     2.2985   2.3082   2.3256   2.3690   2.3744   2.3939   2.4608   2.4842
     2.5297   2.5679   2.5919   2.5960   2.6513   2.6712   2.7367   2.8472
     3.2659   3.5163   3.6610   3.7842   3.8511   3.9999   4.0740   4.0989
     4.2774   4.4716   4.6119   4.7989   4.8997   4.9127   5.2663   5.2700
     5.4473   5.5032   5.5915   5.6707   5.7888   5.9331   6.1000   6.1758
     6.4691   6.7481   6.8634   6.9399

          k = 0.2000-0.3464 0.0000 ( 44714 PWs)   bands (ev):

   -10.1293  -5.9899  -4.9688  -4.7922  -4.7803  -4.5384  -3.8809  -3.7935
    -3.6924  -3.6812  -3.6585  -3.6410  -3.5983  -3.5301  -3.5131  -3.4545
    -3.3443  -3.2442  -3.1107  -3.1000  -3.0914  -3.0523  -2.9957  -2.9709
    -2.8929  -2.8865  -2.8466  -2.7925  -2.7726  -2.7544  -2.7190  -2.6766
    -2.6486  -2.6191  -2.6032  -2.5574  -2.4704  -2.4332  -2.3106  -2.2445
    -2.2154  -2.1377  -2.1172  -2.0904  -2.0597  -2.0230  -2.0019  -1.9575
    -1.8991  -1.8688  -1.8335  -1.8037  -1.7463  -1.6978  -1.6802  -1.6184
    -1.6040  -1.5591  -1.5325  -1.5208  -1.4017  -1.3898  -1.3441  -1.3190
    -1.2939  -1.2286  -1.2166  -1.2034  -1.1719  -1.1346  -1.0455  -1.0182
    -0.9928  -0.9786  -0.9545  -0.9352  -0.8771  -0.8534  -0.8076  -0.7847
    -0.7256  -0.7123  -0.7011  -0.6626  -0.6508  -0.6295  -0.6122  -0.5906
    -0.5794  -0.5491  -0.5346  -0.5016  -0.4419  -0.4217  -0.4000  -0.3813
    -0.3745  -0.3626  -0.3331  -0.3006  -0.2789  -0.2658  -0.2544  -0.2415
    -0.2328  -0.2243  -0.1918  -0.1089  -0.0945  -0.0393   0.0174   0.0426
     0.0720   0.0874   0.1817   0.2094   0.2507   0.3017   0.3130   0.3803
     0.4210   0.4355   0.4598   0.5021   0.5123   0.5604   0.5838   0.5925
     0.6503   0.6668   0.7420   0.7954   0.8054   0.8300   0.8557   0.8877
     0.9463   0.9601   1.0048   1.0346   1.0570   1.1272   1.1379   1.1714
     1.1894   1.2157   1.2640   1.2991   1.3284   1.3717   1.3894   1.4031
     1.4133   1.4367   1.4529   1.4653   1.5036   1.5652   1.6102   1.6952
     1.7195   1.7719   1.8385   1.9355   1.9498   1.9617   1.9878   2.0058
     2.0595   2.0916   2.1137   2.1289   2.1565   2.1676   2.1834   2.2013
     2.2135   2.2378   2.2629   2.3050   2.3326   2.3518   2.3815   2.4049
     2.4515   2.5153   2.5660   2.6116   2.6266   2.6479   2.6788   2.7320
     2.7907   2.8564   3.0320   3.2856   3.3959   3.5880   3.6590   3.8860
     3.9188   4.0356   4.4098   4.5089   4.7244   4.8275   4.8942   5.0486
     5.1744   5.7940   5.9040   6.1142   6.1932   6.4099   6.6086   6.8002
     6.8534   6.8661   7.0051   7.2355

          k = 0.4000-0.2309 0.0000 ( 44748 PWs)   bands (ev):

   -10.1285  -5.8552  -5.2331  -4.9006  -4.5141  -4.1879  -4.1685  -4.0352
    -3.7954  -3.6663  -3.5845  -3.5614  -3.5197  -3.4175  -3.3891  -3.3347
    -3.2280  -3.2178  -3.1918  -3.1261  -3.0824  -3.0741  -3.0203  -3.0050
    -2.9780  -2.9551  -2.9170  -2.9075  -2.8374  -2.8179  -2.6145  -2.6078
    -2.5791  -2.5731  -2.4980  -2.4582  -2.3692  -2.3536  -2.3360  -2.3176
    -2.2449  -2.1832  -2.1741  -2.1055  -2.0430  -2.0105  -1.9854  -1.9555
    -1.9114  -1.8934  -1.8490  -1.8353  -1.8151  -1.7950  -1.6795  -1.6478
    -1.6371  -1.5790  -1.5365  -1.4774  -1.4319  -1.4173  -1.4025  -1.3929
    -1.2688  -1.2397  -1.2247  -1.1889  -1.1765  -1.1113  -1.1032  -1.0803
    -1.0025  -0.9709  -0.9528  -0.9106  -0.8665  -0.8623  -0.8083  -0.7879
    -0.7693  -0.7427  -0.7289  -0.7039  -0.6929  -0.6796  -0.6738  -0.6442
    -0.6281  -0.5783  -0.5398  -0.5223  -0.5067  -0.4783  -0.4518  -0.4236
    -0.3923  -0.3551  -0.3195  -0.3091  -0.2720  -0.2588  -0.2416  -0.2024
    -0.1771  -0.1443  -0.0838  -0.0383  -0.0299  -0.0024   0.0421   0.0876
     0.1278   0.1905   0.2418   0.2553   0.2636   0.3116   0.3664   0.3683
     0.3880   0.4173   0.4466   0.4697   0.4827   0.5081   0.5162   0.5191
     0.5511   0.6149   0.6677   0.6760   0.7243   0.7564   0.8146   0.8387
     0.8782   0.9573   0.9683   1.0345   1.0545   1.1026   1.1632   1.1806
     1.2426   1.2481   1.2918   1.3110   1.3261   1.3453   1.3898   1.3970
     1.4175   1.4868   1.5008   1.5490   1.5691   1.5903   1.5985   1.6514
     1.7102   1.7477   1.8099   1.8445   1.8729   1.9076   1.9762   1.9825
     2.0013   2.0063   2.0322   2.0660   2.1189   2.1288   2.1478   2.1787
     2.2717   2.2825   2.3060   2.3161   2.3298   2.3456   2.3834   2.4224
     2.5356   2.5603   2.5807   2.5848   2.6054   2.6866   2.8234   2.8942
     2.9945   3.1205   3.3017   3.6126   3.6203   3.7598   3.8890   3.9105
     4.2664   4.3406   4.4857   4.6267   4.8924   4.9260   5.0163   5.0678
     5.1239   5.3066   5.4324   5.7972   5.8716   6.0690   6.2585   6.6739
     6.7315   7.1784   7.2745   7.3912

          k = 0.4000 0.0000 0.0000 ( 44714 PWs)   bands (ev):

   -10.1296  -5.9902  -4.9655  -4.7940  -4.7792  -4.5417  -3.8836  -3.7985
    -3.6960  -3.6883  -3.6542  -3.6413  -3.5840  -3.5343  -3.5055  -3.4698
    -3.3492  -3.2464  -3.1277  -3.0963  -3.0898  -3.0613  -2.9938  -2.9747
    -2.8952  -2.8824  -2.8321  -2.7927  -2.7766  -2.7299  -2.7163  -2.6687
    -2.6595  -2.6184  -2.6083  -2.5584  -2.4909  -2.4310  -2.2706  -2.2415
    -2.2045  -2.1439  -2.1207  -2.0887  -2.0508  -2.0259  -2.0000  -1.9519
    -1.8914  -1.8736  -1.8316  -1.7924  -1.7435  -1.7079  -1.6813  -1.6220
    -1.6101  -1.5563  -1.5337  -1.5197  -1.3923  -1.3739  -1.3322  -1.3018
    -1.2573  -1.2280  -1.2224  -1.1979  -1.1647  -1.1327  -1.0470  -1.0158
    -1.0072  -0.9879  -0.9729  -0.9586  -0.8702  -0.8447  -0.8159  -0.8005
    -0.7199  -0.6911  -0.6819  -0.6744  -0.6508  -0.6445  -0.6203  -0.5908
    -0.5736  -0.5639  -0.5520  -0.5213  -0.4461  -0.4338  -0.4020  -0.3915
    -0.3790  -0.3463  -0.3306  -0.3063  -0.2838  -0.2735  -0.2505  -0.2391
    -0.2314  -0.2037  -0.1917  -0.1015  -0.0897  -0.0350   0.0107   0.0365
     0.0452   0.0868   0.1825   0.1853   0.2540   0.3024   0.3240   0.3871
     0.4115   0.4149   0.4532   0.5050   0.5246   0.5603   0.5795   0.5898
     0.6507   0.7081   0.7431   0.7781   0.7946   0.8251   0.8469   0.8777
     0.9305   0.9643   0.9955   1.0399   1.0505   1.1249   1.1384   1.1611
     1.1790   1.2070   1.2756   1.3103   1.3309   1.3748   1.3929   1.4084
     1.4261   1.4383   1.4557   1.4786   1.5009   1.5640   1.6080   1.6920
     1.7146   1.7606   1.8384   1.9421   1.9488   1.9511   1.9886   2.0023
     2.0549   2.0990   2.1188   2.1210   2.1470   2.1681   2.1723   2.1989
     2.2033   2.2354   2.2737   2.3026   2.3263   2.3609   2.3779   2.4036
     2.4434   2.5284   2.5865   2.6195   2.6516   2.6616   2.6962   2.7299
     2.7866   2.8505   3.0348   3.2825   3.3792   3.5711   3.6745   3.9018
     3.9287   4.0746   4.4105   4.4962   4.7252   4.8274   4.8922   5.0578
     5.1747   5.7788   5.9414   6.1163   6.2155   6.4021   6.5857   6.7908
     6.8433   6.8669   7.0009   7.2347

          k = 0.4000 0.2309 0.0000 ( 44748 PWs)   bands (ev):

   -10.1285  -5.8553  -5.2333  -4.8997  -4.5149  -4.1868  -4.1692  -4.0366
    -3.7956  -3.6654  -3.5826  -3.5607  -3.5203  -3.4174  -3.3887  -3.3355
    -3.2290  -3.2214  -3.1911  -3.1244  -3.0808  -3.0738  -3.0202  -3.0049
    -2.9774  -2.9568  -2.9170  -2.9078  -2.8373  -2.8176  -2.6188  -2.6036
    -2.5819  -2.5702  -2.4990  -2.4567  -2.3703  -2.3552  -2.3371  -2.3192
    -2.2463  -2.1814  -2.1716  -2.1060  -2.0466  -2.0076  -1.9818  -1.9530
    -1.9131  -1.8917  -1.8490  -1.8356  -1.8146  -1.7940  -1.6821  -1.6476
    -1.6387  -1.5786  -1.5359  -1.4776  -1.4304  -1.4176  -1.4024  -1.3924
    -1.2710  -1.2377  -1.2227  -1.1892  -1.1768  -1.1116  -1.1032  -1.0798
    -1.0033  -0.9705  -0.9508  -0.9124  -0.8675  -0.8645  -0.8052  -0.7873
    -0.7688  -0.7428  -0.7267  -0.7019  -0.6934  -0.6797  -0.6732  -0.6454
    -0.6293  -0.5778  -0.5382  -0.5210  -0.5082  -0.4781  -0.4541  -0.4246
    -0.3924  -0.3585  -0.3195  -0.3063  -0.2754  -0.2609  -0.2449  -0.2017
    -0.1794  -0.1410  -0.0841  -0.0364  -0.0293  -0.0016   0.0415   0.0874
     0.1273   0.1907   0.2408   0.2550   0.2640   0.3122   0.3653   0.3690
     0.3888   0.4168   0.4460   0.4710   0.4825   0.5068   0.5174   0.5202
     0.5492   0.6135   0.6690   0.6756   0.7270   0.7566   0.8161   0.8345
     0.8806   0.9580   0.9672   1.0356   1.0533   1.1021   1.1638   1.1808
     1.2409   1.2484   1.2907   1.3128   1.3272   1.3452   1.3882   1.3962
     1.4172   1.4888   1.5006   1.5498   1.5686   1.5890   1.5987   1.6511
     1.7102   1.7452   1.8088   1.8440   1.8737   1.9083   1.9759   1.9826
     2.0008   2.0082   2.0317   2.0648   2.1178   2.1303   2.1474   2.1782
     2.2718   2.2820   2.3062   2.3165   2.3306   2.3463   2.3847   2.4230
     2.5358   2.5610   2.5818   2.5853   2.6058   2.6875   2.8227   2.8934
     2.9955   3.1209   3.3008   3.6124   3.6205   3.7576   3.8883   3.9097
     4.2658   4.3421   4.4881   4.6286   4.8922   4.9253   5.0160   5.0660
     5.1239   5.3080   5.4333   5.7958   5.8717   6.0726   6.2567   6.6745
     6.7305   7.1778   7.2744   7.3908

          k = 0.4000-0.6928 0.0000 ( 44692 PWs)   bands (ev):

   -10.1268  -5.4791  -5.4494  -4.8999  -4.7904  -4.3234  -4.1310  -3.7913
    -3.6869  -3.6212  -3.5387  -3.4677  -3.4011  -3.3867  -3.3444  -3.2836
    -3.2322  -3.1882  -3.1837  -3.1539  -3.1097  -3.0850  -3.0680  -3.0187
    -2.9581  -2.9516  -2.9400  -2.9076  -2.8398  -2.8186  -2.7060  -2.6563
    -2.6260  -2.5711  -2.5438  -2.5188  -2.5021  -2.3723  -2.3367  -2.2974
    -2.2155  -2.2054  -2.1344  -2.1051  -2.0752  -2.0015  -1.9557  -1.9174
    -1.8751  -1.8180  -1.7781  -1.7569  -1.7190  -1.6829  -1.6376  -1.6210
    -1.6016  -1.5525  -1.5433  -1.5064  -1.4947  -1.4737  -1.4488  -1.4199
    -1.3839  -1.3705  -1.3070  -1.2613  -1.2257  -1.1842  -1.1154  -1.0770
    -1.0692  -1.0423  -1.0054  -0.9996  -0.9672  -0.9245  -0.8752  -0.8648
    -0.8485  -0.8203  -0.7822  -0.7541  -0.6830  -0.6504  -0.6406  -0.6270
    -0.6099  -0.5536  -0.5126  -0.4756  -0.4477  -0.4294  -0.4048  -0.3789
    -0.3642  -0.3532  -0.3332  -0.3238  -0.2919  -0.2597  -0.2459  -0.2213
    -0.2053  -0.1918  -0.1861  -0.1681  -0.1414  -0.1212  -0.0885   0.0522
     0.1042   0.1398   0.1682   0.2113   0.2796   0.3055   0.3244   0.3483
     0.3640   0.3960   0.4216   0.4434   0.4635   0.4959   0.5372   0.5764
     0.5867   0.6588   0.6829   0.6930   0.7451   0.7609   0.8533   0.8964
     0.9188   0.9489   0.9939   1.0233   1.0482   1.0684   1.0998   1.1157
     1.1405   1.1529   1.2237   1.2415   1.2667   1.2708   1.3279   1.3437
     1.3839   1.3947   1.4482   1.5138   1.5977   1.6277   1.6882   1.7465
     1.7934   1.8132   1.8581   1.8735   1.9369   1.9460   1.9917   2.0353
     2.0757   2.0978   2.1296   2.1476   2.1638   2.2159   2.2382   2.2820
     2.3005   2.3061   2.3277   2.3623   2.3735   2.3862   2.4560   2.4804
     2.5349   2.5803   2.5995   2.6210   2.6632   2.6915   2.7354   2.8475
     3.2649   3.4894   3.6874   3.7838   3.8574   4.0064   4.0657   4.0831
     4.2830   4.4641   4.6316   4.8066   4.9089   4.9363   5.2620   5.2799
     5.4744   5.5062   5.6184   5.6756   5.7635   5.9192   6.1212   6.1583
     6.4654   6.7547   6.8425   6.9071

          k = 0.4000-0.4619 0.0000 ( 44692 PWs)   bands (ev):

   -10.1268  -5.4778  -5.4505  -4.9002  -4.7910  -4.3220  -4.1306  -3.7935
    -3.6862  -3.6208  -3.5384  -3.4668  -3.4010  -3.3898  -3.3438  -3.2838
    -3.2296  -3.1936  -3.1746  -3.1574  -3.1105  -3.0853  -3.0671  -3.0196
    -2.9580  -2.9513  -2.9421  -2.9070  -2.8397  -2.8172  -2.7071  -2.6549
    -2.6260  -2.5722  -2.5406  -2.5199  -2.5022  -2.3749  -2.3348  -2.2959
    -2.2163  -2.2044  -2.1365  -2.1052  -2.0737  -2.0012  -1.9563  -1.9183
    -1.8723  -1.8240  -1.7788  -1.7564  -1.7194  -1.6810  -1.6368  -1.6226
    -1.6028  -1.5518  -1.5420  -1.5061  -1.4943  -1.4716  -1.4498  -1.4204
    -1.3879  -1.3668  -1.3062  -1.2614  -1.2275  -1.1845  -1.1134  -1.0772
    -1.0689  -1.0451  -1.0059  -1.0006  -0.9664  -0.9250  -0.8744  -0.8641
    -0.8509  -0.8190  -0.7833  -0.7556  -0.6840  -0.6502  -0.6395  -0.6262
    -0.6111  -0.5516  -0.5131  -0.4750  -0.4467  -0.4314  -0.4023  -0.3815
    -0.3625  -0.3507  -0.3332  -0.3216  -0.2901  -0.2599  -0.2454  -0.2225
    -0.2022  -0.1905  -0.1845  -0.1736  -0.1432  -0.1212  -0.0890   0.0533
     0.1049   0.1373   0.1724   0.2065   0.2829   0.3060   0.3245   0.3495
     0.3661   0.3965   0.4180   0.4437   0.4620   0.4963   0.5364   0.5761
     0.5855   0.6577   0.6831   0.6941   0.7456   0.7585   0.8537   0.8987
     0.9198   0.9497   0.9950   1.0238   1.0490   1.0628   1.0975   1.1157
     1.1422   1.1536   1.2224   1.2417   1.2650   1.2717   1.3276   1.3450
     1.3832   1.3957   1.4503   1.5131   1.5980   1.6301   1.6886   1.7465
     1.7933   1.8125   1.8568   1.8749   1.9363   1.9451   1.9916   2.0350
     2.0758   2.0991   2.1284   2.1475   2.1652   2.2168   2.2368   2.2833
     2.3002   2.3061   2.3283   2.3618   2.3735   2.3849   2.4568   2.4796
     2.5345   2.5790   2.5979   2.6213   2.6630   2.6917   2.7353   2.8475
     3.2668   3.4884   3.6871   3.7836   3.8572   4.0080   4.0667   4.0817
     4.2832   4.4654   4.6316   4.8079   4.9075   4.9356   5.2597   5.2788
     5.4771   5.5060   5.6194   5.6694   5.7672   5.9187   6.1206   6.1586
     6.4658   6.7551   6.8421   6.9066

     the Fermi energy is     2.3756 ev

!    total energy              =  -27774.48695897 Ry
     total all-electron energy =  -1326719.016473 Ry
     estimated scf accuracy    <       0.00000038 Ry
     smearing contrib. (-TS)   =       0.00567460 Ry
     internal energy E=F+TS    =  -27774.49263356 Ry

     The total energy is F=E-TS. E is the sum of the following terms:
     one-electron contribution =  -22870.63198080 Ry
     hartree contribution      =   11741.80691509 Ry
     xc contribution           =    -895.62550031 Ry
     ewald contribution        =    9730.53496974 Ry
     one-center paw contrib.   =  -25480.57703728 Ry

     convergence has been achieved in  18 iterations

     negative rho (up, down):  3.362E-03 0.000E+00

     Forces acting on atoms (cartesian axes, Ry/au):

     atom    1 type  1   force =     0.00265939    0.00091562   -0.00592329
     atom    2 type  1   force =     0.00033486    0.00167456   -0.00447809
     atom    3 type  1   force =    -0.00160068    0.00331997   -0.00559654
     atom    4 type  1   force =     0.00214586   -0.00140099   -0.00470676
     atom    5 type  1   force =     0.00040623   -0.00038743   -0.00384919
     atom    6 type  1   force =    -0.00228799    0.00030541   -0.00443836
     atom    7 type  1   force =     0.00255367   -0.00393084   -0.00594429
     atom    8 type  1   force =    -0.00034197   -0.00295479   -0.00435928
     atom    9 type  1   force =    -0.00315429   -0.00241888   -0.00512259
     atom   10 type  1   force =     0.00304324    0.00252733    0.01036381
     atom   11 type  1   force =     0.00068746    0.00187225    0.00444193
     atom   12 type  1   force =    -0.00251276    0.00291578    0.00588667
     atom   13 type  1   force =     0.00142929    0.00150588    0.00295203
     atom   14 type  1   force =    -0.00004055    0.00134798    0.00158959
     atom   15 type  1   force =    -0.00173367    0.00338660    0.00390951
     atom   16 type  1   force =     0.00065272   -0.00152209    0.00590352
     atom   17 type  1   force =     0.00079385   -0.00059165    0.00541519
     atom   18 type  1   force =    -0.00313519    0.00168102   -0.00575402
     atom   19 type  1   force =     0.00010673    0.00027437    0.00041505
     atom   20 type  1   force =    -0.00010216    0.00027736    0.00041808
     atom   21 type  1   force =     0.00000086    0.00021993    0.00012630
     atom   22 type  1   force =    -0.00000143   -0.00023967    0.00053472
     atom   23 type  1   force =     0.00004409    0.00022192    0.00001385
     atom   24 type  1   force =    -0.00004172    0.00022194    0.00001089
     atom   25 type  1   force =    -0.00007348    0.00017529   -0.00006195
     atom   26 type  1   force =     0.00000546    0.00021526   -0.00013312
     atom   27 type  1   force =     0.00007320    0.00016558   -0.00006104
     atom   28 type  1   force =     0.00009954    0.00013467    0.00003348
     atom   29 type  1   force =    -0.00007552    0.00013481    0.00004782
     atom   30 type  1   force =     0.00000824    0.00030728   -0.00004591
     atom   31 type  1   force =     0.00001239   -0.00105552    0.00250478
     atom   32 type  1   force =    -0.00010798    0.00038896    0.00019675
     atom   33 type  1   force =     0.00011634    0.00038752    0.00019180
     atom   34 type  1   force =    -0.00013440   -0.00005471   -0.00006892
     atom   35 type  1   force =     0.00000956    0.00028626    0.00010457
     atom   36 type  1   force =     0.00014855   -0.00005476   -0.00008388
     atom   37 type  2   force =     0.00000369   -0.00885583    0.00397055
     atom   38 type  3   force =     0.00000858   -0.00139638    0.00159635
     The non-local contrib.  to forces
     atom    1 type  1   force =     0.00216104    0.00141691   -0.01748690
     atom    2 type  1   force =     0.00070410    0.00196407   -0.01809657
     atom    3 type  1   force =    -0.00093971    0.00139389   -0.01774205
     atom    4 type  1   force =     0.00189854   -0.00024879   -0.01775477
     atom    5 type  1   force =     0.00014029    0.00001648   -0.01648331
     atom    6 type  1   force =    -0.00167189    0.00028899   -0.01559999
     atom    7 type  1   force =     0.00031403   -0.00116951   -0.01800791
     atom    8 type  1   force =    -0.00053259   -0.00133531   -0.01555001
     atom    9 type  1   force =    -0.00076198   -0.00033598   -0.01765260
     atom   10 type  1   force =     0.00178015    0.00273248    0.00116042
     atom   11 type  1   force =    -0.00032402    0.00448428    0.00020028
     atom   12 type  1   force =    -0.00033120    0.00499985    0.00064240
     atom   13 type  1   force =     0.00219366   -0.00052735   -0.00003542
     atom   14 type  1   force =     0.00007545    0.00138462   -0.00182514
     atom   15 type  1   force =    -0.00265072    0.00008216    0.00044520
     atom   16 type  1   force =     0.00291026   -0.00000149    0.00108794
     atom   17 type  1   force =    -0.00246689    0.00012535    0.00112941
     atom   18 type  1   force =    -0.00214863    0.00126201    0.00550184
     atom   19 type  1   force =    -0.00042513    0.00132072    0.01250695
     atom   20 type  1   force =     0.00026394    0.00144653    0.01291578
     atom   21 type  1   force =     0.00005794    0.00339846    0.00480679
     atom   22 type  1   force =    -0.00001621    0.00287846    0.00065181
     atom   23 type  1   force =     0.00230436   -0.00124111    0.00475937
     atom   24 type  1   force =    -0.00240986   -0.00136371    0.00508904
     atom   25 type  1   force =    -0.00616644   -0.00267781   -0.00424094
     atom   26 type  1   force =    -0.00016927   -0.00043441    0.01120817
     atom   27 type  1   force =     0.00631300   -0.00276542   -0.00350112
     atom   28 type  1   force =     0.03740324    0.01967753   -0.03745931
     atom   29 type  1   force =    -0.03734087    0.01953080   -0.03742861
     atom   30 type  1   force =     0.00011056   -0.00089577    0.01378705
     atom   31 type  1   force =    -0.00009909   -0.05133850   -0.02801574
     atom   32 type  1   force =    -0.01496211   -0.00777213    0.01792377
     atom   33 type  1   force =     0.01494150   -0.00782848    0.01800547
     atom   34 type  1   force =    -0.00158482   -0.00369758    0.01525040
     atom   35 type  1   force =    -0.00006892    0.01134879    0.01734329
     atom   36 type  1   force =     0.00163196   -0.00378230    0.01519405
     atom   37 type  2   force =    -0.00006145   -0.01087196   -0.07956941
     atom   38 type  3   force =     0.00104921    0.00468780   -0.10069367
     The ionic contribution  to forces
     atom    1 type  1   force =     0.14165740    0.07670439  -96.84658060
     atom    2 type  1   force =     0.01230788    0.13999567  -96.78491051
     atom    3 type  1   force =    -0.13353808    0.20950085  -96.80513949
     atom    4 type  1   force =     0.13179630   -0.06460527  -96.79686504
     atom    5 type  1   force =     0.00278584   -0.00048651  -96.75372177
     atom    6 type  1   force =    -0.12760588    0.07765567  -96.76534317
     atom    7 type  1   force =     0.11973824   -0.21527849  -96.81072327
     atom    8 type  1   force =     0.00526372   -0.14306912  -96.75692876
     atom    9 type  1   force =    -0.14038097   -0.07299925  -96.76089265
     atom   10 type  1   force =     0.14093048    0.04675023  -33.39196046
     atom   11 type  1   force =    -0.07504350    0.09151154  -33.50040554
     atom   12 type  1   force =    -0.04785285    0.14841768  -33.42407295
     atom   13 type  1   force =     0.08002725   -0.11741974  -33.52325928
     atom   14 type  1   force =    -0.01519389    0.02473450  -33.65472977
     atom   15 type  1   force =    -0.07101019    0.01431612  -33.47077016
     atom   16 type  1   force =     0.14419248   -0.07643618  -33.37921343
     atom   17 type  1   force =    -0.03778114    0.00038950  -33.40299804
     atom   18 type  1   force =    -0.12935843    0.02258993  -33.24386489
     atom   19 type  1   force =     0.05580265   -0.08567409   30.70273360
     atom   20 type  1   force =    -0.03849163   -0.10795808   30.60311271
     atom   21 type  1   force =    -0.01967793   -0.10448212   29.83679215
     atom   22 type  1   force =    -0.00857238    0.09420173   30.11441040
     atom   23 type  1   force =    -0.05842126    0.07469259   29.86850739
     atom   24 type  1   force =     0.06307357    0.10019112   29.84381708
     atom   25 type  1   force =    -0.04949059   -0.01471096   30.76288259
     atom   26 type  1   force =     0.02855391    0.07925838   31.04417048
     atom   27 type  1   force =     0.02508861   -0.00923276   30.64099111
     atom   28 type  1   force =    -3.19612867   -1.99691601   93.24607770
     atom   29 type  1   force =     3.20667026   -1.99657994   93.20614169
     atom   30 type  1   force =    -0.01113522   -0.11872719   93.77926126
     atom   31 type  1   force =     0.00567493    3.53591550   91.65073631
     atom   32 type  1   force =     0.38734223    0.24261928   93.38504469
     atom   33 type  1   force =    -0.39476224    0.25036785   93.40176938
     atom   34 type  1   force =    -0.05094671    0.04701695   93.76557867
     atom   35 type  1   force =     0.00290546   -0.42546013   93.50381687
     atom   36 type  1   force =     0.04694549    0.05780736   93.73830381
     atom   37 type  2   force =     0.00177471    0.25256303   12.86311866
     atom   38 type  3   force =     0.00286015   -0.03716402   46.11511323
     The local contribution  to forces
     atom    1 type  1   force =    -0.14052462   -0.07700894   96.84111119
     atom    2 type  1   force =    -0.01294133   -0.13987578   96.78158378
     atom    3 type  1   force =     0.13260064   -0.20716696   96.80009618
     atom    4 type  1   force =    -0.13118483    0.06305260   96.79292527
     atom    5 type  1   force =    -0.00263409    0.00012201   96.74944824
     atom    6 type  1   force =     0.12675352   -0.07750494   96.75957693
     atom    7 type  1   force =    -0.11711409    0.21196271   96.80566669
     atom    8 type  1   force =    -0.00517129    0.14122472   96.75128089
     atom    9 type  1   force =     0.13758631    0.07066473   96.75635800
     atom   10 type  1   force =    -0.13933809   -0.04695535   33.40128441
     atom   11 type  1   force =     0.07577921   -0.09391094   33.50436213
     atom   12 type  1   force =     0.04570235   -0.15022242   33.42923345
     atom   13 type  1   force =    -0.08059666    0.11933881   33.52587909
     atom   14 type  1   force =     0.01501355   -0.02450611   33.65735679
     atom   15 type  1   force =     0.07174338   -0.01090224   33.47400179
     atom   16 type  1   force =    -0.14604496    0.07476598   33.38409956
     atom   17 type  1   force =     0.04077076   -0.00111414   33.40728826
     atom   18 type  1   force =     0.12807101   -0.02209252   33.23319193
     atom   19 type  1   force =    -0.05470706    0.08424272  -30.71147897
     atom   20 type  1   force =     0.03753769    0.10646723  -30.61228622
     atom   21 type  1   force =     0.01961946    0.10117553  -29.83976874
     atom   22 type  1   force =     0.00864214   -0.09736707  -30.11186410
     atom   23 type  1   force =     0.05594392   -0.07289913  -29.87166798
     atom   24 type  1   force =    -0.06058237   -0.09832822  -29.84725367
     atom   25 type  1   force =     0.05566883    0.01756336  -30.75631214
     atom   26 type  1   force =    -0.02844251   -0.07800765  -31.05234649
     atom   27 type  1   force =    -0.03134437    0.01219208  -30.63510764
     atom   28 type  1   force =     3.14421934    1.96830504  -93.20409341
     atom   29 type  1   force =    -3.15484738    1.96817469  -93.16415685
     atom   30 type  1   force =     0.01104487    0.12022038  -93.77718105
     atom   31 type  1   force =    -0.00553535   -3.46927207  -91.61721315
     atom   32 type  1   force =    -0.37446598   -0.23546837  -93.38693006
     atom   33 type  1   force =     0.38186877   -0.24320990  -93.40372067
     atom   34 type  1   force =     0.05277577   -0.04343700  -93.76500706
     atom   35 type  1   force =    -0.00288786    0.41649782  -93.50530942
     atom   36 type  1   force =    -0.04877818   -0.05413394  -93.73766937
     atom   37 type  2   force =    -0.00171541   -0.25055583  -12.77964287
     atom   38 type  3   force =    -0.00363095    0.03132875  -46.01503843
     The core correction contribution to forces
     atom    1 type  1   force =    -0.00046335   -0.00025520    0.01747611
     atom    2 type  1   force =     0.00002761   -0.00044237    0.01734121
     atom    3 type  1   force =     0.00032705   -0.00040217    0.01754775
     atom    4 type  1   force =    -0.00038129    0.00026851    0.01735196
     atom    5 type  1   force =     0.00005995    0.00005805    0.01726715
     atom    6 type  1   force =     0.00028772   -0.00009699    0.01726737
     atom    7 type  1   force =    -0.00022110    0.00053235    0.01754974
     atom    8 type  1   force =     0.00003975    0.00032883    0.01727609
     atom    9 type  1   force =     0.00027711    0.00018738    0.01741922
     atom   10 type  1   force =    -0.00039450   -0.00017076    0.00034639
     atom   11 type  1   force =     0.00011889   -0.00020275    0.00078356
     atom   12 type  1   force =     0.00017313   -0.00036890    0.00058544
     atom   13 type  1   force =    -0.00016690    0.00013930    0.00084405
     atom   14 type  1   force =     0.00001215   -0.00007468    0.00124617
     atom   15 type  1   force =     0.00018999   -0.00017577    0.00069495
     atom   16 type  1   force =    -0.00026639    0.00020577    0.00041804
     atom   17 type  1   force =     0.00000692    0.00004831    0.00046689
     atom   18 type  1   force =     0.00041117   -0.00013581   -0.00004440
     atom   19 type  1   force =    -0.00049476    0.00025113   -0.00331422
     atom   20 type  1   force =     0.00049092    0.00027280   -0.00327486
     atom   21 type  1   force =     0.00001118    0.00012828   -0.00159029
     atom   22 type  1   force =     0.00000568    0.00001984   -0.00253736
     atom   23 type  1   force =     0.00022143   -0.00018391   -0.00156661
     atom   24 type  1   force =    -0.00020738   -0.00018918   -0.00159640
     atom   25 type  1   force =     0.00008657   -0.00004327   -0.00231194
     atom   26 type  1   force =    -0.00002648   -0.00062189   -0.00321375
     atom   27 type  1   force =    -0.00008697   -0.00004295   -0.00230320
     atom   28 type  1   force =     0.01445894    0.00891923   -0.00475745
     atom   29 type  1   force =    -0.01444004    0.00889673   -0.00474074
     atom   30 type  1   force =     0.00000147   -0.00034158   -0.01597522
     atom   31 type  1   force =    -0.00000763   -0.01620599   -0.00323050
     atom   32 type  1   force =     0.00197659    0.00103017   -0.01591806
     atom   33 type  1   force =    -0.00196975    0.00104371   -0.01593450
     atom   34 type  1   force =    -0.00037139    0.00009689   -0.01600395
     atom   35 type  1   force =     0.00001466   -0.00207086   -0.01589120
     atom   36 type  1   force =     0.00036716    0.00009294   -0.01598014
     atom   37 type  2   force =     0.00000000    0.00000000    0.00000000
     atom   38 type  3   force =    -0.00027236   -0.00027355    0.00210128
     The Hubbard contrib.    to forces
     atom    1 type  1   force =     0.00000000    0.00000000    0.00000000
     atom    2 type  1   force =     0.00000000    0.00000000    0.00000000
     atom    3 type  1   force =     0.00000000    0.00000000    0.00000000
     atom    4 type  1   force =     0.00000000    0.00000000    0.00000000
     atom    5 type  1   force =     0.00000000    0.00000000    0.00000000
     atom    6 type  1   force =     0.00000000    0.00000000    0.00000000
     atom    7 type  1   force =     0.00000000    0.00000000    0.00000000
     atom    8 type  1   force =     0.00000000    0.00000000    0.00000000
     atom    9 type  1   force =     0.00000000    0.00000000    0.00000000
     atom   10 type  1   force =     0.00000000    0.00000000    0.00000000
     atom   11 type  1   force =     0.00000000    0.00000000    0.00000000
     atom   12 type  1   force =     0.00000000    0.00000000    0.00000000
     atom   13 type  1   force =     0.00000000    0.00000000    0.00000000
     atom   14 type  1   force =     0.00000000    0.00000000    0.00000000
     atom   15 type  1   force =     0.00000000    0.00000000    0.00000000
     atom   16 type  1   force =     0.00000000    0.00000000    0.00000000
     atom   17 type  1   force =     0.00000000    0.00000000    0.00000000
     atom   18 type  1   force =     0.00000000    0.00000000    0.00000000
     atom   19 type  1   force =     0.00000000    0.00000000    0.00000000
     atom   20 type  1   force =     0.00000000    0.00000000    0.00000000
     atom   21 type  1   force =     0.00000000    0.00000000    0.00000000
     atom   22 type  1   force =     0.00000000    0.00000000    0.00000000
     atom   23 type  1   force =     0.00000000    0.00000000    0.00000000
     atom   24 type  1   force =     0.00000000    0.00000000    0.00000000
     atom   25 type  1   force =     0.00000000    0.00000000    0.00000000
     atom   26 type  1   force =     0.00000000    0.00000000    0.00000000
     atom   27 type  1   force =     0.00000000    0.00000000    0.00000000
     atom   28 type  1   force =     0.00000000    0.00000000    0.00000000
     atom   29 type  1   force =     0.00000000    0.00000000    0.00000000
     atom   30 type  1   force =     0.00000000    0.00000000    0.00000000
     atom   31 type  1   force =     0.00000000    0.00000000    0.00000000
     atom   32 type  1   force =     0.00000000    0.00000000    0.00000000
     atom   33 type  1   force =     0.00000000    0.00000000    0.00000000
     atom   34 type  1   force =     0.00000000    0.00000000    0.00000000
     atom   35 type  1   force =     0.00000000    0.00000000    0.00000000
     atom   36 type  1   force =     0.00000000    0.00000000    0.00000000
     atom   37 type  2   force =     0.00000000    0.00000000    0.00000000
     atom   38 type  3   force =     0.00000000    0.00000000    0.00000000
     The SCF correction term to forces
     atom    1 type  1   force =    -0.00000000    0.00000000   -0.00000000
     atom    2 type  1   force =     0.00000000    0.00000000   -0.00000000
     atom    3 type  1   force =    -0.00000000   -0.00000000   -0.00000000
     atom    4 type  1   force =     0.00000000    0.00000000   -0.00000000
     atom    5 type  1   force =     0.00000000   -0.00000000   -0.00000000
     atom    6 type  1   force =    -0.00000000   -0.00000000   -0.00000000
     atom    7 type  1   force =    -0.00000000    0.00000000   -0.00000000
     atom    8 type  1   force =     0.00000000   -0.00000000   -0.00000000
     atom    9 type  1   force =     0.00000000    0.00000000   -0.00000000
     atom   10 type  1   force =     0.00000000    0.00000000   -0.00000000
     atom   11 type  1   force =     0.00000000   -0.00000000   -0.00000000
     atom   12 type  1   force =    -0.00000000    0.00000000   -0.00000000
     atom   13 type  1   force =    -0.00000000   -0.00000000   -0.00000000
     atom   14 type  1   force =     0.00000000   -0.00000000   -0.00000000
     atom   15 type  1   force =    -0.00000000    0.00000000   -0.00000000
     atom   16 type  1   force =    -0.00000000   -0.00000000   -0.00000000
     atom   17 type  1   force =     0.00000000   -0.00000000   -0.00000000
     atom   18 type  1   force =    -0.00000000    0.00000000   -0.00000000
     atom   19 type  1   force =    -0.00007522    0.00012718   -0.00010015
     atom   20 type  1   force =     0.00009066    0.00004216   -0.00011717
     atom   21 type  1   force =    -0.00001605   -0.00000694   -0.00018146
     atom   22 type  1   force =    -0.00006691    0.00002065   -0.00019388
     atom   23 type  1   force =    -0.00001061   -0.00015323   -0.00008616
     atom   24 type  1   force =     0.00007807   -0.00009478   -0.00011300
     atom   25 type  1   force =    -0.00017810    0.00003725   -0.00014737
     atom   26 type  1   force =     0.00008356    0.00001411   -0.00001938
     atom   27 type  1   force =     0.00009668    0.00000791   -0.00020803
     atom   28 type  1   force =     0.00014044    0.00014217    0.00019811
     atom   29 type  1   force =    -0.00012375    0.00010582    0.00016449
     atom   30 type  1   force =    -0.00001968    0.00004473   -0.00000579
     atom   31 type  1   force =    -0.00002672   -0.00016116    0.00016001
     atom   32 type  1   force =    -0.00000497   -0.00002668    0.00000856
     atom   33 type  1   force =     0.00003182    0.00000764    0.00000428
     atom   34 type  1   force =    -0.00001350   -0.00004068    0.00004516
     atom   35 type  1   force =     0.00003997   -0.00003608    0.00007718
     atom   36 type  1   force =    -0.00002412   -0.00004553   -0.00000007
     atom   37 type  2   force =    -0.00000042    0.00000222   -0.00000367
     atom   38 type  3   force =    -0.00000372    0.00001793    0.00004609

     Total force =     0.010390     Total SCF correction =     0.000716

     Writing all to output data dir ./pwscf.save/

     init_run     :     16.56s CPU     22.43s WALL (       1 calls)
     electrons    :    497.08s CPU    516.83s WALL (       1 calls)
     forces       :      7.84s CPU      8.69s WALL (       1 calls)

     Called by init_run:
     wfcinit      :      5.98s CPU      6.15s WALL (       1 calls)
     potinit      :      8.89s CPU     14.52s WALL (       1 calls)
     hinit0       :      1.06s CPU      1.08s WALL (       1 calls)

     Called by electrons:
     c_bands      :    417.87s CPU    430.27s WALL (      19 calls)
     sum_band     :     52.00s CPU     53.69s WALL (      19 calls)
     v_of_rho     :     14.29s CPU     22.11s WALL (      19 calls)
     newd         :      2.82s CPU      3.64s WALL (      19 calls)
     PAW_pot      :      4.25s CPU      4.37s WALL (      19 calls)
     mix_rho      :     13.33s CPU     15.54s WALL (      19 calls)
     vdW_kernel   :      2.23s CPU      5.35s WALL (       1 calls)

     Called by c_bands:
     init_us_2    :      2.80s CPU      2.85s WALL (     520 calls)
     init_us_2:cp :      2.80s CPU      2.85s WALL (     520 calls)
     cegterg      :    409.78s CPU    421.80s WALL (     247 calls)

     Called by *egterg:
     cdiaghg      :     79.85s CPU     81.16s WALL (    1299 calls)
     h_psi        :    216.59s CPU    224.35s WALL (    1325 calls)
     s_psi        :     15.45s CPU     15.69s WALL (    1325 calls)
     g_psi        :      0.45s CPU      0.46s WALL (    1065 calls)

     Called by h_psi:
     h_psi:calbec :     32.90s CPU     33.86s WALL (    1325 calls)
     vloc_psi     :    166.78s CPU    172.91s WALL (    1325 calls)
     add_vuspsi   :     15.73s CPU     16.37s WALL (    1325 calls)

     General routines
     calbec       :     45.36s CPU     46.60s WALL (    1624 calls)
     fft          :     10.81s CPU     13.69s WALL (    1257 calls)
     ffts         :      6.81s CPU      8.04s WALL (    4703 calls)
     fftw         :    180.38s CPU    186.56s WALL (  320848 calls)
     interpolate  :      0.62s CPU      0.69s WALL (      19 calls)

     Parallel routines

     PWSCF        :   8m45.62s CPU   9m19.34s WALL


   This run was terminated on:  19:50:10  28Jan2025            

=------------------------------------------------------------------------------=
   JOB DONE.
=------------------------------------------------------------------------------=
