
     Program PWSCF v.7.1 starts on 22Feb2025 at 21:48:25 
        Git branch: heads/qe-7.1
        Last git commit: 48ba0178f8fede6d020eb786884699a9f063f55d-dirty
        Last git commit date: Fri Jan 27 14:22:33 2023 +0000
        Last git commit subject: Merge branch 'fix_hubbard' into 'develop'

     This program is part of the open-source Quantum ESPRESSO suite
     for quantum simulation of materials; please cite
         "P. Giannozzi et al., J. Phys.:Condens. Matter 21 395502 (2009);
         "P. Giannozzi et al., J. Phys.:Condens. Matter 29 465901 (2017);
         "P. Giannozzi et al., J. Chem. Phys. 152 154105 (2020);
          URL http://www.quantum-espresso.org", 
     in publications or presentations arising from this work. More details at
     http://www.quantum-espresso.org/quote

     Parallel version (MPI), running on    48 processors

     MPI processes distributed on     1 nodes
     16797 MiB available memory on the printing compute node when the environment starts

     Reading input from espresso.pwi
Warning: card &CELL ignored
Warning: card / ignored
Warning: card &FCP ignored
Warning: card / ignored
Warning: card &RISM ignored
Warning: card / ignored

     Current dimensions of program PWSCF are:
     Max number of different atomic species (ntypx) = 10
     Max number of k-points (npk) =  40000
     Max angular momentum in pseudopotentials (lmaxx) =  4
     file Pt.pbe-n-kjpaw_psl.1.0.0.UPF: wavefunction(s)  6S 5D renormalized
     file H.pbe-kjpaw_psl.1.0.0.UPF: wavefunction(s)  1S renormalized

     **************************************************************************
     Initializing libbeef V0.1.2 with the BEEF-vdW functional.
     Citation: Wellendorff et al., PRB 85, 235149 (2012).
     **************************************************************************


     IMPORTANT: XC functional enforced from input :
     Exchange-correlation= BEEF-VDW
                           (   1   4  43  14   2   0   0)
     Any further DFT definition will be discarded
     Please, verify this is what you really want


     R & G space division:  proc/nbgrp/npool/nimage =      48
     Subspace diagonalization in iterative solution of the eigenvalue problem:
     one sub-group per band group will be used
     custom distributed-memory algorithm (size of sub-group:  2*  2 procs)


     Parallelization info
     --------------------
     sticks:   dense  smooth     PW     G-vecs:    dense   smooth      PW
     Min         151      59     16                29407     7165    1028
     Max         152      60     17                29420     7176    1042
     Sum        7267    2839    769              1411785   344073   49691

     Using Slab Decomposition



     bravais-lattice index     =            0
     lattice parameter (alat)  =      16.0349  a.u.
     unit-cell volume          =   10068.6169 (a.u.)^3
     number of atoms/cell      =           37
     number of atomic types    =            2
     number of electrons       =       361.00
     number of Kohn-Sham states=          217
     kinetic-energy cutoff     =      40.0000  Ry
     charge density cutoff     =     410.0000  Ry
     scf convergence threshold =      1.0E-06
     mixing beta               =       0.7000
     number of iterations used =            8  local-TF  mixing
     Exchange-correlation= BEEF-VDW
                           (   1   4  43  14   2   0   0)

     celldm(1)=  16.034858  celldm(2)=   0.000000  celldm(3)=   0.000000
     celldm(4)=   0.000000  celldm(5)=   0.000000  celldm(6)=   0.000000

     crystal axes: (cart. coord. in units of alat)
               a(1) = (   1.000000   0.000000   0.000000 )  
               a(2) = (   0.500000   0.866025   0.000000 )  
               a(3) = (   0.000000   0.000000   2.819966 )  

     reciprocal axes: (cart. coord. in units 2 pi/alat)
               b(1) = (  1.000000 -0.577350  0.000000 )  
               b(2) = (  0.000000  1.154701  0.000000 )  
               b(3) = (  0.000000  0.000000  0.354614 )  


     PseudoPot. # 1 for Pt read from file:
     /users/kbadger1/espresso/pseudo/pslibrary.1.0.0/pbe/PSEUDOPOTENTIALS/Pt.pbe-n-kjpaw_psl.1.0.0.UPF
     MD5 check sum: 2e24a0b5bf98a4ed1a57fa81bca8c143
     Pseudo is Projector augmented-wave + core cor, Zval = 10.0
     Generated using 'atomic' code by A. Dal Corso  v.7.0
     Shape of augmentation charge: PSQ
     Using radial grid of 1277 points,  6 beta functions with: 
                l(1) =   0
                l(2) =   0
                l(3) =   1
                l(4) =   1
                l(5) =   2
                l(6) =   2
     Q(r) pseudized with 0 coefficients 


     PseudoPot. # 2 for H  read from file:
     /users/kbadger1/espresso/pseudo/pslibrary.1.0.0/pbe/PSEUDOPOTENTIALS/H.pbe-kjpaw_psl.1.0.0.UPF
     MD5 check sum: fe4c6fa958fa6d3815bf5d2419cbf1df
     Pseudo is Projector augmented-wave, Zval =  1.0
     Generated using 'atomic' code by A. Dal Corso  v.7.0
     Shape of augmentation charge: PSQ
     Using radial grid of  929 points,  2 beta functions with: 
                l(1) =   0
                l(2) =   0
     Q(r) pseudized with 0 coefficients 


     atomic species   valence    mass     pseudopotential
        Pt            10.00   195.08400     Pt( 1.00)
        H              1.00     1.00800     H ( 1.00)

     No symmetry found



   Cartesian axes

     site n.     atom                  positions (alat units)
         1           Pt  tau(   1) = (   0.0000000   0.0000000   1.0017346  )
         2           Pt  tau(   2) = (   0.3333333   0.0000000   1.0017346  )
         3           Pt  tau(   3) = (   0.6666667   0.0000000   1.0017346  )
         4           Pt  tau(   4) = (   0.1666667   0.2886751   1.0017346  )
         5           Pt  tau(   5) = (   0.5000000   0.2886751   1.0017346  )
         6           Pt  tau(   6) = (   0.8333333   0.2886751   1.0017346  )
         7           Pt  tau(   7) = (   0.3333333   0.5773503   1.0017346  )
         8           Pt  tau(   8) = (   0.6666667   0.5773503   1.0017346  )
         9           Pt  tau(   9) = (   1.0000000   0.5773503   1.0017346  )
        10           Pt  tau(  10) = (   0.1666667   0.0962250   1.2739001  )
        11           Pt  tau(  11) = (   0.5000000   0.0962250   1.2739001  )
        12           Pt  tau(  12) = (   0.8333333   0.0962250   1.2739001  )
        13           Pt  tau(  13) = (   0.3333333   0.3849002   1.2739001  )
        14           Pt  tau(  14) = (   0.6666667   0.3849002   1.2739001  )
        15           Pt  tau(  15) = (   1.0000000   0.3849002   1.2739001  )
        16           Pt  tau(  16) = (   0.5000000   0.6735753   1.2739001  )
        17           Pt  tau(  17) = (   0.8333333   0.6735753   1.2739001  )
        18           Pt  tau(  18) = (   1.1666667   0.6735753   1.2739001  )
        19           Pt  tau(  19) = (   0.0005536   0.1925803   1.5438850  )
        20           Pt  tau(  20) = (   0.3327881   0.1922069   1.5451363  )
        21           Pt  tau(  21) = (   0.6667935   0.1923252   1.5422806  )
        22           Pt  tau(  22) = (   0.1663146   0.4796949   1.5444779  )
        23           Pt  tau(  23) = (   0.4999015   0.4814020   1.5422732  )
        24           Pt  tau(  24) = (   0.8333180   0.4811802   1.5426149  )
        25           Pt  tau(  25) = (   0.3327121   0.7695080   1.5420225  )
        26           Pt  tau(  26) = (   0.6669971   0.7703179   1.5438878  )
        27           Pt  tau(  27) = (   0.9985241   0.7703102   1.5444788  )
        28           Pt  tau(  28) = (  -0.0039773  -0.0021519   1.8163641  )
        29           Pt  tau(  29) = (   0.3358670  -0.0013333   1.8254980  )
        30           Pt  tau(  30) = (   0.6668734   0.0002103   1.8171491  )
        31           Pt  tau(  31) = (   0.1666387   0.2917535   1.8254971  )
        32           Pt  tau(  32) = (   0.5034187   0.2908070   1.8161000  )
        33           Pt  tau(  33) = (   0.8331826   0.2891075   1.8169394  )
        34           Pt  tau(  34) = (   0.3334898   0.5776420   1.8171375  )
        35           Pt  tau(  35) = (   0.6668368   0.5772232   1.8169349  )
        36           Pt  tau(  36) = (   1.0000302   0.5775155   1.8173007  )
        37           H   tau(  37) = (   0.2282360   0.1319236   1.9433999  )

     number of k points=    13  Marzari-Vanderbilt smearing, width (Ry)=  0.0200
                       cart. coord. in units 2pi/alat
        k(    1) = (   0.0000000   0.0000000   0.0000000), wk =   0.0800000
        k(    2) = (   0.0000000   0.2309401   0.0000000), wk =   0.1600000
        k(    3) = (   0.0000000   0.4618802   0.0000000), wk =   0.1600000
        k(    4) = (   0.2000000  -0.1154701   0.0000000), wk =   0.1600000
        k(    5) = (   0.2000000   0.1154701   0.0000000), wk =   0.1600000
        k(    6) = (   0.2000000   0.3464102   0.0000000), wk =   0.1600000
        k(    7) = (   0.2000000  -0.5773503   0.0000000), wk =   0.1600000
        k(    8) = (   0.2000000  -0.3464102   0.0000000), wk =   0.1600000
        k(    9) = (   0.4000000  -0.2309401   0.0000000), wk =   0.1600000
        k(   10) = (   0.4000000  -0.0000000   0.0000000), wk =   0.1600000
        k(   11) = (   0.4000000   0.2309401   0.0000000), wk =   0.1600000
        k(   12) = (   0.4000000  -0.6928203   0.0000000), wk =   0.1600000
        k(   13) = (   0.4000000  -0.4618802   0.0000000), wk =   0.1600000

     Dense  grid:  1411785 G-vectors     FFT dimensions: ( 108, 108, 300)

     Smooth grid:   344073 G-vectors     FFT dimensions: (  72,  72, 192)

     Estimated max dynamical RAM per process >     203.68 MB

     Estimated total dynamical RAM >       9.55 GB

     Initial potential from superposition of free atoms

     starting charge     360.9939, renormalised to     361.0000

     negative rho (up, down):  3.363E-03 0.000E+00


     %%%%%%%%%%%%%%%%%%%%%%%%%%%%%%%%%%%%%%%%%%%%%%%%%%%%%%%%%%%%%%%%%%%%%%%%
     %                                                                      %
     % You are using vdW-DF, which was implemented by the Thonhauser group. %
     % Please cite the following two papers that made this development      %
     % possible and the two reviews that describe the various versions:     %
     %                                                                      %
     %   T. Thonhauser et al., PRL 115, 136402 (2015).                      %
     %   T. Thonhauser et al., PRB 76, 125112 (2007).                       %
     %   K. Berland et al., Rep. Prog. Phys. 78, 066501 (2015).             %
     %   D.C. Langreth et al., J. Phys.: Condens. Matter 21, 084203 (2009). %
     %                                                                      %
     % If you are calculating stress with vdW-DF, please also cite:         %
     %                                                                      %
     %   R. Sabatini et al., J. Phys.: Condens. Matter 24, 424209 (2012).   %
     %                                                                      %
     %%%%%%%%%%%%%%%%%%%%%%%%%%%%%%%%%%%%%%%%%%%%%%%%%%%%%%%%%%%%%%%%%%%%%%%%

     %%%%%%%%%%%%%%%%%%%%%%%%%%%%%%%%%%%%%%%%%%%%%%%%%%%%%%%%%%%%%%%%%%%%%%%%
     %                                                                      %
     %  vdW-DF NEWS:                                                        %
     %                                                                      %
     %  * vdW-DF3 is now available. DOI: 10.1021/acs.jctc.0c00471           %
     %    use with input_dft = 'vdW-DF3-opt1' or 'vdW-DF3-opt2'             %
     %                                                                      %
     %  * Unscreened and range-separated hybrid vdW-DF-cx functionals       %
     %    DOI: 10.1063/1.4986522 and 10.1088/1361-648X/ac2ad2               %
     %    use with input_dft = 'vdW-DF-cx0'    and 'vdW-DF-ahcx'            %
     %  * Unscreened and range-separated hybrid vdW-DF2-b86r functionals    %
     %    DOI: 10.1063/1.4986522 and DOI: 10.1103/PhysRevX.12.041003        %
     %    use with input_dft = 'vdW-DF2-br0' and 'vdW-DF2-ahbr'             %
     %                                                                      %
     %%%%%%%%%%%%%%%%%%%%%%%%%%%%%%%%%%%%%%%%%%%%%%%%%%%%%%%%%%%%%%%%%%%%%%%%


     Starting wfcs are  325 randomized atomic wfcs
     Checking if some PAW data can be deallocated... 

     total cpu time spent up to now is       10.8 secs

     per-process dynamical memory:   207.7 Mb

     Self-consistent Calculation

     iteration #  1     ecut=    40.00 Ry     beta= 0.70
     Davidson diagonalization with overlap
     ethr =  1.00E-02,  avg # of iterations =  2.0

     Threshold (ethr) on eigenvalues was too large:
     Diagonalizing with lowered threshold

     Davidson diagonalization with overlap
     ethr =  3.74E-04,  avg # of iterations =  3.6

     negative rho (up, down):  1.776E-02 0.000E+00

     total cpu time spent up to now is       45.9 secs

     total energy              =  -27755.28428217 Ry
     estimated scf accuracy    <       1.55012831 Ry

     iteration #  2     ecut=    40.00 Ry     beta= 0.70
     Davidson diagonalization with overlap
     ethr =  4.29E-04,  avg # of iterations =  2.0

     negative rho (up, down):  1.592E-02 0.000E+00

     total cpu time spent up to now is       64.1 secs

     total energy              =  -27755.38269004 Ry
     estimated scf accuracy    <       0.80873337 Ry

     iteration #  3     ecut=    40.00 Ry     beta= 0.70
     Davidson diagonalization with overlap
     ethr =  2.24E-04,  avg # of iterations =  2.0

     negative rho (up, down):  1.052E-02 0.000E+00

     total cpu time spent up to now is       79.0 secs

     total energy              =  -27755.43448628 Ry
     estimated scf accuracy    <       0.09314729 Ry

     iteration #  4     ecut=    40.00 Ry     beta= 0.70
     Davidson diagonalization with overlap
     c_bands:  2 eigenvalues not converged
     c_bands:  1 eigenvalues not converged
     ethr =  2.58E-05,  avg # of iterations = 13.9

     negative rho (up, down):  7.656E-03 0.000E+00

     total cpu time spent up to now is      123.5 secs

     total energy              =  -27755.48409757 Ry
     estimated scf accuracy    <       0.08128115 Ry

     iteration #  5     ecut=    40.00 Ry     beta= 0.70
     Davidson diagonalization with overlap
     ethr =  2.25E-05,  avg # of iterations =  3.8

     negative rho (up, down):  3.427E-03 0.000E+00

     total cpu time spent up to now is      139.4 secs

     total energy              =  -27755.48398756 Ry
     estimated scf accuracy    <       0.02973228 Ry

     iteration #  6     ecut=    40.00 Ry     beta= 0.70
     Davidson diagonalization with overlap
     c_bands:  1 eigenvalues not converged
     c_bands:  1 eigenvalues not converged
     ethr =  8.24E-06,  avg # of iterations =  6.2

     negative rho (up, down):  1.639E-03 0.000E+00

     total cpu time spent up to now is      160.1 secs

     total energy              =  -27755.48611052 Ry
     estimated scf accuracy    <       0.00251373 Ry

     iteration #  7     ecut=    40.00 Ry     beta= 0.70
     Davidson diagonalization with overlap
     c_bands:  1 eigenvalues not converged
     c_bands:  1 eigenvalues not converged
     c_bands:  1 eigenvalues not converged
     ethr =  6.96E-07,  avg # of iterations = 14.6

     negative rho (up, down):  1.258E-03 0.000E+00

     total cpu time spent up to now is      196.7 secs

     total energy              =  -27755.48660891 Ry
     estimated scf accuracy    <       0.00189360 Ry

     iteration #  8     ecut=    40.00 Ry     beta= 0.70
     Davidson diagonalization with overlap
     ethr =  5.25E-07,  avg # of iterations =  3.2

     negative rho (up, down):  1.095E-03 0.000E+00

     total cpu time spent up to now is      216.7 secs

     total energy              =  -27755.48675755 Ry
     estimated scf accuracy    <       0.00021576 Ry

     iteration #  9     ecut=    40.00 Ry     beta= 0.70
     Davidson diagonalization with overlap
     ethr =  5.98E-08,  avg # of iterations =  5.1

     negative rho (up, down):  8.881E-04 0.000E+00

     total cpu time spent up to now is      249.2 secs

     total energy              =  -27755.48687730 Ry
     estimated scf accuracy    <       0.00008770 Ry

     iteration # 10     ecut=    40.00 Ry     beta= 0.70
     Davidson diagonalization with overlap
     ethr =  2.43E-08,  avg # of iterations =  6.0

     negative rho (up, down):  8.673E-04 0.000E+00

     total cpu time spent up to now is      279.3 secs

     total energy              =  -27755.48689647 Ry
     estimated scf accuracy    <       0.00008676 Ry

     iteration # 11     ecut=    40.00 Ry     beta= 0.70
     Davidson diagonalization with overlap
     ethr =  2.40E-08,  avg # of iterations =  1.2

     negative rho (up, down):  9.501E-04 0.000E+00

     total cpu time spent up to now is      293.1 secs

     total energy              =  -27755.48690043 Ry
     estimated scf accuracy    <       0.00005785 Ry

     iteration # 12     ecut=    40.00 Ry     beta= 0.70
     Davidson diagonalization with overlap
     ethr =  1.60E-08,  avg # of iterations =  1.5

     negative rho (up, down):  1.174E-03 0.000E+00

     total cpu time spent up to now is      311.4 secs

     total energy              =  -27755.48690706 Ry
     estimated scf accuracy    <       0.00002010 Ry

     iteration # 13     ecut=    40.00 Ry     beta= 0.70
     Davidson diagonalization with overlap
     ethr =  5.57E-09,  avg # of iterations =  2.0

     negative rho (up, down):  1.638E-03 0.000E+00

     total cpu time spent up to now is      326.5 secs

     total energy              =  -27755.48691229 Ry
     estimated scf accuracy    <       0.00001179 Ry

     iteration # 14     ecut=    40.00 Ry     beta= 0.70
     Davidson diagonalization with overlap
     ethr =  3.27E-09,  avg # of iterations =  2.0

     negative rho (up, down):  1.966E-03 0.000E+00

     total cpu time spent up to now is      344.9 secs

     total energy              =  -27755.48691562 Ry
     estimated scf accuracy    <       0.00000667 Ry

     iteration # 15     ecut=    40.00 Ry     beta= 0.70
     Davidson diagonalization with overlap
     ethr =  1.85E-09,  avg # of iterations =  2.0

     negative rho (up, down):  2.734E-03 0.000E+00

     total cpu time spent up to now is      364.5 secs

     total energy              =  -27755.48691306 Ry
     estimated scf accuracy    <       0.00000596 Ry

     iteration # 16     ecut=    40.00 Ry     beta= 0.70
     Davidson diagonalization with overlap
     ethr =  1.65E-09,  avg # of iterations =  1.5

     negative rho (up, down):  3.154E-03 0.000E+00

     total cpu time spent up to now is      379.0 secs

     End of self-consistent calculation

          k = 0.0000 0.0000 0.0000 ( 42913 PWs)   bands (ev):

    -6.3067  -5.1486  -4.4048  -3.8908  -3.8808  -3.8724  -3.8698  -3.8576
    -3.8490  -3.8472  -3.5265  -3.3188  -3.3159  -3.3146  -3.3055  -3.3038
    -3.2213  -2.8598  -2.8546  -2.8473  -2.8388  -2.8379  -2.7451  -2.6327
    -2.6314  -2.6287  -2.6277  -2.6175  -2.5148  -2.4118  -2.4106  -2.4022
    -2.3969  -2.3895  -2.3891  -2.3772  -2.3665  -2.3648  -2.3446  -2.3360
    -1.9859  -1.7871  -1.7858  -1.7599  -1.7443  -1.7228  -1.7114  -1.6948
    -1.6920  -1.6875  -1.5515  -1.5468  -1.5051  -1.4461  -1.4391  -0.9798
    -0.9709  -0.9687  -0.9578  -0.9506  -0.8991  -0.8782  -0.7860  -0.7848
    -0.7845  -0.7722  -0.7636  -0.7587  -0.7521  -0.7312  -0.7197  -0.7196
    -0.7180  -0.7138  -0.6819  -0.6778  -0.6688  -0.5544  -0.5526  -0.5457
    -0.5412  -0.5364  -0.5322  -0.3800  -0.3667  -0.3653  -0.3508  -0.3421
    -0.3396  -0.3016  -0.2944  -0.2265  -0.2117  -0.1806  -0.1694  -0.1269
    -0.1232  -0.0883  -0.0865  -0.0773  -0.0151   0.0702   0.0726   0.0809
     0.0858   0.0929   0.0944   0.3448   0.5518   0.5765   0.5769   0.5835
     0.5843   0.6002   0.6199   0.6286   0.6437   0.6443   0.6610   0.7202
     0.7329   0.7863   0.8646   0.8691   0.8808   0.8829   0.8983   0.9893
     1.0084   1.0535   1.0561   1.0593   1.0599   1.2825   1.3007   1.3051
     1.3202   1.3266   1.3266   1.3823   1.3956   1.5294   1.5399   1.5653
     1.5686   1.5690   1.5744   1.6737   1.7097   1.7237   1.7457   1.7558
     1.7566   1.7569   1.7667   1.7787   1.7819   1.7860   1.7873   1.8557
     1.8798   1.8954   1.9003   1.9172   1.9225   1.9421   1.9441   1.9868
     2.0008   2.0243   2.0262   2.0290   2.0466   2.0632   2.0636   2.1262
     2.1367   2.1381   2.1539   2.1566   2.1567   2.2061   2.2353   2.2466
     2.2557   2.2561   2.2679   2.2742   2.4571   2.4675   2.5557   2.5639
     2.5716   2.5854   2.5866   2.5898   3.1098   3.4146   3.4263   3.4633
     3.4704   3.4788   3.4825   5.4000   5.7139   5.7666   5.7862   5.8112
     5.8123   7.1423   7.3118   7.3811   7.3951   7.4038   7.4063   7.5398
     7.6318

          k = 0.0000 0.2309 0.0000 ( 42996 PWs)   bands (ev):

    -6.1597  -5.0178  -4.4075  -4.3007  -3.9806  -3.9616  -3.7481  -3.6742
    -3.6356  -3.6281  -3.4970  -3.4040  -3.3855  -3.2503  -3.2419  -3.2348
    -3.1321  -2.9438  -2.8203  -2.8102  -2.8033  -2.7888  -2.7296  -2.6989
    -2.6696  -2.6386  -2.6327  -2.6030  -2.5611  -2.5329  -2.5229  -2.4345
    -2.4238  -2.4036  -2.3871  -2.2579  -2.2007  -2.1942  -2.1799  -2.1449
    -1.9900  -1.9058  -1.8997  -1.8485  -1.8241  -1.8036  -1.7860  -1.6944
    -1.6079  -1.5534  -1.5322  -1.5140  -1.4751  -1.4558  -1.4241  -1.2405
    -1.1472  -1.1426  -1.0822  -1.0597  -1.0285  -0.9899  -0.9628  -0.9525
    -0.9306  -0.9213  -0.8606  -0.8510  -0.8025  -0.7736  -0.7638  -0.7332
    -0.6795  -0.6720  -0.6604  -0.5987  -0.5934  -0.5748  -0.5363  -0.4926
    -0.4832  -0.4775  -0.4708  -0.3934  -0.3832  -0.3707  -0.3652  -0.3553
    -0.3138  -0.2911  -0.2634  -0.2340  -0.2074  -0.1988  -0.1796  -0.1620
    -0.1450  -0.1108  -0.1008  -0.0935  -0.0089   0.0459   0.0644   0.0787
     0.0867   0.0902   0.0998   0.1236   0.1587   0.1655   0.1812   0.1978
     0.3902   0.5016   0.5457   0.5741   0.5894   0.5990   0.6081   0.6318
     0.6364   0.7359   0.7959   0.8072   0.8859   0.9399   0.9448   0.9701
     0.9866   1.0119   1.0461   1.0645   1.0776   1.1515   1.1770   1.1896
     1.2008   1.2087   1.2964   1.3967   1.4109   1.4164   1.4315   1.4461
     1.4634   1.5163   1.5503   1.5789   1.5956   1.6058   1.6549   1.6750
     1.6835   1.6935   1.7636   1.7919   1.8083   1.8271   1.8566   1.9276
     1.9576   1.9658   1.9820   1.9913   2.0142   2.0327   2.1013   2.1122
     2.1561   2.1704   2.1787   2.1933   2.2223   2.2253   2.2378   2.2414
     2.2464   2.3054   2.3084   2.4419   2.4587   2.4729   2.4895   2.5060
     2.5083   2.5393   2.5619   2.5787   2.5910   2.6605   2.6952   2.7168
     2.7679   2.8766   2.8899   2.8988   2.9302   3.2705   3.3301   3.8317
     4.0499   4.0765   4.1865   4.9801   5.3743   5.4951   6.1266   6.2120
     6.2341   6.3388   6.5886   6.9921   7.1722   7.3356   7.5254   7.5793
     7.6351

          k = 0.0000 0.4619 0.0000 ( 43046 PWs)   bands (ev):

    -5.7367  -5.1033  -4.6785  -4.1984  -4.0142  -3.9906  -3.7870  -3.6394
    -3.4917  -3.3649  -3.2923  -3.2867  -3.2323  -3.1257  -3.0780  -3.0654
    -3.0592  -3.0390  -2.9133  -2.9002  -2.8842  -2.8534  -2.8433  -2.8176
    -2.7390  -2.7167  -2.7113  -2.6673  -2.4556  -2.4502  -2.4426  -2.4361
    -2.4272  -2.3438  -2.2056  -2.1934  -2.1717  -2.1511  -2.1395  -2.0552
    -1.9415  -1.8719  -1.8649  -1.8423  -1.8101  -1.7900  -1.7438  -1.7219
    -1.7089  -1.6804  -1.6462  -1.5668  -1.5009  -1.4948  -1.4634  -1.3986
    -1.3454  -1.3156  -1.2825  -1.2686  -1.2379  -1.1229  -1.0623  -1.0568
    -1.0440  -1.0274  -0.9561  -0.9367  -0.9013  -0.8145  -0.8085  -0.8056
    -0.7428  -0.6870  -0.6824  -0.6650  -0.6584  -0.6150  -0.5856  -0.5786
    -0.5605  -0.5511  -0.5428  -0.5397  -0.5296  -0.5013  -0.4355  -0.4047
    -0.3974  -0.3760  -0.3698  -0.3586  -0.3274  -0.2332  -0.2145  -0.1776
    -0.1525  -0.1411  -0.1144  -0.0913  -0.0631  -0.0577   0.0244   0.0673
     0.0871   0.1128   0.1418   0.1703   0.2039   0.3184   0.3429   0.4089
     0.4302   0.4734   0.4915   0.5236   0.5307   0.5377   0.5407   0.5906
     0.6210   0.6443   0.6535   0.6622   0.6854   0.7028   0.7104   0.7389
     0.7509   0.8607   0.8810   0.8986   0.9579   0.9808   1.0708   1.0777
     1.1648   1.1909   1.2319   1.2852   1.3499   1.3645   1.4080   1.4177
     1.4496   1.4651   1.4887   1.5161   1.5627   1.5709   1.6151   1.6580
     1.6777   1.7129   1.7324   1.7378   1.7527   1.7956   1.8813   1.9267
     1.9894   2.0082   2.0226   2.0298   2.0702   2.1274   2.1396   2.1930
     2.2114   2.2311   2.2398   2.2861   2.3159   2.3344   2.3428   2.4512
     2.4599   2.4759   2.4886   2.4954   2.4995   2.5191   2.5228   2.7014
     2.7241   2.7317   2.7425   2.7498   2.9053   2.9561   3.1834   3.3364
     3.3820   3.5717   3.7754   3.7884   4.0690   4.1700   4.2829   4.4795
     4.7631   4.9987   5.0044   5.0941   5.2153   5.2579   5.3471   5.3922
     5.6049   5.6541   6.1905   6.2866   6.6962   6.8217   7.1537   7.3034
     7.7101

          k = 0.2000-0.1155 0.0000 ( 42996 PWs)   bands (ev):

    -6.1597  -5.0179  -4.4077  -4.3007  -3.9804  -3.9616  -3.7481  -3.6745
    -3.6356  -3.6278  -3.4970  -3.4040  -3.3855  -3.2504  -3.2420  -3.2348
    -3.1321  -2.9437  -2.8203  -2.8102  -2.8034  -2.7889  -2.7294  -2.6989
    -2.6696  -2.6387  -2.6327  -2.6031  -2.5611  -2.5327  -2.5228  -2.4348
    -2.4238  -2.4037  -2.3869  -2.2580  -2.2008  -2.1940  -2.1798  -2.1446
    -1.9900  -1.9056  -1.8997  -1.8485  -1.8241  -1.8036  -1.7860  -1.6944
    -1.6078  -1.5532  -1.5323  -1.5139  -1.4751  -1.4558  -1.4241  -1.2402
    -1.1472  -1.1426  -1.0818  -1.0593  -1.0282  -0.9895  -0.9632  -0.9530
    -0.9308  -0.9214  -0.8606  -0.8510  -0.8023  -0.7733  -0.7637  -0.7331
    -0.6797  -0.6730  -0.6612  -0.5986  -0.5932  -0.5746  -0.5364  -0.4922
    -0.4829  -0.4771  -0.4706  -0.3935  -0.3837  -0.3707  -0.3650  -0.3553
    -0.3137  -0.2911  -0.2635  -0.2345  -0.2073  -0.1986  -0.1795  -0.1622
    -0.1450  -0.1108  -0.1009  -0.0936  -0.0089   0.0460   0.0646   0.0786
     0.0862   0.0899   0.0998   0.1237   0.1587   0.1656   0.1813   0.1978
     0.3907   0.5019   0.5457   0.5740   0.5894   0.5989   0.6077   0.6317
     0.6363   0.7359   0.7959   0.8070   0.8856   0.9396   0.9448   0.9709
     0.9858   1.0118   1.0460   1.0644   1.0776   1.1515   1.1769   1.1896
     1.2008   1.2089   1.2964   1.3965   1.4109   1.4164   1.4315   1.4462
     1.4634   1.5163   1.5504   1.5789   1.5957   1.6058   1.6551   1.6750
     1.6835   1.6935   1.7636   1.7919   1.8084   1.8273   1.8565   1.9276
     1.9576   1.9657   1.9820   1.9911   2.0140   2.0326   2.1013   2.1123
     2.1560   2.1704   2.1786   2.1933   2.2222   2.2254   2.2379   2.2414
     2.2465   2.3051   2.3081   2.4417   2.4586   2.4730   2.4896   2.5063
     2.5084   2.5396   2.5621   2.5791   2.5913   2.6605   2.6951   2.7168
     2.7679   2.8766   2.8901   2.8987   2.9299   3.2709   3.3305   3.8316
     4.0498   4.0763   4.1864   4.9797   5.3746   5.4956   6.1266   6.2120
     6.2341   6.3390   6.5884   6.9919   7.1722   7.3351   7.5254   7.5795
     7.6351

          k = 0.2000 0.1155 0.0000 ( 42996 PWs)   bands (ev):

    -6.1607  -5.0286  -4.4558  -4.2464  -3.9827  -3.9745  -3.7485  -3.6761
    -3.6290  -3.6286  -3.5428  -3.4043  -3.2840  -3.2519  -3.2419  -3.2371
    -3.1949  -2.9414  -2.8170  -2.8163  -2.7979  -2.7372  -2.7284  -2.6929
    -2.6681  -2.6540  -2.6416  -2.6308  -2.5310  -2.5296  -2.4970  -2.4279
    -2.4218  -2.3914  -2.3844  -2.2329  -2.2004  -2.1882  -2.1872  -2.1638
    -1.9746  -1.9036  -1.9019  -1.8500  -1.8217  -1.8181  -1.7895  -1.7102
    -1.6124  -1.5588  -1.5333  -1.5261  -1.4697  -1.4481  -1.4029  -1.2403
    -1.1452  -1.1400  -1.0780  -1.0681  -1.0342  -0.9891  -0.9681  -0.9494
    -0.9299  -0.9181  -0.8849  -0.8477  -0.7887  -0.7829  -0.7665  -0.7472
    -0.6805  -0.6724  -0.6592  -0.5998  -0.5885  -0.5781  -0.5358  -0.4862
    -0.4810  -0.4777  -0.4735  -0.3879  -0.3876  -0.3659  -0.3594  -0.3570
    -0.3005  -0.3003  -0.2596  -0.2359  -0.2090  -0.2014  -0.1966  -0.1578
    -0.1555  -0.1154  -0.1015  -0.0901  -0.0121   0.0522   0.0601   0.0611
     0.0802   0.0925   0.1064   0.1079   0.1477   0.1702   0.1732   0.1886
     0.4072   0.4967   0.5377   0.5702   0.5941   0.6010   0.6053   0.6318
     0.6489   0.6832   0.7788   0.8052   0.8912   0.9349   0.9468   0.9733
     0.9832   0.9969   1.0442   1.0659   1.0661   1.1595   1.1855   1.1926
     1.2049   1.2112   1.3825   1.3847   1.4116   1.4182   1.4245   1.4475
     1.4654   1.5277   1.5390   1.5582   1.5988   1.5989   1.6551   1.6666
     1.6826   1.6843   1.7612   1.7820   1.8146   1.8278   1.8788   1.9192
     1.9274   1.9609   1.9766   1.9809   2.0245   2.0361   2.0977   2.1119
     2.1647   2.1695   2.1834   2.2136   2.2150   2.2324   2.2370   2.2433
     2.2445   2.3045   2.3111   2.4486   2.4608   2.4656   2.4981   2.5093
     2.5127   2.5379   2.5727   2.5773   2.5913   2.6826   2.6905   2.7157
     2.7717   2.8812   2.8835   2.8956   2.9372   3.2803   3.3143   3.8475
     4.0355   4.0764   4.1953   4.9463   5.4464   5.4886   6.0861   6.2138
     6.2658   6.3272   6.5348   6.9797   7.1768   7.3284   7.5536   7.5845
     7.6354

          k = 0.2000 0.3464 0.0000 ( 43046 PWs)   bands (ev):

    -5.8761  -4.8388  -4.6313  -4.6177  -4.1678  -3.5507  -3.5486  -3.5411
    -3.5221  -3.4833  -3.4811  -3.4658  -3.3675  -3.3568  -3.1665  -2.9832
    -2.9743  -2.9636  -2.9591  -2.8941  -2.8733  -2.7418  -2.7246  -2.7165
    -2.7092  -2.6329  -2.6168  -2.5726  -2.5639  -2.5532  -2.4897  -2.4798
    -2.4560  -2.4057  -2.3963  -2.3140  -2.1277  -2.0602  -1.9729  -1.9648
    -1.9366  -1.9176  -1.9079  -1.9002  -1.8438  -1.8224  -1.7738  -1.6806
    -1.6723  -1.6056  -1.5751  -1.5457  -1.4949  -1.4879  -1.4422  -1.3953
    -1.3741  -1.2363  -1.2107  -1.1965  -1.1301  -1.1139  -1.0911  -1.0844
    -1.0646  -1.0139  -0.9822  -0.8673  -0.8484  -0.8354  -0.8308  -0.7834
    -0.7710  -0.7255  -0.7074  -0.6857  -0.6435  -0.5683  -0.5520  -0.5326
    -0.5194  -0.5112  -0.5025  -0.4800  -0.4570  -0.4421  -0.4034  -0.3878
    -0.3565  -0.3496  -0.2744  -0.2674  -0.2338  -0.2066  -0.1778  -0.1713
    -0.1472  -0.1249  -0.1083  -0.1000  -0.0975  -0.0828  -0.0702  -0.0554
    -0.0140   0.0005   0.0825   0.1042   0.1492   0.2087   0.2275   0.2332
     0.2494   0.4203   0.4372   0.4589   0.5624   0.5739   0.6116   0.6179
     0.6444   0.6495   0.6859   0.6928   0.7264   0.7350   0.7576   0.8239
     0.9282   0.9576   0.9987   1.0109   1.0428   1.0583   1.0840   1.1333
     1.1918   1.2381   1.2524   1.2920   1.3179   1.3587   1.3934   1.4384
     1.4512   1.4678   1.5257   1.5308   1.5464   1.5618   1.5696   1.5806
     1.5948   1.6016   1.6149   1.7000   1.7691   1.8047   1.9215   1.9429
     1.9650   2.0944   2.1022   2.1202   2.1279   2.1972   2.2309   2.2505
     2.2582   2.2776   2.3012   2.3139   2.3264   2.3333   2.3467   2.3852
     2.3996   2.4128   2.4866   2.5125   2.5183   2.5448   2.5535   2.5999
     2.7140   2.7467   2.7836   2.8055   2.8577   2.8666   2.8753   2.9711
     3.0191   3.3502   3.5374   3.5499   3.9457   4.0821   4.0946   4.1011
     4.5760   4.7891   4.8173   4.9896   5.0152   5.0607   5.6619   6.0913
     6.2089   6.2194   6.3982   6.6442   6.9260   6.9856   7.0058   7.0258
     7.0504

          k = 0.2000-0.5774 0.0000 ( 43014 PWs)   bands (ev):

    -5.3559  -5.3241  -4.7608  -4.4885  -4.0868  -3.8497  -3.5464  -3.4832
    -3.4089  -3.3738  -3.2649  -3.2537  -3.1593  -3.1544  -3.0582  -3.0337
    -3.0244  -2.9985  -2.9955  -2.9784  -2.8648  -2.8293  -2.8226  -2.7950
    -2.7794  -2.7637  -2.7104  -2.6196  -2.5665  -2.4668  -2.4323  -2.4259
    -2.4067  -2.3917  -2.3495  -2.2945  -2.1852  -2.1719  -2.1033  -1.9960
    -1.9852  -1.9142  -1.8472  -1.8235  -1.7912  -1.7404  -1.6627  -1.6218
    -1.5883  -1.5677  -1.5517  -1.5124  -1.5047  -1.4666  -1.3861  -1.3717
    -1.3513  -1.3465  -1.3378  -1.3321  -1.2761  -1.2626  -1.2455  -1.1372
    -1.1106  -1.0668  -1.0405  -0.9582  -0.9195  -0.9061  -0.8797  -0.8512
    -0.8247  -0.8094  -0.7469  -0.7401  -0.7169  -0.6961  -0.6620  -0.6093
    -0.5977  -0.5503  -0.5110  -0.4891  -0.4833  -0.4752  -0.4036  -0.3463
    -0.3047  -0.2972  -0.2786  -0.2465  -0.2279  -0.2230  -0.2145  -0.1814
    -0.1718  -0.1528  -0.1370  -0.1006  -0.0821  -0.0729  -0.0635  -0.0571
    -0.0512  -0.0321   0.0099   0.0275   0.0484   0.2171   0.2642   0.3349
     0.3501   0.3852   0.4495   0.4717   0.4859   0.5093   0.5502   0.5646
     0.5678   0.5806   0.6383   0.6835   0.7028   0.7202   0.7705   0.7811
     0.8407   0.8541   0.8992   1.0248   1.0419   1.0978   1.1187   1.1375
     1.1779   1.2088   1.2337   1.2536   1.2612   1.2741   1.2941   1.3041
     1.3984   1.4247   1.4339   1.4657   1.4928   1.5109   1.5302   1.5447
     1.5512   1.6862   1.7222   1.7733   1.8419   1.8620   1.9457   1.9580
     1.9958   2.0633   2.0780   2.0896   2.1716   2.1776   2.2558   2.2734
     2.3011   2.3073   2.3127   2.3426   2.3584   2.3967   2.4669   2.4705
     2.4907   2.5058   2.5205   2.5242   2.5326   2.5994   2.6987   2.7318
     2.7362   2.7452   2.7511   2.8098   2.8492   2.9333   3.0508   3.7503
     3.8976   3.9143   4.0867   4.1534   4.2241   4.2799   4.2921   4.6302
     4.8753   4.9062   5.0986   5.3563   5.3732   5.4642   5.4959   5.6549
     5.7700   5.8438   5.8885   6.1602   6.2976   6.3299   6.7727   6.9688
     6.9854

          k = 0.2000-0.3464 0.0000 ( 43046 PWs)   bands (ev):

    -5.8731  -4.8044  -4.6360  -4.6167  -4.1638  -3.5504  -3.5454  -3.5422
    -3.5311  -3.4901  -3.4817  -3.4572  -3.3649  -3.3573  -3.2016  -2.9742
    -2.9675  -2.9625  -2.9451  -2.8967  -2.8680  -2.7381  -2.7277  -2.7153
    -2.7075  -2.6859  -2.6127  -2.5767  -2.5615  -2.5487  -2.5224  -2.4815
    -2.4574  -2.4218  -2.4014  -2.3152  -2.2551  -2.0567  -1.9682  -1.9668
    -1.9263  -1.9177  -1.9024  -1.8957  -1.8423  -1.8171  -1.7728  -1.6797
    -1.6673  -1.5912  -1.5571  -1.5142  -1.4999  -1.4895  -1.4288  -1.3993
    -1.3942  -1.2221  -1.2082  -1.1991  -1.1247  -1.1127  -1.0913  -1.0775
    -1.0569  -1.0096  -0.9945  -0.8552  -0.8390  -0.8354  -0.8256  -0.7905
    -0.7726  -0.7235  -0.6976  -0.6885  -0.6343  -0.5690  -0.5484  -0.5349
    -0.5210  -0.5101  -0.5036  -0.4706  -0.4456  -0.4354  -0.3941  -0.3798
    -0.3610  -0.3170  -0.2702  -0.2495  -0.2416  -0.2079  -0.1817  -0.1692
    -0.1603  -0.1153  -0.1048  -0.0918  -0.0855  -0.0759  -0.0741  -0.0655
    -0.0310   0.0111   0.0919   0.1342   0.1460   0.1848   0.2279   0.2355
     0.2504   0.4211   0.4361   0.5052   0.5581   0.5765   0.6077   0.6095
     0.6268   0.6530   0.6695   0.7033   0.7250   0.7380   0.7637   0.8297
     0.8795   0.9593   1.0035   1.0064   1.0331   1.0650   1.1013   1.1309
     1.1924   1.2240   1.2401   1.2624   1.3233   1.3405   1.3936   1.4517
     1.4651   1.4755   1.5138   1.5262   1.5517   1.5601   1.5702   1.5867
     1.5969   1.6018   1.6223   1.7197   1.7779   1.8102   1.9287   1.9360
     1.9632   2.0703   2.1194   2.1249   2.1250   2.2090   2.2186   2.2519
     2.2647   2.2822   2.2982   2.3120   2.3289   2.3330   2.3442   2.3838
     2.4046   2.4147   2.4832   2.5108   2.5164   2.5441   2.5564   2.5983
     2.7283   2.7651   2.7919   2.7985   2.8596   2.8700   2.8780   2.9924
     3.0196   3.3011   3.5063   3.5573   3.8963   4.0864   4.0958   4.1104
     4.5849   4.7961   4.8089   4.9555   5.0081   5.0674   5.6354   6.0572
     6.2051   6.2499   6.4402   6.7105   6.9370   6.9802   7.0095   7.0201
     7.4040

          k = 0.4000-0.2309 0.0000 ( 43046 PWs)   bands (ev):

    -5.7367  -5.1034  -4.6785  -4.1984  -4.0140  -3.9906  -3.7870  -3.6397
    -3.4917  -3.3650  -3.2922  -3.2865  -3.2324  -3.1259  -3.0781  -3.0654
    -3.0593  -3.0391  -2.9133  -2.9001  -2.8842  -2.8535  -2.8434  -2.8177
    -2.7392  -2.7166  -2.7112  -2.6674  -2.4556  -2.4502  -2.4425  -2.4359
    -2.4270  -2.3438  -2.2054  -2.1933  -2.1716  -2.1510  -2.1394  -2.0551
    -1.9415  -1.8719  -1.8648  -1.8423  -1.8101  -1.7900  -1.7437  -1.7216
    -1.7089  -1.6805  -1.6463  -1.5667  -1.5007  -1.4946  -1.4632  -1.3986
    -1.3452  -1.3149  -1.2822  -1.2685  -1.2377  -1.1229  -1.0622  -1.0570
    -1.0442  -1.0276  -0.9563  -0.9362  -0.9015  -0.8151  -0.8091  -0.8061
    -0.7430  -0.6869  -0.6823  -0.6649  -0.6583  -0.6149  -0.5854  -0.5785
    -0.5603  -0.5510  -0.5431  -0.5396  -0.5295  -0.5013  -0.4356  -0.4043
    -0.3974  -0.3757  -0.3697  -0.3583  -0.3278  -0.2333  -0.2148  -0.1776
    -0.1531  -0.1415  -0.1139  -0.0913  -0.0638  -0.0583   0.0243   0.0673
     0.0872   0.1128   0.1415   0.1703   0.2038   0.3184   0.3431   0.4090
     0.4302   0.4733   0.4914   0.5236   0.5307   0.5381   0.5412   0.5907
     0.6210   0.6443   0.6533   0.6621   0.6854   0.7024   0.7099   0.7387
     0.7514   0.8605   0.8806   0.8985   0.9578   0.9807   1.0706   1.0774
     1.1648   1.1909   1.2320   1.2855   1.3499   1.3646   1.4076   1.4174
     1.4497   1.4655   1.4888   1.5162   1.5629   1.5711   1.6151   1.6582
     1.6779   1.7130   1.7325   1.7377   1.7527   1.7951   1.8812   1.9266
     1.9893   2.0082   2.0225   2.0297   2.0701   2.1274   2.1397   2.1929
     2.2114   2.2310   2.2397   2.2863   2.3156   2.3340   2.3427   2.4511
     2.4600   2.4760   2.4888   2.4954   2.4996   2.5195   2.5231   2.7014
     2.7244   2.7321   2.7430   2.7500   2.9052   2.9561   3.1834   3.3369
     3.3817   3.5714   3.7753   3.7884   4.0689   4.1701   4.2827   4.4799
     4.7634   4.9987   5.0044   5.0942   5.2151   5.2578   5.3474   5.3926
     5.6049   5.6542   6.1903   6.2869   6.6960   6.8216   7.1535   7.3034
     7.7104

          k = 0.4000-0.0000 0.0000 ( 43046 PWs)   bands (ev):

    -5.8761  -4.8388  -4.6314  -4.6177  -4.1679  -3.5509  -3.5486  -3.5412
    -3.5221  -3.4831  -3.4811  -3.4655  -3.3675  -3.3568  -3.1665  -2.9835
    -2.9745  -2.9635  -2.9591  -2.8944  -2.8732  -2.7417  -2.7246  -2.7165
    -2.7092  -2.6329  -2.6165  -2.5725  -2.5637  -2.5533  -2.4897  -2.4797
    -2.4562  -2.4056  -2.3962  -2.3144  -2.1277  -2.0602  -1.9728  -1.9646
    -1.9366  -1.9174  -1.9078  -1.9002  -1.8439  -1.8224  -1.7738  -1.6806
    -1.6722  -1.6055  -1.5751  -1.5458  -1.4948  -1.4880  -1.4423  -1.3953
    -1.3741  -1.2361  -1.2105  -1.1963  -1.1296  -1.1135  -1.0911  -1.0844
    -1.0644  -1.0139  -0.9821  -0.8672  -0.8487  -0.8356  -0.8311  -0.7834
    -0.7713  -0.7254  -0.7075  -0.6858  -0.6436  -0.5680  -0.5519  -0.5325
    -0.5194  -0.5110  -0.5026  -0.4800  -0.4573  -0.4419  -0.4038  -0.3881
    -0.3568  -0.3499  -0.2744  -0.2674  -0.2338  -0.2067  -0.1780  -0.1714
    -0.1474  -0.1248  -0.1083  -0.1001  -0.0971  -0.0828  -0.0702  -0.0555
    -0.0140   0.0004   0.0825   0.1042   0.1492   0.2086   0.2272   0.2331
     0.2493   0.4204   0.4373   0.4588   0.5622   0.5739   0.6114   0.6176
     0.6446   0.6496   0.6860   0.6930   0.7266   0.7349   0.7575   0.8245
     0.9279   0.9575   0.9985   1.0109   1.0427   1.0583   1.0839   1.1332
     1.1918   1.2381   1.2523   1.2920   1.3179   1.3585   1.3934   1.4385
     1.4512   1.4678   1.5259   1.5308   1.5465   1.5619   1.5698   1.5807
     1.5949   1.6016   1.6152   1.6998   1.7691   1.8048   1.9214   1.9428
     1.9649   2.0945   2.1021   2.1203   2.1279   2.1971   2.2308   2.2506
     2.2584   2.2776   2.3011   2.3138   2.3263   2.3331   2.3465   2.3850
     2.3997   2.4131   2.4864   2.5122   2.5183   2.5448   2.5535   2.5998
     2.7144   2.7471   2.7840   2.8058   2.8578   2.8668   2.8754   2.9710
     3.0190   3.3499   3.5372   3.5498   3.9459   4.0822   4.0949   4.1013
     4.5761   4.7890   4.8172   4.9896   5.0153   5.0607   5.6619   6.0916
     6.2089   6.2197   6.3981   6.6441   6.9258   6.9853   7.0057   7.0257
     7.0506

          k = 0.4000 0.2309 0.0000 ( 43046 PWs)   bands (ev):

    -5.7418  -5.1235  -4.7076  -4.1962  -4.0173  -4.0091  -3.7737  -3.6189
    -3.4906  -3.3634  -3.2880  -3.2862  -3.2086  -3.1200  -3.1024  -3.0689
    -3.0678  -3.0537  -2.9152  -2.9024  -2.8969  -2.8544  -2.8455  -2.8000
    -2.7376  -2.7139  -2.7135  -2.4700  -2.4550  -2.4503  -2.4459  -2.4288
    -2.4264  -2.2670  -2.2031  -2.1854  -2.1722  -2.1424  -2.1416  -2.0565
    -1.9450  -1.8693  -1.8632  -1.8481  -1.8341  -1.7881  -1.7661  -1.7152
    -1.7113  -1.6796  -1.6425  -1.5963  -1.5049  -1.4900  -1.4640  -1.4346
    -1.3408  -1.3133  -1.2757  -1.2703  -1.2359  -1.1207  -1.0732  -1.0501
    -1.0493  -1.0265  -0.9460  -0.9408  -0.9298  -0.8272  -0.8086  -0.8040
    -0.7658  -0.6906  -0.6863  -0.6617  -0.6608  -0.6311  -0.6003  -0.5694
    -0.5664  -0.5477  -0.5457  -0.5422  -0.5286  -0.4956  -0.4214  -0.3975
    -0.3928  -0.3912  -0.3716  -0.3525  -0.3269  -0.2955  -0.2161  -0.1894
    -0.1572  -0.1284  -0.1055  -0.0917  -0.0833  -0.0671   0.0232   0.0570
     0.0859   0.0886   0.1540   0.1541   0.1793   0.3154   0.3524   0.3787
     0.4196   0.4666   0.5075   0.5175   0.5337   0.5402   0.5494   0.5673
     0.6142   0.6436   0.6510   0.6720   0.6755   0.7036   0.7206   0.7440
     0.7670   0.8548   0.8734   0.8880   0.9641   1.0043   1.0796   1.0835
     1.1797   1.1986   1.2376   1.2933   1.3437   1.3699   1.3818   1.4220
     1.4559   1.4588   1.4970   1.5161   1.5549   1.5700   1.6031   1.6631
     1.6651   1.7044   1.7236   1.7402   1.7479   1.8125   1.8739   1.9068
     1.9553   2.0041   2.0065   2.0346   2.0875   2.1227   2.1351   2.2096
     2.2188   2.2337   2.2350   2.2997   2.3178   2.3331   2.3417   2.4481
     2.4642   2.4802   2.4825   2.4940   2.4994   2.5211   2.5240   2.7028
     2.7278   2.7355   2.7419   2.7431   2.9114   2.9571   3.2430   3.3229
     3.4023   3.5459   3.7842   3.7856   4.0897   4.1736   4.2785   4.5134
     4.8194   5.0016   5.0026   5.0692   5.2166   5.2400   5.3823   5.3928
     5.5992   5.6579   6.1588   6.2968   6.6649   6.8110   7.2111   7.2837
     7.7538

          k = 0.4000-0.6928 0.0000 ( 43014 PWs)   bands (ev):

    -5.3680  -5.3281  -4.7380  -4.5487  -4.0840  -3.8088  -3.5560  -3.4887
    -3.4058  -3.3767  -3.2688  -3.2599  -3.1615  -3.1533  -3.0590  -3.0359
    -3.0185  -3.0015  -2.9924  -2.9784  -2.8494  -2.8301  -2.8181  -2.8019
    -2.7844  -2.7800  -2.6708  -2.5813  -2.5526  -2.4369  -2.4238  -2.4191
    -2.4061  -2.3805  -2.3271  -2.2843  -2.1870  -2.1830  -2.0838  -1.9943
    -1.9859  -1.9339  -1.8460  -1.8026  -1.7839  -1.7652  -1.6638  -1.6231
    -1.6002  -1.5679  -1.5553  -1.5148  -1.4915  -1.4513  -1.3882  -1.3862
    -1.3643  -1.3452  -1.3348  -1.3270  -1.2987  -1.2591  -1.2268  -1.1452
    -1.1227  -1.0748  -1.0357  -0.9713  -0.9147  -0.9083  -0.8991  -0.8490
    -0.8303  -0.8174  -0.7625  -0.7351  -0.7210  -0.6981  -0.6621  -0.6260
    -0.5859  -0.5567  -0.5287  -0.4866  -0.4816  -0.4712  -0.4207  -0.3510
    -0.3111  -0.3023  -0.2785  -0.2736  -0.2252  -0.2195  -0.2056  -0.1901
    -0.1755  -0.1653  -0.1340  -0.0984  -0.0851  -0.0770  -0.0665  -0.0597
    -0.0471  -0.0368  -0.0139   0.0378   0.0462   0.2330   0.2548   0.3393
     0.3588   0.4100   0.4552   0.4694   0.4911   0.5061   0.5522   0.5701
     0.5772   0.5832   0.6382   0.6884   0.7051   0.7435   0.7644   0.7752
     0.8361   0.8521   0.8773   0.9574   1.0518   1.1073   1.1103   1.1427
     1.1872   1.2146   1.2292   1.2440   1.2666   1.2680   1.2952   1.3050
     1.3952   1.4355   1.4396   1.4732   1.4861   1.5004   1.5255   1.5348
     1.5505   1.7029   1.7434   1.7696   1.8128   1.8750   1.9463   1.9594
     2.0285   2.0567   2.0730   2.0920   2.1578   2.1927   2.2548   2.2814
     2.2882   2.3037   2.3133   2.3325   2.3602   2.3944   2.4663   2.4720
     2.4929   2.5059   2.5189   2.5259   2.5330   2.5990   2.7108   2.7283
     2.7404   2.7423   2.7451   2.8078   2.8457   2.9213   3.0138   3.7916
     3.8958   3.9125   4.1044   4.1445   4.2654   4.2792   4.2986   4.6468
     4.8542   4.9116   5.1552   5.3495   5.3833   5.4341   5.5087   5.6932
     5.7491   5.8105   5.9067   6.1493   6.2530   6.3498   6.7903   6.9402
     6.9920

          k = 0.4000-0.4619 0.0000 ( 43014 PWs)   bands (ev):

    -5.3559  -5.3241  -4.7607  -4.4885  -4.0867  -3.8497  -3.5466  -3.4833
    -3.4089  -3.3737  -3.2646  -3.2536  -3.1594  -3.1544  -3.0583  -3.0337
    -3.0244  -2.9985  -2.9954  -2.9783  -2.8651  -2.8293  -2.8225  -2.7951
    -2.7794  -2.7638  -2.7105  -2.6196  -2.5664  -2.4666  -2.4322  -2.4261
    -2.4066  -2.3915  -2.3494  -2.2945  -2.1850  -2.1717  -2.1032  -1.9963
    -1.9850  -1.9142  -1.8472  -1.8234  -1.7912  -1.7404  -1.6631  -1.6219
    -1.5884  -1.5676  -1.5516  -1.5119  -1.5042  -1.4665  -1.3859  -1.3716
    -1.3512  -1.3463  -1.3377  -1.3321  -1.2761  -1.2626  -1.2455  -1.1372
    -1.1107  -1.0666  -1.0404  -0.9583  -0.9189  -0.9064  -0.8799  -0.8512
    -0.8253  -0.8098  -0.7469  -0.7400  -0.7169  -0.6961  -0.6620  -0.6091
    -0.5975  -0.5503  -0.5109  -0.4887  -0.4833  -0.4752  -0.4036  -0.3469
    -0.3048  -0.2968  -0.2784  -0.2464  -0.2279  -0.2231  -0.2147  -0.1818
    -0.1724  -0.1531  -0.1373  -0.1000  -0.0820  -0.0729  -0.0637  -0.0572
    -0.0512  -0.0318   0.0097   0.0273   0.0484   0.2170   0.2638   0.3349
     0.3502   0.3852   0.4494   0.4717   0.4860   0.5096   0.5500   0.5646
     0.5678   0.5809   0.6384   0.6837   0.7028   0.7198   0.7704   0.7813
     0.8407   0.8539   0.8987   1.0247   1.0418   1.0978   1.1189   1.1376
     1.1779   1.2087   1.2337   1.2536   1.2611   1.2742   1.2941   1.3042
     1.3985   1.4248   1.4340   1.4658   1.4928   1.5109   1.5302   1.5447
     1.5510   1.6863   1.7219   1.7730   1.8419   1.8621   1.9458   1.9581
     1.9958   2.0633   2.0780   2.0897   2.1716   2.1776   2.2557   2.2732
     2.3010   2.3071   2.3127   2.3427   2.3584   2.3970   2.4669   2.4707
     2.4905   2.5057   2.5204   2.5241   2.5326   2.5993   2.6987   2.7322
     2.7363   2.7457   2.7512   2.8099   2.8495   2.9333   3.0507   3.7502
     3.8976   3.9143   4.0864   4.1536   4.2240   4.2798   4.2918   4.6305
     4.8755   4.9061   5.0986   5.3562   5.3732   5.4641   5.4959   5.6560
     5.7702   5.8439   5.8881   6.1604   6.2974   6.3298   6.7731   6.9685
     6.9871

     the Fermi energy is     2.5126 ev

!    total energy              =  -27755.48691094 Ry
     total all-electron energy =  -1326642.252328 Ry
     estimated scf accuracy    <       0.00000091 Ry
     smearing contrib. (-TS)   =       0.00320320 Ry
     internal energy E=F+TS    =  -27755.49011414 Ry

     The total energy is F=E-TS. E is the sum of the following terms:
     one-electron contribution =  -20680.44700420 Ry
     hartree contribution      =   10647.36765188 Ry
     xc contribution           =    -890.71725424 Ry
     ewald contribution        =    8642.28719743 Ry
     one-center paw contrib.   =  -25473.98070501 Ry

     convergence has been achieved in  16 iterations

     negative rho (up, down):  3.154E-03 0.000E+00

     Forces acting on atoms (cartesian axes, Ry/au):

     atom    1 type  1   force =    -0.00010300   -0.00006890   -0.00313784
     atom    2 type  1   force =     0.00025595   -0.00002091   -0.00304378
     atom    3 type  1   force =    -0.00006056    0.00097143   -0.00372729
     atom    4 type  1   force =     0.00011263    0.00021912   -0.00303703
     atom    5 type  1   force =    -0.00014510   -0.00008052   -0.00349225
     atom    6 type  1   force =    -0.00012742   -0.00016459   -0.00349185
     atom    7 type  1   force =     0.00082274   -0.00057227   -0.00373408
     atom    8 type  1   force =    -0.00021111   -0.00005864   -0.00349975
     atom    9 type  1   force =     0.00017002    0.00007563   -0.00287863
     atom   10 type  1   force =     0.00011842    0.00010134    0.00624655
     atom   11 type  1   force =    -0.00040159   -0.00129356    0.00417579
     atom   12 type  1   force =     0.00015962   -0.00025572    0.00177410
     atom   13 type  1   force =    -0.00134868    0.00033981    0.00416204
     atom   14 type  1   force =    -0.00008065   -0.00002434    0.00213867
     atom   15 type  1   force =     0.00103180    0.00022246    0.00489587
     atom   16 type  1   force =    -0.00017349    0.00028863    0.00175391
     atom   17 type  1   force =     0.00068680    0.00081110    0.00490459
     atom   18 type  1   force =    -0.00018053   -0.00008934    0.00021004
     atom   19 type  1   force =     0.00000704    0.00000062   -0.00002370
     atom   20 type  1   force =    -0.00004986   -0.00002914    0.00001631
     atom   21 type  1   force =    -0.00008375    0.00001552   -0.00002177
     atom   22 type  1   force =    -0.00000177    0.00002800   -0.00005375
     atom   23 type  1   force =    -0.00003043   -0.00008459   -0.00002600
     atom   24 type  1   force =     0.00004266    0.00002122   -0.00004762
     atom   25 type  1   force =     0.00004907    0.00002386   -0.00003744
     atom   26 type  1   force =     0.00000960   -0.00000287   -0.00002174
     atom   27 type  1   force =     0.00002625   -0.00001443   -0.00005150
     atom   28 type  1   force =     0.00008144    0.00004848    0.00007503
     atom   29 type  1   force =    -0.00005376   -0.00003940    0.00010963
     atom   30 type  1   force =     0.00000412    0.00004956   -0.00007006
     atom   31 type  1   force =    -0.00004236   -0.00002412    0.00011066
     atom   32 type  1   force =    -0.00004652   -0.00003373    0.00011793
     atom   33 type  1   force =    -0.00004005   -0.00010697   -0.00010190
     atom   34 type  1   force =     0.00006412   -0.00002632   -0.00006415
     atom   35 type  1   force =    -0.00010476    0.00000613   -0.00010578
     atom   36 type  1   force =     0.00004446    0.00001511   -0.00004344
     atom   37 type  2   force =    -0.00040137   -0.00024765    0.00002024
     The non-local contrib.  to forces
     atom    1 type  1   force =    -0.00006430   -0.00003119   -0.01773158
     atom    2 type  1   force =    -0.00061975    0.00053240   -0.01835705
     atom    3 type  1   force =     0.00088674   -0.00096491   -0.01863513
     atom    4 type  1   force =     0.00014276   -0.00079961   -0.01835168
     atom    5 type  1   force =    -0.00011272   -0.00004966   -0.01776212
     atom    6 type  1   force =    -0.00011736    0.00021568   -0.01819585
     atom    7 type  1   force =    -0.00038843    0.00124071   -0.01864846
     atom    8 type  1   force =     0.00011266   -0.00022200   -0.01820485
     atom    9 type  1   force =    -0.00014349   -0.00009081   -0.01880098
     atom   10 type  1   force =    -0.00031724   -0.00014402    0.00008370
     atom   11 type  1   force =    -0.00077106    0.00058871    0.00065471
     atom   12 type  1   force =     0.00128262    0.00090831   -0.00037240
     atom   13 type  1   force =     0.00009396   -0.00091094    0.00064843
     atom   14 type  1   force =     0.00025803    0.00018095   -0.00099653
     atom   15 type  1   force =    -0.00061498   -0.00034823    0.00011459
     atom   16 type  1   force =     0.00139217    0.00068287   -0.00038607
     atom   17 type  1   force =    -0.00063403   -0.00032325    0.00012133
     atom   18 type  1   force =    -0.00159830   -0.00090917    0.00002581
     atom   19 type  1   force =    -0.00264110   -0.00071387    0.00139708
     atom   20 type  1   force =     0.00114237    0.00066192    0.00526179
     atom   21 type  1   force =     0.00099741    0.00095735    0.00217994
     atom   22 type  1   force =     0.00100262    0.00356356   -0.00159414
     atom   23 type  1   force =     0.00131615    0.00039206    0.00217662
     atom   24 type  1   force =    -0.00138647   -0.00079657    0.00279000
     atom   25 type  1   force =     0.00055930    0.00031923    0.00376625
     atom   26 type  1   force =    -0.00194110   -0.00193432    0.00139835
     atom   27 type  1   force =     0.00359657   -0.00092004   -0.00159654
     atom   28 type  1   force =     0.03494246    0.02014565    0.03072288
     atom   29 type  1   force =    -0.01757626    0.01939061   -0.00633115
     atom   30 type  1   force =     0.00096555   -0.00027968    0.01537313
     atom   31 type  1   force =     0.00805872   -0.02493317   -0.00634001
     atom   32 type  1   force =    -0.01590074   -0.00921634    0.02385565
     atom   33 type  1   force =     0.00033376   -0.00033149    0.01645039
     atom   34 type  1   force =     0.00028659    0.00093590    0.01535988
     atom   35 type  1   force =    -0.00009219    0.00040329    0.01644317
     atom   36 type  1   force =    -0.00051559   -0.00033332    0.01673115
     atom   37 type  2   force =     0.00342335    0.00197816   -0.02272496
     The ionic contribution  to forces
     atom    1 type  1   force =     0.00733136    0.00424593  -93.41510161
     atom    2 type  1   force =     0.00074061    0.00442657  -93.40124690
     atom    3 type  1   force =    -0.00814384   -0.00500667  -93.41512225
     atom    4 type  1   force =     0.00419354   -0.00159734  -93.40128440
     atom    5 type  1   force =    -0.01148670   -0.00666932  -93.41463104
     atom    6 type  1   force =     0.00731485   -0.00034044  -93.42250494
     atom    7 type  1   force =    -0.00842478   -0.00451900  -93.41518517
     atom    8 type  1   force =     0.00339688    0.00651403  -93.42253034
     atom    9 type  1   force =     0.00505210    0.00293885  -93.40685060
     atom   10 type  1   force =     0.04412076    0.02566020  -31.47957242
     atom   11 type  1   force =    -0.08280863   -0.02241414  -31.49277112
     atom   12 type  1   force =     0.04540146    0.01004130  -31.57561510
     atom   13 type  1   force =    -0.06108007   -0.06028280  -31.49311610
     atom   14 type  1   force =    -0.00681412   -0.00390259  -31.61426298
     atom   15 type  1   force =     0.06417254    0.00306552  -31.53409916
     atom   16 type  1   force =     0.03122450    0.03512372  -31.57592845
     atom   17 type  1   force =     0.03452272    0.05463155  -31.53392558
     atom   18 type  1   force =    -0.07804156   -0.04454607  -31.47391251
     atom   19 type  1   force =     0.13840872   -0.00654277   31.21981330
     atom   20 type  1   force =    -0.08874283   -0.05176872   31.51639687
     atom   21 type  1   force =    -0.03930619   -0.05713919   30.74009096
     atom   22 type  1   force =     0.01088684    0.00685043   31.19067586
     atom   23 type  1   force =    -0.06881778   -0.00580893   30.73825407
     atom   24 type  1   force =     0.05103437    0.02963394   30.83450394
     atom   25 type  1   force =    -0.05334782   -0.03012609   30.65194956
     atom   26 type  1   force =     0.06406717    0.12341750   31.22030227
     atom   27 type  1   force =     0.01157750    0.00653631   31.19087706
     atom   28 type  1   force =     0.01154712    0.00630574   92.22704008
     atom   29 type  1   force =     0.39718742   -0.68058851   92.81651274
     atom   30 type  1   force =     0.03619644    0.01119226   92.64195531
     atom   31 type  1   force =    -0.39010532    0.68382765   92.81649759
     atom   32 type  1   force =     0.01625837    0.00819416   92.30998992
     atom   33 type  1   force =     0.04177425   -0.02129620   92.62637855
     atom   34 type  1   force =     0.02770712    0.02572009   92.64051421
     atom   35 type  1   force =     0.00348498    0.04698399   92.62590262
     atom   36 type  1   force =    -0.02172509   -0.01256645   92.59835749
     atom   37 type  2   force =    -0.13875688   -0.08019449   11.88164826
     The local contribution  to forces
     atom    1 type  1   force =    -0.00739498   -0.00429261   93.41253317
     atom    2 type  1   force =     0.00016166   -0.00503131   93.39942277
     atom    3 type  1   force =     0.00721199    0.00693816   93.41282518
     atom    4 type  1   force =    -0.00426048    0.00262029   93.39944848
     atom    5 type  1   force =     0.01153099    0.00662866   93.41177867
     atom    6 type  1   force =    -0.00733114    0.00001644   93.42009650
     atom    7 type  1   force =     0.00962881    0.00276914   93.41287281
     atom    8 type  1   force =    -0.00362724   -0.00636214   93.42011548
     atom    9 type  1   force =    -0.00470934   -0.00271489   93.40570222
     atom   10 type  1   force =    -0.04354979   -0.02536161   31.48554505
     atom   11 type  1   force =     0.08314163    0.02044708   31.49609228
     atom   12 type  1   force =    -0.04660881   -0.01119448   31.57716583
     atom   13 type  1   force =     0.05954818    0.06150003   31.49644814
     atom   14 type  1   force =     0.00644488    0.00363803   31.61676878
     atom   15 type  1   force =    -0.06245488   -0.00245711   31.53845512
     atom   16 type  1   force =    -0.03279918   -0.03553632   31.57747133
     atom   17 type  1   force =    -0.03312036   -0.05341787   31.53826459
     atom   18 type  1   force =     0.07930063    0.04532285   31.47407221
     atom   19 type  1   force =    -0.13560240    0.00726383  -31.21811256
     atom   20 type  1   force =     0.08759372    0.05107333  -31.51842395
     atom   21 type  1   force =     0.03812867    0.05608643  -30.73964902
     atom   22 type  1   force =    -0.01176778   -0.01020228  -31.18644079
     atom   23 type  1   force =     0.06734393    0.00527453  -30.73780665
     atom   24 type  1   force =    -0.04962963   -0.02884854  -30.83472520
     atom   25 type  1   force =     0.05249630    0.02967455  -30.65323231
     atom   26 type  1   force =    -0.06200752   -0.12131583  -31.21860849
     atom   27 type  1   force =    -0.01491505   -0.00557867  -31.18665116
     atom   28 type  1   force =    -0.04583510   -0.02605798  -92.24195752
     atom   29 type  1   force =    -0.37507762    0.65471523  -92.79995401
     atom   30 type  1   force =    -0.03746009   -0.01068663  -92.64082024
     atom   31 type  1   force =     0.37870398   -0.65173279  -92.79992818
     atom   32 type  1   force =    -0.00117510    0.00049584  -92.31752880
     atom   33 type  1   force =    -0.04164520    0.02141574  -92.62634704
     atom   34 type  1   force =    -0.02796418   -0.02701370  -92.63934357
     atom   35 type  1   force =    -0.00330162   -0.04688827  -92.62585746
     atom   36 type  1   force =     0.02219623    0.01286037  -92.59840918
     atom   37 type  2   force =     0.13493619    0.07796715  -11.85904971
     The core correction contribution to forces
     atom    1 type  1   force =    -0.00002759   -0.00001576    0.01728922
     atom    2 type  1   force =     0.00002739   -0.00002075    0.01725988
     atom    3 type  1   force =    -0.00001490   -0.00000422    0.01739847
     atom    4 type  1   force =    -0.00000425    0.00003485    0.01725992
     atom    5 type  1   force =    -0.00000605   -0.00000318    0.01730349
     atom    6 type  1   force =    -0.00002391   -0.00003918    0.01726785
     atom    7 type  1   force =    -0.00001157   -0.00001036    0.01739802
     atom    8 type  1   force =    -0.00004583   -0.00000057    0.01726781
     atom    9 type  1   force =    -0.00005597   -0.00003217    0.01720904
     atom   10 type  1   force =    -0.00010613   -0.00006226    0.00097924
     atom   11 type  1   force =     0.00013860    0.00009505    0.00104791
     atom   12 type  1   force =    -0.00004812   -0.00003058    0.00138295
     atom   13 type  1   force =     0.00015302    0.00007088    0.00104866
     atom   14 type  1   force =     0.00001150    0.00000620    0.00143987
     atom   15 type  1   force =    -0.00011457    0.00002683    0.00117560
     atom   16 type  1   force =    -0.00004979   -0.00002905    0.00138408
     atom   17 type  1   force =    -0.00003268   -0.00011439    0.00117554
     atom   18 type  1   force =     0.00016923    0.00009574    0.00081215
     atom   19 type  1   force =    -0.00022948    0.00001102   -0.00240354
     atom   20 type  1   force =     0.00011599    0.00006757   -0.00249339
     atom   21 type  1   force =     0.00000839    0.00010567   -0.00193397
     atom   22 type  1   force =    -0.00005571   -0.00014333   -0.00196899
     atom   23 type  1   force =     0.00009654   -0.00004595   -0.00193361
     atom   24 type  1   force =    -0.00001103   -0.00000755   -0.00188349
     atom   25 type  1   force =     0.00025973    0.00014804   -0.00182799
     atom   26 type  1   force =    -0.00010544   -0.00020584   -0.00240310
     atom   27 type  1   force =    -0.00015311    0.00002143   -0.00196838
     atom   28 type  1   force =    -0.00067831   -0.00039110   -0.01564254
     atom   29 type  1   force =    -0.00446867    0.00641065   -0.01015639
     atom   30 type  1   force =     0.00028996   -0.00014632   -0.01655590
     atom   31 type  1   force =     0.00331570   -0.00707466   -0.01015733
     atom   32 type  1   force =     0.00085251    0.00049647   -0.01619521
     atom   33 type  1   force =    -0.00060259    0.00012659   -0.01650249
     atom   34 type  1   force =     0.00001901    0.00032434   -0.01655646
     atom   35 type  1   force =    -0.00019515   -0.00058585   -0.01650276
     atom   36 type  1   force =     0.00009920    0.00005776   -0.01663184
     atom   37 type  2   force =     0.00000000    0.00000000    0.00000000
     The Hubbard contrib.    to forces
     atom    1 type  1   force =     0.00000000    0.00000000    0.00000000
     atom    2 type  1   force =     0.00000000    0.00000000    0.00000000
     atom    3 type  1   force =     0.00000000    0.00000000    0.00000000
     atom    4 type  1   force =     0.00000000    0.00000000    0.00000000
     atom    5 type  1   force =     0.00000000    0.00000000    0.00000000
     atom    6 type  1   force =     0.00000000    0.00000000    0.00000000
     atom    7 type  1   force =     0.00000000    0.00000000    0.00000000
     atom    8 type  1   force =     0.00000000    0.00000000    0.00000000
     atom    9 type  1   force =     0.00000000    0.00000000    0.00000000
     atom   10 type  1   force =     0.00000000    0.00000000    0.00000000
     atom   11 type  1   force =     0.00000000    0.00000000    0.00000000
     atom   12 type  1   force =     0.00000000    0.00000000    0.00000000
     atom   13 type  1   force =     0.00000000    0.00000000    0.00000000
     atom   14 type  1   force =     0.00000000    0.00000000    0.00000000
     atom   15 type  1   force =     0.00000000    0.00000000    0.00000000
     atom   16 type  1   force =     0.00000000    0.00000000    0.00000000
     atom   17 type  1   force =     0.00000000    0.00000000    0.00000000
     atom   18 type  1   force =     0.00000000    0.00000000    0.00000000
     atom   19 type  1   force =     0.00000000    0.00000000    0.00000000
     atom   20 type  1   force =     0.00000000    0.00000000    0.00000000
     atom   21 type  1   force =     0.00000000    0.00000000    0.00000000
     atom   22 type  1   force =     0.00000000    0.00000000    0.00000000
     atom   23 type  1   force =     0.00000000    0.00000000    0.00000000
     atom   24 type  1   force =     0.00000000    0.00000000    0.00000000
     atom   25 type  1   force =     0.00000000    0.00000000    0.00000000
     atom   26 type  1   force =     0.00000000    0.00000000    0.00000000
     atom   27 type  1   force =     0.00000000    0.00000000    0.00000000
     atom   28 type  1   force =     0.00000000    0.00000000    0.00000000
     atom   29 type  1   force =     0.00000000    0.00000000    0.00000000
     atom   30 type  1   force =     0.00000000    0.00000000    0.00000000
     atom   31 type  1   force =     0.00000000    0.00000000    0.00000000
     atom   32 type  1   force =     0.00000000    0.00000000    0.00000000
     atom   33 type  1   force =     0.00000000    0.00000000    0.00000000
     atom   34 type  1   force =     0.00000000    0.00000000    0.00000000
     atom   35 type  1   force =     0.00000000    0.00000000    0.00000000
     atom   36 type  1   force =     0.00000000    0.00000000    0.00000000
     atom   37 type  2   force =     0.00000000    0.00000000    0.00000000
     The SCF correction term to forces
     atom    1 type  1   force =     0.00000000    0.00000000   -0.00000000
     atom    2 type  1   force =    -0.00000000    0.00000000   -0.00000000
     atom    3 type  1   force =    -0.00000000    0.00000000   -0.00000000
     atom    4 type  1   force =     0.00000000   -0.00000000   -0.00000000
     atom    5 type  1   force =    -0.00000000    0.00000000   -0.00000000
     atom    6 type  1   force =     0.00000000   -0.00000000   -0.00000000
     atom    7 type  1   force =     0.00000000   -0.00000000   -0.00000000
     atom    8 type  1   force =    -0.00000000    0.00000000   -0.00000000
     atom    9 type  1   force =     0.00000000   -0.00000000   -0.00000000
     atom   10 type  1   force =    -0.00000000    0.00000000   -0.00000000
     atom   11 type  1   force =    -0.00000000   -0.00000000   -0.00000000
     atom   12 type  1   force =     0.00000000    0.00000000   -0.00000000
     atom   13 type  1   force =    -0.00000000   -0.00000000   -0.00000000
     atom   14 type  1   force =     0.00000000    0.00000000   -0.00000000
     atom   15 type  1   force =     0.00000000   -0.00000000   -0.00000000
     atom   16 type  1   force =     0.00000000    0.00000000   -0.00000000
     atom   17 type  1   force =    -0.00000000    0.00000000   -0.00000000
     atom   18 type  1   force =    -0.00000000   -0.00000000   -0.00000000
     atom   19 type  1   force =     0.00007123   -0.00001765   -0.00085512
     atom   20 type  1   force =    -0.00015920   -0.00006331   -0.00086216
     atom   21 type  1   force =     0.00008789    0.00000519   -0.00084683
     atom   22 type  1   force =    -0.00006783   -0.00004044   -0.00086283
     atom   23 type  1   force =     0.00003064    0.00010364   -0.00085357
     atom   24 type  1   force =     0.00003533    0.00003988   -0.00087001
     atom   25 type  1   force =     0.00008148    0.00000806   -0.00083009
     atom   26 type  1   force =    -0.00000359    0.00003555   -0.00084791
     atom   27 type  1   force =    -0.00007975   -0.00007353   -0.00084963
     atom   28 type  1   force =     0.00010519    0.00004610   -0.00022501
     atom   29 type  1   force =    -0.00011871    0.00003256   -0.00009871
     atom   30 type  1   force =     0.00001218   -0.00003013   -0.00015951
     atom   31 type  1   force =    -0.00001552   -0.00011122   -0.00009856
     atom   32 type  1   force =    -0.00008164   -0.00000393   -0.00014078
     atom   33 type  1   force =     0.00009964   -0.00002168   -0.00021846
     atom   34 type  1   force =     0.00001549    0.00000699   -0.00017536
     atom   35 type  1   force =    -0.00000086    0.00009290   -0.00022850
     atom   36 type  1   force =    -0.00001038   -0.00000332   -0.00022820
     atom   37 type  2   force =    -0.00000410    0.00000147    0.00000950

     Total force =     0.000624     Total SCF correction =     0.002646
     SCF correction compared to forces is large: reduce conv_thr to get better values

     Writing all to output data dir ./pwscf.save/

     init_run     :     10.32s CPU     10.65s WALL (       1 calls)
     electrons    :    350.47s CPU    368.40s WALL (       1 calls)
     forces       :      4.76s CPU      5.76s WALL (       1 calls)

     Called by init_run:
     wfcinit      :      5.87s CPU      6.05s WALL (       1 calls)
     potinit      :      3.03s CPU      3.11s WALL (       1 calls)
     hinit0       :      0.84s CPU      0.85s WALL (       1 calls)

     Called by electrons:
     c_bands      :    299.25s CPU    310.19s WALL (      17 calls)
     sum_band     :     31.74s CPU     34.25s WALL (      17 calls)
     v_of_rho     :     10.31s CPU     12.42s WALL (      17 calls)
     newd         :      3.19s CPU      4.65s WALL (      17 calls)
     PAW_pot      :      3.87s CPU      3.99s WALL (      17 calls)
     mix_rho      :      4.11s CPU      4.69s WALL (      17 calls)
     vdW_kernel   :      1.69s CPU      1.70s WALL (       1 calls)

     Called by c_bands:
     init_us_2    :      2.25s CPU      2.51s WALL (     468 calls)
     init_us_2:cp :      2.25s CPU      2.51s WALL (     468 calls)
     cegterg      :    292.76s CPU    303.09s WALL (     221 calls)

     Called by *egterg:
     cdiaghg      :     64.01s CPU     66.22s WALL (    1152 calls)
     h_psi        :    132.71s CPU    136.86s WALL (    1178 calls)
     s_psi        :     17.31s CPU     17.51s WALL (    1178 calls)
     g_psi        :      0.90s CPU      0.92s WALL (     944 calls)

     Called by h_psi:
     h_psi:calbec :     21.42s CPU     22.66s WALL (    1178 calls)
     vloc_psi     :     90.79s CPU     93.05s WALL (    1178 calls)
     add_vuspsi   :     18.56s CPU     18.98s WALL (    1178 calls)

     General routines
     calbec       :     30.50s CPU     32.12s WALL (    1451 calls)
     fft          :      7.34s CPU      9.28s WALL (    1131 calls)
     ffts         :      2.17s CPU      2.60s WALL (    4019 calls)
     fftw         :     91.02s CPU     93.64s WALL (  290457 calls)
     interpolate  :      0.61s CPU      0.65s WALL (      17 calls)

     Parallel routines

     PWSCF        :   6m10.64s CPU   6m32.73s WALL


   This run was terminated on:  21:54:58  22Feb2025            

=------------------------------------------------------------------------------=
   JOB DONE.
=------------------------------------------------------------------------------=
