
     Program PWSCF v.7.1 starts on 27Jan2025 at 12: 4:33 
        Git branch: heads/qe-7.1
        Last git commit: 48ba0178f8fede6d020eb786884699a9f063f55d-dirty
        Last git commit date: Fri Jan 27 14:22:33 2023 +0000
        Last git commit subject: Merge branch 'fix_hubbard' into 'develop'

     This program is part of the open-source Quantum ESPRESSO suite
     for quantum simulation of materials; please cite
         "P. Giannozzi et al., J. Phys.:Condens. Matter 21 395502 (2009);
         "P. Giannozzi et al., J. Phys.:Condens. Matter 29 465901 (2017);
         "P. Giannozzi et al., J. Chem. Phys. 152 154105 (2020);
          URL http://www.quantum-espresso.org", 
     in publications or presentations arising from this work. More details at
     http://www.quantum-espresso.org/quote

     Parallel version (MPI), running on    48 processors

     MPI processes distributed on     1 nodes
     278458 MiB available memory on the printing compute node when the environment starts

     Reading input from espresso.pwi
Warning: card &CELL ignored
Warning: card / ignored
Warning: card &FCP ignored
Warning: card / ignored
Warning: card &RISM ignored
Warning: card / ignored

     Current dimensions of program PWSCF are:
     Max number of different atomic species (ntypx) = 10
     Max number of k-points (npk) =  40000
     Max angular momentum in pseudopotentials (lmaxx) =  4
     file Pt.pbe-n-kjpaw_psl.1.0.0.UPF: wavefunction(s)  6S 5D renormalized
     file H.pbe-kjpaw_psl.1.0.0.UPF: wavefunction(s)  1S renormalized

     **************************************************************************
     Initializing libbeef V0.1.2 with the BEEF-vdW functional.
     Citation: Wellendorff et al., PRB 85, 235149 (2012).
     **************************************************************************


     IMPORTANT: XC functional enforced from input :
     Exchange-correlation= BEEF-VDW
                           (   1   4  43  14   2   0   0)
     Any further DFT definition will be discarded
     Please, verify this is what you really want


     R & G space division:  proc/nbgrp/npool/nimage =      48
     Subspace diagonalization in iterative solution of the eigenvalue problem:
     one sub-group per band group will be used
     custom distributed-memory algorithm (size of sub-group:  2*  2 procs)


     Parallelization info
     --------------------
     sticks:   dense  smooth     PW     G-vecs:    dense   smooth      PW
     Min         150      59     16                30552     7447    1068
     Max         151      60     17                30571     7456    1081
     Sum        7243    2839    769              1467143   357639   51591

     Using Slab Decomposition



     bravais-lattice index     =            0
     lattice parameter (alat)  =      16.0028  a.u.
     unit-cell volume          =   10463.1828 (a.u.)^3
     number of atoms/cell      =           37
     number of atomic types    =            2
     number of electrons       =       361.00
     number of Kohn-Sham states=          217
     kinetic-energy cutoff     =      40.0000  Ry
     charge density cutoff     =     410.0000  Ry
     scf convergence threshold =      1.0E-06
     mixing beta               =       0.7000
     number of iterations used =            8  local-TF  mixing
     Exchange-correlation= BEEF-VDW
                           (   1   4  43  14   2   0   0)

     celldm(1)=  16.002787  celldm(2)=   0.000000  celldm(3)=   0.000000
     celldm(4)=   0.000000  celldm(5)=   0.000000  celldm(6)=   0.000000

     crystal axes: (cart. coord. in units of alat)
               a(1) = (   1.000000   0.000000   0.000000 )  
               a(2) = (   0.500000   0.866025   0.000000 )  
               a(3) = (   0.000000   0.000000   2.948128 )  

     reciprocal axes: (cart. coord. in units 2 pi/alat)
               b(1) = (  1.000000 -0.577350  0.000000 )  
               b(2) = (  0.000000  1.154701  0.000000 )  
               b(3) = (  0.000000  0.000000  0.339198 )  


     PseudoPot. # 1 for Pt read from file:
     /users/kbadger1/espresso/pseudo/pslibrary.1.0.0/pbe/PSEUDOPOTENTIALS/Pt.pbe-n-kjpaw_psl.1.0.0.UPF
     MD5 check sum: 2e24a0b5bf98a4ed1a57fa81bca8c143
     Pseudo is Projector augmented-wave + core cor, Zval = 10.0
     Generated using 'atomic' code by A. Dal Corso  v.7.0
     Shape of augmentation charge: PSQ
     Using radial grid of 1277 points,  6 beta functions with: 
                l(1) =   0
                l(2) =   0
                l(3) =   1
                l(4) =   1
                l(5) =   2
                l(6) =   2
     Q(r) pseudized with 0 coefficients 


     PseudoPot. # 2 for H  read from file:
     /users/kbadger1/espresso/pseudo/pslibrary.1.0.0/pbe/PSEUDOPOTENTIALS/H.pbe-kjpaw_psl.1.0.0.UPF
     MD5 check sum: fe4c6fa958fa6d3815bf5d2419cbf1df
     Pseudo is Projector augmented-wave, Zval =  1.0
     Generated using 'atomic' code by A. Dal Corso  v.7.0
     Shape of augmentation charge: PSQ
     Using radial grid of  929 points,  2 beta functions with: 
                l(1) =   0
                l(2) =   0
     Q(r) pseudized with 0 coefficients 


     atomic species   valence    mass     pseudopotential
        Pt            10.00   195.08400     Pt( 1.00)
        H              1.00     1.00800     H ( 1.00)

     No symmetry found



   Cartesian axes

     site n.     atom                  positions (alat units)
         1           Pt  tau(   1) = (   0.0000000   0.0000000   1.0037422  )
         2           Pt  tau(   2) = (   0.3340014   0.0000000   1.0037422  )
         3           Pt  tau(   3) = (   0.6680027   0.0000000   1.0037422  )
         4           Pt  tau(   4) = (   0.1670007   0.2892537   1.0037422  )
         5           Pt  tau(   5) = (   0.5010021   0.2892537   1.0037422  )
         6           Pt  tau(   6) = (   0.8350034   0.2892537   1.0037422  )
         7           Pt  tau(   7) = (   0.3340014   0.5785073   1.0037422  )
         8           Pt  tau(   8) = (   0.6680027   0.5785073   1.0037422  )
         9           Pt  tau(   9) = (   1.0020041   0.5785073   1.0037422  )
        10           Pt  tau(  10) = (   0.1670007   0.0964179   1.2764532  )
        11           Pt  tau(  11) = (   0.5010021   0.0964179   1.2764532  )
        12           Pt  tau(  12) = (   0.8350034   0.0964179   1.2764532  )
        13           Pt  tau(  13) = (   0.3340014   0.3856716   1.2764532  )
        14           Pt  tau(  14) = (   0.6680027   0.3856716   1.2764532  )
        15           Pt  tau(  15) = (   1.0020041   0.3856716   1.2764532  )
        16           Pt  tau(  16) = (   0.5010021   0.6749252   1.2764532  )
        17           Pt  tau(  17) = (   0.8350034   0.6749252   1.2764532  )
        18           Pt  tau(  18) = (   1.1690048   0.6749252   1.2764532  )
        19           Pt  tau(  19) = (   0.0020540   0.1934939   1.5479122  )
        20           Pt  tau(  20) = (   0.3342192   0.1930229   1.5489348  )
        21           Pt  tau(  21) = (   0.6682952   0.1931637   1.5458229  )
        22           Pt  tau(  22) = (   0.1678710   0.4806479   1.5484621  )
        23           Pt  tau(  23) = (   0.5013791   0.4822727   1.5458112  )
        24           Pt  tau(  24) = (   0.8348897   0.4820781   1.5461067  )
        25           Pt  tau(  25) = (   0.3344045   0.7704724   1.5463254  )
        26           Pt  tau(  26) = (   0.6685452   0.7711458   1.5479210  )
        27           Pt  tau(  27) = (   1.0001442   0.7711607   1.5484687  )
        28           Pt  tau(  28) = (  -0.0020904  -0.0010858   1.8215585  )
        29           Pt  tau(  29) = (   0.3375555  -0.0002897   1.8307968  )
        30           Pt  tau(  30) = (   0.6685762   0.0012476   1.8221568  )
        31           Pt  tau(  31) = (   0.1684087   0.2926564   1.8307783  )
        32           Pt  tau(  32) = (   0.5051757   0.2918015   1.8208605  )
        33           Pt  tau(  33) = (   0.8348976   0.2901069   1.8217169  )
        34           Pt  tau(  34) = (   0.3352569   0.5785676   1.8221367  )
        35           Pt  tau(  35) = (   0.6685824   0.5781688   1.8217139  )
        36           Pt  tau(  36) = (   1.0017786   0.5784930   1.8222891  )
        37           H   tau(  37) = (   0.2303706   0.1331398   1.9494172  )

     number of k points=    13  Marzari-Vanderbilt smearing, width (Ry)=  0.0200
                       cart. coord. in units 2pi/alat
        k(    1) = (   0.0000000   0.0000000   0.0000000), wk =   0.0800000
        k(    2) = (   0.0000000   0.2309401   0.0000000), wk =   0.1600000
        k(    3) = (   0.0000000   0.4618802   0.0000000), wk =   0.1600000
        k(    4) = (   0.2000000  -0.1154701   0.0000000), wk =   0.1600000
        k(    5) = (   0.2000000   0.1154701   0.0000000), wk =   0.1600000
        k(    6) = (   0.2000000   0.3464102   0.0000000), wk =   0.1600000
        k(    7) = (   0.2000000  -0.5773503   0.0000000), wk =   0.1600000
        k(    8) = (   0.2000000  -0.3464102   0.0000000), wk =   0.1600000
        k(    9) = (   0.4000000  -0.2309401   0.0000000), wk =   0.1600000
        k(   10) = (   0.4000000   0.0000000   0.0000000), wk =   0.1600000
        k(   11) = (   0.4000000   0.2309401   0.0000000), wk =   0.1600000
        k(   12) = (   0.4000000  -0.6928203   0.0000000), wk =   0.1600000
        k(   13) = (   0.4000000  -0.4618802   0.0000000), wk =   0.1600000

     Dense  grid:  1467143 G-vectors     FFT dimensions: ( 108, 108, 320)

     Smooth grid:   357639 G-vectors     FFT dimensions: (  72,  72, 192)

     Estimated max dynamical RAM per process >     211.30 MB

     Estimated total dynamical RAM >       9.90 GB

     Initial potential from superposition of free atoms

     starting charge     360.9939, renormalised to     361.0000

     negative rho (up, down):  3.560E-03 0.000E+00


     %%%%%%%%%%%%%%%%%%%%%%%%%%%%%%%%%%%%%%%%%%%%%%%%%%%%%%%%%%%%%%%%%%%%%%%%
     %                                                                      %
     % You are using vdW-DF, which was implemented by the Thonhauser group. %
     % Please cite the following two papers that made this development      %
     % possible and the two reviews that describe the various versions:     %
     %                                                                      %
     %   T. Thonhauser et al., PRL 115, 136402 (2015).                      %
     %   T. Thonhauser et al., PRB 76, 125112 (2007).                       %
     %   K. Berland et al., Rep. Prog. Phys. 78, 066501 (2015).             %
     %   D.C. Langreth et al., J. Phys.: Condens. Matter 21, 084203 (2009). %
     %                                                                      %
     % If you are calculating stress with vdW-DF, please also cite:         %
     %                                                                      %
     %   R. Sabatini et al., J. Phys.: Condens. Matter 24, 424209 (2012).   %
     %                                                                      %
     %%%%%%%%%%%%%%%%%%%%%%%%%%%%%%%%%%%%%%%%%%%%%%%%%%%%%%%%%%%%%%%%%%%%%%%%

     %%%%%%%%%%%%%%%%%%%%%%%%%%%%%%%%%%%%%%%%%%%%%%%%%%%%%%%%%%%%%%%%%%%%%%%%
     %                                                                      %
     %  vdW-DF NEWS:                                                        %
     %                                                                      %
     %  * vdW-DF3 is now available. DOI: 10.1021/acs.jctc.0c00471           %
     %    use with input_dft = 'vdW-DF3-opt1' or 'vdW-DF3-opt2'             %
     %                                                                      %
     %  * Unscreened and range-separated hybrid vdW-DF-cx functionals       %
     %    DOI: 10.1063/1.4986522 and 10.1088/1361-648X/ac2ad2               %
     %    use with input_dft = 'vdW-DF-cx0'    and 'vdW-DF-ahcx'            %
     %  * Unscreened and range-separated hybrid vdW-DF2-b86r functionals    %
     %    DOI: 10.1063/1.4986522 and DOI: 10.1103/PhysRevX.12.041003        %
     %    use with input_dft = 'vdW-DF2-br0' and 'vdW-DF2-ahbr'             %
     %                                                                      %
     %%%%%%%%%%%%%%%%%%%%%%%%%%%%%%%%%%%%%%%%%%%%%%%%%%%%%%%%%%%%%%%%%%%%%%%%


     Starting wfcs are  325 randomized atomic wfcs
     Checking if some PAW data can be deallocated... 

     total cpu time spent up to now is       10.7 secs

     per-process dynamical memory:   208.7 Mb

     Self-consistent Calculation

     iteration #  1     ecut=    40.00 Ry     beta= 0.70
     Davidson diagonalization with overlap
     ethr =  1.00E-02,  avg # of iterations =  2.0

     Threshold (ethr) on eigenvalues was too large:
     Diagonalizing with lowered threshold

     Davidson diagonalization with overlap
     ethr =  3.74E-04,  avg # of iterations =  3.8

     negative rho (up, down):  1.797E-02 0.000E+00

     total cpu time spent up to now is       45.6 secs

     total energy              =  -27755.29369994 Ry
     estimated scf accuracy    <       1.55393500 Ry

     iteration #  2     ecut=    40.00 Ry     beta= 0.70
     Davidson diagonalization with overlap
     ethr =  4.30E-04,  avg # of iterations =  2.0

     negative rho (up, down):  1.625E-02 0.000E+00

     total cpu time spent up to now is       61.5 secs

     total energy              =  -27755.39188397 Ry
     estimated scf accuracy    <       0.77349647 Ry

     iteration #  3     ecut=    40.00 Ry     beta= 0.70
     Davidson diagonalization with overlap
     ethr =  2.14E-04,  avg # of iterations =  2.0

     negative rho (up, down):  1.100E-02 0.000E+00

     total cpu time spent up to now is       74.0 secs

     total energy              =  -27755.44432675 Ry
     estimated scf accuracy    <       0.09142063 Ry

     iteration #  4     ecut=    40.00 Ry     beta= 0.70
     Davidson diagonalization with overlap
     c_bands:  2 eigenvalues not converged
     c_bands:  1 eigenvalues not converged
     c_bands:  1 eigenvalues not converged
     ethr =  2.53E-05,  avg # of iterations = 15.2

     negative rho (up, down):  8.124E-03 0.000E+00

     total cpu time spent up to now is      114.0 secs

     total energy              =  -27755.49231814 Ry
     estimated scf accuracy    <       0.07334671 Ry

     iteration #  5     ecut=    40.00 Ry     beta= 0.70
     Davidson diagonalization with overlap
     c_bands:  1 eigenvalues not converged
     ethr =  2.03E-05,  avg # of iterations =  4.9

     negative rho (up, down):  4.027E-03 0.000E+00

     total cpu time spent up to now is      127.9 secs

     total energy              =  -27755.49239849 Ry
     estimated scf accuracy    <       0.02765544 Ry

     iteration #  6     ecut=    40.00 Ry     beta= 0.70
     Davidson diagonalization with overlap
     c_bands:  2 eigenvalues not converged
     c_bands:  2 eigenvalues not converged
     ethr =  7.66E-06,  avg # of iterations =  7.2

     negative rho (up, down):  2.172E-03 0.000E+00

     total cpu time spent up to now is      147.7 secs

     total energy              =  -27755.49439692 Ry
     estimated scf accuracy    <       0.00248938 Ry

     iteration #  7     ecut=    40.00 Ry     beta= 0.70
     Davidson diagonalization with overlap
     c_bands:  1 eigenvalues not converged
     c_bands:  1 eigenvalues not converged
     ethr =  6.90E-07,  avg # of iterations = 14.5

     negative rho (up, down):  1.706E-03 0.000E+00

     total cpu time spent up to now is      178.3 secs

     total energy              =  -27755.49488770 Ry
     estimated scf accuracy    <       0.00186919 Ry

     iteration #  8     ecut=    40.00 Ry     beta= 0.70
     Davidson diagonalization with overlap
     ethr =  5.18E-07,  avg # of iterations =  1.7

     negative rho (up, down):  1.462E-03 0.000E+00

     total cpu time spent up to now is      191.9 secs

     total energy              =  -27755.49502437 Ry
     estimated scf accuracy    <       0.00020357 Ry

     iteration #  9     ecut=    40.00 Ry     beta= 0.70
     Davidson diagonalization with overlap
     ethr =  5.64E-08,  avg # of iterations =  5.4

     negative rho (up, down):  1.111E-03 0.000E+00

     total cpu time spent up to now is      218.7 secs

     total energy              =  -27755.49512137 Ry
     estimated scf accuracy    <       0.00008211 Ry

     iteration # 10     ecut=    40.00 Ry     beta= 0.70
     Davidson diagonalization with overlap
     ethr =  2.27E-08,  avg # of iterations =  4.2

     negative rho (up, down):  1.046E-03 0.000E+00

     total cpu time spent up to now is      243.8 secs

     total energy              =  -27755.49514331 Ry
     estimated scf accuracy    <       0.00007700 Ry

     iteration # 11     ecut=    40.00 Ry     beta= 0.70
     Davidson diagonalization with overlap
     ethr =  2.13E-08,  avg # of iterations =  1.4

     negative rho (up, down):  1.106E-03 0.000E+00

     total cpu time spent up to now is      255.9 secs

     total energy              =  -27755.49514673 Ry
     estimated scf accuracy    <       0.00005190 Ry

     iteration # 12     ecut=    40.00 Ry     beta= 0.70
     Davidson diagonalization with overlap
     ethr =  1.44E-08,  avg # of iterations =  1.2

     negative rho (up, down):  1.287E-03 0.000E+00

     total cpu time spent up to now is      271.7 secs

     total energy              =  -27755.49515039 Ry
     estimated scf accuracy    <       0.00002014 Ry

     iteration # 13     ecut=    40.00 Ry     beta= 0.70
     Davidson diagonalization with overlap
     ethr =  5.58E-09,  avg # of iterations =  2.0

     negative rho (up, down):  1.705E-03 0.000E+00

     total cpu time spent up to now is      285.2 secs

     total energy              =  -27755.49515260 Ry
     estimated scf accuracy    <       0.00001226 Ry

     iteration # 14     ecut=    40.00 Ry     beta= 0.70
     Davidson diagonalization with overlap
     ethr =  3.40E-09,  avg # of iterations =  2.2

     negative rho (up, down):  1.981E-03 0.000E+00

     total cpu time spent up to now is      302.9 secs

     total energy              =  -27755.49515585 Ry
     estimated scf accuracy    <       0.00000756 Ry

     iteration # 15     ecut=    40.00 Ry     beta= 0.70
     Davidson diagonalization with overlap
     ethr =  2.09E-09,  avg # of iterations =  1.7

     negative rho (up, down):  2.933E-03 0.000E+00

     total cpu time spent up to now is      315.2 secs

     total energy              =  -27755.49515247 Ry
     estimated scf accuracy    <       0.00000688 Ry

     iteration # 16     ecut=    40.00 Ry     beta= 0.70
     Davidson diagonalization with overlap
     ethr =  1.91E-09,  avg # of iterations =  1.7

     negative rho (up, down):  3.352E-03 0.000E+00

     total cpu time spent up to now is      330.4 secs

     End of self-consistent calculation

          k = 0.0000 0.0000 0.0000 ( 44645 PWs)   bands (ev):

    -6.6502  -5.4989  -4.7511  -4.2456  -4.2221  -4.2067  -4.2039  -4.1935
    -4.1883  -4.1795  -3.8700  -3.6620  -3.6604  -3.6550  -3.6495  -3.6441
    -3.5673  -3.2018  -3.1944  -3.1909  -3.1828  -3.1789  -3.0844  -2.9802
    -2.9704  -2.9694  -2.9631  -2.9627  -2.8589  -2.7603  -2.7550  -2.7529
    -2.7473  -2.7394  -2.7163  -2.7033  -2.6961  -2.6911  -2.6695  -2.6613
    -2.3291  -2.1255  -2.1253  -2.0884  -2.0744  -2.0648  -2.0512  -2.0334
    -2.0272  -2.0246  -1.8846  -1.8809  -1.8432  -1.7778  -1.7695  -1.3288
    -1.3202  -1.3160  -1.3060  -1.2963  -1.2496  -1.2306  -1.1201  -1.1152
    -1.1145  -1.1075  -1.1001  -1.0963  -1.0923  -1.0615  -1.0468  -1.0450
    -1.0429  -1.0371  -1.0059  -1.0015  -0.9938  -0.8973  -0.8920  -0.8905
    -0.8790  -0.8767  -0.8739  -0.6862  -0.6724  -0.6704  -0.6543  -0.6542
    -0.6472  -0.6277  -0.6257  -0.5620  -0.5460  -0.5139  -0.5039  -0.4654
    -0.4623  -0.4257  -0.4252  -0.4113  -0.3473  -0.2612  -0.2610  -0.2563
    -0.2453  -0.2346  -0.2333   0.0160   0.2341   0.2588   0.2590   0.2703
     0.2719   0.2850   0.2927   0.3018   0.3153   0.3183   0.3340   0.3775
     0.3896   0.4568   0.5356   0.5410   0.5536   0.5544   0.5709   0.6534
     0.6710   0.7211   0.7244   0.7355   0.7421   0.9667   0.9835   0.9899
     1.0095   1.0163   1.0171   1.0669   1.0840   1.2017   1.2129   1.2344
     1.2391   1.2392   1.2446   1.3456   1.3919   1.4097   1.4269   1.4310
     1.4403   1.4428   1.4499   1.4531   1.4550   1.4589   1.4617   1.5339
     1.5648   1.5786   1.5817   1.5983   1.6058   1.6267   1.6268   1.6748
     1.6871   1.7023   1.7130   1.7159   1.7357   1.7404   1.7439   1.8121
     1.8186   1.8241   1.8325   1.8393   1.8417   1.8757   1.9126   1.9239
     1.9332   1.9336   1.9472   1.9520   2.1372   2.1425   2.2323   2.2371
     2.2455   2.2601   2.2619   2.2648   2.7780   3.0849   3.0894   3.1351
     3.1431   3.1533   3.1549   5.0688   5.3832   5.4321   5.4552   5.4803
     5.4816   6.8482   7.0316   7.0982   7.1105   7.1168   7.1193   7.2112
     7.3295

          k = 0.0000 0.2309 0.0000 ( 44694 PWs)   bands (ev):

    -6.5022  -5.3665  -4.7443  -4.6430  -4.3144  -4.2972  -4.1029  -4.0126
    -3.9730  -3.9632  -3.8395  -3.7469  -3.7299  -3.5923  -3.5831  -3.5748
    -3.4764  -3.2817  -3.1612  -3.1527  -3.1468  -3.1286  -3.0700  -3.0408
    -3.0145  -2.9688  -2.9630  -2.9502  -2.9050  -2.8629  -2.8534  -2.7791
    -2.7638  -2.7470  -2.7373  -2.6032  -2.5403  -2.5237  -2.5136  -2.4842
    -2.3334  -2.2417  -2.2371  -2.1868  -2.1566  -2.1379  -2.1267  -2.0344
    -1.9456  -1.8871  -1.8663  -1.8487  -1.8107  -1.7901  -1.7584  -1.5701
    -1.4756  -1.4708  -1.4242  -1.4034  -1.3722  -1.3267  -1.3041  -1.2955
    -1.2738  -1.2582  -1.1958  -1.1888  -1.1528  -1.1111  -1.0986  -1.0710
    -1.0134  -1.0082  -0.9977  -0.9218  -0.9158  -0.8968  -0.8727  -0.8350
    -0.8229  -0.8122  -0.7792  -0.7230  -0.7041  -0.6927  -0.6845  -0.6774
    -0.6472  -0.6286  -0.5968  -0.5442  -0.5369  -0.5263  -0.5097  -0.4986
    -0.4794  -0.4431  -0.4312  -0.4229  -0.3480  -0.2879  -0.2672  -0.2534
    -0.2396  -0.2373  -0.2347  -0.2085  -0.1742  -0.1657  -0.1513  -0.1344
     0.0647   0.1863   0.2248   0.2494   0.2592   0.2704   0.2740   0.3124
     0.3207   0.4095   0.4702   0.4881   0.5502   0.6067   0.6124   0.6500
     0.6665   0.6829   0.7149   0.7365   0.7493   0.8300   0.8520   0.8653
     0.8774   0.8818   0.9728   1.0763   1.0931   1.0977   1.1131   1.1280
     1.1394   1.1905   1.2257   1.2601   1.2751   1.2841   1.3299   1.3488
     1.3652   1.3774   1.4395   1.4687   1.4867   1.5052   1.5329   1.6081
     1.6410   1.6475   1.6626   1.6726   1.6900   1.7177   1.7825   1.7928
     1.8364   1.8512   1.8628   1.8763   1.9001   1.9071   1.9218   1.9271
     1.9332   1.9850   1.9882   2.1177   2.1337   2.1503   2.1726   2.1858
     2.1880   2.2168   2.2426   2.2569   2.2739   2.3475   2.3826   2.4020
     2.4498   2.5614   2.5728   2.5838   2.6053   2.9442   3.0025   3.5039
     3.7269   3.7483   3.8619   4.6519   5.0449   5.1644   5.8117   5.9238
     5.9366   6.0095   6.2586   6.6921   6.8830   7.0251   7.2350   7.2965
     7.3076

          k = 0.0000 0.4619 0.0000 ( 44748 PWs)   bands (ev):

    -6.0767  -5.4398  -5.0223  -4.5412  -4.3461  -4.3252  -4.1310  -3.9792
    -3.8362  -3.7165  -3.6293  -3.6204  -3.5736  -3.4641  -3.4144  -3.4032
    -3.3978  -3.3805  -3.2529  -3.2307  -3.2181  -3.1895  -3.1778  -3.1672
    -3.0855  -3.0565  -3.0504  -3.0125  -2.7977  -2.7891  -2.7847  -2.7728
    -2.7639  -2.6845  -2.5418  -2.5317  -2.5195  -2.4938  -2.4786  -2.3972
    -2.2816  -2.2139  -2.2002  -2.1823  -2.1575  -2.1312  -2.0798  -2.0595
    -2.0461  -2.0169  -1.9853  -1.9035  -1.8305  -1.8253  -1.8013  -1.7358
    -1.6812  -1.6488  -1.6149  -1.6013  -1.5687  -1.4591  -1.4042  -1.3921
    -1.3843  -1.3649  -1.2898  -1.2872  -1.2384  -1.1531  -1.1442  -1.1362
    -1.0809  -1.0270  -1.0202  -0.9944  -0.9873  -0.9537  -0.9253  -0.9131
    -0.8935  -0.8810  -0.8768  -0.8614  -0.8475  -0.8381  -0.7646  -0.7330
    -0.7207  -0.7072  -0.6981  -0.6903  -0.6692  -0.5702  -0.5254  -0.5161
    -0.4885  -0.4784  -0.4548  -0.4307  -0.3909  -0.3844  -0.3083  -0.2594
    -0.2340  -0.2136  -0.1890  -0.1617  -0.1251  -0.0120   0.0101   0.0825
     0.1041   0.1419   0.1619   0.1980   0.2059   0.2108   0.2148   0.2607
     0.2944   0.3159   0.3243   0.3358   0.3582   0.3752   0.3868   0.4084
     0.4251   0.5331   0.5607   0.5716   0.6341   0.6561   0.7551   0.7610
     0.8389   0.8636   0.9041   0.9590   1.0278   1.0431   1.0882   1.0948
     1.1227   1.1364   1.1655   1.1948   1.2349   1.2423   1.2949   1.3342
     1.3517   1.3909   1.4107   1.4205   1.4337   1.4713   1.5578   1.6029
     1.6730   1.6919   1.7060   1.7147   1.7474   1.8091   1.8213   1.8692
     1.8856   1.9052   1.9160   1.9654   1.9924   2.0107   2.0213   2.1301
     2.1411   2.1546   2.1699   2.1732   2.1804   2.1962   2.2181   2.3918
     2.4067   2.4143   2.4273   2.4323   2.6005   2.6474   2.8616   3.0100
     3.0632   3.2499   3.4746   3.4880   3.7611   3.8675   3.9624   4.1674
     4.4441   4.7059   4.7130   4.7743   4.8963   4.9459   5.0242   5.0633
     5.3062   5.3588   5.8690   5.9759   6.3919   6.5209   6.8345   6.9816
     7.3915

          k = 0.2000-0.1155 0.0000 ( 44694 PWs)   bands (ev):

    -6.5022  -5.3665  -4.7444  -4.6430  -4.3142  -4.2972  -4.1029  -4.0129
    -3.9730  -3.9630  -3.8394  -3.7469  -3.7299  -3.5924  -3.5832  -3.5749
    -3.4764  -3.2816  -3.1613  -3.1527  -3.1469  -3.1286  -3.0699  -3.0408
    -3.0145  -2.9689  -2.9630  -2.9503  -2.9051  -2.8628  -2.8533  -2.7794
    -2.7637  -2.7470  -2.7372  -2.6032  -2.5403  -2.5237  -2.5135  -2.4840
    -2.3334  -2.2416  -2.2370  -2.1868  -2.1567  -2.1380  -2.1267  -2.0344
    -1.9455  -1.8870  -1.8664  -1.8486  -1.8107  -1.7901  -1.7585  -1.5698
    -1.4757  -1.4707  -1.4238  -1.4031  -1.3720  -1.3263  -1.3044  -1.2958
    -1.2741  -1.2583  -1.1958  -1.1888  -1.1526  -1.1109  -1.0986  -1.0709
    -1.0142  -1.0085  -0.9982  -0.9217  -0.9157  -0.8966  -0.8727  -0.8347
    -0.8226  -0.8114  -0.7796  -0.7230  -0.7043  -0.6927  -0.6845  -0.6775
    -0.6471  -0.6286  -0.5969  -0.5444  -0.5367  -0.5264  -0.5096  -0.4987
    -0.4794  -0.4431  -0.4313  -0.4230  -0.3480  -0.2880  -0.2671  -0.2533
    -0.2399  -0.2375  -0.2348  -0.2085  -0.1742  -0.1656  -0.1513  -0.1344
     0.0651   0.1866   0.2248   0.2493   0.2591   0.2703   0.2740   0.3124
     0.3206   0.4095   0.4702   0.4880   0.5500   0.6066   0.6124   0.6507
     0.6659   0.6827   0.7148   0.7364   0.7493   0.8300   0.8520   0.8654
     0.8774   0.8819   0.9728   1.0762   1.0931   1.0976   1.1131   1.1280
     1.1395   1.1905   1.2258   1.2601   1.2752   1.2842   1.3301   1.3488
     1.3652   1.3774   1.4395   1.4687   1.4868   1.5053   1.5328   1.6081
     1.6410   1.6475   1.6626   1.6724   1.6899   1.7177   1.7825   1.7928
     1.8363   1.8512   1.8628   1.8763   1.9000   1.9073   1.9218   1.9271
     1.9333   1.9848   1.9879   2.1175   2.1336   2.1504   2.1728   2.1860
     2.1882   2.2170   2.2428   2.2572   2.2741   2.3475   2.3825   2.4020
     2.4497   2.5615   2.5729   2.5837   2.6050   2.9445   3.0029   3.5037
     3.7269   3.7481   3.8618   4.6515   5.0451   5.1648   5.8117   5.9237
     5.9366   6.0097   6.2584   6.6920   6.8829   7.0246   7.2350   7.2967
     7.3076

          k = 0.2000 0.1155 0.0000 ( 44694 PWs)   bands (ev):

    -6.5032  -5.3771  -4.7941  -4.5906  -4.3159  -4.3073  -4.1035  -4.0167
    -3.9641  -3.9636  -3.8869  -3.7477  -3.6280  -3.5943  -3.5834  -3.5769
    -3.5388  -3.2787  -3.1550  -3.1545  -3.1438  -3.0782  -3.0689  -3.0406
    -3.0125  -3.0004  -2.9710  -2.9615  -2.8591  -2.8576  -2.8433  -2.7703
    -2.7623  -2.7411  -2.7331  -2.5741  -2.5395  -2.5241  -2.5178  -2.5015
    -2.3185  -2.2392  -2.2377  -2.1888  -2.1550  -2.1520  -2.1286  -2.0515
    -1.9497  -1.8942  -1.8657  -1.8590  -1.8062  -1.7832  -1.7373  -1.5682
    -1.4738  -1.4687  -1.4183  -1.4101  -1.3777  -1.3237  -1.3129  -1.2922
    -1.2740  -1.2538  -1.2233  -1.1839  -1.1319  -1.1260  -1.1002  -1.0841
    -1.0192  -1.0078  -1.0023  -0.9218  -0.9093  -0.9005  -0.8721  -0.8246
    -0.8183  -0.8119  -0.7843  -0.7151  -0.7081  -0.6930  -0.6814  -0.6742
    -0.6361  -0.6359  -0.5923  -0.5502  -0.5325  -0.5319  -0.5228  -0.4951
    -0.4936  -0.4477  -0.4336  -0.4195  -0.3505  -0.2819  -0.2731  -0.2692
    -0.2499  -0.2371  -0.2266  -0.2255  -0.1814  -0.1631  -0.1586  -0.1451
     0.0861   0.1817   0.2194   0.2412   0.2548   0.2711   0.2822   0.3142
     0.3312   0.3573   0.4535   0.4852   0.5540   0.6016   0.6125   0.6532
     0.6624   0.6703   0.7135   0.7339   0.7385   0.8363   0.8653   0.8657
     0.8828   0.8851   1.0606   1.0662   1.0901   1.0953   1.1069   1.1249
     1.1415   1.2050   1.2157   1.2408   1.2762   1.2782   1.3318   1.3451
     1.3614   1.3643   1.4407   1.4596   1.4933   1.5060   1.5569   1.6028
     1.6053   1.6435   1.6551   1.6625   1.6960   1.7214   1.7794   1.7923
     1.8457   1.8502   1.8672   1.8914   1.8962   1.9171   1.9181   1.9289
     1.9332   1.9825   1.9888   2.1234   2.1336   2.1449   2.1844   2.1901
     2.1921   2.2159   2.2521   2.2582   2.2800   2.3690   2.3788   2.3993
     2.4519   2.5637   2.5701   2.5817   2.6106   2.9571   2.9887   3.5186
     3.7117   3.7474   3.8706   4.6156   5.1181   5.1601   5.7757   5.9279
     5.9608   5.9986   6.2072   6.6742   6.8869   7.0136   7.2719   7.3013
     7.3083

          k = 0.2000 0.3464 0.0000 ( 44714 PWs)   bands (ev):

    -6.2169  -5.1804  -4.9683  -4.9554  -4.5118  -3.8928  -3.8881  -3.8817
    -3.8653  -3.8335  -3.8146  -3.7959  -3.7096  -3.6998  -3.5118  -3.3218
    -3.3105  -3.3018  -3.2950  -3.2281  -3.2041  -3.0772  -3.0670  -3.0619
    -3.0501  -2.9814  -2.9501  -2.9089  -2.9051  -2.9002  -2.8347  -2.8168
    -2.8012  -2.7430  -2.7388  -2.6453  -2.4671  -2.4036  -2.3180  -2.3104
    -2.2730  -2.2565  -2.2462  -2.2397  -2.1804  -2.1578  -2.1159  -2.0181
    -2.0088  -1.9426  -1.9046  -1.8758  -1.8323  -1.8233  -1.7763  -1.7290
    -1.7072  -1.5752  -1.5460  -1.5268  -1.4685  -1.4484  -1.4223  -1.4128
    -1.4036  -1.3487  -1.3195  -1.2078  -1.1969  -1.1787  -1.1663  -1.1232
    -1.1127  -1.0678  -1.0428  -1.0108  -0.9740  -0.8988  -0.8881  -0.8674
    -0.8515  -0.8353  -0.8236  -0.8071  -0.7834  -0.7644  -0.7440  -0.7310
    -0.6963  -0.6864  -0.5915  -0.5856  -0.5676  -0.5448  -0.5122  -0.5088
    -0.4808  -0.4590  -0.4410  -0.4307  -0.4269  -0.4145  -0.4065  -0.3889
    -0.3491  -0.3303  -0.2469  -0.2256  -0.1815  -0.1195  -0.0991  -0.0912
    -0.0731   0.0934   0.1240   0.1317   0.2260   0.2364   0.2816   0.2860
     0.3154   0.3258   0.3627   0.3730   0.3996   0.4150   0.4301   0.5055
     0.6033   0.6298   0.6686   0.6831   0.7202   0.7308   0.7543   0.8036
     0.8684   0.9118   0.9261   0.9711   0.9993   1.0351   1.0692   1.1161
     1.1297   1.1458   1.2026   1.2075   1.2235   1.2389   1.2474   1.2585
     1.2745   1.2766   1.2886   1.3816   1.4476   1.4846   1.6028   1.6235
     1.6447   1.7712   1.7782   1.8034   1.8095   1.8739   1.9089   1.9291
     1.9397   1.9624   1.9816   1.9936   2.0081   2.0117   2.0245   2.0592
     2.0750   2.0915   2.1670   2.1926   2.2002   2.2322   2.2414   2.2808
     2.3965   2.4311   2.4700   2.4863   2.5383   2.5506   2.5665   2.6584
     2.7114   3.0283   3.2313   3.2425   3.6301   3.7690   3.7811   3.7885
     4.2509   4.4636   4.4873   4.6723   4.7241   4.7455   5.3665   5.7741
     5.8908   5.9157   6.1038   6.3352   6.6210   6.6673   6.6914   6.7187
     6.7335

          k = 0.2000-0.5774 0.0000 ( 44692 PWs)   bands (ev):

    -5.6940  -5.6613  -5.0956  -4.8287  -4.4344  -4.1933  -3.8853  -3.8245
    -3.7521  -3.7037  -3.5997  -3.5900  -3.4974  -3.4925  -3.4023  -3.3822
    -3.3680  -3.3381  -3.3261  -3.3073  -3.2017  -3.1671  -3.1613  -3.1312
    -3.1099  -3.1044  -3.0615  -2.9688  -2.9081  -2.8102  -2.7760  -2.7635
    -2.7431  -2.7291  -2.6983  -2.6421  -2.5250  -2.5111  -2.4443  -2.3332
    -2.3190  -2.2541  -2.1868  -2.1627  -2.1317  -2.0768  -2.0051  -1.9574
    -1.9226  -1.9057  -1.8899  -1.8443  -1.8417  -1.8056  -1.7215  -1.7066
    -1.6862  -1.6771  -1.6695  -1.6652  -1.6102  -1.5998  -1.5759  -1.4752
    -1.4466  -1.3978  -1.3732  -1.2947  -1.2721  -1.2388  -1.2132  -1.1774
    -1.1685  -1.1514  -1.0857  -1.0752  -1.0548  -1.0348  -1.0027  -0.9519
    -0.9393  -0.8772  -0.8350  -0.8253  -0.8171  -0.8093  -0.7358  -0.6745
    -0.6374  -0.6233  -0.6139  -0.5851  -0.5610  -0.5478  -0.5411  -0.5091
    -0.5011  -0.4857  -0.4758  -0.4352  -0.4116  -0.4035  -0.3933  -0.3850
    -0.3734  -0.3709  -0.3236  -0.3044  -0.2762  -0.1103  -0.0626   0.0087
     0.0232   0.0533   0.1273   0.1458   0.1598   0.1799   0.2146   0.2317
     0.2391   0.2512   0.3125   0.3578   0.3802   0.3948   0.4411   0.4590
     0.5117   0.5324   0.5730   0.6997   0.7190   0.7739   0.7911   0.8081
     0.8528   0.8845   0.9084   0.9286   0.9399   0.9496   0.9673   0.9789
     1.0725   1.1014   1.1087   1.1428   1.1699   1.1899   1.2101   1.2255
     1.2310   1.3653   1.4001   1.4506   1.5226   1.5440   1.6234   1.6357
     1.6765   1.7390   1.7579   1.7695   1.8464   1.8511   1.9332   1.9507
     1.9772   1.9854   1.9955   2.0193   2.0340   2.0833   2.1471   2.1518
     2.1707   2.1860   2.2003   2.2062   2.2139   2.2843   2.3840   2.4149
     2.4208   2.4308   2.4341   2.4976   2.5251   2.6251   2.7425   3.4359
     3.5996   3.6125   3.7624   3.8330   3.9163   3.9756   3.9894   4.3068
     4.5752   4.6087   4.7889   5.0454   5.0679   5.1647   5.1981   5.3454
     5.4604   5.5293   5.5652   5.8376   5.9904   6.0282   6.4512   6.6736
     6.6962

          k = 0.2000-0.3464 0.0000 ( 44714 PWs)   bands (ev):

    -6.2139  -5.1460  -4.9735  -4.9530  -4.5069  -3.8887  -3.8852  -3.8834
    -3.8733  -3.8346  -3.8223  -3.7895  -3.7073  -3.7000  -3.5460  -3.3100
    -3.3054  -3.3010  -3.2815  -3.2297  -3.1998  -3.0749  -3.0716  -3.0595
    -3.0532  -3.0244  -2.9456  -2.9163  -2.9080  -2.8984  -2.8653  -2.8184
    -2.8012  -2.7613  -2.7418  -2.6456  -2.5960  -2.4046  -2.3157  -2.3027
    -2.2667  -2.2547  -2.2428  -2.2366  -2.1803  -2.1492  -2.1172  -2.0160
    -2.0022  -1.9253  -1.8892  -1.8482  -1.8336  -1.8276  -1.7629  -1.7333
    -1.7274  -1.5586  -1.5436  -1.5327  -1.4651  -1.4472  -1.4257  -1.4081
    -1.3949  -1.3439  -1.3293  -1.2036  -1.1873  -1.1713  -1.1601  -1.1308
    -1.1129  -1.0655  -1.0300  -1.0141  -0.9697  -0.9011  -0.8808  -0.8608
    -0.8556  -0.8464  -0.8183  -0.8007  -0.7722  -0.7638  -0.7322  -0.7191
    -0.6978  -0.6497  -0.5853  -0.5753  -0.5684  -0.5443  -0.5196  -0.5052
    -0.4917  -0.4476  -0.4328  -0.4228  -0.4185  -0.4157  -0.4028  -0.3960
    -0.3681  -0.3213  -0.2396  -0.1955  -0.1826  -0.1405  -0.0999  -0.0876
    -0.0729   0.1003   0.1165   0.1756   0.2293   0.2361   0.2781   0.2799
     0.2969   0.3258   0.3477   0.3823   0.4006   0.4125   0.4346   0.5089
     0.5558   0.6342   0.6727   0.6754   0.7115   0.7416   0.7720   0.8024
     0.8657   0.9001   0.9166   0.9388   1.0043   1.0187   1.0695   1.1276
     1.1451   1.1538   1.1924   1.2010   1.2276   1.2360   1.2475   1.2637
     1.2742   1.2810   1.2969   1.4015   1.4566   1.4902   1.6093   1.6170
     1.6427   1.7454   1.7998   1.8036   1.8086   1.8849   1.8990   1.9277
     1.9480   1.9670   1.9791   1.9898   2.0108   2.0139   2.0228   2.0590
     2.0808   2.0896   2.1656   2.1918   2.1978   2.2323   2.2437   2.2802
     2.4095   2.4474   2.4723   2.4767   2.5413   2.5531   2.5690   2.6832
     2.7110   2.9838   3.1974   3.2516   3.5801   3.7724   3.7855   3.7919
     4.2613   4.4709   4.4793   4.6373   4.7171   4.7514   5.3385   5.7334
     5.9138   5.9210   6.1544   6.3940   6.6296   6.6606   6.6943   6.7256
     6.7332

          k = 0.4000-0.2309 0.0000 ( 44748 PWs)   bands (ev):

    -6.0767  -5.4398  -5.0223  -4.5412  -4.3460  -4.3252  -4.1310  -3.9794
    -3.8362  -3.7165  -3.6292  -3.6202  -3.5737  -3.4642  -3.4144  -3.4032
    -3.3979  -3.3806  -3.2530  -3.2305  -3.2181  -3.1896  -3.1779  -3.1672
    -3.0856  -3.0565  -3.0504  -3.0126  -2.7977  -2.7890  -2.7846  -2.7727
    -2.7637  -2.6845  -2.5416  -2.5317  -2.5194  -2.4938  -2.4785  -2.3971
    -2.2816  -2.2140  -2.2001  -2.1824  -2.1575  -2.1312  -2.0797  -2.0593
    -2.0462  -2.0170  -1.9854  -1.9034  -1.8304  -1.8251  -1.8012  -1.7357
    -1.6810  -1.6483  -1.6147  -1.6012  -1.5686  -1.4591  -1.4040  -1.3923
    -1.3845  -1.3650  -1.2896  -1.2871  -1.2386  -1.1533  -1.1450  -1.1366
    -1.0811  -1.0269  -1.0202  -0.9944  -0.9873  -0.9536  -0.9252  -0.9130
    -0.8932  -0.8808  -0.8767  -0.8614  -0.8479  -0.8382  -0.7647  -0.7327
    -0.7206  -0.7070  -0.6978  -0.6903  -0.6694  -0.5702  -0.5257  -0.5162
    -0.4891  -0.4788  -0.4544  -0.4308  -0.3914  -0.3848  -0.3084  -0.2594
    -0.2339  -0.2136  -0.1892  -0.1618  -0.1251  -0.0120   0.0103   0.0826
     0.1042   0.1418   0.1618   0.1981   0.2061   0.2112   0.2148   0.2607
     0.2944   0.3160   0.3241   0.3358   0.3582   0.3749   0.3864   0.4082
     0.4256   0.5329   0.5604   0.5715   0.6340   0.6560   0.7549   0.7608
     0.8389   0.8636   0.9043   0.9593   1.0278   1.0432   1.0879   1.0945
     1.1227   1.1367   1.1656   1.1948   1.2350   1.2425   1.2949   1.3344
     1.3519   1.3910   1.4109   1.4205   1.4337   1.4709   1.5577   1.6028
     1.6729   1.6919   1.7059   1.7147   1.7474   1.8091   1.8213   1.8691
     1.8855   1.9051   1.9159   1.9655   1.9921   2.0104   2.0213   2.1300
     2.1411   2.1546   2.1701   2.1732   2.1804   2.1965   2.2183   2.3918
     2.4069   2.4146   2.4278   2.4325   2.6004   2.6474   2.8617   3.0104
     3.0630   3.2497   3.4746   3.4879   3.7610   3.8676   3.9622   4.1677
     4.4443   4.7059   4.7130   4.7743   4.8962   4.9459   5.0243   5.0637
     5.3062   5.3589   5.8688   5.9762   6.3917   6.5208   6.8344   6.9816
     7.3917

          k = 0.4000 0.0000 0.0000 ( 44714 PWs)   bands (ev):

    -6.2169  -5.1804  -4.9683  -4.9554  -4.5118  -3.8928  -3.8881  -3.8819
    -3.8653  -3.8335  -3.8144  -3.7957  -3.7096  -3.6998  -3.5118  -3.3221
    -3.3106  -3.3018  -3.2950  -3.2283  -3.2040  -3.0772  -3.0670  -3.0619
    -3.0500  -2.9815  -2.9498  -2.9089  -2.9051  -2.9001  -2.8347  -2.8167
    -2.8014  -2.7430  -2.7387  -2.6456  -2.4671  -2.4035  -2.3179  -2.3103
    -2.2729  -2.2564  -2.2462  -2.2396  -2.1804  -2.1578  -2.1160  -2.0181
    -2.0086  -1.9425  -1.9046  -1.8758  -1.8322  -1.8233  -1.7764  -1.7290
    -1.7072  -1.5750  -1.5458  -1.5266  -1.4681  -1.4481  -1.4223  -1.4128
    -1.4034  -1.3487  -1.3195  -1.2077  -1.1972  -1.1789  -1.1666  -1.1232
    -1.1129  -1.0677  -1.0428  -1.0109  -0.9742  -0.8986  -0.8881  -0.8673
    -0.8514  -0.8353  -0.8236  -0.8072  -0.7836  -0.7642  -0.7442  -0.7314
    -0.6966  -0.6866  -0.5916  -0.5856  -0.5676  -0.5449  -0.5122  -0.5090
    -0.4810  -0.4589  -0.4406  -0.4306  -0.4269  -0.4145  -0.4065  -0.3890
    -0.3491  -0.3304  -0.2469  -0.2256  -0.1815  -0.1196  -0.0994  -0.0913
    -0.0731   0.0935   0.1240   0.1318   0.2259   0.2361   0.2815   0.2858
     0.3156   0.3259   0.3628   0.3731   0.3996   0.4149   0.4301   0.5060
     0.6030   0.6297   0.6685   0.6832   0.7202   0.7307   0.7542   0.8035
     0.8685   0.9117   0.9260   0.9710   0.9992   1.0350   1.0692   1.1162
     1.1297   1.1459   1.2027   1.2076   1.2236   1.2389   1.2476   1.2586
     1.2745   1.2767   1.2888   1.3814   1.4476   1.4847   1.6027   1.6233
     1.6447   1.7713   1.7781   1.8034   1.8095   1.8738   1.9088   1.9293
     1.9398   1.9624   1.9815   1.9935   2.0080   2.0115   2.0243   2.0590
     2.0750   2.0919   2.1668   2.1925   2.2001   2.2322   2.2414   2.2807
     2.3967   2.4315   2.4704   2.4865   2.5384   2.5506   2.5665   2.6584
     2.7114   3.0281   3.2311   3.2424   3.6303   3.7692   3.7813   3.7887
     4.2509   4.4634   4.4873   4.6723   4.7242   4.7455   5.3665   5.7743
     5.8910   5.9158   6.1037   6.3352   6.6209   6.6671   6.6915   6.7187
     6.7339

          k = 0.4000 0.2309 0.0000 ( 44748 PWs)   bands (ev):

    -6.0818  -5.4603  -5.0520  -4.5426  -4.3487  -4.3399  -4.1195  -3.9607
    -3.8355  -3.7154  -3.6220  -3.6195  -3.5531  -3.4585  -3.4432  -3.4060
    -3.4055  -3.3912  -3.2612  -3.2321  -3.2277  -3.1869  -3.1791  -3.1524
    -3.0889  -3.0513  -3.0507  -2.8079  -2.7977  -2.7954  -2.7817  -2.7678
    -2.7609  -2.6077  -2.5400  -2.5284  -2.5210  -2.4818  -2.4777  -2.3969
    -2.2861  -2.2072  -2.2053  -2.1868  -2.1757  -2.1266  -2.1024  -2.0508
    -2.0492  -2.0167  -1.9826  -1.9351  -1.8333  -1.8211  -1.8024  -1.7700
    -1.6753  -1.6450  -1.6063  -1.6030  -1.5668  -1.4595  -1.4130  -1.3905
    -1.3852  -1.3673  -1.2863  -1.2753  -1.2717  -1.1670  -1.1438  -1.1397
    -1.1082  -1.0297  -1.0248  -0.9917  -0.9878  -0.9694  -0.9414  -0.9004
    -0.8983  -0.8806  -0.8679  -0.8658  -0.8543  -0.8336  -0.7532  -0.7236
    -0.7182  -0.7151  -0.6957  -0.6875  -0.6697  -0.6298  -0.5299  -0.5243
    -0.4965  -0.4698  -0.4457  -0.4302  -0.4203  -0.3992  -0.3109  -0.2711
    -0.2349  -0.2347  -0.1803  -0.1771  -0.1495  -0.0150   0.0201   0.0476
     0.0954   0.1365   0.1856   0.1906   0.2111   0.2131   0.2230   0.2372
     0.2895   0.3197   0.3222   0.3452   0.3453   0.3769   0.3929   0.4121
     0.4433   0.5268   0.5500   0.5627   0.6399   0.6772   0.7637   0.7669
     0.8529   0.8708   0.9109   0.9676   1.0203   1.0486   1.0593   1.0975
     1.1274   1.1306   1.1759   1.1947   1.2296   1.2410   1.2850   1.3387
     1.3411   1.3845   1.4042   1.4205   1.4295   1.4820   1.5519   1.5853
     1.6352   1.6850   1.6903   1.7199   1.7647   1.8047   1.8161   1.8841
     1.8923   1.9075   1.9105   1.9810   1.9921   2.0069   2.0204   2.1286
     2.1432   2.1593   2.1614   2.1771   2.1817   2.2023   2.2191   2.3933
     2.4120   2.4195   2.4280   2.4293   2.6066   2.6478   2.9197   2.9989
     3.0829   3.2223   3.4836   3.4851   3.7810   3.8710   3.9572   4.2041
     4.5028   4.7017   4.7121   4.7559   4.8961   4.9270   5.0591   5.0669
     5.3011   5.3624   5.8358   5.9894   6.3592   6.5092   6.8912   6.9618
     7.4433

          k = 0.4000-0.6928 0.0000 ( 44692 PWs)   bands (ev):

    -5.7047  -5.6669  -5.0729  -4.8895  -4.4312  -4.1539  -3.8968  -3.8300
    -3.7493  -3.7051  -3.6041  -3.5952  -3.5000  -3.4916  -3.4041  -3.3795
    -3.3631  -3.3392  -3.3286  -3.3066  -3.1861  -3.1690  -3.1557  -3.1460
    -3.1170  -3.1126  -3.0249  -2.9195  -2.8963  -2.7807  -2.7717  -2.7551
    -2.7451  -2.7167  -2.6736  -2.6303  -2.5258  -2.5207  -2.4253  -2.3312
    -2.3201  -2.2749  -2.1861  -2.1414  -2.1225  -2.1036  -2.0024  -1.9571
    -1.9385  -1.9056  -1.8931  -1.8457  -1.8284  -1.7840  -1.7225  -1.7206
    -1.7045  -1.6744  -1.6651  -1.6613  -1.6360  -1.5940  -1.5598  -1.4809
    -1.4623  -1.4047  -1.3650  -1.3105  -1.2627  -1.2409  -1.2333  -1.1784
    -1.1745  -1.1603  -1.1019  -1.0731  -1.0575  -1.0389  -1.0029  -0.9662
    -0.9236  -0.8944  -0.8451  -0.8199  -0.8155  -0.8054  -0.7516  -0.6823
    -0.6388  -0.6354  -0.6125  -0.6050  -0.5618  -0.5459  -0.5363  -0.5217
    -0.5078  -0.4973  -0.4710  -0.4321  -0.4144  -0.4074  -0.3996  -0.3847
    -0.3738  -0.3702  -0.3506  -0.2961  -0.2773  -0.0992  -0.0697   0.0128
     0.0319   0.0793   0.1297   0.1442   0.1662   0.1787   0.2180   0.2359
     0.2468   0.2574   0.3146   0.3666   0.3807   0.4152   0.4392   0.4511
     0.5106   0.5261   0.5491   0.6315   0.7290   0.7790   0.7866   0.8145
     0.8578   0.8896   0.9051   0.9224   0.9415   0.9469   0.9686   0.9796
     1.0712   1.1121   1.1153   1.1526   1.1643   1.1785   1.2046   1.2131
     1.2281   1.3834   1.4139   1.4497   1.4919   1.5584   1.6247   1.6382
     1.7106   1.7328   1.7527   1.7724   1.8316   1.8663   1.9320   1.9590
     1.9625   1.9823   1.9903   2.0095   2.0388   2.0809   2.1473   2.1530
     2.1722   2.1858   2.1984   2.2090   2.2140   2.2838   2.3968   2.4139
     2.4256   2.4282   2.4310   2.4958   2.5237   2.6130   2.7041   3.4727
     3.5979   3.6118   3.7785   3.8255   3.9626   3.9778   3.9883   4.3245
     4.5536   4.6150   4.8462   5.0437   5.0752   5.1315   5.2107   5.3849
     5.4335   5.5124   5.5810   5.8320   5.9385   6.0467   6.4715   6.6421
     6.6985

          k = 0.4000-0.4619 0.0000 ( 44692 PWs)   bands (ev):

    -5.6941  -5.6612  -5.0956  -4.8287  -4.4344  -4.1934  -3.8855  -3.8246
    -3.7521  -3.7037  -3.5995  -3.5900  -3.4975  -3.4925  -3.4023  -3.3822
    -3.3680  -3.3382  -3.3260  -3.3072  -3.2019  -3.1671  -3.1613  -3.1312
    -3.1099  -3.1045  -3.0615  -2.9688  -2.9080  -2.8100  -2.7760  -2.7636
    -2.7431  -2.7289  -2.6982  -2.6421  -2.5249  -2.5109  -2.4443  -2.3335
    -2.3189  -2.2541  -2.1868  -2.1627  -2.1317  -2.0769  -2.0054  -1.9575
    -1.9227  -1.9056  -1.8898  -1.8439  -1.8413  -1.8055  -1.7214  -1.7066
    -1.6861  -1.6770  -1.6695  -1.6652  -1.6102  -1.5998  -1.5759  -1.4752
    -1.4467  -1.3977  -1.3730  -1.2948  -1.2716  -1.2390  -1.2134  -1.1774
    -1.1690  -1.1518  -1.0857  -1.0751  -1.0548  -1.0348  -1.0027  -0.9517
    -0.9391  -0.8771  -0.8352  -0.8253  -0.8169  -0.8092  -0.7357  -0.6750
    -0.6376  -0.6229  -0.6137  -0.5850  -0.5611  -0.5480  -0.5412  -0.5096
    -0.5015  -0.4860  -0.4760  -0.4345  -0.4116  -0.4036  -0.3936  -0.3850
    -0.3732  -0.3706  -0.3237  -0.3046  -0.2761  -0.1105  -0.0629   0.0087
     0.0233   0.0532   0.1273   0.1458   0.1600   0.1801   0.2145   0.2317
     0.2390   0.2515   0.3125   0.3579   0.3802   0.3945   0.4410   0.4592
     0.5117   0.5322   0.5726   0.6997   0.7190   0.7740   0.7912   0.8082
     0.8528   0.8844   0.9084   0.9285   0.9398   0.9497   0.9673   0.9789
     1.0726   1.1014   1.1088   1.1428   1.1699   1.1899   1.2101   1.2254
     1.2308   1.3654   1.3998   1.4504   1.5227   1.5440   1.6235   1.6359
     1.6766   1.7390   1.7579   1.7696   1.8463   1.8511   1.9331   1.9506
     1.9770   1.9852   1.9955   2.0193   2.0341   2.0835   2.1471   2.1520
     2.1705   2.1859   2.2002   2.2062   2.2139   2.2842   2.3839   2.4152
     2.4209   2.4311   2.4343   2.4976   2.5254   2.6251   2.7425   3.4357
     3.5996   3.6125   3.7622   3.8332   3.9162   3.9754   3.9892   4.3071
     4.5754   4.6087   4.7889   5.0453   5.0679   5.1647   5.1981   5.3463
     5.4605   5.5293   5.5650   5.8379   5.9901   6.0281   6.4515   6.6731
     6.6960

     the Fermi energy is     2.1930 ev

!    total energy              =  -27755.49515101 Ry
     total all-electron energy =  -1326642.260568 Ry
     estimated scf accuracy    <       0.00000074 Ry
     smearing contrib. (-TS)   =       0.00445185 Ry
     internal energy E=F+TS    =  -27755.49960286 Ry

     The total energy is F=E-TS. E is the sum of the following terms:
     one-electron contribution =  -22795.34308621 Ry
     hartree contribution      =   11700.50005871 Ry
     xc contribution           =    -890.79866692 Ry
     ewald contribution        =    9704.14163627 Ry
     one-center paw contrib.   =  -25473.99954471 Ry

     convergence has been achieved in  16 iterations

     negative rho (up, down):  3.352E-03 0.000E+00

     Forces acting on atoms (cartesian axes, Ry/au):

     atom    1 type  1   force =     0.00241897    0.00138361   -0.00583599
     atom    2 type  1   force =     0.00061596    0.00220904   -0.00431894
     atom    3 type  1   force =    -0.00169057    0.00390727   -0.00566349
     atom    4 type  1   force =     0.00222590   -0.00055474   -0.00430453
     atom    5 type  1   force =    -0.00013550   -0.00006143   -0.00336228
     atom    6 type  1   force =    -0.00208569    0.00053783   -0.00393588
     atom    7 type  1   force =     0.00254243   -0.00345547   -0.00564485
     atom    8 type  1   force =    -0.00058619   -0.00211522   -0.00394684
     atom    9 type  1   force =    -0.00222675   -0.00132530   -0.00390736
     atom   10 type  1   force =     0.00320798    0.00188989    0.00721836
     atom   11 type  1   force =     0.00005850    0.00135569    0.00462527
     atom   12 type  1   force =    -0.00202172    0.00345050    0.00348522
     atom   13 type  1   force =     0.00116248   -0.00056956    0.00461108
     atom   14 type  1   force =    -0.00002841    0.00001856    0.00195198
     atom   15 type  1   force =    -0.00170104    0.00119516    0.00632638
     atom   16 type  1   force =     0.00193331   -0.00346642    0.00346480
     atom   17 type  1   force =     0.00015939   -0.00207146    0.00634867
     atom   18 type  1   force =    -0.00339309   -0.00197238    0.00310588
     atom   19 type  1   force =     0.00005506    0.00010586   -0.00004809
     atom   20 type  1   force =    -0.00012913   -0.00007354   -0.00000261
     atom   21 type  1   force =    -0.00009533   -0.00000173    0.00002953
     atom   22 type  1   force =    -0.00004233    0.00015028   -0.00007541
     atom   23 type  1   force =    -0.00003905   -0.00008663    0.00004611
     atom   24 type  1   force =     0.00008447    0.00005123   -0.00004107
     atom   25 type  1   force =    -0.00006412   -0.00003497   -0.00005233
     atom   26 type  1   force =     0.00012527   -0.00001859   -0.00005661
     atom   27 type  1   force =     0.00010092   -0.00011526   -0.00006110
     atom   28 type  1   force =     0.00011466    0.00006985    0.00010199
     atom   29 type  1   force =     0.00012662   -0.00021762   -0.00007593
     atom   30 type  1   force =    -0.00001881    0.00011365   -0.00002632
     atom   31 type  1   force =    -0.00010909    0.00022049   -0.00006845
     atom   32 type  1   force =    -0.00026137   -0.00017503    0.00011145
     atom   33 type  1   force =     0.00009258   -0.00004669   -0.00002797
     atom   34 type  1   force =     0.00010937   -0.00008116   -0.00001482
     atom   35 type  1   force =     0.00000916    0.00009290   -0.00003214
     atom   36 type  1   force =    -0.00011807   -0.00006132   -0.00011922
     atom   37 type  2   force =    -0.00039681   -0.00024730    0.00019551
     The non-local contrib.  to forces
     atom    1 type  1   force =     0.00234090    0.00135105   -0.01635835
     atom    2 type  1   force =    -0.00017254    0.00246773   -0.01761246
     atom    3 type  1   force =    -0.00000855    0.00124086   -0.01691297
     atom    4 type  1   force =     0.00204417   -0.00135614   -0.01760460
     atom    5 type  1   force =    -0.00017338   -0.00007573   -0.01759408
     atom    6 type  1   force =    -0.00155765    0.00046638   -0.01711422
     atom    7 type  1   force =     0.00106953   -0.00064183   -0.01690307
     atom    8 type  1   force =    -0.00039242   -0.00160473   -0.01712403
     atom    9 type  1   force =    -0.00206034   -0.00121284   -0.01676860
     atom   10 type  1   force =     0.00149665    0.00091055    0.00064260
     atom   11 type  1   force =    -0.00015737    0.00178624    0.00126953
     atom   12 type  1   force =     0.00020798    0.00261037    0.00063610
     atom   13 type  1   force =     0.00142414   -0.00096166    0.00127599
     atom   14 type  1   force =     0.00044919    0.00030256   -0.00044129
     atom   15 type  1   force =    -0.00228477    0.00018570    0.00119691
     atom   16 type  1   force =     0.00231375   -0.00111467    0.00063003
     atom   17 type  1   force =    -0.00100896   -0.00207112    0.00120881
     atom   18 type  1   force =    -0.00363513   -0.00211448    0.00160270
     atom   19 type  1   force =    -0.00264789   -0.00088503    0.00072853
     atom   20 type  1   force =     0.00090817    0.00054057    0.00508730
     atom   21 type  1   force =     0.00112119    0.00073787    0.00239629
     atom   22 type  1   force =     0.00099307    0.00376883   -0.00191983
     atom   23 type  1   force =     0.00119042    0.00061116    0.00240870
     atom   24 type  1   force =    -0.00131033   -0.00075395    0.00327645
     atom   25 type  1   force =     0.00053245    0.00030006    0.00266009
     atom   26 type  1   force =    -0.00210474   -0.00186204    0.00071645
     atom   27 type  1   force =     0.00376287   -0.00104474   -0.00191299
     atom   28 type  1   force =     0.03435972    0.01982010    0.02954446
     atom   29 type  1   force =    -0.01763977    0.01934875   -0.00753668
     atom   30 type  1   force =     0.00106138   -0.00034018    0.01413909
     atom   31 type  1   force =     0.00798354   -0.02495665   -0.00756754
     atom   32 type  1   force =    -0.01609838   -0.00933856    0.02238419
     atom   33 type  1   force =     0.00027774   -0.00034084    0.01496849
     atom   34 type  1   force =     0.00027596    0.00104070    0.01411935
     atom   35 type  1   force =    -0.00014406    0.00036278    0.01496941
     atom   36 type  1   force =    -0.00069685   -0.00042598    0.01540930
     atom   37 type  2   force =     0.00336483    0.00194410   -0.02289811
     The ionic contribution  to forces
     atom    1 type  1   force =     0.14406943    0.08318018  -96.26180328
     atom    2 type  1   force =     0.01828520    0.14656608  -96.18553681
     atom    3 type  1   force =    -0.14201603    0.21531765  -96.21127852
     atom    4 type  1   force =     0.13607343   -0.05753086  -96.18568683
     atom    5 type  1   force =     0.00063036    0.00027227  -96.13861060
     atom    6 type  1   force =    -0.12968479    0.08514306  -96.15822687
     atom    7 type  1   force =     0.11545241   -0.23055911  -96.21143582
     atom    8 type  1   force =     0.00897584   -0.15483351  -96.15823219
     atom    9 type  1   force =    -0.13981417   -0.08063576  -96.15274595
     atom   10 type  1   force =     0.18852571    0.10857263  -32.38296405
     atom   11 type  1   force =    -0.09251023    0.13068850  -32.41928247
     atom   12 type  1   force =    -0.06900243    0.22192527  -32.43066761
     atom   13 type  1   force =     0.06700448   -0.14563551  -32.42037080
     atom   14 type  1   force =    -0.02009498   -0.01168709  -32.57196070
     atom   15 type  1   force =    -0.05407355    0.05243168  -32.40792087
     atom   16 type  1   force =     0.15797539   -0.16962301  -32.43122576
     atom   17 type  1   force =     0.01822497   -0.07205739  -32.40714547
     atom   18 type  1   force =    -0.20885286   -0.11971494  -32.26709725
     atom   19 type  1   force =     0.13587835    0.03640548   32.16651962
     atom   20 type  1   force =    -0.06638491   -0.04026505   32.38435914
     atom   21 type  1   force =    -0.06151671   -0.02022354   31.53321807
     atom   22 type  1   force =    -0.00024533   -0.00603533   32.13111721
     atom   23 type  1   force =    -0.04655500   -0.04384354   31.53061346
     atom   24 type  1   force =     0.03791858    0.02264634   31.61514233
     atom   25 type  1   force =    -0.06953519   -0.03848188   31.69123871
     atom   26 type  1   force =     0.10140564    0.09985521   32.16845643
     atom   27 type  1   force =    -0.00595457    0.00445673   32.13286092
     atom   28 type  1   force =    -0.00021705   -0.00058901   94.98517689
     atom   29 type  1   force =     0.41136499   -0.68888955   95.61577587
     atom   30 type  1   force =     0.03104468    0.02123806   95.36617040
     atom   31 type  1   force =    -0.38993998    0.69980911   95.61368127
     atom   32 type  1   force =     0.02495128    0.01305036   94.95666333
     atom   33 type  1   force =     0.02678676   -0.00581741   95.29614047
     atom   34 type  1   force =     0.03408346    0.01646118   95.36397345
     atom   35 type  1   force =     0.00953237    0.02672845   95.29573438
     atom   36 type  1   force =    -0.03695327   -0.02045145   95.30794340
     atom   37 type  2   force =    -0.13483229   -0.07787428   12.24740649
     The local contribution  to forces
     atom    1 type  1   force =    -0.14370967   -0.08298870   96.25485424
     atom    2 type  1   force =    -0.01735622   -0.14643513   96.18149448
     atom    3 type  1   force =     0.14003103   -0.21214029   96.20517310
     atom    4 type  1   force =    -0.13548536    0.05815681   96.18161158
     atom    5 type  1   force =    -0.00053872   -0.00032853   96.13566424
     atom    6 type  1   force =     0.12876287   -0.08497132   96.15418411
     atom    7 type  1   force =    -0.11368654    0.22733303   96.20529875
     atom    8 type  1   force =    -0.00919388    0.15398781   96.15419196
     atom    9 type  1   force =     0.13939778    0.08048129   96.14842745
     atom   10 type  1   force =    -0.18625870   -0.10735050   32.38914721
     atom   11 type  1   force =     0.09279871   -0.13088093   32.42219513
     atom   12 type  1   force =     0.06626624   -0.22071965   32.43285844
     atom   13 type  1   force =    -0.06697191    0.14586468   32.42326485
     atom   14 type  1   force =     0.01945190    0.01123666   32.57339796
     atom   15 type  1   force =     0.05445790   -0.05123378   32.41248005
     atom   16 type  1   force =    -0.15821775    0.16676779   32.43337405
     atom   17 type  1   force =    -0.01695392    0.07189764   32.41168848
     atom   18 type  1   force =     0.20863106    0.11972710   32.26862885
     atom   19 type  1   force =    -0.13303040   -0.03548100  -32.16452428
     atom   20 type  1   force =     0.06551719    0.03964295  -32.38661596
     atom   21 type  1   force =     0.06009968    0.01925888  -31.53328808
     atom   22 type  1   force =    -0.00053693    0.00267256  -32.12689344
     atom   23 type  1   force =     0.04511167    0.04303123  -31.53065225
     atom   24 type  1   force =    -0.03659371   -0.02188888  -31.61611368
     atom   25 type  1   force =     0.06851685    0.03800423  -31.69181575
     atom   26 type  1   force =    -0.09907221   -0.09779205  -32.16647582
     atom   27 type  1   force =     0.00263889   -0.00332933  -32.12867369
     atom   28 type  1   force =    -0.03357408   -0.01887044  -94.99885247
     atom   29 type  1   force =    -0.38889770    0.66285572  -95.59830065
     atom   30 type  1   force =    -0.03241830   -0.02057091  -95.36376812
     atom   31 type  1   force =     0.37857725   -0.66736930  -95.59613857
     atom   32 type  1   force =    -0.00987534   -0.00440326  -94.96279279
     atom   33 type  1   force =    -0.02655379    0.00594916  -95.29450558
     atom   34 type  1   force =    -0.03425203   -0.01789827  -95.36149022
     atom   35 type  1   force =    -0.00924716   -0.02654207  -95.29408755
     atom   36 type  1   force =     0.03746477    0.02080715  -95.30670559
     atom   37 type  2   force =     0.13108003    0.07568313  -12.22439676
     The core correction contribution to forces
     atom    1 type  1   force =    -0.00043119   -0.00024859    0.01759482
     atom    2 type  1   force =    -0.00000051   -0.00044382    0.01742768
     atom    3 type  1   force =     0.00031580   -0.00058762    0.01757264
     atom    4 type  1   force =    -0.00038462    0.00022197    0.01742831
     atom    5 type  1   force =    -0.00001175   -0.00000631    0.01734196
     atom    6 type  1   force =     0.00032895   -0.00019554    0.01730537
     atom    7 type  1   force =    -0.00035128    0.00056741    0.01757262
     atom    8 type  1   force =    -0.00000490    0.00038319    0.01730558
     atom    9 type  1   force =     0.00034003    0.00019643    0.01725093
     atom   10 type  1   force =    -0.00050566   -0.00029183    0.00081905
     atom   11 type  1   force =     0.00010972   -0.00028156    0.00094517
     atom   12 type  1   force =     0.00026909   -0.00057565    0.00109103
     atom   13 type  1   force =    -0.00018812    0.00023499    0.00094739
     atom   14 type  1   force =     0.00001842    0.00001047    0.00141171
     atom   15 type  1   force =     0.00024539   -0.00013091    0.00092340
     atom   16 type  1   force =    -0.00036397    0.00051765    0.00109250
     atom   17 type  1   force =     0.00001040    0.00027563    0.00092173
     atom   18 type  1   force =     0.00058250    0.00033414    0.00035118
     atom   19 type  1   force =    -0.00024125   -0.00003182   -0.00234730
     atom   20 type  1   force =     0.00011171    0.00006853   -0.00241025
     atom   21 type  1   force =     0.00002132    0.00008747   -0.00188566
     atom   22 type  1   force =    -0.00004716   -0.00015327   -0.00194401
     atom   23 type  1   force =     0.00008288   -0.00002391   -0.00188651
     atom   24 type  1   force =    -0.00000336   -0.00000405   -0.00185747
     atom   25 type  1   force =     0.00027929    0.00015616   -0.00181260
     atom   26 type  1   force =    -0.00015224   -0.00019473   -0.00234631
     atom   27 type  1   force =    -0.00015528    0.00003099   -0.00194365
     atom   28 type  1   force =    -0.00064528   -0.00037169   -0.01563150
     atom   29 type  1   force =    -0.00448546    0.00644679   -0.01003881
     atom   30 type  1   force =     0.00027703   -0.00014760   -0.01653178
     atom   31 type  1   force =     0.00333790   -0.00710645   -0.01003943
     atom   32 type  1   force =     0.00086012    0.00050192   -0.01609663
     atom   33 type  1   force =    -0.00060159    0.00011961   -0.01644150
     atom   34 type  1   force =     0.00001076    0.00031358   -0.01653383
     atom   35 type  1   force =    -0.00020111   -0.00058261   -0.01644163
     atom   36 type  1   force =     0.00012412    0.00006907   -0.01658165
     atom   37 type  2   force =     0.00000000    0.00000000    0.00000000
     The Hubbard contrib.    to forces
     atom    1 type  1   force =     0.00000000    0.00000000    0.00000000
     atom    2 type  1   force =     0.00000000    0.00000000    0.00000000
     atom    3 type  1   force =     0.00000000    0.00000000    0.00000000
     atom    4 type  1   force =     0.00000000    0.00000000    0.00000000
     atom    5 type  1   force =     0.00000000    0.00000000    0.00000000
     atom    6 type  1   force =     0.00000000    0.00000000    0.00000000
     atom    7 type  1   force =     0.00000000    0.00000000    0.00000000
     atom    8 type  1   force =     0.00000000    0.00000000    0.00000000
     atom    9 type  1   force =     0.00000000    0.00000000    0.00000000
     atom   10 type  1   force =     0.00000000    0.00000000    0.00000000
     atom   11 type  1   force =     0.00000000    0.00000000    0.00000000
     atom   12 type  1   force =     0.00000000    0.00000000    0.00000000
     atom   13 type  1   force =     0.00000000    0.00000000    0.00000000
     atom   14 type  1   force =     0.00000000    0.00000000    0.00000000
     atom   15 type  1   force =     0.00000000    0.00000000    0.00000000
     atom   16 type  1   force =     0.00000000    0.00000000    0.00000000
     atom   17 type  1   force =     0.00000000    0.00000000    0.00000000
     atom   18 type  1   force =     0.00000000    0.00000000    0.00000000
     atom   19 type  1   force =     0.00000000    0.00000000    0.00000000
     atom   20 type  1   force =     0.00000000    0.00000000    0.00000000
     atom   21 type  1   force =     0.00000000    0.00000000    0.00000000
     atom   22 type  1   force =     0.00000000    0.00000000    0.00000000
     atom   23 type  1   force =     0.00000000    0.00000000    0.00000000
     atom   24 type  1   force =     0.00000000    0.00000000    0.00000000
     atom   25 type  1   force =     0.00000000    0.00000000    0.00000000
     atom   26 type  1   force =     0.00000000    0.00000000    0.00000000
     atom   27 type  1   force =     0.00000000    0.00000000    0.00000000
     atom   28 type  1   force =     0.00000000    0.00000000    0.00000000
     atom   29 type  1   force =     0.00000000    0.00000000    0.00000000
     atom   30 type  1   force =     0.00000000    0.00000000    0.00000000
     atom   31 type  1   force =     0.00000000    0.00000000    0.00000000
     atom   32 type  1   force =     0.00000000    0.00000000    0.00000000
     atom   33 type  1   force =     0.00000000    0.00000000    0.00000000
     atom   34 type  1   force =     0.00000000    0.00000000    0.00000000
     atom   35 type  1   force =     0.00000000    0.00000000    0.00000000
     atom   36 type  1   force =     0.00000000    0.00000000    0.00000000
     atom   37 type  2   force =     0.00000000    0.00000000    0.00000000
     The SCF correction term to forces
     atom    1 type  1   force =     0.00000000    0.00000000   -0.00000000
     atom    2 type  1   force =    -0.00000000    0.00000000   -0.00000000
     atom    3 type  1   force =    -0.00000000    0.00000000   -0.00000000
     atom    4 type  1   force =    -0.00000000   -0.00000000   -0.00000000
     atom    5 type  1   force =    -0.00000000    0.00000000   -0.00000000
     atom    6 type  1   force =     0.00000000    0.00000000   -0.00000000
     atom    7 type  1   force =     0.00000000   -0.00000000   -0.00000000
     atom    8 type  1   force =     0.00000000   -0.00000000   -0.00000000
     atom    9 type  1   force =    -0.00000000   -0.00000000   -0.00000000
     atom   10 type  1   force =    -0.00000000    0.00000000   -0.00000000
     atom   11 type  1   force =    -0.00000000    0.00000000   -0.00000000
     atom   12 type  1   force =     0.00000000    0.00000000   -0.00000000
     atom   13 type  1   force =    -0.00000000   -0.00000000   -0.00000000
     atom   14 type  1   force =     0.00000000    0.00000000   -0.00000000
     atom   15 type  1   force =    -0.00000000   -0.00000000   -0.00000000
     atom   16 type  1   force =     0.00000000   -0.00000000   -0.00000000
     atom   17 type  1   force =    -0.00000000   -0.00000000   -0.00000000
     atom   18 type  1   force =    -0.00000000   -0.00000000   -0.00000000
     atom   19 type  1   force =     0.00009680    0.00009883   -0.00050625
     atom   20 type  1   force =    -0.00028074   -0.00005995   -0.00050443
     atom   21 type  1   force =     0.00017975    0.00013819   -0.00049268
     atom   22 type  1   force =    -0.00020542   -0.00010189   -0.00051693
     atom   23 type  1   force =     0.00013152    0.00013904   -0.00051888
     atom   24 type  1   force =     0.00007384    0.00005237   -0.00057028
     atom   25 type  1   force =     0.00014302   -0.00001293   -0.00040437
     atom   26 type  1   force =     0.00004937   -0.00002438   -0.00048896
     atom   27 type  1   force =    -0.00019044   -0.00022830   -0.00047329
     atom   28 type  1   force =     0.00019189    0.00008149   -0.00021699
     atom   29 type  1   force =    -0.00021489    0.00002128   -0.00005726
     atom   30 type  1   force =     0.00001696   -0.00006514   -0.00011750
     atom   31 type  1   force =    -0.00006724   -0.00015560   -0.00008577
     atom   32 type  1   force =    -0.00009849    0.00001512   -0.00012825
     atom   33 type  1   force =     0.00018403    0.00004341   -0.00027144
     atom   34 type  1   force =    -0.00000822    0.00000226   -0.00016516
     atom   35 type  1   force =     0.00006968    0.00012695   -0.00028833
     atom   36 type  1   force =    -0.00005630   -0.00005951   -0.00026627
     atom   37 type  2   force =    -0.00000882    0.00000035    0.00000229

     Total force =     0.000879     Total SCF correction =     0.001773
     SCF correction compared to forces is large: reduce conv_thr to get better values

     Writing all to output data dir ./pwscf.save/

     init_run     :     10.24s CPU     10.55s WALL (       1 calls)
     electrons    :    312.44s CPU    319.94s WALL (       1 calls)
     forces       :      4.13s CPU      4.61s WALL (       1 calls)

     Called by init_run:
     wfcinit      :      5.75s CPU      5.91s WALL (       1 calls)
     potinit      :      3.06s CPU      3.13s WALL (       1 calls)
     hinit0       :      0.85s CPU      0.86s WALL (       1 calls)

     Called by electrons:
     c_bands      :    266.58s CPU    270.78s WALL (      17 calls)
     sum_band     :     28.84s CPU     29.78s WALL (      17 calls)
     v_of_rho     :      7.83s CPU      9.31s WALL (      17 calls)
     newd         :      2.61s CPU      3.20s WALL (      17 calls)
     PAW_pot      :      3.57s CPU      3.66s WALL (      17 calls)
     mix_rho      :      4.99s CPU      5.06s WALL (      17 calls)
     vdW_kernel   :      1.70s CPU      1.71s WALL (       1 calls)

     Called by c_bands:
     init_us_2    :      2.40s CPU      2.43s WALL (     468 calls)
     init_us_2:cp :      2.40s CPU      2.43s WALL (     468 calls)
     cegterg      :    258.64s CPU    262.63s WALL (     221 calls)

     Called by *egterg:
     cdiaghg      :     59.67s CPU     60.33s WALL (    1156 calls)
     h_psi        :    121.90s CPU    123.84s WALL (    1182 calls)
     s_psi        :     12.97s CPU     13.21s WALL (    1182 calls)
     g_psi        :      0.42s CPU      0.43s WALL (     948 calls)

     Called by h_psi:
     h_psi:calbec :     19.21s CPU     19.79s WALL (    1182 calls)
     vloc_psi     :     88.14s CPU     89.33s WALL (    1182 calls)
     add_vuspsi   :     13.52s CPU     13.67s WALL (    1182 calls)

     General routines
     calbec       :     26.58s CPU     27.35s WALL (    1455 calls)
     fft          :      7.10s CPU      8.51s WALL (    1131 calls)
     ffts         :      2.96s CPU      3.00s WALL (    4417 calls)
     fftw         :     86.38s CPU     87.44s WALL (  290111 calls)
     interpolate  :      0.58s CPU      0.60s WALL (      17 calls)

     Parallel routines

     PWSCF        :   5m28.45s CPU   5m39.44s WALL


   This run was terminated on:  12:10:12  27Jan2025            

=------------------------------------------------------------------------------=
   JOB DONE.
=------------------------------------------------------------------------------=
