  37  37   0   0
  0.4190497E+02  0.8468310E-09  0.8468310E-09  0.2496566E-08  0.5000000E-15
  1.000000000000000E-004
  CAR 
 unknown system                          
      8.62798314     -9.89554285  301     -0.07592418      1.00000000
     -9.896  0.0000E+00  0.0000E+00
     -9.834  0.0000E+00  0.0000E+00
     -9.772  0.0000E+00  0.0000E+00
     -9.710 -0.4402E-28 -0.2718E-29
     -9.649 -0.6509E-24 -0.4019E-25
     -9.587 -0.4459E-20 -0.2754E-21
     -9.525 -0.1414E-16 -0.8732E-18
     -9.463 -0.2006E-13 -0.1239E-14
     -9.402 -0.1343E-10 -0.8307E-12
     -9.340 -0.4114E-08 -0.2548E-09
     -9.278 -0.5716E-06 -0.3555E-07
     -9.216 -0.3550E-04 -0.2227E-05
     -9.155 -0.9559E-03 -0.6125E-04
     -9.093 -0.1034E-01 -0.6997E-03
     -9.031 -0.3353E-01 -0.2770E-02
     -8.969  0.5163E-01  0.4180E-03
     -8.908  0.3307E+00  0.2084E-01
     -8.846  0.6062E+00  0.5827E-01
     -8.784  0.2043E+01  0.1844E+00
     -8.722  0.3810E+01  0.4197E+00
     -8.661  0.2258E+01  0.5591E+00
     -8.599 -0.1827E-01  0.5580E+00
     -8.537  0.1812E+00  0.5691E+00
     -8.475  0.2549E+01  0.7266E+00
     -8.414  0.3810E+01  0.9618E+00
     -8.352  0.3552E+01  0.1181E+01
     -8.290  0.3748E+01  0.1413E+01
     -8.228  0.1894E+01  0.1529E+01
     -8.167  0.1070E-01  0.1530E+01
     -8.105 -0.3626E+00  0.1508E+01
     -8.043 -0.2616E+00  0.1492E+01
     -7.981  0.2121E+01  0.1623E+01
     -7.920  0.6604E+01  0.2030E+01
     -7.858  0.5997E+01  0.2401E+01
     -7.796  0.1670E+01  0.2504E+01
     -7.734  0.1817E+01  0.2616E+01
     -7.673  0.5427E+01  0.2951E+01
     -7.611  0.6249E+01  0.3337E+01
     -7.549  0.2814E+01  0.3511E+01
     -7.487  0.9747E+00  0.3571E+01
     -7.426  0.3017E+01  0.3757E+01
     -7.364  0.5504E+01  0.4097E+01
     -7.302  0.7451E+01  0.4557E+01
     -7.241  0.9004E+01  0.5113E+01
     -7.179  0.9476E+01  0.5698E+01
     -7.117  0.6992E+01  0.6130E+01
     -7.055  0.5168E+01  0.6449E+01
     -6.994  0.4981E+01  0.6756E+01
     -6.932  0.3998E+01  0.7003E+01
     -6.870  0.4247E+01  0.7266E+01
     -6.808  0.7085E+01  0.7703E+01
     -6.747  0.8419E+01  0.8223E+01
     -6.685  0.6191E+01  0.8605E+01
     -6.623  0.7419E+01  0.9063E+01
     -6.561  0.1374E+02  0.9911E+01
     -6.500  0.1426E+02  0.1079E+02
     -6.438  0.1123E+02  0.1149E+02
     -6.376  0.1116E+02  0.1217E+02
     -6.314  0.8949E+01  0.1273E+02
     -6.253  0.1000E+02  0.1334E+02
     -6.191  0.1942E+02  0.1454E+02
     -6.129  0.3223E+02  0.1653E+02
     -6.067  0.3683E+02  0.1881E+02
     -6.006  0.3148E+02  0.2075E+02
     -5.944  0.2915E+02  0.2255E+02
     -5.882  0.3224E+02  0.2454E+02
     -5.820  0.3649E+02  0.2680E+02
     -5.759  0.3038E+02  0.2867E+02
     -5.697  0.2602E+02  0.3028E+02
     -5.635  0.3309E+02  0.3232E+02
     -5.573  0.3987E+02  0.3478E+02
     -5.512  0.4278E+02  0.3742E+02
     -5.450  0.5210E+02  0.4064E+02
     -5.388  0.6356E+02  0.4457E+02
     -5.326  0.6463E+02  0.4856E+02
     -5.265  0.5570E+02  0.5200E+02
     -5.203  0.4461E+02  0.5475E+02
     -5.141  0.4039E+02  0.5724E+02
     -5.079  0.5036E+02  0.6035E+02
     -5.018  0.7073E+02  0.6472E+02
     -4.956  0.6142E+02  0.6851E+02
     -4.894  0.3110E+02  0.7043E+02
     -4.832  0.2481E+02  0.7197E+02
     -4.771  0.4042E+02  0.7446E+02
     -4.709  0.3946E+02  0.7690E+02
     -4.647  0.2359E+02  0.7835E+02
     -4.585  0.2580E+02  0.7995E+02
     -4.524  0.4276E+02  0.8259E+02
     -4.462  0.5800E+02  0.8617E+02
     -4.400  0.6250E+02  0.9003E+02
     -4.338  0.5309E+02  0.9330E+02
     -4.277  0.4375E+02  0.9601E+02
     -4.215  0.4161E+02  0.9857E+02
     -4.153  0.4824E+02  0.1016E+03
     -4.092  0.6020E+02  0.1053E+03
     -4.030  0.5887E+02  0.1089E+03
     -3.968  0.4736E+02  0.1118E+03
     -3.906  0.4201E+02  0.1144E+03
     -3.845  0.4033E+02  0.1169E+03
     -3.783  0.3668E+02  0.1192E+03
     -3.721  0.4337E+02  0.1219E+03
     -3.659  0.6076E+02  0.1256E+03
     -3.598  0.6291E+02  0.1295E+03
     -3.536  0.5607E+02  0.1330E+03
     -3.474  0.5700E+02  0.1365E+03
     -3.412  0.6843E+02  0.1407E+03
     -3.351  0.7632E+02  0.1454E+03
     -3.289  0.7153E+02  0.1498E+03
     -3.227  0.6570E+02  0.1539E+03
     -3.165  0.7358E+02  0.1584E+03
     -3.104  0.8838E+02  0.1639E+03
     -3.042  0.8380E+02  0.1691E+03
     -2.980  0.7657E+02  0.1738E+03
     -2.918  0.7818E+02  0.1786E+03
     -2.857  0.7567E+02  0.1833E+03
     -2.795  0.8593E+02  0.1886E+03
     -2.733  0.1032E+03  0.1950E+03
     -2.671  0.1030E+03  0.2013E+03
     -2.610  0.8134E+02  0.2063E+03
     -2.548  0.6200E+02  0.2102E+03
     -2.486  0.6298E+02  0.2141E+03
     -2.424  0.5977E+02  0.2178E+03
     -2.363  0.4379E+02  0.2205E+03
     -2.301  0.2907E+02  0.2223E+03
     -2.239  0.2494E+02  0.2238E+03
     -2.177  0.3168E+02  0.2257E+03
     -2.116  0.4563E+02  0.2286E+03
     -2.054  0.6723E+02  0.2327E+03
     -1.992  0.8885E+02  0.2382E+03
     -1.930  0.9120E+02  0.2438E+03
     -1.869  0.7795E+02  0.2486E+03
     -1.807  0.5836E+02  0.2523E+03
     -1.745  0.4385E+02  0.2550E+03
     -1.683  0.4295E+02  0.2576E+03
     -1.622  0.4810E+02  0.2606E+03
     -1.560  0.5683E+02  0.2641E+03
     -1.498  0.5824E+02  0.2677E+03
     -1.436  0.5431E+02  0.2710E+03
     -1.375  0.5929E+02  0.2747E+03
     -1.313  0.5954E+02  0.2784E+03
     -1.251  0.5099E+02  0.2815E+03
     -1.189  0.5686E+02  0.2850E+03
     -1.128  0.7566E+02  0.2897E+03
     -1.066  0.8550E+02  0.2950E+03
     -1.004  0.8457E+02  0.3002E+03
     -0.943  0.6877E+02  0.3045E+03
     -0.881  0.5667E+02  0.3080E+03
     -0.819  0.5705E+02  0.3115E+03
     -0.757  0.5044E+02  0.3146E+03
     -0.696  0.4260E+02  0.3172E+03
     -0.634  0.5274E+02  0.3205E+03
     -0.572  0.6295E+02  0.3244E+03
     -0.510  0.5963E+02  0.3280E+03
     -0.449  0.6028E+02  0.3318E+03
     -0.387  0.7167E+02  0.3362E+03
     -0.325  0.8999E+02  0.3418E+03
     -0.263  0.9307E+02  0.3475E+03
     -0.202  0.6824E+02  0.3517E+03
     -0.140  0.5829E+02  0.3553E+03
     -0.078  0.8864E+02  0.3608E+03
     -0.016  0.9268E+02  0.3665E+03
      0.045  0.5067E+02  0.3696E+03
      0.107  0.3371E+02  0.3717E+03
      0.169  0.5361E+02  0.3750E+03
      0.231  0.5464E+02  0.3784E+03
      0.292  0.4277E+02  0.3810E+03
      0.354  0.3759E+02  0.3834E+03
      0.416  0.2530E+02  0.3849E+03
      0.478  0.1167E+02  0.3856E+03
      0.539  0.3722E+01  0.3859E+03
      0.601  0.2090E+01  0.3860E+03
      0.663  0.5378E+01  0.3863E+03
      0.725  0.1244E+02  0.3871E+03
      0.786  0.1634E+02  0.3881E+03
      0.848  0.1114E+02  0.3888E+03
      0.910  0.7646E+01  0.3893E+03
      0.972  0.1107E+02  0.3900E+03
      1.033  0.9086E+01  0.3905E+03
      1.095  0.2139E+01  0.3906E+03
      1.157  0.3545E+01  0.3909E+03
      1.219  0.1173E+02  0.3916E+03
      1.280  0.1418E+02  0.3925E+03
      1.342  0.1188E+02  0.3932E+03
      1.404  0.1034E+02  0.3938E+03
      1.466  0.1572E+02  0.3948E+03
      1.527  0.2686E+02  0.3965E+03
      1.589  0.2517E+02  0.3980E+03
      1.651  0.1773E+02  0.3991E+03
      1.713  0.1552E+02  0.4001E+03
      1.774  0.9562E+01  0.4007E+03
      1.836  0.1822E+01  0.4008E+03
      1.898  0.1823E+01  0.4009E+03
      1.960  0.5433E+01  0.4012E+03
      2.021  0.7164E+01  0.4017E+03
      2.083  0.5523E+01  0.4020E+03
      2.145  0.4624E+01  0.4023E+03
      2.206  0.9033E+01  0.4029E+03
      2.268  0.1124E+02  0.4035E+03
      2.330  0.1083E+02  0.4042E+03
      2.392  0.1533E+02  0.4052E+03
      2.453  0.2193E+02  0.4065E+03
      2.515  0.1996E+02  0.4077E+03
      2.577  0.1031E+02  0.4084E+03
      2.639  0.6316E+01  0.4088E+03
      2.700  0.7255E+01  0.4092E+03
      2.762  0.1275E+02  0.4100E+03
      2.824  0.1948E+02  0.4112E+03
      2.886  0.1740E+02  0.4123E+03
      2.947  0.1143E+02  0.4130E+03
      3.009  0.7935E+01  0.4135E+03
      3.071  0.1181E+02  0.4142E+03
      3.133  0.1453E+02  0.4151E+03
      3.194  0.1130E+02  0.4158E+03
      3.256  0.9596E+01  0.4164E+03
      3.318  0.7523E+01  0.4169E+03
      3.380  0.2651E+01  0.4170E+03
      3.441  0.1207E+01  0.4171E+03
      3.503  0.6014E+01  0.4175E+03
      3.565  0.1281E+02  0.4183E+03
      3.627  0.1944E+02  0.4195E+03
      3.688  0.2388E+02  0.4209E+03
      3.750  0.2049E+02  0.4222E+03
      3.812  0.1125E+02  0.4229E+03
      3.874  0.4683E+01  0.4232E+03
      3.935  0.3229E+01  0.4234E+03
      3.997  0.3927E+01  0.4236E+03
      4.059  0.5597E+01  0.4240E+03
      4.121  0.7792E+01  0.4245E+03
      4.182  0.8156E+01  0.4250E+03
      4.244  0.6153E+01  0.4253E+03
      4.306  0.5322E+01  0.4257E+03
      4.368  0.1398E+02  0.4265E+03
      4.429  0.2538E+02  0.4281E+03
      4.491  0.1978E+02  0.4293E+03
      4.553  0.8315E+01  0.4298E+03
      4.615  0.7982E+01  0.4303E+03
      4.676  0.1239E+02  0.4311E+03
      4.738  0.1465E+02  0.4320E+03
      4.800  0.1192E+02  0.4327E+03
      4.862  0.7507E+01  0.4332E+03
      4.923  0.5775E+01  0.4336E+03
      4.985  0.8257E+01  0.4341E+03
      5.047  0.9709E+01  0.4347E+03
      5.109  0.7146E+01  0.4351E+03
      5.170  0.7213E+01  0.4355E+03
      5.232  0.1142E+02  0.4363E+03
      5.294  0.1460E+02  0.4372E+03
      5.355  0.1256E+02  0.4379E+03
      5.417  0.9886E+01  0.4385E+03
      5.479  0.1375E+02  0.4394E+03
      5.541  0.2088E+02  0.4407E+03
      5.602  0.2576E+02  0.4423E+03
      5.664  0.2568E+02  0.4439E+03
      5.726  0.2335E+02  0.4453E+03
      5.788  0.2084E+02  0.4466E+03
      5.849  0.1799E+02  0.4477E+03
      5.911  0.1651E+02  0.4487E+03
      5.973  0.2139E+02  0.4500E+03
      6.035  0.3077E+02  0.4519E+03
      6.096  0.2811E+02  0.4537E+03
      6.158  0.1642E+02  0.4547E+03
      6.220  0.1412E+02  0.4556E+03
      6.282  0.2130E+02  0.4569E+03
      6.343  0.3085E+02  0.4588E+03
      6.405  0.2918E+02  0.4606E+03
      6.467  0.1700E+02  0.4616E+03
      6.529  0.1451E+02  0.4625E+03
      6.590  0.2204E+02  0.4639E+03
      6.652  0.2575E+02  0.4655E+03
      6.714  0.2528E+02  0.4670E+03
      6.776  0.2500E+02  0.4686E+03
      6.837  0.2307E+02  0.4700E+03
      6.899  0.1887E+02  0.4712E+03
      6.961  0.1170E+02  0.4719E+03
      7.023  0.9050E+01  0.4725E+03
      7.084  0.1779E+02  0.4735E+03
      7.146  0.2465E+02  0.4751E+03
      7.208  0.2232E+02  0.4764E+03
      7.270  0.1755E+02  0.4775E+03
      7.331  0.1077E+02  0.4782E+03
      7.393  0.4683E+01  0.4785E+03
      7.455  0.3129E+01  0.4787E+03
      7.517  0.4793E+01  0.4790E+03
      7.578  0.6732E+01  0.4794E+03
      7.640  0.6922E+01  0.4798E+03
      7.702  0.3177E+01  0.4800E+03
      7.764  0.8180E-01  0.4800E+03
      7.825 -0.2698E+00  0.4800E+03
      7.887 -0.5761E-01  0.4800E+03
      7.949 -0.4317E-02  0.4800E+03
      8.011 -0.1365E-03  0.4800E+03
      8.072 -0.1920E-05  0.4800E+03
      8.134 -0.1230E-07  0.4800E+03
      8.196 -0.3626E-10  0.4800E+03
      8.258 -0.5006E-13  0.4800E+03
      8.319  0.0000E+00  0.4800E+03
      8.381  0.0000E+00  0.4800E+03
      8.443  0.0000E+00  0.4800E+03
      8.504  0.0000E+00  0.4800E+03
      8.566  0.0000E+00  0.4800E+03
      8.628  0.0000E+00  0.4800E+03
