   37   37    1    1
  0.4190497E+02  0.8468310E-09  0.8468310E-09  0.2496566E-08  0.5000000E-15
  1.000000000000000E-004
  CAR 
 unknown system                          
    361     13    240
 
  0.1276756E-14  0.1276756E-14  0.1276756E-14  0.4000000E-01
      1         -8.895543   1.000000
      2         -7.756449   1.000000
      3         -7.015761   1.000000
      4         -6.500665   1.000000
      5         -6.474482   1.000000
      6         -6.456679   1.000000
      7         -6.450945   1.000000
      8         -6.440903   1.000000
      9         -6.432988   1.000000
     10         -6.420988   1.000000
     11         -6.142536   1.000000
     12         -5.916560   1.000000
     13         -5.913182   1.000000
     14         -5.904992   1.000000
     15         -5.899675   1.000000
     16         -5.896020   1.000000
     17         -5.824722   1.000000
     18         -5.466248   1.000000
     19         -5.458140   1.000000
     20         -5.455239   1.000000
     21         -5.446042   1.000000
     22         -5.443437   1.000000
     23         -5.337275   1.000000
     24         -5.234126   1.000000
     25         -5.225076   1.000000
     26         -5.224439   1.000000
     27         -5.217622   1.000000
     28         -5.215640   1.000000
     29         -5.119161   1.000000
     30         -5.029515   1.000000
     31         -5.028237   1.000000
     32         -5.024312   1.000000
     33         -5.017197   1.000000
     34         -5.015057   1.000000
     35         -4.971926   1.000000
     36         -4.957229   1.000000
     37         -4.949258   1.000000
     38         -4.944586   1.000000
     39         -4.914392   1.000000
     40         -4.907185   1.000000
     41         -4.591211   1.000000
     42         -4.380733   1.000000
     43         -4.379644   1.000000
     44         -4.353770   1.000000
     45         -4.342078   1.000000
     46         -4.327463   1.000000
     47         -4.314738   1.000000
     48         -4.297562   1.000000
     49         -4.289902   1.000000
     50         -4.288592   1.000000
     51         -4.139889   1.000000
     52         -4.131805   1.000000
     53         -4.119825   1.000000
     54         -4.040849   1.000000
     55         -4.030619   1.000000
     56         -3.589584   1.000000
     57         -3.577721   1.000000
     58         -3.575991   1.000000
     59         -3.562428   1.000000
     60         -3.551851   1.000000
     61         -3.500645   1.000000
     62         -3.490802   1.000000
     63         -3.390783   1.000000
     64         -3.378776   1.000000
     65         -3.372938   1.000000
     66         -3.371588   1.000000
     67         -3.366334   1.000000
     68         -3.360081   1.000000
     69         -3.352058   1.000000
     70         -3.322322   1.000000
     71         -3.304230   1.000000
     72         -3.301806   1.000000
     73         -3.297510   1.000000
     74         -3.292199   1.000000
     75         -3.267643   1.000000
     76         -3.261712   1.000000
     77         -3.250792   1.000000
     78         -3.158508   1.000000
     79         -3.150585   1.000000
     80         -3.147584   1.000000
     81         -3.136749   1.000000
     82         -3.131903   1.000000
     83         -3.126760   1.000000
     84         -2.942338   1.000000
     85         -2.931067   1.000000
     86         -2.926305   1.000000
     87         -2.914110   1.000000
     88         -2.905392   1.000000
     89         -2.893957   1.000000
     90         -2.891803   1.000000
     91         -2.880218   1.000000
     92         -2.840515   1.000000
     93         -2.824292   1.000000
     94         -2.800134   1.000000
     95         -2.782421   1.000000
     96         -2.741678   1.000000
     97         -2.737649   1.000000
     98         -2.696484   1.000000
     99         -2.692993   1.000000
    100         -2.683932   1.000000
    101         -2.621391   1.000000
    102         -2.529369   1.000000
    103         -2.521388   1.000000
    104         -2.516384   1.000000
    105         -2.507523   1.000000
    106         -2.496305   1.000000
    107         -2.490980   1.000000
    108         -2.259686   1.000000
    109         -2.034486   1.000000
    110         -2.004936   1.000000
    111         -2.003782   1.000000
    112         -1.997503   1.000000
    113         -1.992555   1.000000
    114         -1.979695   1.000000
    115         -1.979305   1.000000
    116         -1.970835   1.000000
    117         -1.959720   1.000000
    118         -1.950205   1.000000
    119         -1.936347   1.000000
    120         -1.876764   1.000000
    121         -1.864025   1.000000
    122         -1.812815   1.000000
    123         -1.736387   1.000000
    124         -1.730719   1.000000
    125         -1.719944   1.000000
    126         -1.714919   1.000000
    127         -1.700936   1.000000
    128         -1.604680   1.000000
    129         -1.589179   1.000000
    130         -1.538993   1.000000
    131         -1.535623   1.000000
    132         -1.526784   1.000000
    133         -1.486147   1.000000
    134         -1.301821   1.000000
    135         -1.285790   1.000000
    136         -1.277047   1.000000
    137         -1.256955   1.000000
    138         -1.250068   1.000000
    139         -1.246048   1.000000
    140         -1.191872   1.000000
    141         -1.177066   1.000000
    142         -1.066844   1.000000
    143         -1.049377   1.000000
    144         -1.032733   1.000000
    145         -1.026649   1.000000
    146         -1.021759   1.000000
    147         -1.017595   1.000000
    148         -0.915655   1.000000
    149         -0.881934   1.000000
    150         -0.863991   1.000000
    151         -0.844721   1.000000
    152         -0.832397   1.000000
    153         -0.828521   1.000000
    154         -0.824325   1.000000
    155         -0.816265   1.000000
    156         -0.810156   1.000000
    157         -0.803094   1.000000
    158         -0.798998   1.000000
    159         -0.796695   1.000000
    160         -0.738289   1.000000
    161         -0.709132   1.000000
    162         -0.695577   1.000000
    163         -0.691128   1.000000
    164         -0.668171   1.000000
    165         -0.661406   1.000000
    166         -0.642610   1.000000
    167         -0.641444   1.000000
    168         -0.602798   1.000000
    169         -0.593092   1.000000
    170         -0.578769   1.000000
    171         -0.567655   1.000000
    172         -0.558001   1.000000
    173         -0.542730   1.000000
    174         -0.536794   1.000000
    175         -0.535329   1.000000
    176         -0.459642   1.000000
    177         -0.452366   1.000001
    178         -0.444998   1.000001
    179         -0.437638   1.000002
    180         -0.428174   1.000004
    181         -0.427290   1.000004
    182         -0.390883   1.000039
    183         -0.349274   1.000383
    184         -0.338785   1.000640
    185         -0.324748   1.001220
    186         -0.321538   1.001405
    187         -0.309724   1.002315
    188         -0.305575   1.002738
    189         -0.121576   0.845288
    190         -0.105377   0.737672
    191         -0.021519   0.106672
    192         -0.018353   0.091181
    193         -0.008036   0.047715
    194          0.004692   0.008393
    195          0.008810  -0.001187
    196          0.011829  -0.007311
    197          0.516660  -0.000000
    198          0.820590  -0.000000
    199          0.831439  -0.000000
    200          0.884771  -0.000000
    201          0.886294  -0.000000
    202          0.903112  -0.000000
    203          0.904842  -0.000000
    204          2.793239   0.000000
    205          3.113842   0.000000
    206          3.171421   0.000000
    207          3.188615   0.000000
    208          3.218992   0.000000
    209          3.222582   0.000000
    210          4.535624   0.000000
    211          4.721495   0.000000
    212          4.791841   0.000000
    213          4.809552   0.000000
    214          4.823686   0.000000
    215          4.827843   0.000000
    216          4.932608   0.000000
    217          5.088405   0.000000
    218          5.161599   0.000000
    219          5.435273   0.000000
    220          5.545577   0.000000
    221          5.779039   0.000000
    222          5.832386   0.000000
    223          5.843771   0.000000
    224          5.855865   0.000000
    225          5.872017   0.000000
    226          6.050779   0.000000
    227          6.389021   0.000000
    228          6.604653   0.000000
    229          6.620180   0.000000
    230          6.628093   0.000000
    231          6.830942   0.000000
    232          7.002400   0.000000
    233          7.131850   0.000000
    234          7.158372   0.000000
    235          7.167380   0.000000
    236          7.178110   0.000000
    237          7.182488   0.000000
    238          7.212676   0.000000
    239          7.257192   0.000000
    240          7.627983   0.000000
 
  0.2000000E+00  0.1278043E-14  0.1276756E-14  0.8000000E-01
      1         -8.747215   1.000000
      2         -7.624413   1.000000
      3         -6.995393   1.000000
      4         -6.902140   1.000000
      5         -6.555122   1.000000
      6         -6.542038   1.000000
      7         -6.358815   1.000000
      8         -6.268246   1.000000
      9         -6.225140   1.000000
     10         -6.205930   1.000000
     11         -6.100665   1.000000
     12         -5.999373   1.000000
     13         -5.987860   1.000000
     14         -5.847135   1.000000
     15         -5.835091   1.000000
     16         -5.827459   1.000000
     17         -5.731818   1.000000
     18         -5.533021   1.000000
     19         -5.426887   1.000000
     20         -5.416334   1.000000
     21         -5.407685   1.000000
     22         -5.389465   1.000000
     23         -5.330055   1.000000
     24         -5.301410   1.000000
     25         -5.273645   1.000000
     26         -5.224502   1.000000
     27         -5.218044   1.000000
     28         -5.207191   1.000000
     29         -5.169428   1.000000
     30         -5.113854   1.000000
     31         -5.104699   1.000000
     32         -5.041046   1.000000
     33         -5.015294   1.000000
     34         -5.008457   1.000000
     35         -5.007878   1.000000
     36         -4.873991   1.000000
     37         -4.809897   1.000000
     38         -4.780951   1.000000
     39         -4.765183   1.000000
     40         -4.742610   1.000000
     41         -4.597352   1.000000
     42         -4.497282   1.000000
     43         -4.491280   1.000000
     44         -4.448357   1.000000
     45         -4.419205   1.000000
     46         -4.400783   1.000000
     47         -4.389457   1.000000
     48         -4.301165   1.000000
     49         -4.209447   1.000000
     50         -4.152825   1.000000
     51         -4.129562   1.000000
     52         -4.108423   1.000000
     53         -4.077040   1.000000
     54         -4.054200   1.000000
     55         -4.027921   1.000000
     56         -3.826107   1.000000
     57         -3.737792   1.000000
     58         -3.731560   1.000000
     59         -3.678117   1.000000
     60         -3.656089   1.000000
     61         -3.628786   1.000000
     62         -3.580023   1.000000
     63         -3.568197   1.000000
     64         -3.563319   1.000000
     65         -3.533274   1.000000
     66         -3.526649   1.000000
     67         -3.461225   1.000000
     68         -3.448138   1.000000
     69         -3.410270   1.000000
     70         -3.370221   1.000000
     71         -3.361106   1.000000
     72         -3.336615   1.000000
     73         -3.280702   1.000000
     74         -3.268944   1.000000
     75         -3.259166   1.000000
     76         -3.179078   1.000000
     77         -3.172410   1.000000
     78         -3.155187   1.000000
     79         -3.133255   1.000000
     80         -3.099188   1.000000
     81         -3.075939   1.000000
     82         -3.057080   1.000000
     83         -3.034039   1.000000
     84         -2.997394   1.000000
     85         -2.964003   1.000000
     86         -2.953128   1.000000
     87         -2.943436   1.000000
     88         -2.932604   1.000000
     89         -2.911803   1.000000
     90         -2.899225   1.000000
     91         -2.868407   1.000000
     92         -2.814572   1.000000
     93         -2.801725   1.000000
     94         -2.787492   1.000000
     95         -2.770299   1.000000
     96         -2.760748   1.000000
     97         -2.745703   1.000000
     98         -2.720219   1.000000
     99         -2.697203   1.000000
    100         -2.690841   1.000000
    101         -2.609357   1.000000
    102         -2.567769   1.000000
    103         -2.539352   1.000000
    104         -2.531017   1.000000
    105         -2.508033   1.000000
    106         -2.503716   1.000000
    107         -2.499995   1.000000
    108         -2.477594   1.000000
    109         -2.443824   1.000000
    110         -2.434714   1.000000
    111         -2.425073   1.000000
    112         -2.408935   1.000000
    113         -2.194976   1.000000
    114         -2.071608   1.000000
    115         -2.041551   1.000000
    116         -2.011021   1.000000
    117         -2.002746   1.000000
    118         -1.992985   1.000000
    119         -1.988567   1.000000
    120         -1.954519   1.000000
    121         -1.943869   1.000000
    122         -1.860070   1.000000
    123         -1.802820   1.000000
    124         -1.784519   1.000000
    125         -1.716701   1.000000
    126         -1.662646   1.000000
    127         -1.650594   1.000000
    128         -1.602195   1.000000
    129         -1.595600   1.000000
    130         -1.571568   1.000000
    131         -1.546297   1.000000
    132         -1.531766   1.000000
    133         -1.522614   1.000000
    134         -1.448283   1.000000
    135         -1.412965   1.000000
    136         -1.400880   1.000000
    137         -1.386231   1.000000
    138         -1.375131   1.000000
    139         -1.297006   1.000000
    140         -1.191096   1.000000
    141         -1.184533   1.000000
    142         -1.163145   1.000000
    143         -1.150768   1.000000
    144         -1.135283   1.000000
    145         -1.117478   1.000000
    146         -1.069018   1.000000
    147         -1.033018   1.000000
    148         -1.001797   1.000000
    149         -0.990096   1.000000
    150         -0.979528   1.000000
    151         -0.937521   1.000000
    152         -0.920758   1.000000
    153         -0.904761   1.000000
    154         -0.890529   1.000000
    155         -0.824056   1.000000
    156         -0.795173   1.000000
    157         -0.777230   1.000000
    158         -0.757737   1.000000
    159         -0.730746   1.000000
    160         -0.663973   1.000000
    161         -0.640356   1.000000
    162         -0.625904   1.000000
    163         -0.602488   1.000000
    164         -0.593688   1.000000
    165         -0.571076   1.000000
    166         -0.548720   1.000000
    167         -0.483751   1.000000
    168         -0.472369   1.000000
    169         -0.422296   1.000006
    170         -0.403451   1.000018
    171         -0.399530   1.000023
    172         -0.383342   1.000061
    173         -0.361310   1.000207
    174         -0.353720   1.000306
    175         -0.342589   1.000533
    176         -0.340251   1.000596
    177         -0.327299   1.001089
    178         -0.276518   1.007842
    179         -0.273827   1.008550
    180         -0.141481   0.943396
    181         -0.123269   0.855165
    182         -0.102545   0.716679
    183         -0.089930   0.617245
    184         -0.072290   0.469264
    185         -0.067883   0.432195
    186         -0.033797   0.176152
    187         -0.023403   0.116372
    188          0.000649   0.019248
    189          0.008619  -0.000775
    190          0.071216  -0.028906
    191          0.108445  -0.012809
    192          0.130254  -0.006515
    193          0.185407  -0.000688
    194          0.290909  -0.000001
    195          0.306178  -0.000000
    196          0.314273  -0.000000
    197          0.347454  -0.000000
    198          0.694105  -0.000000
    199          0.756761  -0.000000
    200          1.239704  -0.000000
    201          1.466622  -0.000000
    202          1.481567  -0.000000
    203          1.596309  -0.000000
    204          2.387014  -0.000000
    205          2.782374   0.000000
    206          2.909095   0.000000
    207          3.537517   0.000000
    208          3.645750   0.000000
    209          3.661225   0.000000
    210          3.742302   0.000000
    211          3.984583   0.000000
    212          4.408469   0.000000
    213          4.603764   0.000000
    214          4.735892   0.000000
    215          4.935147   0.000000
    216          5.001914   0.000000
    217          5.027489   0.000000
    218          5.202100   0.000000
    219          5.268799   0.000000
    220          5.476661   0.000000
    221          5.659823   0.000000
    222          5.683803   0.000000
    223          5.799398   0.000000
    224          5.919629   0.000000
    225          6.104627   0.000000
    226          6.165819   0.000000
    227          6.198097   0.000000
    228          6.340940   0.000000
    229          6.359991   0.000000
    230          6.554727   0.000000
    231          6.710630   0.000000
    232          6.761899   0.000000
    233          6.802312   0.000000
    234          6.875092   0.000000
    235          6.931144   0.000000
    236          7.076673   0.000000
    237          7.284507   0.000000
    238          7.464706   0.000000
    239          7.547193   0.000000
    240          7.599122   0.000000
 
  0.2000000E+00  0.2000000E+00  0.1276756E-14  0.8000000E-01
      1         -8.748297   1.000000
      2         -7.636173   1.000000
      3         -7.048809   1.000000
      4         -6.844195   1.000000
      5         -6.561420   1.000000
      6         -6.550018   1.000000
      7         -6.359429   1.000000
      8         -6.270196   1.000000
      9         -6.216842   1.000000
     10         -6.206648   1.000000
     11         -6.152007   1.000000
     12         -6.000430   1.000000
     13         -5.882693   1.000000
     14         -5.847435   1.000000
     15         -5.834991   1.000000
     16         -5.826527   1.000000
     17         -5.798105   1.000000
     18         -5.530268   1.000000
     19         -5.416580   1.000000
     20         -5.412280   1.000000
     21         -5.407105   1.000000
     22         -5.340329   1.000000
     23         -5.330205   1.000000
     24         -5.300530   1.000000
     25         -5.273088   1.000000
     26         -5.266053   1.000000
     27         -5.224166   1.000000
     28         -5.207279   1.000000
     29         -5.115546   1.000000
     30         -5.109057   1.000000
     31         -5.101354   1.000000
     32         -5.023625   1.000000
     33         -5.015241   1.000000
     34         -5.012990   1.000000
     35         -5.003351   1.000000
     36         -4.837374   1.000000
     37         -4.807932   1.000000
     38         -4.782750   1.000000
     39         -4.777219   1.000000
     40         -4.758637   1.000000
     41         -4.579456   1.000000
     42         -4.496408   1.000000
     43         -4.492322   1.000000
     44         -4.453379   1.000000
     45         -4.419852   1.000000
     46         -4.412713   1.000000
     47         -4.390643   1.000000
     48         -4.320048   1.000000
     49         -4.213332   1.000000
     50         -4.164886   1.000000
     51         -4.129789   1.000000
     52         -4.114823   1.000000
     53         -4.070241   1.000000
     54         -4.046544   1.000000
     55         -4.008722   1.000000
     56         -3.828056   1.000000
     57         -3.735975   1.000000
     58         -3.727928   1.000000
     59         -3.676945   1.000000
     60         -3.666575   1.000000
     61         -3.635478   1.000000
     62         -3.579938   1.000000
     63         -3.574803   1.000000
     64         -3.555047   1.000000
     65         -3.531744   1.000000
     66         -3.523091   1.000000
     67         -3.492772   1.000000
     68         -3.441550   1.000000
     69         -3.390646   1.000000
     70         -3.384152   1.000000
     71         -3.367659   1.000000
     72         -3.346671   1.000000
     73         -3.277047   1.000000
     74         -3.265638   1.000000
     75         -3.259269   1.000000
     76         -3.183164   1.000000
     77         -3.166734   1.000000
     78         -3.158805   1.000000
     79         -3.131524   1.000000
     80         -3.087698   1.000000
     81         -3.077679   1.000000
     82         -3.063822   1.000000
     83         -3.033479   1.000000
     84         -2.983330   1.000000
     85         -2.966004   1.000000
     86         -2.963487   1.000000
     87         -2.935968   1.000000
     88         -2.928088   1.000000
     89         -2.905733   1.000000
     90         -2.903547   1.000000
     91         -2.862818   1.000000
     92         -2.825538   1.000000
     93         -2.802858   1.000000
     94         -2.782693   1.000000
     95         -2.779653   1.000000
     96         -2.760086   1.000000
     97         -2.758155   1.000000
     98         -2.725083   1.000000
     99         -2.704290   1.000000
    100         -2.684325   1.000000
    101         -2.611521   1.000000
    102         -2.562871   1.000000
    103         -2.551076   1.000000
    104         -2.543085   1.000000
    105         -2.515304   1.000000
    106         -2.502934   1.000000
    107         -2.497950   1.000000
    108         -2.494135   1.000000
    109         -2.450116   1.000000
    110         -2.436973   1.000000
    111         -2.430578   1.000000
    112         -2.416018   1.000000
    113         -2.172330   1.000000
    114         -2.080294   1.000000
    115         -2.045297   1.000000
    116         -2.029495   1.000000
    117         -2.005017   1.000000
    118         -1.987591   1.000000
    119         -1.981171   1.000000
    120         -1.950843   1.000000
    121         -1.930778   1.000000
    122         -1.914790   1.000000
    123         -1.818828   1.000000
    124         -1.786051   1.000000
    125         -1.711607   1.000000
    126         -1.664800   1.000000
    127         -1.649968   1.000000
    128         -1.612485   1.000000
    129         -1.600246   1.000000
    130         -1.571804   1.000000
    131         -1.548400   1.000000
    132         -1.532786   1.000000
    133         -1.529148   1.000000
    134         -1.441367   1.000000
    135         -1.400970   1.000000
    136         -1.394879   1.000000
    137         -1.382658   1.000000
    138         -1.372736   1.000000
    139         -1.202761   1.000000
    140         -1.198151   1.000000
    141         -1.190485   1.000000
    142         -1.170703   1.000000
    143         -1.157940   1.000000
    144         -1.139479   1.000000
    145         -1.118355   1.000000
    146         -1.055947   1.000000
    147         -1.044027   1.000000
    148         -1.022239   1.000000
    149         -0.993624   1.000000
    150         -0.982635   1.000000
    151         -0.934416   1.000000
    152         -0.924992   1.000000
    153         -0.909102   1.000000
    154         -0.904341   1.000000
    155         -0.822683   1.000000
    156         -0.801784   1.000000
    157         -0.772091   1.000000
    158         -0.757460   1.000000
    159         -0.709417   1.000000
    160         -0.674384   1.000000
    161         -0.666618   1.000000
    162         -0.621254   1.000000
    163         -0.612389   1.000000
    164         -0.606708   1.000000
    165         -0.562798   1.000000
    166         -0.543827   1.000000
    167         -0.486114   1.000000
    168         -0.473941   1.000000
    169         -0.411848   1.000011
    170         -0.404874   1.000017
    171         -0.391638   1.000038
    172         -0.372069   1.000116
    173         -0.362301   1.000196
    174         -0.348622   1.000396
    175         -0.344072   1.000496
    176         -0.338573   1.000646
    177         -0.328307   1.001040
    178         -0.276021   1.007970
    179         -0.270589   1.009462
    180         -0.132317   0.903168
    181         -0.124234   0.860676
    182         -0.108698   0.761531
    183         -0.081783   0.549485
    184         -0.068413   0.436629
    185         -0.060701   0.372809
    186         -0.036226   0.191598
    187         -0.010156   0.055778
    188         -0.006483   0.042091
    189          0.006529   0.003940
    190          0.092789  -0.019112
    191          0.106189  -0.013632
    192          0.127382  -0.007174
    193          0.190406  -0.000541
    194          0.296604  -0.000001
    195          0.299060  -0.000001
    196          0.310300  -0.000000
    197          0.355483  -0.000000
    198          0.704818  -0.000000
    199          0.738376  -0.000000
    200          1.253795  -0.000000
    201          1.451316  -0.000000
    202          1.482027  -0.000000
    203          1.608255  -0.000000
    204          2.351552  -0.000000
    205          2.858879   0.000000
    206          2.899390   0.000000
    207          3.495794   0.000000
    208          3.651125   0.000000
    209          3.689069   0.000000
    210          3.729759   0.000000
    211          3.931744   0.000000
    212          4.391811   0.000000
    213          4.609232   0.000000
    214          4.729804   0.000000
    215          4.974399   0.000000
    216          5.003410   0.000000
    217          5.028887   0.000000
    218          5.243165   0.000000
    219          5.325176   0.000000
    220          5.447880   0.000000
    221          5.585514   0.000000
    222          5.704724   0.000000
    223          5.878565   0.000000
    224          5.893460   0.000000
    225          6.084806   0.000000
    226          6.166739   0.000000
    227          6.258818   0.000000
    228          6.343324   0.000000
    229          6.353975   0.000000
    230          6.626677   0.000000
    231          6.690188   0.000000
    232          6.729186   0.000000
    233          6.795382   0.000000
    234          6.798414   0.000000
    235          6.935861   0.000000
    236          7.062605   0.000000
    237          7.234705   0.000000
    238          7.460354   0.000000
    239          7.606000   0.000000
    240          7.621560   0.000000
 
  0.1276756E-14  0.2000000E+00  0.1276756E-14  0.8000000E-01
      1         -8.747058   1.000000
      2         -7.624347   1.000000
      3         -6.991816   1.000000
      4         -6.899757   1.000000
      5         -6.561838   1.000000
      6         -6.543196   1.000000
      7         -6.358472   1.000000
      8         -6.259306   1.000000
      9         -6.224566   1.000000
     10         -6.215782   1.000000
     11         -6.101581   1.000000
     12         -6.001942   1.000000
     13         -5.988095   1.000000
     14         -5.843174   1.000000
     15         -5.831848   1.000000
     16         -5.824004   1.000000
     17         -5.731547   1.000000
     18         -5.537157   1.000000
     19         -5.424610   1.000000
     20         -5.414264   1.000000
     21         -5.405694   1.000000
     22         -5.388300   1.000000
     23         -5.333575   1.000000
     24         -5.301683   1.000000
     25         -5.277241   1.000000
     26         -5.222711   1.000000
     27         -5.216486   1.000000
     28         -5.205539   1.000000
     29         -5.169579   1.000000
     30         -5.118182   1.000000
     31         -5.107099   1.000000
     32         -5.030817   1.000000
     33         -5.016672   1.000000
     34         -5.010136   1.000000
     35         -5.007901   1.000000
     36         -4.873083   1.000000
     37         -4.810048   1.000000
     38         -4.778712   1.000000
     39         -4.769089   1.000000
     40         -4.750174   1.000000
     41         -4.597245   1.000000
     42         -4.500773   1.000000
     43         -4.495751   1.000000
     44         -4.448985   1.000000
     45         -4.416630   1.000000
     46         -4.397829   1.000000
     47         -4.388309   1.000000
     48         -4.301242   1.000000
     49         -4.212650   1.000000
     50         -4.156266   1.000000
     51         -4.125399   1.000000
     52         -4.111682   1.000000
     53         -4.075793   1.000000
     54         -4.053125   1.000000
     55         -4.026264   1.000000
     56         -3.837778   1.000000
     57         -3.735517   1.000000
     58         -3.729933   1.000000
     59         -3.690500   1.000000
     60         -3.665313   1.000000
     61         -3.633539   1.000000
     62         -3.592717   1.000000
     63         -3.559644   1.000000
     64         -3.552186   1.000000
     65         -3.530217   1.000000
     66         -3.520646   1.000000
     67         -3.461010   1.000000
     68         -3.446765   1.000000
     69         -3.413053   1.000000
     70         -3.372245   1.000000
     71         -3.363601   1.000000
     72         -3.340300   1.000000
     73         -3.265549   1.000000
     74         -3.252100   1.000000
     75         -3.240122   1.000000
     76         -3.182955   1.000000
     77         -3.175871   1.000000
     78         -3.158327   1.000000