       N       E                     dE             d eps       ncg     rms          rms(c)
DAV:   1    -0.104701618263E+03   -0.10470E+03   -0.17685E+00  6816   0.224E+00    0.346E+00
RMM:   2    -0.112228147272E+03   -0.75265E+01   -0.15120E+00  6763   0.183E+00    0.296E+01
RMM:   3    -0.104819286203E+03    0.74089E+01   -0.93601E-01  6849   0.167E+00    0.496E+00
RMM:   4    -0.104582414874E+03    0.23687E+00   -0.14482E-01  6714   0.621E-01    0.131E+00
RMM:   5    -0.104575482765E+03    0.69321E-02   -0.27615E-02  6837   0.275E-01    0.101E+00
RMM:   6    -0.104569463952E+03    0.60188E-02   -0.55989E-03  6981   0.134E-01    0.496E-01
RMM:   7    -0.104570265522E+03   -0.80157E-03   -0.27006E-03  7011   0.837E-02    0.560E-01
RMM:   8    -0.104568864213E+03    0.14013E-02   -0.18583E-03  7068   0.747E-02    0.229E-01
RMM:   9    -0.104568696201E+03    0.16801E-03   -0.71433E-04  6899   0.458E-02    0.132E-01
RMM:  10    -0.104568614062E+03    0.82140E-04   -0.16509E-04  6971   0.223E-02    0.654E-02
RMM:  11    -0.104568671298E+03   -0.57236E-04   -0.73008E-05  6710   0.142E-02    0.755E-02
RMM:  12    -0.104568726804E+03   -0.55506E-04   -0.49648E-05  6201   0.120E-02    0.495E-02
RMM:  13    -0.104568749070E+03   -0.22266E-04   -0.24009E-05  4936   0.842E-03    0.171E-02
RMM:  14    -0.104568774980E+03   -0.25911E-04   -0.66602E-06  4432   0.402E-03    0.113E-02
RMM:  15    -0.104568792016E+03   -0.17036E-04   -0.25102E-06  3969   0.240E-03    0.708E-03
RMM:  16    -0.104568808564E+03   -0.16548E-04   -0.12536E-06  2964   0.177E-03    0.589E-03
RMM:  17    -0.104568849586E+03   -0.41022E-04   -0.45495E-06  4351   0.265E-03    0.402E-03
RMM:  18    -0.104568863893E+03   -0.14307E-04   -0.12324E-06  2588   0.154E-03    0.254E-03
RMM:  19    -0.104568878698E+03   -0.14805E-04   -0.14091E-06  2890   0.161E-03    0.184E-03
RMM:  20    -0.104568886018E+03   -0.73202E-05   -0.57644E-07  2246   0.132E-03
   1 F= -.10456889E+03 E0= -.10453792E+03  d E =-.929120E-01
