 vasp.6.4.2 20Jul23 (build Mar 01 2024 16:46:03) complex                        
  
 executed on             LinuxIFC date 2025.01.15  06:15:04
 running   48 mpi-ranks, on    1 nodes
 distrk:  each k-point on   48 cores,    1 groups
 distr:  one band on NCORE=   1 cores,   48 groups


--------------------------------------------------------------------------------------------------------


 INCAR:
   ENCUT = 680.290000
   SIGMA = 0.100000
   ZAB_VDW = -1.886700
   EDIFF = 1.00e-05
   ALGO = Fast
   GGA = BF
   IBRION = -1
   ISMEAR = 1
   ISPIN = 1
   ISYM = 0
   LUSE_VDW = .TRUE.
   LREAL = Auto

 POTCAR:    PAW_PBE Pt 04Feb2005                  
 POTCAR:    PAW_PBE H 15Jun2001                   
 -----------------------------------------------------------------------------
|                                                                             |
|           W    W    AA    RRRRR   N    N  II  N    N   GGGG   !!!           |
|           W    W   A  A   R    R  NN   N  II  NN   N  G    G  !!!           |
|           W    W  A    A  R    R  N N  N  II  N N  N  G       !!!           |
|           W WW W  AAAAAA  RRRRR   N  N N  II  N  N N  G  GGG   !            |
|           WW  WW  A    A  R   R   N   NN  II  N   NN  G    G                |
|           W    W  A    A  R    R  N    N  II  N    N   GGGG   !!!           |
|                                                                             |
|     For optimal performance we recommend to set                             |
|       NCORE = 2 up to number-of-cores-per-socket                            |
|     NCORE specifies how many cores store one orbital (NPAR=cpu/NCORE).      |
|     This setting can greatly improve the performance of VASP for DFT.       |
|     The default, NCORE=1 might be grossly inefficient on modern             |
|     multi-core architectures or massively parallel machines. Do your        |
|     own testing! More info at https://www.vasp.at/wiki/index.php/NCORE      |
|     Unfortunately you need to use the default for GW and RPA                |
|     calculations (for HF NCORE is supported but not extensively tested      |
|     yet).                                                                   |
|                                                                             |
 -----------------------------------------------------------------------------

 -----------------------------------------------------------------------------
|                                                                             |
|               ----> ADVICE to this user running VASP <----                  |
|                                                                             |
|     You have switched on vdW-DFT.                                           |
|     This routine was written and supplied by Jiri Klimes. We recommend      |
|     that you carefully read and cite the following publications:            |
|       J. Klimes, D.R. Bowler, A. Michelides                                 |
|          J. Phys.: Cond Matt. 22 022201 (2010)                              |
|       J. Klimes, D.R. Bowler, A. Michelides                                 |
|          Phys. Rev. B. 83, 195131 (2011)                                    |
|     and references therein.                                                 |
|                                                                             |
 -----------------------------------------------------------------------------

 POTCAR:    PAW_PBE Pt 04Feb2005                  
   SHA256 =  3ed90460adef76debcff1cfb73ee1349b515b1a3db03439735b44de3a8db7dc8 Pt/POTCAR             
   COPYR  = (c) Copyright 04Feb2005 Georg Kresse                                                    
   COPYR  = This file is part of the software VASP. Any use, copying, and all other rights are regul
   COPYR  = If you do not have a valid VASP license, you may not use, copy or distribute this file. 
   VRHFIN =Pt: s1d9                                                                                 
   LEXCH  = PE                                                                                      
   EATOM  =   729.1176 eV,   53.5886 Ry                                                             
                                                                                                    
   TITEL  = PAW_PBE Pt 04Feb2005                                                                    
   LULTRA =        F    use ultrasoft PP ?                                                          
   IUNSCR =        1    unscreen: 0-lin 1-nonlin 2-no                                               
   RPACOR =    2.330    partial core radius                                                         
   POMASS =  195.080; ZVAL   =   10.000    mass and valenz                                          
   RCORE  =    2.600    outmost cutoff radius                                                       
   RWIGS  =    2.750; RWIGS  =    1.455    wigner-seitz radius (au A)                               
   ENMAX  =  230.283; ENMIN  =  172.712 eV                                                          
   ICORE  =        3    local potential                                                             
   LCOR   =        T    correct aug charges                                                         
   LPAW   =        T    paw PP                                                                      
   EAUG   =  358.966                                                                                
   DEXC   =    0.000                                                                                
   RMAX   =    2.658    core radius for proj-oper                                                   
   RAUG   =    1.300    factor for augmentation sphere                                              
   RDEP   =    2.761    radius for radial grids                                                     
   RDEPT  =    2.203    core radius for aug-charge                                                  
                                                                                                    
   Atomic configuration                                                                             
   16 entries                                                                                       
     n  l   j            E        occ.                                                              
     1  0  0.50    -78401.1885   2.0000                                                             
     2  0  0.50    -13770.7750   2.0000                                                             
     2  1  1.50    -11931.0468   6.0000                                                             
     3  0  0.50     -3234.7234   2.0000                                                             
     3  1  1.50     -2699.2216   6.0000                                                             
     3  2  2.50     -2119.5714  10.0000                                                             
     4  0  0.50      -695.1528   2.0000                                                             
     4  1  1.50      -519.6034   6.0000                                                             
     4  2  2.50      -306.6786  10.0000                                                             
     4  3  3.50       -70.1041  14.0000                                                             
     5  0  0.50      -101.7747   2.0000                                                             
     5  1  1.50       -55.9873   6.0000                                                             
     5  2  2.50        -6.1423   9.0000                                                             
     6  0  0.50        -5.6573   1.0000                                                             
     6  1  1.50        -6.8029   0.0000                                                             
     5  3  2.50        -1.3606   0.0000                                                             
   Description                                                                                      
     l       E           TYP  RCUT    TYP  RCUT                                                     
     2     -6.1423404     23  2.500                                                                 
     2     -7.5029230     23  2.500                                                                 
     0     -5.6573207     23  2.500                                                                 
     0      0.7416693     23  2.500                                                                 
     1     -2.7211652     23  2.600                                                                 
     1     20.4087390     23  2.600                                                                 
     3     -1.3605826     23  2.500                                                                 
  local pseudopotential read in
  partial core-charges read in
  partial kinetic energy density read in
  atomic valenz-charges read in
  non local Contribution for L=           2  read in
    real space projection operators read in
  non local Contribution for L=           2  read in
    real space projection operators read in
  non local Contribution for L=           0  read in
    real space projection operators read in
  non local Contribution for L=           0  read in
    real space projection operators read in
  non local Contribution for L=           1  read in
    real space projection operators read in
  non local Contribution for L=           1  read in
    real space projection operators read in
    PAW grid and wavefunctions read in
 
   number of l-projection  operators is LMAX  =           6
   number of lm-projection operators is LMMAX =          18
 
 POTCAR:    PAW_PBE H 15Jun2001                   
   SHA256 =  030f79b5d3ab3cf0e668861823c8fb652ff669f3e15e46930bd03bfd63a607b6 H/POTCAR              
   COPYR  = (c) Copyright 15Jun2001 Georg Kresse                                                    
   COPYR  = This file is part of the software VASP. Any use, copying, and all other rights are regul
   COPYR  = If you do not have a valid VASP license, you may not use, copy or distribute this file. 
   VRHFIN =H: ultrasoft test                                                                        
   LEXCH  = PE                                                                                      
   EATOM  =    12.4884 eV,    0.9179 Ry                                                             
                                                                                                    
   TITEL  = PAW_PBE H 15Jun2001                                                                     
   LULTRA =        F    use ultrasoft PP ?                                                          
   IUNSCR =        0    unscreen: 0-lin 1-nonlin 2-no                                               
   RPACOR =    0.000    partial core radius                                                         
   POMASS =    1.000; ZVAL   =    1.000    mass and valenz                                          
   RCORE  =    1.100    outmost cutoff radius                                                       
   RWIGS  =    0.700; RWIGS  =    0.370    wigner-seitz radius (au A)                               
   ENMAX  =  250.000; ENMIN  =  200.000 eV                                                          
   RCLOC  =    0.701    cutoff for local pot                                                        
   LCOR   =        T    correct aug charges                                                         
   LPAW   =        T    paw PP                                                                      
   EAUG   =  400.000                                                                                
   RMAX   =    1.123    core radius for proj-oper                                                   
   RAUG   =    1.200    factor for augmentation sphere                                              
   RDEP   =    1.112    radius for radial grids                                                     
   RDEPT  =    0.926    core radius for aug-charge                                                  
                                                                                                    
   Atomic configuration                                                                             
    2 entries                                                                                       
     n  l   j            E        occ.                                                              
     1  0  0.50        -6.4927   1.0000                                                             
     2  1  0.50        -3.4015   0.0000                                                             
   Description                                                                                      
     l       E           TYP  RCUT    TYP  RCUT                                                     
     0     -6.4927494     23  1.100                                                                 
     0      6.8029130     23  1.100                                                                 
     1     -4.0817478     23  1.100                                                                 
  local pseudopotential read in
  atomic valenz-charges read in
  non local Contribution for L=           0  read in
    real space projection operators read in
  non local Contribution for L=           0  read in
    real space projection operators read in
  non local Contribution for L=           1  read in
    real space projection operators read in
    PAW grid and wavefunctions read in
 
   number of l-projection  operators is LMAX  =           3
   number of lm-projection operators is LMMAX =           5
 
 Optimization of the real space projectors (new method)

 maximal supplied QI-value         = 14.36
 optimisation between [QCUT,QGAM] = [ 13.36, 26.71] = [ 49.96,199.83] Ry 
 Optimized for a Real-space Cutoff    1.42 Angstroem

   l    n(q)    QCUT    max X(q) W(low)/X(q) W(high)/X(q)  e(spline) 
   2     11    13.357    66.195    0.16E-03    0.81E-04    0.36E-06
   2     11    13.357    64.643    0.16E-03    0.82E-04    0.36E-06
   0     11    13.357    95.520    0.60E-04    0.72E-05    0.55E-06
   0     11    13.357    63.403    0.58E-04    0.70E-05    0.53E-06
   1     11    13.357    19.961    0.21E-03    0.56E-03    0.21E-05
   1     11    13.357    13.289    0.17E-03    0.46E-03    0.17E-05
 Optimization of the real space projectors (new method)

 maximal supplied QI-value         = 34.20
 optimisation between [QCUT,QGAM] = [ 13.34, 26.68] = [ 49.83,199.32] Ry 
 Optimized for a Real-space Cutoff    0.91 Angstroem

   l    n(q)    QCUT    max X(q) W(low)/X(q) W(high)/X(q)  e(spline) 
   0      7    13.340    19.460    0.48E-03    0.16E-03    0.16E-06
   0      7    13.340    12.209    0.46E-03    0.14E-03    0.15E-06
   1      7    13.340     4.655    0.46E-03    0.87E-03    0.11E-06
 -----------------------------------------------------------------------------
|                                                                             |
|               ----> ADVICE to this user running VASP <----                  |
|                                                                             |
|     You enforced a specific xc type in the INCAR file but a different       |
|     type was found in the POTCAR file.                                      |
|     I HOPE YOU KNOW WHAT YOU ARE DOING!                                     |
|                                                                             |
 -----------------------------------------------------------------------------

  PAW_PBE Pt 04Feb2005                  :
 energy of atom  1       EATOM= -729.1176
 kinetic energy error for atom=    0.0010 (will be added to EATOM!!)
  PAW_PBE H 15Jun2001                   :
 energy of atom  2       EATOM=  -12.4884
 kinetic energy error for atom=    0.0002 (will be added to EATOM!!)
 
 
 POSCAR: Pt H
  positions in cartesian coordinates
  No initial velocities read in
 exchange correlation table for  LEXCH =       17
   RHO(1)=    0.500       N(1)  =     2000
   RHO(2)=  100.500       N(2)  =     4000
 


--------------------------------------------------------------------------------------------------------


 ion  position               nearest neighbor table
   1  0.000  0.000  0.340-   3 2.81   7 2.81   6 2.82   8 2.82  12 2.82  16 2.82   2 2.83   4 2.83
                            10 2.83
   2  0.334  0.000  0.340-   8 2.81   9 2.82  17 2.82   1 2.83   3 2.83   4 2.83   5 2.83  10 2.83
                            11 2.83
   3  0.668  0.000  0.340-   7 2.81   1 2.81   9 2.81  18 2.82   5 2.83   2 2.83   6 2.83  11 2.83
                            12 2.83
   4  0.000  0.334  0.340-   6 2.81   9 2.82  15 2.82   5 2.83   2 2.83   1 2.83   7 2.83  10 2.83
                            13 2.83
   5  0.334  0.334  0.340-   3 2.83   4 2.83   6 2.83   7 2.83   2 2.83   8 2.83  11 2.83  13 2.83
                            14 2.83
   6  0.668  0.334  0.340-   4 2.81   1 2.82   5 2.83   8 2.83   3 2.83   9 2.83  12 2.83  14 2.83
                            15 2.83
   7  0.000  0.668  0.340-   3 2.81   1 2.81   9 2.81  18 2.82   5 2.83   8 2.83   4 2.83  13 2.83
                            16 2.83
   8  0.334  0.668  0.340-   2 2.81   1 2.82   6 2.83   7 2.83   9 2.83   5 2.83  14 2.83  16 2.83
                            17 2.83
   9  0.668  0.668  0.340-   3 2.81   7 2.81   4 2.82   2 2.82   8 2.83   6 2.83  15 2.83  17 2.83
                            18 2.83
  10  0.111  0.111  0.433-  26 2.80  16 2.81  12 2.81  17 2.82  15 2.82  19 2.82  11 2.83  13 2.83
                             2 2.83   4 2.83   1 2.83  20 2.84
  11  0.445  0.111  0.433-  21 2.80  27 2.81  17 2.81  18 2.82  12 2.83  13 2.83  10 2.83  14 2.83
                             3 2.83   5 2.83   2 2.83  20 2.84
  12  0.779  0.111  0.433-  25 2.79  21 2.81  16 2.81  10 2.81  18 2.81   1 2.82  19 2.83  14 2.83
                            11 2.83  15 2.83   6 2.83   3 2.83
  13  0.111  0.445  0.433-  23 2.80  15 2.81  18 2.82  22 2.83  20 2.83  14 2.83  11 2.83  10 2.83
                            16 2.83   7 2.83   5 2.83   4 2.83
  14  0.445  0.445  0.433-  21 2.79  24 2.81  23 2.81  16 2.83  12 2.83  13 2.83  15 2.83  17 2.83
                            11 2.83   8 2.83   6 2.83   5 2.83
  15  0.779  0.445  0.433-  19 2.81  13 2.81  24 2.81  22 2.82  10 2.82   4 2.82  17 2.83  14 2.83
                            18 2.83  12 2.83   9 2.83   6 2.83
  16  0.111  0.779  0.433-  23 2.79  25 2.81  12 2.81  10 2.81  18 2.81   1 2.82  26 2.82  14 2.83
                            17 2.83  13 2.83   8 2.83   7 2.83
  17  0.445  0.779  0.433-  24 2.80  11 2.81  27 2.82  10 2.82   2 2.82  26 2.82  15 2.83  16 2.83
                            18 2.83  14 2.83   9 2.83   8 2.83
  18  0.779  0.779  0.433-  25 2.80  16 2.81  12 2.81  11 2.82  13 2.82   7 2.82   3 2.82  22 2.83
                            17 2.83  15 2.83   9 2.83  27 2.84
  19  0.888  0.226  0.525-  22 2.80  15 2.81  20 2.81  26 2.82  10 2.82  24 2.82  12 2.83  21 2.83
                            28 2.83  33 2.83  25 2.83  31 2.91
  20  0.221  0.225  0.526-  26 2.81  22 2.81  19 2.81  27 2.82  13 2.83  21 2.83  23 2.83  32 2.84
                            10 2.84  11 2.84  29 2.88  31 2.90
  21  0.555  0.225  0.524-  14 2.79  11 2.80  12 2.81  25 2.82  24 2.83  19 2.83  23 2.83  20 2.83
                            27 2.83  32 2.84  30 2.84  33 2.85
  22  0.889  0.557  0.525-  19 2.80  20 2.81  24 2.82  15 2.82  23 2.82  13 2.83  18 2.83  25 2.83
                            36 2.83  34 2.84  27 2.84  31 2.87
  23  0.221  0.559  0.524-  16 2.79  13 2.80  14 2.81  25 2.82  22 2.82  32 2.83  21 2.83  24 2.83
                            20 2.83  26 2.83  35 2.85  34 2.85
  24  0.555  0.559  0.524-  17 2.80  14 2.81  27 2.81  15 2.81  22 2.82  19 2.82  26 2.83  21 2.83
                            23 2.83  33 2.83  35 2.84  36 2.85
  25  0.888  0.892  0.524-  12 2.79  18 2.80  16 2.81  23 2.82  21 2.82  28 2.83  27 2.83  26 2.83
                            22 2.83  19 2.83  34 2.84  30 2.85
  26  0.222  0.893  0.525-  10 2.80  27 2.81  20 2.81  19 2.82  17 2.82  16 2.82  24 2.83  35 2.83
                            23 2.83  25 2.83  28 2.84  29 2.90
  27  0.553  0.892  0.525-  26 2.81  11 2.81  24 2.81  20 2.82  17 2.82  36 2.83  21 2.83  25 2.83
                            30 2.83  18 2.84  22 2.84  29 2.87
  28  0.996  0.002  0.617-  30 2.79  34 2.79  25 2.83  33 2.83  35 2.83  19 2.83  26 2.84  31 2.87
                            29 2.88
  29  0.336  0.002  0.621-  37 1.76  36 2.80  30 2.80  35 2.82  32 2.86  31 2.86  27 2.87  20 2.88
                            28 2.88  26 2.90
  30  0.665  0.005  0.618-  28 2.79  29 2.80  34 2.82  33 2.82  32 2.83  36 2.83  27 2.83  21 2.84
                            25 2.85
  31  0.997  0.340  0.621-  37 1.75  36 2.81  34 2.81  33 2.83  32 2.85  29 2.86  28 2.87  22 2.87
                            20 2.90  19 2.91
  32  0.334  0.341  0.617-  35 2.79  33 2.79  34 2.82  30 2.83  23 2.83  20 2.84  21 2.84  31 2.85
                            29 2.86
  33  0.664  0.339  0.618-  32 2.79  35 2.81  36 2.82  30 2.82  28 2.83  31 2.83  24 2.83  19 2.83
                            21 2.85
  34  0.998  0.672  0.618-  28 2.79  31 2.81  30 2.82  36 2.82  35 2.82  32 2.82  22 2.84  25 2.84
                            23 2.85
  35  0.332  0.671  0.617-  32 2.79  33 2.81  34 2.82  29 2.82  36 2.82  26 2.83  28 2.83  24 2.84
                            23 2.85
  36  0.665  0.671  0.618-  29 2.80  31 2.81  33 2.82  34 2.82  35 2.82  30 2.83  27 2.83  22 2.83
                            24 2.85
  37  0.157  0.162  0.661-  31 1.75  29 1.76
 

IMPORTANT INFORMATION: All symmetrisations will be switched off!
NOSYMM: (Re-)initialisation of all symmetry stuff for point group C_1.


----------------------------------------------------------------------------------------

                                     Primitive cell                                     

  volume of cell :    1550.4837

  direct lattice vectors                    reciprocal lattice vectors
     8.468310000  0.000000000  0.000000000     0.118087316 -0.068177744  0.000000000
     4.234155000  7.333771587  0.000000000     0.000000000  0.136355488  0.000000000
     0.000000000  0.000000000 24.965661990     0.000000000  0.000000000  0.040055016

  length of vectors
     8.468310000  8.468310000 24.965661990     0.136355488  0.136355488  0.040055016

  position of ions in fractional coordinates (direct lattice)
     0.000000000  0.000000000  0.340467639
     0.334001368  0.000000000  0.340467639
     0.668002736  0.000000000  0.340467639
     1.000000000  0.334001368  0.340467639
     0.334001368  0.334001368  0.340467639
     0.668002736  0.334001368  0.340467639
     1.000000000  0.668002736  0.340467639
     0.334001368  0.668002736  0.340467639
     0.668002736  0.668002736  0.340467639
     0.111333789  0.111333789  0.432970737
     0.445335157  0.111333789  0.432970737
     0.779336525  0.111333789  0.432970737
     0.111333789  0.445335157  0.432970737
     0.445335157  0.445335157  0.432970737
     0.779336525  0.445335157  0.432970737
     0.111333789  0.779336525  0.432970737
     0.445335157  0.779336525  0.432970737
     0.779336525  0.779336525  0.432970737
     0.888373454  0.226153620  0.525108107
     0.221221127  0.225026220  0.525854189
     0.554957301  0.225398984  0.524068802
     0.888805906  0.556758008  0.525379416
     0.220869609  0.559202218  0.524161901
     0.554813422  0.559240822  0.524381017
     0.887777709  0.891727494  0.524231595
     0.221510161  0.893185334  0.524955633
     0.553440467  0.892121802  0.525247968
     0.995626509  0.002436719  0.617499728
     0.335564569  0.002437973  0.620846578
     0.665401586  0.004732157  0.617641095
     0.997379350  0.340478913  0.621391461
     0.334059677  0.340706012  0.617462756
     0.664267567  0.338701377  0.617590149
     0.998304952  0.671630767  0.617865782
     0.331964849  0.670925150  0.617448181
     0.665487714  0.670967147  0.618012025
     0.156862306  0.162486953  0.661364015

  ion indices of the primitive-cell ions
   primitive index   ion index
                 1           1
                 2           2
                 3           3
                 4           4
                 5           5
                 6           6
                 7           7
                 8           8
                 9           9
                10          10
                11          11
                12          12
                13          13
                14          14
                15          15
                16          16
                17          17
                18          18
                19          19
                20          20
                21          21
                22          22
                23          23
                24          24
                25          25
                26          26
                27          27
                28          28
                29          29
                30          30
                31          31
                32          32
                33          33
                34          34
                35          35
                36          36
                37          37

----------------------------------------------------------------------------------------

 
 
 KPOINTS: KPOINTS created by Atomic Simulation Env

Automatic generation of k-mesh.
 Grid dimensions read from file:
 generate k-points for:    5    5    1

 Generating k-lattice:

  Cartesian coordinates                     Fractional coordinates (reciprocal lattice)
     0.023617463 -0.013635549  0.000000000     0.200000000 -0.000000000  0.000000000
     0.000000000  0.027271098  0.000000000     0.000000000  0.200000000  0.000000000
     0.000000000  0.000000000  0.040055016     0.000000000  0.000000000  1.000000000

  Length of vectors
     0.027271098  0.027271098  0.040055016

  Shift w.r.t. Gamma in fractional coordinates (k-lattice)
     0.000000000  0.000000000  0.000000000

 
 Subroutine IBZKPT returns following result:
 ===========================================
 
 Found     13 irreducible k-points:
 
 Following reciprocal coordinates:
            Coordinates               Weight
  0.000000  0.000000  0.000000      1.000000
  0.200000  0.000000  0.000000      2.000000
  0.200000  0.200000  0.000000      2.000000
  0.000000  0.200000  0.000000      2.000000
  0.400000  0.000000  0.000000      2.000000
  0.400000  0.400000  0.000000      2.000000
  0.000000  0.400000  0.000000      2.000000
  0.400000  0.200000  0.000000      2.000000
  0.200000  0.400000  0.000000      2.000000
 -0.200000  0.200000  0.000000      2.000000
 -0.400000  0.200000  0.000000      2.000000
  0.400000 -0.400000  0.000000      2.000000
 -0.200000  0.400000  0.000000      2.000000
 
 Following cartesian coordinates:
            Coordinates               Weight
  0.000000  0.000000  0.000000      1.000000
  0.023617 -0.013636  0.000000      2.000000
  0.023617  0.013636  0.000000      2.000000
  0.000000  0.027271  0.000000      2.000000
  0.047235 -0.027271  0.000000      2.000000
  0.047235  0.027271  0.000000      2.000000
  0.000000  0.054542  0.000000      2.000000
  0.047235  0.000000  0.000000      2.000000
  0.023617  0.040907  0.000000      2.000000
 -0.023617  0.040907  0.000000      2.000000
 -0.047235  0.054542  0.000000      2.000000
  0.047235 -0.081813  0.000000      2.000000
 -0.023617  0.068178  0.000000      2.000000
 


--------------------------------------------------------------------------------------------------------




 Dimension of arrays:
   k-points           NKPTS =     13   k-points in BZ     NKDIM =     13   number of bands    NBANDS=    240
   number of dos      NEDOS =    301   number of ions     NIONS =     37
   non local maximal  LDIM  =      6   non local SUM 2l+1 LMDIM =     18
   total plane-waves  NPLWV = 466560
   max r-space proj   IRMAX =   3679   max aug-charges    IRDMAX=  18423
   dimension x,y,z NGX =    54 NGY =   54 NGZ =  160
   dimension x,y,z NGXF=   108 NGYF=  108 NGZF=  320
   support grid    NGXF=   108 NGYF=  108 NGZF=  320
   ions per type =              36   1
   NGX,Y,Z   is equivalent  to a cutoff of  10.60, 10.60, 10.65 a.u.
   NGXF,Y,Z  is equivalent  to a cutoff of  21.20, 21.20, 21.31 a.u.

 SYSTEM =  unknown system                          
 POSCAR =  Pt H                                    

 Startparameter for this run:
   NWRITE =      2    write-flag & timer
   PREC   = normal    normal or accurate (medium, high low for compatibility)
   ISTART =      1    job   : 0-new  1-cont  2-samecut
   ICHARG =      0    charge: 1-file 2-atom 10-const
   ISPIN  =      1    spin polarized calculation?
   LNONCOLLINEAR =      F non collinear calculations
   LSORBIT =      F    spin-orbit coupling
   INIWAV =      1    electr: 0-lowe 1-rand  2-diag
   LASPH  =      F    aspherical Exc in radial PAW
 Electronic Relaxation 1
   ENCUT  =  680.3 eV  50.00 Ry    7.07 a.u.  18.01 18.01 53.09*2*pi/ulx,y,z
   ENINI  =  680.3     initial cutoff
   ENAUG  =  400.0 eV  augmentation charge cutoff
   NELM   =     60;   NELMIN=  2; NELMDL=  0     # of ELM steps 
   EDIFF  = 0.1E-04   stopping-criterion for ELM
   LREAL  =      T    real-space projection
   NLSPLINE    = F    spline interpolate recip. space projectors
   LCOMPAT=      F    compatible to vasp.4.4
   GGA_COMPAT  = T    GGA compatible to vasp.4.4-vasp.4.6
   LMAXPAW     = -100 max onsite density
   LMAXMIX     =    2 max onsite mixed and CHGCAR
   VOSKOWN=      0    Vosko Wilk Nusair interpolation
   ROPT   =   -0.00050  -0.00050
 Ionic relaxation
   EDIFFG = 0.1E-03   stopping-criterion for IOM
   NSW    =      0    number of steps for IOM
   NBLOCK =      1;   KBLOCK =      1    inner block; outer block 
   IBRION =     -1    ionic relax: 0-MD 1-quasi-New 2-CG
   NFREE  =      0    steps in history (QN), initial steepest desc. (CG)
   ISIF   =      2    stress and relaxation
   IWAVPR =     10    prediction:  0-non 1-charg 2-wave 3-comb
   ISYM   =      0    0-nonsym 1-usesym 2-fastsym
   LCORR  =      T    Harris-Foulkes like correction to forces

   POTIM  = 0.5000    time-step for ionic-motion
   TEIN   =    0.0    initial temperature
   TEBEG  =    0.0;   TEEND  =   0.0 temperature during run
   SMASS  =  -3.00    Nose mass-parameter (am)
   estimated Nose-frequenzy (Omega)   =  0.10E-29 period in steps = 0.13E+47 mass=  -0.164E-26a.u.
   SCALEE = 1.0000    scale energy and forces
   NPACO  =    256;   APACO  = 10.0  distance and # of slots for P.C.
   PSTRESS=    0.0 pullay stress

  Mass of Ions in am
   POMASS = 195.08  1.00
  Ionic Valenz
   ZVAL   =  10.00  1.00
  Atomic Wigner-Seitz radii
   RWIGS  =  -1.00 -1.00
  virtual crystal weights 
   VCA    =   1.00  1.00
   NELECT =     361.0000    total number of electrons
   NUPDOWN=      -1.0000    fix difference up-down

 DOS related values:
   EMIN   =  10.00;   EMAX   =-10.00  energy-range for DOS
   EFERMI =   0.00;   METHOD = LEGACY      
   ISMEAR =     1;   SIGMA  =   0.10  broadening in eV -4-tet -1-fermi 0-gaus

 Electronic relaxation 2 (details)
   IALGO  =     68    algorithm
   LDIAG  =      T    sub-space diagonalisation (order eigenvalues)
   LSUBROT=      F    optimize rotation matrix (better conditioning)
   TURBO    =      0    0=normal 1=particle mesh
   IRESTART =      0    0=no restart 2=restart with 2 vectors
   NREBOOT  =      0    no. of reboots
   NMIN     =      0    reboot dimension
   EREF     =   0.00    reference energy to select bands
   IMIX   =      4    mixing-type and parameters
     AMIX     =   0.40;   BMIX     =  1.00
     AMIX_MAG =   1.60;   BMIX_MAG =  1.00
     AMIN     =   0.10
     WC   =   100.;   INIMIX=   1;  MIXPRE=   1;  MAXMIX= -45

 Intra band minimization:
   WEIMIN = 0.0000     energy-eigenvalue tresh-hold
   EBREAK =  0.10E-07  absolut break condition
   DEPER  =   0.30     relativ break condition  

   TIME   =   0.40     timestep for ELM

  volume/ion in A,a.u.               =      41.90       282.79
  Fermi-wavevector in a.u.,A,eV,Ry     =   1.007136  1.903211 13.800704  1.014323
  Thomas-Fermi vector in A             =   2.139922
 
 Write flags
   LWAVE        =      T    write WAVECAR
   LDOWNSAMPLE  =      F    k-point downsampling of WAVECAR
   LCHARG       =      T    write CHGCAR
   LVTOT        =      F    write LOCPOT, total local potential
   LVHAR        =      F    write LOCPOT, Hartree potential only
   LELF         =      F    write electronic localiz. function (ELF)
   LORBIT       =      0    0 simple, 1 ext, 2 COOP (PROOUT), +10 PAW based schemes


 Dipole corrections
   LMONO  =      F    monopole corrections only (constant potential shift)
   LDIPOL =      F    correct potential (dipole corrections)
   IDIPOL =      0    1-x, 2-y, 3-z, 4-all directions 
   EPSILON=  1.0000000 bulk dielectric constant

 Exchange correlation treatment:
   GGA     =    BF    GGA type
   LEXCH   =    17    internal setting for exchange type
   LIBXC   =     F    Libxc                    
   VOSKOWN =     0    Vosko Wilk Nusair interpolation
   LHFCALC =     F    Hartree Fock is set to
   LHFONE  =     F    Hartree Fock one center treatment
   AEXX    =    0.0000 exact exchange contribution

 vdW DFT:
   LUSE_VDW   =     T    switch on vdW DFT
   IVDW_NL    =     1    kernel type
   LSPIN_VDW  =     F    use spin-polarized vdW DFT
   Zab_VDW    =******    correlation parameter
   PARAM1     =0.1234
   PARAM2     =1.0000
   PARAM3     =0.0000
   -- rVV10 --
   BPARAM     = 6.3000
   CPARAM     = 0.0093

 Linear response parameters
   LEPSILON=     F    determine dielectric tensor
   LRPA    =     F    only Hartree local field effects (RPA)
   LNABLA  =     F    use nabla operator in PAW spheres
   LVEL    =     F    velocity operator in full k-point grid
   CSHIFT  =0.1000    complex shift for real part using Kramers Kronig
   OMEGAMAX=  -1.0    maximum frequency
   DEG_THRESHOLD= 0.2000000E-02 threshold for treating states as degnerate
   RTIME   =   -0.100 relaxation time in fs
  (WPLASMAI=    0.000 imaginary part of plasma frequency in eV, 0.658/RTIME)
   DFIELD  = 0.0000000 0.0000000 0.0000000 field for delta impulse in time
 
  Optional k-point grid parameters
   LKPOINTS_OPT  =     F    use optional k-point grid
   KPOINTS_OPT_MODE=     1    mode for optional k-point grid
 
 Orbital magnetization related:
   ORBITALMAG=     F  switch on orbital magnetization
   LCHIMAG   =     F  perturbation theory with respect to B field
   DQ        =  0.001000  dq finite difference perturbation B field
   LLRAUG    =     F  two centre corrections for induced B field
   LBONE     =     F  B-component reconstruction in AE one-centre
   LVGVCALC  =     T  calculate vGv susceptibility
   LVGVAPPL  =     F  apply vGv susceptibility instead of pGv for G=0

 Random number generation:
   RANDOM_GENERATOR = DEFAULT
   PCG_SEED         = not used


--------------------------------------------------------------------------------------------------------


 Static calculation
 charge density and potential will be updated during run
 non-spin polarized calculation
 RMM-DIIS sequential band-by-band and
  variant of blocked Davidson during initial phase
 perform sub-space diagonalisation
    before iterative eigenvector-optimisation
 modified Broyden-mixing scheme, WC =      100.0
 initial mixing is a Kerker type mixing with AMIX =  0.4000 and BMIX =      1.0000
 Hartree-type preconditioning will be used
 using additional bands           59
 real space projection scheme for non local part
 use partial core corrections
 calculate Harris-corrections to forces 
   (improved forces if not selfconsistent)
 use gradient corrections 
 use of overlap-Matrix (Vanderbilt PP)
 Methfessel and Paxton  Order N= 1 SIGMA  =   0.10


--------------------------------------------------------------------------------------------------------


  energy-cutoff  :      680.29
  volume of cell :     1550.48
      direct lattice vectors                 reciprocal lattice vectors
     8.468310000  0.000000000  0.000000000     0.118087316 -0.068177744  0.000000000
     4.234155000  7.333771587  0.000000000     0.000000000  0.136355488  0.000000000
     0.000000000  0.000000000 24.965661990     0.000000000  0.000000000  0.040055016

  length of vectors
     8.468310000  8.468310000 24.965661990     0.136355488  0.136355488  0.040055016


 
 old parameters found on file WAVECAR:
  energy-cutoff  :      680.29
  volume of cell :     1550.48
      direct lattice vectors                 reciprocal lattice vectors
     8.468310000  0.000000000  0.000000000     0.118087316 -0.068177744  0.000000000
     4.234155000  7.333771587  0.000000000     0.000000000  0.136355488  0.000000000
     0.000000000  0.000000000 24.965661990     0.000000000  0.000000000  0.040055016

  length of vectors

 
 k-points in units of 2pi/SCALE and weight: KPOINTS created by Atomic Simulation Env
   0.00000000  0.00000000  0.00000000       0.040
   0.02361746 -0.01363555  0.00000000       0.080
   0.02361746  0.01363555  0.00000000       0.080
   0.00000000  0.02727110  0.00000000       0.080
   0.04723493 -0.02727110  0.00000000       0.080
   0.04723493  0.02727110  0.00000000       0.080
   0.00000000  0.05454220  0.00000000       0.080
   0.04723493  0.00000000  0.00000000       0.080
   0.02361746  0.04090665  0.00000000       0.080
  -0.02361746  0.04090665  0.00000000       0.080
  -0.04723493  0.05454220  0.00000000       0.080
   0.04723493 -0.08181329  0.00000000       0.080
  -0.02361746  0.06817774  0.00000000       0.080
 
 k-points in reciprocal lattice and weights: KPOINTS created by Atomic Simulation Env
   0.00000000  0.00000000  0.00000000       0.040
   0.20000000  0.00000000  0.00000000       0.080
   0.20000000  0.20000000  0.00000000       0.080
   0.00000000  0.20000000  0.00000000       0.080
   0.40000000  0.00000000  0.00000000       0.080
   0.40000000  0.40000000  0.00000000       0.080
   0.00000000  0.40000000  0.00000000       0.080
   0.40000000  0.20000000  0.00000000       0.080
   0.20000000  0.40000000  0.00000000       0.080
  -0.20000000  0.20000000  0.00000000       0.080
  -0.40000000  0.20000000  0.00000000       0.080
   0.40000000 -0.40000000  0.00000000       0.080
  -0.20000000  0.40000000  0.00000000       0.080
 
 position of ions in fractional coordinates (direct lattice) 
   0.00000000  0.00000000  0.34046764
   0.33400137  0.00000000  0.34046764
   0.66800274  0.00000000  0.34046764
   0.00000000  0.33400137  0.34046764
   0.33400137  0.33400137  0.34046764
   0.66800274  0.33400137  0.34046764
   0.00000000  0.66800274  0.34046764
   0.33400137  0.66800274  0.34046764
   0.66800274  0.66800274  0.34046764
   0.11133379  0.11133379  0.43297074
   0.44533516  0.11133379  0.43297074
   0.77933653  0.11133379  0.43297074
   0.11133379  0.44533516  0.43297074
   0.44533516  0.44533516  0.43297074
   0.77933653  0.44533516  0.43297074
   0.11133379  0.77933653  0.43297074
   0.44533516  0.77933653  0.43297074
   0.77933653  0.77933653  0.43297074
   0.88837345  0.22615362  0.52510811
   0.22122113  0.22502622  0.52585419
   0.55495730  0.22539898  0.52406880
   0.88880591  0.55675801  0.52537942
   0.22086961  0.55920222  0.52416190
   0.55481342  0.55924082  0.52438102
   0.88777771  0.89172749  0.52423159
   0.22151016  0.89318533  0.52495563
   0.55344047  0.89212180  0.52524797
   0.99562651  0.00243672  0.61749973
   0.33556457  0.00243797  0.62084658
   0.66540159  0.00473216  0.61764109
   0.99737935  0.34047891  0.62139146
   0.33405968  0.34070601  0.61746276
   0.66426757  0.33870138  0.61759015
   0.99830495  0.67163077  0.61786578
   0.33196485  0.67092515  0.61744818
   0.66548771  0.67096715  0.61801203
   0.15686231  0.16248695  0.66136402
 
 position of ions in cartesian coordinates  (Angst):
   0.00000000  0.00000000  8.50000000
   2.82842712  0.00000000  8.50000000
   5.65685425  0.00000000  8.50000000
   1.41421356  2.44948974  8.50000000
   4.24264069  2.44948974  8.50000000
   7.07106781  2.44948974  8.50000000
   2.82842712  4.89897949  8.50000000
   5.65685425  4.89897949  8.50000000
   8.48528137  4.89897949  8.50000000
   1.41421356  0.81649658 10.80940108
   4.24264069  0.81649658 10.80940108
   7.07106781  0.81649658 10.80940108
   2.82842712  3.26598632 10.80940108
   5.65685425  3.26598632 10.80940108
   8.48528137  3.26598632 10.80940108
   4.24264069  5.71547607 10.80940108
   7.07106781  5.71547607 10.80940108
   9.89949494  5.71547607 10.80940108
   8.48059129  1.65855899 13.10967151
   2.82616498  1.65029090 13.12829794
   5.65392469  1.65302466 13.08372456
   9.88408365  4.08313606 13.11644492
   4.23814119  4.10106134 13.08604885
   7.06624437  4.10134445 13.09151922
  11.29368928  6.53972576 13.08778880
   5.65770186  6.55041722 13.10586489
   8.46408743  6.54261752 13.11316323
   8.44159137  0.01787034 15.41628949
   2.85198755  0.01787953 15.49984581
   5.65486359  0.03470456 15.41981881
   9.88775801  2.49699458 15.51344917
   4.27152297  2.49866007 15.41536645
   7.05933781  2.48395854 15.41854690
  11.29774458  4.92558664 15.42542828
   5.65198233  4.92041180 15.41500258
   8.47653517  4.92071980 15.42907933
   2.01635357  1.19164220 16.51139046
 


--------------------------------------------------------------------------------------------------------


 k-point   1 :   0.0000 0.0000 0.0000  plane waves:   62399
 k-point   2 :   0.2000 0.0000 0.0000  plane waves:   62407
 k-point   3 :   0.2000 0.2000 0.0000  plane waves:   62407
 k-point   4 :   0.0000 0.2000 0.0000  plane waves:   62407
 k-point   5 :   0.4000 0.0000 0.0000  plane waves:   62451
 k-point   6 :   0.4000 0.4000 0.0000  plane waves:   62451
 k-point   7 :   0.0000 0.4000 0.0000  plane waves:   62451
 k-point   8 :   0.4000 0.2000 0.0000  plane waves:   62510
 k-point   9 :   0.2000 0.4000 0.0000  plane waves:   62510
 k-point  10 :  -0.2000 0.2000 0.0000  plane waves:   62510
 k-point  11 :  -0.4000 0.2000 0.0000  plane waves:   62498
 k-point  12 :   0.4000-0.4000 0.0000  plane waves:   62498
 k-point  13 :  -0.2000 0.4000 0.0000  plane waves:   62498

 maximum and minimum number of plane-waves per node :     62510    62399

 maximum number of plane-waves:     62510
 maximum index in each direction: 
   IXMAX=   18   IYMAX=   18   IZMAX=   53
   IXMIN=  -18   IYMIN=  -18   IZMIN=  -53


 serial   3D FFT for wavefunctions
 parallel 3D FFT for charge:
    minimum data exchange during FFTs selected (reduces bandwidth)


 total amount of memory used by VASP MPI-rank0   148550. kBytes
=======================================================================

   base      :      30000. kBytes
   nonlr-proj:      22477. kBytes
   fftplans  :       5213. kBytes
   grid      :      24541. kBytes
   one-center:        575. kBytes
   wavefun   :      65744. kBytes
 
     INWAV:  cpu time      7.2911: real time     13.4918
 Broyden mixing: mesh for mixing (old mesh)
   NGX = 37   NGY = 37   NGZ =107
  (NGX  =108   NGY  =108   NGZ  =320)
  gives a total of 146483 points

 charge density for first step will be calculated from the start-wavefunctions


--------------------------------------------------------------------------------------------------------


 Maximum index for non-local projection operator         3550
 Maximum index for augmentation-charges         1181 (set IRDMAX)


--------------------------------------------------------------------------------------------------------


 initial charge from wavefunction
 First call to EWALD:  gamma=   0.153
 Maximum number of real-space cells 4x 4x 2
 Maximum number of reciprocal cells 2x 2x 5

    FEWALD:  cpu time      0.0047: real time      0.0047


--------------------------------------- Ionic step        1  -------------------------------------------




--------------------------------------- Iteration      1(   1)  ---------------------------------------


vdW kernel read from vdw_kernel.bindat
  0.0000  0.2424  0.5071  0.7962  1.1119  1.4567  1.8333  2.2446  2.6937  3.1842
  3.7199  4.3049  4.9438  5.6415  6.4036  7.2358  8.1446  9.1372 10.2212 11.4050
 12.6979 14.1099 15.6519 17.3360 19.1751 21.1837 23.3773 25.7729 28.3892 31.2465
 34.3669 37.7748 41.4965 45.5611 50.0000
 
    POTLOK:  cpu time      3.2211: real time      3.2474
    SETDIJ:  cpu time      0.0055: real time      0.0056
     EDDAV:  cpu time     15.7584: real time     15.8922
       DOS:  cpu time      0.0009: real time      0.0009
    CHARGE:  cpu time      0.7621: real time      0.7688
    MIXING:  cpu time      0.0030: real time      0.0030
    --------------------------------------------
      LOOP:  cpu time     19.7511: real time     19.9180

 eigenvalue-minimisations  :  6816
 total energy-change (2. order) :-0.1047016E+03  (-0.1768452E+00)
 number of electron     360.9999960 magnetization 
 augmentation part      114.1087416 magnetization 

 Broyden mixing:
  rms(total) = 0.34564E+00    rms(broyden)= 0.34564E+00
  rms(prec ) = 0.47536E+00
  weight for this iteration     100.00

 Free energy of the ion-electron system (eV)
  ---------------------------------------------------
  alpha Z        PSCENC =       797.33612757
  Ewald energy   TEWEN  =    132148.79408943
  -Hartree energ DENC   =   -159567.07853841
  -exchange      EXHF   =         0.00000000
  -V(xc)+E(xc)   XCENC  =        89.64552264
  PAW double counting   =     32172.41847435   -31174.58037698
  entropy T*S    EENTRO =        -0.08094270
  eigenvalues    EBANDS =     -1067.95913317
  atomic energy  EATOM  =     26496.80315902
  Solvation  Ediel_sol  =         0.00000000
  ---------------------------------------------------
  free energy    TOTEN  =      -104.70161826 eV

  energy without entropy =     -104.62067556  energy(sigma->0) =     -104.67463736


--------------------------------------------------------------------------------------------------------




--------------------------------------- Iteration      1(   2)  ---------------------------------------


    POTLOK:  cpu time      2.3273: real time      2.3549
    SETDIJ:  cpu time      0.0057: real time      0.0057
    EDDIAG:  cpu time      2.8697: real time      2.8898
  RMM-DIIS:  cpu time      8.5177: real time      8.5732
    ORTHCH:  cpu time      0.5416: real time      0.5461
       DOS:  cpu time      0.0014: real time      0.0014
    CHARGE:  cpu time      0.7573: real time      0.7643
    MIXING:  cpu time      0.0026: real time      0.0026
    --------------------------------------------
      LOOP:  cpu time     15.0233: real time     15.1380

 eigenvalue-minimisations  :  6763
 total energy-change (2. order) :-0.7526529E+01  (-0.1512003E+00)
 number of electron     360.9999951 magnetization 
 augmentation part      114.2496460 magnetization 

 Broyden mixing:
  rms(total) = 0.29648E+01    rms(broyden)= 0.29648E+01
  rms(prec ) = 0.43256E+01
  weight for this iteration     100.00

 eigenvalues of (default mixing * dielectric matrix)
  average eigenvalue GAMMA=   0.0958
  0.0958

 Free energy of the ion-electron system (eV)
  ---------------------------------------------------
  alpha Z        PSCENC =       797.33612757
  Ewald energy   TEWEN  =    132148.79408943
  -Hartree energ DENC   =   -159519.88174846
  -exchange      EXHF   =         0.00000000
  -V(xc)+E(xc)   XCENC  =        89.72614327
  PAW double counting   =     32160.47153605   -31162.71392322
  entropy T*S    EENTRO =         0.02833294
  eigenvalues    EBANDS =     -1122.79186388
  atomic energy  EATOM  =     26496.80315902
  Solvation  Ediel_sol  =         0.00000000
  ---------------------------------------------------
  free energy    TOTEN  =      -112.22814727 eV

  energy without entropy =     -112.25648021  energy(sigma->0) =     -112.23759159


--------------------------------------------------------------------------------------------------------




--------------------------------------- Iteration      1(   3)  ---------------------------------------


    POTLOK:  cpu time      2.3612: real time      2.4180
    SETDIJ:  cpu time      0.0044: real time      0.0044
    EDDIAG:  cpu time      2.8082: real time      2.8297
  RMM-DIIS:  cpu time      8.8223: real time      8.8845
    ORTHCH:  cpu time      0.6064: real time      0.6113
       DOS:  cpu time      0.0011: real time      0.0011
    CHARGE:  cpu time      0.7624: real time      0.7681
    MIXING:  cpu time      0.0022: real time      0.0022
    --------------------------------------------
      LOOP:  cpu time     15.3680: real time     15.5192

 eigenvalue-minimisations  :  6849
 total energy-change (2. order) : 0.7408861E+01  (-0.9360129E-01)
 number of electron     360.9999959 magnetization 
 augmentation part      114.2117401 magnetization 

 Broyden mixing:
  rms(total) = 0.49608E+00    rms(broyden)= 0.49608E+00
  rms(prec ) = 0.63940E+00
  weight for this iteration     100.00

 eigenvalues of (default mixing * dielectric matrix)
  average eigenvalue GAMMA=   0.1528
  0.2180  0.0877

 Free energy of the ion-electron system (eV)
  ---------------------------------------------------
  alpha Z        PSCENC =       797.33612757
  Ewald energy   TEWEN  =    132148.79408943
  -Hartree energ DENC   =   -159538.61955099
  -exchange      EXHF   =         0.00000000
  -V(xc)+E(xc)   XCENC  =        89.64719516
  PAW double counting   =     32173.92533517   -31176.20135797
  entropy T*S    EENTRO =        -0.09269767
  eigenvalues    EBANDS =     -1096.41158591
  atomic energy  EATOM  =     26496.80315902
  Solvation  Ediel_sol  =         0.00000000
  ---------------------------------------------------
  free energy    TOTEN  =      -104.81928620 eV

  energy without entropy =     -104.72658853  energy(sigma->0) =     -104.78838698


--------------------------------------------------------------------------------------------------------




--------------------------------------- Iteration      1(   4)  ---------------------------------------


    POTLOK:  cpu time      2.3941: real time      2.4233
    SETDIJ:  cpu time      0.0098: real time      0.0098
    EDDIAG:  cpu time      2.7664: real time      2.7895
  RMM-DIIS:  cpu time      8.3377: real time      8.3991
    ORTHCH:  cpu time      0.6656: real time      0.6713
       DOS:  cpu time      0.0011: real time      0.0011
    CHARGE:  cpu time      0.7488: real time      0.7630
    MIXING:  cpu time      0.0022: real time      0.0022
    --------------------------------------------
      LOOP:  cpu time     14.9256: real time     15.0592

 eigenvalue-minimisations  :  6714
 total energy-change (2. order) : 0.2368713E+00  (-0.1448178E-01)
 number of electron     360.9999959 magnetization 
 augmentation part      114.1658458 magnetization 

 Broyden mixing:
  rms(total) = 0.13114E+00    rms(broyden)= 0.13114E+00
  rms(prec ) = 0.15769E+00
  weight for this iteration     100.00

 eigenvalues of (default mixing * dielectric matrix)
  average eigenvalue GAMMA=   0.2535
  0.4731  0.2040  0.0836

 Free energy of the ion-electron system (eV)
  ---------------------------------------------------
  alpha Z        PSCENC =       797.33612757
  Ewald energy   TEWEN  =    132148.79408943
  -Hartree energ DENC   =   -159551.96532139
  -exchange      EXHF   =         0.00000000
  -V(xc)+E(xc)   XCENC  =        89.60326141
  PAW double counting   =     32179.13028918   -31181.44226670
  entropy T*S    EENTRO =        -0.09184995
  eigenvalues    EBANDS =     -1082.74990344
  atomic energy  EATOM  =     26496.80315902
  Solvation  Ediel_sol  =         0.00000000
  ---------------------------------------------------
  free energy    TOTEN  =      -104.58241487 eV

  energy without entropy =     -104.49056493  energy(sigma->0) =     -104.55179823


--------------------------------------------------------------------------------------------------------




--------------------------------------- Iteration      1(   5)  ---------------------------------------


    POTLOK:  cpu time      2.4493: real time      2.4942
    SETDIJ:  cpu time      0.0046: real time      0.0046
    EDDIAG:  cpu time      2.7595: real time      2.7842
  RMM-DIIS:  cpu time      8.5807: real time      8.6569
    ORTHCH:  cpu time      0.5943: real time      0.6000
       DOS:  cpu time      0.0010: real time      0.0010
    CHARGE:  cpu time      0.7667: real time      0.7737
    MIXING:  cpu time      0.0023: real time      0.0023
    --------------------------------------------
      LOOP:  cpu time     15.1583: real time     15.3168

 eigenvalue-minimisations  :  6837
 total energy-change (2. order) : 0.6932109E-02  (-0.2761524E-02)
 number of electron     360.9999959 magnetization 
 augmentation part      114.1794447 magnetization 

 Broyden mixing:
  rms(total) = 0.10083E+00    rms(broyden)= 0.10083E+00
  rms(prec ) = 0.11148E+00
  weight for this iteration     100.00

 eigenvalues of (default mixing * dielectric matrix)
  average eigenvalue GAMMA=   0.2750
  0.4154  0.4154  0.0844  0.1849

 Free energy of the ion-electron system (eV)
  ---------------------------------------------------
  alpha Z        PSCENC =       797.33612757
  Ewald energy   TEWEN  =    132148.79408943
  -Hartree energ DENC   =   -159548.81445627
  -exchange      EXHF   =         0.00000000
  -V(xc)+E(xc)   XCENC  =        89.61302968
  PAW double counting   =     32175.91342395   -31178.19897777
  entropy T*S    EENTRO =        -0.09183414
  eigenvalues    EBANDS =     -1085.93004424
  atomic energy  EATOM  =     26496.80315902
  Solvation  Ediel_sol  =         0.00000000
  ---------------------------------------------------
  free energy    TOTEN  =      -104.57548277 eV

  energy without entropy =     -104.48364862  energy(sigma->0) =     -104.54487138


--------------------------------------------------------------------------------------------------------




--------------------------------------- Iteration      1(   6)  ---------------------------------------


    POTLOK:  cpu time      2.3989: real time      2.4294
    SETDIJ:  cpu time      0.0074: real time      0.0074
    EDDIAG:  cpu time      2.7969: real time      2.8240
  RMM-DIIS:  cpu time      8.9212: real time      9.0022
    ORTHCH:  cpu time      0.6433: real time      0.6492
       DOS:  cpu time      0.0010: real time      0.0010
    CHARGE:  cpu time      0.7506: real time      0.7572
    MIXING:  cpu time      0.0043: real time      0.0044
    --------------------------------------------
      LOOP:  cpu time     15.5236: real time     15.6747

 eigenvalue-minimisations  :  6981
 total energy-change (2. order) : 0.6018813E-02  (-0.5598949E-03)
 number of electron     360.9999959 magnetization 
 augmentation part      114.1795296 magnetization 

 Broyden mixing:
  rms(total) = 0.49574E-01    rms(broyden)= 0.49574E-01
  rms(prec ) = 0.55013E-01
  weight for this iteration     100.00

 eigenvalues of (default mixing * dielectric matrix)
  average eigenvalue GAMMA=   0.4134
  0.7686  0.7686  0.0842  0.2004  0.2453

 Free energy of the ion-electron system (eV)
  ---------------------------------------------------
  alpha Z        PSCENC =       797.33612757
  Ewald energy   TEWEN  =    132148.79408943
  -Hartree energ DENC   =   -159548.32567093
  -exchange      EXHF   =         0.00000000
  -V(xc)+E(xc)   XCENC  =        89.61708071
  PAW double counting   =     32174.24472596   -31176.50193840
  entropy T*S    EENTRO =        -0.09275435
  eigenvalues    EBANDS =     -1086.44428296
  atomic energy  EATOM  =     26496.80315902
  Solvation  Ediel_sol  =         0.00000000
  ---------------------------------------------------
  free energy    TOTEN  =      -104.56946395 eV

  energy without entropy =     -104.47670961  energy(sigma->0) =     -104.53854584


--------------------------------------------------------------------------------------------------------




--------------------------------------- Iteration      1(   7)  ---------------------------------------


    POTLOK:  cpu time      2.4287: real time      2.4801
    SETDIJ:  cpu time      0.0043: real time      0.0043
    EDDIAG:  cpu time      2.8087: real time      2.8340
  RMM-DIIS:  cpu time      8.8896: real time      8.9682
    ORTHCH:  cpu time      0.5520: real time      0.5576
       DOS:  cpu time      0.0011: real time      0.0011
    CHARGE:  cpu time      0.7683: real time      0.7757
    MIXING:  cpu time      0.0046: real time      0.0046
    --------------------------------------------
      LOOP:  cpu time     15.4574: real time     15.6256

 eigenvalue-minimisations  :  7011
 total energy-change (2. order) :-0.8015702E-03  (-0.2700630E-03)
 number of electron     360.9999959 magnetization 
 augmentation part      114.1790467 magnetization 

 Broyden mixing:
  rms(total) = 0.56035E-01    rms(broyden)= 0.56035E-01
  rms(prec ) = 0.61199E-01
  weight for this iteration     100.00

 eigenvalues of (default mixing * dielectric matrix)
  average eigenvalue GAMMA=   0.5419
  1.2442  1.2442  0.0842  0.2704  0.1922  0.2164

 Free energy of the ion-electron system (eV)
  ---------------------------------------------------
  alpha Z        PSCENC =       797.33612757
  Ewald energy   TEWEN  =    132148.79408943
  -Hartree energ DENC   =   -159547.66461197
  -exchange      EXHF   =         0.00000000
  -V(xc)+E(xc)   XCENC  =        89.62435070
  PAW double counting   =     32171.90560862   -31174.12189098
  entropy T*S    EENTRO =        -0.09304175
  eigenvalues    EBANDS =     -1087.15405617
  atomic energy  EATOM  =     26496.80315902
  Solvation  Ediel_sol  =         0.00000000
  ---------------------------------------------------
  free energy    TOTEN  =      -104.57026552 eV

  energy without entropy =     -104.47722377  energy(sigma->0) =     -104.53925160


--------------------------------------------------------------------------------------------------------




--------------------------------------- Iteration      1(   8)  ---------------------------------------


    POTLOK:  cpu time      2.3475: real time      2.3797
    SETDIJ:  cpu time      0.0113: real time      0.0113
    EDDIAG:  cpu time      2.8749: real time      2.9035
  RMM-DIIS:  cpu time      8.9673: real time      9.0542
    ORTHCH:  cpu time      0.5461: real time      0.5513
       DOS:  cpu time      0.0161: real time      0.0162
    CHARGE:  cpu time      0.7585: real time      0.7659
    MIXING:  cpu time      0.0037: real time      0.0037
    --------------------------------------------
      LOOP:  cpu time     15.5253: real time     15.6858

 eigenvalue-minimisations  :  7068
 total energy-change (2. order) : 0.1401309E-02  (-0.1858257E-03)
 number of electron     360.9999959 magnetization 
 augmentation part      114.1744694 magnetization 

 Broyden mixing:
  rms(total) = 0.22853E-01    rms(broyden)= 0.22853E-01
  rms(prec ) = 0.27388E-01
  weight for this iteration     100.00

 eigenvalues of (default mixing * dielectric matrix)
  average eigenvalue GAMMA=   0.5967
  1.9608  0.9448  0.5140  0.0842  0.2758  0.1985  0.1985

 Free energy of the ion-electron system (eV)
  ---------------------------------------------------
  alpha Z        PSCENC =       797.33612757
  Ewald energy   TEWEN  =    132148.79408943
  -Hartree energ DENC   =   -159547.96398136
  -exchange      EXHF   =         0.00000000
  -V(xc)+E(xc)   XCENC  =        89.63008876
  PAW double counting   =     32169.19870506   -31171.35716242
  entropy T*S    EENTRO =        -0.09309741
  eigenvalues    EBANDS =     -1086.91679286
  atomic energy  EATOM  =     26496.80315902
  Solvation  Ediel_sol  =         0.00000000
  ---------------------------------------------------
  free energy    TOTEN  =      -104.56886421 eV

  energy without entropy =     -104.47576681  energy(sigma->0) =     -104.53783174


--------------------------------------------------------------------------------------------------------




--------------------------------------- Iteration      1(   9)  ---------------------------------------


    POTLOK:  cpu time      2.3762: real time      2.4270
    SETDIJ:  cpu time      0.0044: real time      0.0044
    EDDIAG:  cpu time      2.7687: real time      2.7979
  RMM-DIIS:  cpu time      8.8513: real time      8.9300
    ORTHCH:  cpu time      0.5395: real time      0.5445
       DOS:  cpu time      0.0010: real time      0.0010
    CHARGE:  cpu time      0.7541: real time      0.7613
    MIXING:  cpu time      0.0027: real time      0.0027
    --------------------------------------------
      LOOP:  cpu time     15.2979: real time     15.4688

 eigenvalue-minimisations  :  6899
 total energy-change (2. order) : 0.1680118E-03  (-0.7143334E-04)
 number of electron     360.9999959 magnetization 
 augmentation part      114.1743190 magnetization 

 Broyden mixing:
  rms(total) = 0.13217E-01    rms(broyden)= 0.13217E-01
  rms(prec ) = 0.16896E-01
  weight for this iteration     100.00

 eigenvalues of (default mixing * dielectric matrix)
  average eigenvalue GAMMA=   0.6346
  2.1969  0.8907  0.8907  0.0842  0.3445  0.2768  0.1965  0.1965

 Free energy of the ion-electron system (eV)
  ---------------------------------------------------
  alpha Z        PSCENC =       797.33612757
  Ewald energy   TEWEN  =    132148.79408943
  -Hartree energ DENC   =   -159547.74139972
  -exchange      EXHF   =         0.00000000
  -V(xc)+E(xc)   XCENC  =        89.63037772
  PAW double counting   =     32168.76556769   -31170.91067348
  entropy T*S    EENTRO =        -0.09303444
  eigenvalues    EBANDS =     -1087.15290999
  atomic energy  EATOM  =     26496.80315902
  Solvation  Ediel_sol  =         0.00000000
  ---------------------------------------------------
  free energy    TOTEN  =      -104.56869620 eV

  energy without entropy =     -104.47566176  energy(sigma->0) =     -104.53768472


--------------------------------------------------------------------------------------------------------




--------------------------------------- Iteration      1(  10)  ---------------------------------------


    POTLOK:  cpu time      2.3792: real time      2.4107
    SETDIJ:  cpu time      0.0044: real time      0.0044
    EDDIAG:  cpu time      2.7260: real time      2.7531
  RMM-DIIS:  cpu time      8.9644: real time      9.0429
    ORTHCH:  cpu time      0.5526: real time      0.5576
       DOS:  cpu time      0.0010: real time      0.0010
    CHARGE:  cpu time      0.7473: real time      0.7548
    MIXING:  cpu time      0.0028: real time      0.0029
    --------------------------------------------
      LOOP:  cpu time     15.3777: real time     15.5273

 eigenvalue-minimisations  :  6971
 total energy-change (2. order) : 0.8213952E-04  (-0.1650941E-04)
 number of electron     360.9999959 magnetization 
 augmentation part      114.1743011 magnetization 

 Broyden mixing:
  rms(total) = 0.65440E-02    rms(broyden)= 0.65440E-02
  rms(prec ) = 0.71633E-02
  weight for this iteration     100.00

 eigenvalues of (default mixing * dielectric matrix)
  average eigenvalue GAMMA=   0.6356
  2.2481  0.9327  0.9327  0.5272  0.0842  0.3370  0.2647  0.1949  0.1987

 Free energy of the ion-electron system (eV)
  ---------------------------------------------------
  alpha Z        PSCENC =       797.33612757
  Ewald energy   TEWEN  =    132148.79408943
  -Hartree energ DENC   =   -159547.74236704
  -exchange      EXHF   =         0.00000000
  -V(xc)+E(xc)   XCENC  =        89.62772987
  PAW double counting   =     32169.23028347   -31171.37639346
  entropy T*S    EENTRO =        -0.09291852
  eigenvalues    EBANDS =     -1087.14832440
  atomic energy  EATOM  =     26496.80315902
  Solvation  Ediel_sol  =         0.00000000
  ---------------------------------------------------
  free energy    TOTEN  =      -104.56861406 eV

  energy without entropy =     -104.47569554  energy(sigma->0) =     -104.53764122


--------------------------------------------------------------------------------------------------------




--------------------------------------- Iteration      1(  11)  ---------------------------------------


    POTLOK:  cpu time      2.4347: real time      2.4798
    SETDIJ:  cpu time      0.0045: real time      0.0046
    EDDIAG:  cpu time      2.7645: real time      2.7865
  RMM-DIIS:  cpu time      8.6592: real time      8.7136
    ORTHCH:  cpu time      0.6680: real time      0.6734
       DOS:  cpu time      0.0010: real time      0.0010
    CHARGE:  cpu time      0.7605: real time      0.7665
    MIXING:  cpu time      0.0122: real time      0.0122
    --------------------------------------------
      LOOP:  cpu time     15.3047: real time     15.4376

 eigenvalue-minimisations  :  6710
 total energy-change (2. order) :-0.5723608E-04  (-0.7300847E-05)
 number of electron     360.9999959 magnetization 
 augmentation part      114.1746195 magnetization 

 Broyden mixing:
  rms(total) = 0.75490E-02    rms(broyden)= 0.75490E-02
  rms(prec ) = 0.85440E-02
  weight for this iteration     100.00

 eigenvalues of (default mixing * dielectric matrix)
  average eigenvalue GAMMA=   0.6854
  2.3667  1.0358  1.0603  1.0603  0.0842  0.3544  0.2689  0.1949  0.1987  0.2298

 Free energy of the ion-electron system (eV)
  ---------------------------------------------------
  alpha Z        PSCENC =       797.33612757
  Ewald energy   TEWEN  =    132148.79408943
  -Hartree energ DENC   =   -159547.66003834
  -exchange      EXHF   =         0.00000000
  -V(xc)+E(xc)   XCENC  =        89.62665270
  PAW double counting   =     32169.43737176   -31171.58297614
  entropy T*S    EENTRO =        -0.09296017
  eigenvalues    EBANDS =     -1087.23009713
  atomic energy  EATOM  =     26496.80315902
  Solvation  Ediel_sol  =         0.00000000
  ---------------------------------------------------
  free energy    TOTEN  =      -104.56867130 eV

  energy without entropy =     -104.47571113  energy(sigma->0) =     -104.53768457


--------------------------------------------------------------------------------------------------------




--------------------------------------- Iteration      1(  12)  ---------------------------------------


    POTLOK:  cpu time      2.4173: real time      2.4482
    SETDIJ:  cpu time      0.0044: real time      0.0044
    EDDIAG:  cpu time      2.7781: real time      2.7985
  RMM-DIIS:  cpu time      8.1414: real time      8.1984
    ORTHCH:  cpu time      0.5688: real time      0.5733
       DOS:  cpu time      0.0010: real time      0.0010
    CHARGE:  cpu time      0.7524: real time      0.7583
    MIXING:  cpu time      0.0057: real time      0.0058
    --------------------------------------------
      LOOP:  cpu time     14.6691: real time     14.7879

 eigenvalue-minimisations  :  6201
 total energy-change (2. order) :-0.5550594E-04  (-0.4964812E-05)
 number of electron     360.9999959 magnetization 
 augmentation part      114.1749796 magnetization 

 Broyden mixing:
  rms(total) = 0.49463E-02    rms(broyden)= 0.49463E-02
  rms(prec ) = 0.54329E-02
  weight for this iteration     100.00

 eigenvalues of (default mixing * dielectric matrix)
  average eigenvalue GAMMA=   0.6898
  2.5062  1.4005  1.0080  1.0080  0.0842  0.3773  0.3347  0.2720  0.1959  0.1959
  0.2055

 Free energy of the ion-electron system (eV)
  ---------------------------------------------------
  alpha Z        PSCENC =       797.33612757
  Ewald energy   TEWEN  =    132148.79408943
  -Hartree energ DENC   =   -159547.51171455
  -exchange      EXHF   =         0.00000000
  -V(xc)+E(xc)   XCENC  =        89.62521525
  PAW double counting   =     32169.74747177   -31171.89156424
  entropy T*S    EENTRO =        -0.09291874
  eigenvalues    EBANDS =     -1087.37859231
  atomic energy  EATOM  =     26496.80315902
  Solvation  Ediel_sol  =         0.00000000
  ---------------------------------------------------
  free energy    TOTEN  =      -104.56872680 eV

  energy without entropy =     -104.47580806  energy(sigma->0) =     -104.53775389


--------------------------------------------------------------------------------------------------------




--------------------------------------- Iteration      1(  13)  ---------------------------------------


    POTLOK:  cpu time      2.4139: real time      2.4521
    SETDIJ:  cpu time      0.0042: real time      0.0043
    EDDIAG:  cpu time      2.7968: real time      2.8199
  RMM-DIIS:  cpu time      7.0387: real time      7.0845
    ORTHCH:  cpu time      0.5816: real time      0.5863
       DOS:  cpu time      0.0010: real time      0.0010
    CHARGE:  cpu time      0.7582: real time      0.7642
    MIXING:  cpu time      0.0032: real time      0.0032
    --------------------------------------------
      LOOP:  cpu time     13.5976: real time     13.7154

 eigenvalue-minimisations  :  4936
 total energy-change (2. order) :-0.2226566E-04  (-0.2400860E-05)
 number of electron     360.9999959 magnetization 
 augmentation part      114.1750535 magnetization 

 Broyden mixing:
  rms(total) = 0.17084E-02    rms(broyden)= 0.17084E-02
  rms(prec ) = 0.18579E-02
  weight for this iteration     100.00

 eigenvalues of (default mixing * dielectric matrix)
  average eigenvalue GAMMA=   0.6861
  2.5392  1.3538  0.9568  0.9568  0.8047  0.0842  0.3719  0.3027  0.2687  0.1960
  0.1960  0.2019

 Free energy of the ion-electron system (eV)
  ---------------------------------------------------
  alpha Z        PSCENC =       797.33612757
  Ewald energy   TEWEN  =    132148.79408943
  -Hartree energ DENC   =   -159547.46757892
  -exchange      EXHF   =         0.00000000
  -V(xc)+E(xc)   XCENC  =        89.62439616
  PAW double counting   =     32169.95356037   -31172.09754221
  entropy T*S    EENTRO =        -0.09291226
  eigenvalues    EBANDS =     -1087.42204822
  atomic energy  EATOM  =     26496.80315902
  Solvation  Ediel_sol  =         0.00000000
  ---------------------------------------------------
  free energy    TOTEN  =      -104.56874907 eV

  energy without entropy =     -104.47583681  energy(sigma->0) =     -104.53777832


--------------------------------------------------------------------------------------------------------




--------------------------------------- Iteration      1(  14)  ---------------------------------------


    POTLOK:  cpu time      2.3300: real time      2.3450
    SETDIJ:  cpu time      0.0376: real time      0.0380
    EDDIAG:  cpu time      2.8295: real time      2.8535
  RMM-DIIS:  cpu time      6.6020: real time      6.6476
    ORTHCH:  cpu time      0.6318: real time      0.6398
       DOS:  cpu time      0.0010: real time      0.0010
    CHARGE:  cpu time      0.7538: real time      0.7606
    MIXING:  cpu time      0.0033: real time      0.0033
    --------------------------------------------
      LOOP:  cpu time     13.1890: real time     13.2886

 eigenvalue-minimisations  :  4432
 total energy-change (2. order) :-0.2591071E-04  (-0.6660198E-06)
 number of electron     360.9999959 magnetization 
 augmentation part      114.1750166 magnetization 

 Broyden mixing:
  rms(total) = 0.11346E-02    rms(broyden)= 0.11346E-02
  rms(prec ) = 0.12350E-02
  weight for this iteration     100.00

 eigenvalues of (default mixing * dielectric matrix)
  average eigenvalue GAMMA=   0.6822
  2.5475  1.3267  1.3267  0.8694  0.8694  0.0842  0.3603  0.3435  0.2734  0.2734
  0.1951  0.1972  0.2016

 Free energy of the ion-electron system (eV)
  ---------------------------------------------------
  alpha Z        PSCENC =       797.33612757
  Ewald energy   TEWEN  =    132148.79408943
  -Hartree energ DENC   =   -159547.43878131
  -exchange      EXHF   =         0.00000000
  -V(xc)+E(xc)   XCENC  =        89.62398093
  PAW double counting   =     32170.12448747   -31172.26945539
  entropy T*S    EENTRO =        -0.09290485
  eigenvalues    EBANDS =     -1087.44947784
  atomic energy  EATOM  =     26496.80315902
  Solvation  Ediel_sol  =         0.00000000
  ---------------------------------------------------
  free energy    TOTEN  =      -104.56877498 eV

  energy without entropy =     -104.47587013  energy(sigma->0) =     -104.53780670


--------------------------------------------------------------------------------------------------------




--------------------------------------- Iteration      1(  15)  ---------------------------------------


    POTLOK:  cpu time      2.4284: real time      2.4464
    SETDIJ:  cpu time      0.0044: real time      0.0044
    EDDIAG:  cpu time      2.6886: real time      2.7117
  RMM-DIIS:  cpu time      6.2844: real time      6.3267
    ORTHCH:  cpu time      0.5427: real time      0.5474
       DOS:  cpu time      0.0009: real time      0.0009
    CHARGE:  cpu time      0.7523: real time      0.7593
    MIXING:  cpu time      0.0036: real time      0.0036
    --------------------------------------------
      LOOP:  cpu time     12.7052: real time     12.8003

 eigenvalue-minimisations  :  3969
 total energy-change (2. order) :-0.1703607E-04  (-0.2510190E-06)
 number of electron     360.9999959 magnetization 
 augmentation part      114.1749949 magnetization 

 Broyden mixing:
  rms(total) = 0.70833E-03    rms(broyden)= 0.70833E-03
  rms(prec ) = 0.78267E-03
  weight for this iteration     100.00

 eigenvalues of (default mixing * dielectric matrix)
  average eigenvalue GAMMA=   0.6796
  2.5419  1.3930  1.3930  0.8869  0.8869  0.5457  0.0842  0.3849  0.3083  0.2718
  0.1956  0.1956  0.2019  0.2248

 Free energy of the ion-electron system (eV)
  ---------------------------------------------------
  alpha Z        PSCENC =       797.33612757
  Ewald energy   TEWEN  =    132148.79408943
  -Hartree energ DENC   =   -159547.42006205
  -exchange      EXHF   =         0.00000000
  -V(xc)+E(xc)   XCENC  =        89.62375338
  PAW double counting   =     32170.21828633   -31172.36381892
  entropy T*S    EENTRO =        -0.09290201
  eigenvalues    EBANDS =     -1087.46742475
  atomic energy  EATOM  =     26496.80315902
  Solvation  Ediel_sol  =         0.00000000
  ---------------------------------------------------
  free energy    TOTEN  =      -104.56879202 eV

  energy without entropy =     -104.47589000  energy(sigma->0) =     -104.53782468


--------------------------------------------------------------------------------------------------------




--------------------------------------- Iteration      1(  16)  ---------------------------------------


    POTLOK:  cpu time      2.3293: real time      2.4030
    SETDIJ:  cpu time      0.0045: real time      0.0045
    EDDIAG:  cpu time      2.7118: real time      2.7346
  RMM-DIIS:  cpu time      5.6957: real time      5.7344
    ORTHCH:  cpu time      1.1570: real time      1.1680
       DOS:  cpu time      0.0010: real time      0.0010
    CHARGE:  cpu time      0.7497: real time      0.7579
    MIXING:  cpu time      0.0037: real time      0.0038
    --------------------------------------------
      LOOP:  cpu time     12.6526: real time     12.8072

 eigenvalue-minimisations  :  2964
 total energy-change (2. order) :-0.1654770E-04  (-0.1253637E-06)
 number of electron     360.9999959 magnetization 
 augmentation part      114.1749739 magnetization 

 Broyden mixing:
  rms(total) = 0.58908E-03    rms(broyden)= 0.58908E-03
  rms(prec ) = 0.66470E-03
  weight for this iteration     100.00

 eigenvalues of (default mixing * dielectric matrix)
  average eigenvalue GAMMA=   0.7333
  2.4791  1.8486  1.6358  0.9990  0.9990  0.8859  0.0842  0.3791  0.3257  0.2927
  0.2690  0.2105  0.1949  0.1965  0.1994

 Free energy of the ion-electron system (eV)
  ---------------------------------------------------
  alpha Z        PSCENC =       797.33612757
  Ewald energy   TEWEN  =    132148.79408943
  -Hartree energ DENC   =   -159547.39352116
  -exchange      EXHF   =         0.00000000
  -V(xc)+E(xc)   XCENC  =        89.62359843
  PAW double counting   =     32170.28433178   -31172.43017776
  entropy T*S    EENTRO =        -0.09291017
  eigenvalues    EBANDS =     -1087.49350570
  atomic energy  EATOM  =     26496.80315902
  Solvation  Ediel_sol  =         0.00000000
  ---------------------------------------------------
  free energy    TOTEN  =      -104.56880856 eV

  energy without entropy =     -104.47589840  energy(sigma->0) =     -104.53783851


--------------------------------------------------------------------------------------------------------




--------------------------------------- Iteration      1(  17)  ---------------------------------------


    POTLOK:  cpu time      2.3220: real time      2.3399
    SETDIJ:  cpu time      0.0049: real time      0.0049
    EDDIAG:  cpu time      2.7086: real time      2.7332
  RMM-DIIS:  cpu time      6.4784: real time      6.5339
    ORTHCH:  cpu time      0.5359: real time      0.5408
       DOS:  cpu time      0.0010: real time      0.0010
    CHARGE:  cpu time      0.7574: real time      0.7648
    MIXING:  cpu time      0.0042: real time      0.0042
    --------------------------------------------
      LOOP:  cpu time     12.8123: real time     12.9227

 eigenvalue-minimisations  :  4351
 total energy-change (2. order) :-0.4102197E-04  (-0.4549511E-06)
 number of electron     360.9999959 magnetization 
 augmentation part      114.1749221 magnetization 

 Broyden mixing:
  rms(total) = 0.40157E-03    rms(broyden)= 0.40157E-03
  rms(prec ) = 0.48018E-03
  weight for this iteration     100.00

 eigenvalues of (default mixing * dielectric matrix)
  average eigenvalue GAMMA=   0.7374
  2.3943  2.3314  1.5232  0.9720  0.9894  0.9894  0.0842  0.4206  0.4113  0.3344
  0.2824  0.2695  0.2050  0.1956  0.1956  0.1995

 Free energy of the ion-electron system (eV)
  ---------------------------------------------------
  alpha Z        PSCENC =       797.33612757
  Ewald energy   TEWEN  =    132148.79408943
  -Hartree energ DENC   =   -159547.31750984
  -exchange      EXHF   =         0.00000000
  -V(xc)+E(xc)   XCENC  =        89.62322452
  PAW double counting   =     32170.42959238   -31172.57603099
  entropy T*S    EENTRO =        -0.09290929
  eigenvalues    EBANDS =     -1087.56859238
  atomic energy  EATOM  =     26496.80315902
  Solvation  Ediel_sol  =         0.00000000
  ---------------------------------------------------
  free energy    TOTEN  =      -104.56884959 eV

  energy without entropy =     -104.47594029  energy(sigma->0) =     -104.53787982


--------------------------------------------------------------------------------------------------------




--------------------------------------- Iteration      1(  18)  ---------------------------------------


    POTLOK:  cpu time      2.3609: real time      2.3798
    SETDIJ:  cpu time      0.0109: real time      0.0110
    EDDIAG:  cpu time      2.6732: real time      2.6982
  RMM-DIIS:  cpu time      5.3928: real time      5.4349
    ORTHCH:  cpu time      0.4094: real time      0.4132
       DOS:  cpu time      0.0010: real time      0.0010
    CHARGE:  cpu time      0.7583: real time      0.7661
    MIXING:  cpu time      0.0040: real time      0.0041
    --------------------------------------------
      LOOP:  cpu time     11.6106: real time     11.7082

 eigenvalue-minimisations  :  2588
 total energy-change (2. order) :-0.1430661E-04  (-0.1232436E-06)
 number of electron     360.9999959 magnetization 
 augmentation part      114.1749433 magnetization 

 Broyden mixing:
  rms(total) = 0.25440E-03    rms(broyden)= 0.25440E-03
  rms(prec ) = 0.32958E-03
  weight for this iteration     100.00

[...]
    148      -1.1239      2.00000
    149      -1.0985      2.00000
    150      -1.0779      2.00000
    151      -1.0534      2.00000
    152      -1.0345      2.00000
    153      -1.0269      2.00000
    154      -0.9027      2.00000
    155      -0.8610      2.00000
    156      -0.7996      2.00000
    157      -0.7367      2.00000
    158      -0.7155      2.00000
    159      -0.6340      2.00000
    160      -0.6206      2.00000
    161      -0.5862      2.00000
    162      -0.5168      2.00000
    163      -0.5045      2.00000
    164      -0.4957      2.00000
    165      -0.4075      2.00003
    166      -0.3999      2.00005
    167      -0.3184      2.00322
    168      -0.2995      2.00694
    169      -0.2783      2.01478
    170      -0.2733      2.01738
    171      -0.2660      2.02174
    172      -0.2342      2.04770
    173      -0.2192      2.06105
    174      -0.1799      2.05758
    175      -0.1159      1.62056
    176      -0.1127      1.57852
    177      -0.0852      1.15546
    178      -0.0668      0.84617
    179      -0.0530      0.62382
    180      -0.0505      0.58528
    181      -0.0423      0.46491
    182       0.0251     -0.05237
    183       0.1129     -0.02257
    184       0.1500     -0.00634
    185       0.1551     -0.00519
    186       0.1660     -0.00330
    187       0.1723     -0.00250
    188       0.2262     -0.00017
    189       0.2667     -0.00001
    190       0.3605     -0.00000
    191       0.4648     -0.00000
    192       1.1660     -0.00000
    193       1.3379     -0.00000
    194       1.3508     -0.00000
    195       1.5039     -0.00000
    196       1.5721     -0.00000
    197       1.6483     -0.00000
    198       1.7036     -0.00000
    199       1.7183     -0.00000
    200       2.0429     -0.00000
    201       2.3062     -0.00000
    202       2.3430     -0.00000
    203       2.5232     -0.00000
    204       2.7791      0.00000
    205       2.8009      0.00000
    206       2.8959      0.00000
    207       2.9278      0.00000
    208       3.0578      0.00000
    209       3.1873      0.00000
    210       3.2613      0.00000
    211       3.2945      0.00000
    212       3.5685      0.00000
    213       3.7212      0.00000
    214       3.7538      0.00000
    215       4.1683      0.00000
    216       4.4099      0.00000
    217       4.4284      0.00000
    218       4.6715      0.00000
    219       4.7161      0.00000
    220       5.3965      0.00000
    221       5.5327      0.00000
    222       5.5817      0.00000
    223       5.6239      0.00000
    224       5.7238      0.00000
    225       5.7996      0.00000
    226       5.8972      0.00000
    227       5.9811      0.00000
    228       6.0115      0.00000
    229       6.0207      0.00000
    230       6.0334      0.00000
    231       6.2798      0.00000
    232       6.4753      0.00000
    233       6.5854      0.00000
    234       6.6751      0.00000
    235       6.7866      0.00000
    236       6.8504      0.00000
    237       6.8635      0.00000
    238       7.1139      0.00000
    239       7.2182      0.00000
    240       7.3372      0.00000


--------------------------------------------------------------------------------------------------------


 soft charge-density along one line, spin component           1
         0         1         2         3         4         5         6         7         8         9
 total charge-density along one line
 
 pseudopotential strength for first ion, spin component:           1
 -6.581   0.001   0.001  -0.009  -0.000  -6.675   0.001   0.001
  0.001  -6.466   0.001   0.000  -0.011   0.001  -6.564   0.001
  0.001   0.001  -6.454   0.001  -0.000   0.001   0.001  -6.553
 -0.009   0.000   0.001  -6.465   0.001  -0.009   0.000   0.001
 -0.000  -0.011  -0.000   0.001  -6.580  -0.000  -0.011  -0.000
 -6.675   0.001   0.001  -0.009  -0.000  -6.754   0.001   0.000
  0.001  -6.564   0.001   0.000  -0.011   0.001  -6.646   0.001
  0.001   0.001  -6.553   0.001  -0.000   0.000   0.001  -6.635
 -0.009   0.000   0.001  -6.563   0.001  -0.009   0.000   0.001
 -0.000  -0.011  -0.000   0.001  -6.675  -0.000  -0.011  -0.000
  0.000  -0.001  -0.035  -0.001  -0.000   0.000  -0.001  -0.035
  0.000  -0.001  -0.052  -0.001  -0.000   0.000  -0.001  -0.051
  0.000  -0.004   0.000   0.000   0.000   0.000  -0.004   0.000
  0.000   0.000  -0.008   0.000   0.000   0.000   0.000  -0.008
  0.000   0.000   0.000  -0.004   0.000   0.000   0.000   0.000
 -0.000  -0.003   0.000   0.000   0.001  -0.000  -0.003   0.000
  0.000   0.000  -0.008   0.000   0.000   0.000   0.000  -0.008
  0.000   0.000   0.000  -0.003  -0.000   0.001   0.000   0.000
 total augmentation occupancy for first ion, spin component:           1
  3.228   0.007   0.013  -0.257  -0.020  -1.898  -0.004  -0.008   0.078   0.012   0.003   0.000   0.006  -0.000  -0.041  -0.000
  0.007   4.213   0.022   0.006  -0.270  -0.004  -2.165  -0.014  -0.001   0.096   0.010  -0.004  -0.244  -0.001   0.001   0.014
  0.013   0.022   4.384   0.017   0.005  -0.008  -0.014  -2.565  -0.010  -0.003   0.848  -0.184  -0.003  -0.281  -0.004   0.000
 -0.257   0.006   0.017   4.239   0.007   0.087  -0.001  -0.010  -2.180  -0.004   0.012  -0.005   0.001   0.002  -0.244  -0.000
 -0.020  -0.270   0.005   0.007   3.256   0.012   0.087  -0.003  -0.004  -1.916   0.002  -0.001  -0.047  -0.000   0.006   0.004
 -1.898  -0.004  -0.008   0.087   0.012   2.216   0.002   0.004   0.041  -0.008  -0.003   0.000  -0.007  -0.000   0.041   0.000
 -0.004  -2.165  -0.014  -0.001   0.087   0.002   1.965   0.008  -0.002   0.035  -0.006   0.001   0.235  -0.000  -0.002  -0.019
 -0.008  -0.014  -2.565  -0.010  -0.003   0.004   0.008   2.533   0.005   0.002  -0.711   0.127   0.003   0.337   0.005  -0.000
  0.078  -0.001  -0.010  -2.180  -0.004   0.041  -0.002   0.005   1.972   0.002  -0.007   0.002  -0.001  -0.003   0.235   0.000
  0.012   0.096  -0.003  -0.004  -1.916  -0.008   0.035   0.002   0.002   2.227  -0.001   0.000   0.048  -0.000  -0.007  -0.004
  0.003   0.010   0.848   0.012   0.002  -0.003  -0.006  -0.711  -0.007  -0.001   2.507  -0.575  -0.003   0.191  -0.005   0.000
  0.000  -0.004  -0.184  -0.005  -0.001   0.000   0.001   0.127   0.002   0.000  -0.575   0.148   0.001  -0.068   0.001  -0.000
  0.006  -0.244  -0.003   0.001  -0.047  -0.007   0.235   0.003  -0.001   0.048  -0.003   0.001   0.254  -0.000  -0.000  -0.018
 -0.000  -0.001  -0.281   0.002  -0.000  -0.000  -0.000   0.337  -0.003  -0.000   0.191  -0.068  -0.000   0.142  -0.000   0.000
 -0.041   0.001  -0.004  -0.244   0.006   0.041  -0.002   0.005   0.235  -0.007  -0.005   0.001  -0.000  -0.000   0.253   0.000
 -0.000   0.014   0.000  -0.000   0.004   0.000  -0.019  -0.000   0.000  -0.004   0.000  -0.000  -0.018   0.000   0.000   0.001
 -0.000   0.000   0.008   0.000  -0.000   0.000   0.000  -0.023   0.000   0.000  -0.021   0.007   0.000  -0.011   0.000  -0.000
  0.003  -0.000   0.000   0.014  -0.000  -0.003   0.000  -0.000  -0.019   0.000   0.000  -0.000   0.000   0.000  -0.018  -0.000


------------------------ aborting loop because EDIFF is reached ----------------------------------------


    CHARGE:  cpu time      0.7547: real time      0.7607
    FORLOC:  cpu time      0.0182: real time      0.0183
    FORNL :  cpu time      2.6359: real time      2.6580
    STRESS:  cpu time      7.8978: real time      7.9569
    FORCOR:  cpu time      2.3486: real time      2.3620
    FORHAR:  cpu time      0.0171: real time      0.0173
    MIXING:  cpu time      0.0056: real time      0.0056
    OFIELD:  cpu time      0.0000: real time      0.0000

  FORCE on cell =-STRESS in cart. coord.  units (eV):
  Direction    XX          YY          ZZ          XY          YZ          ZX
  --------------------------------------------------------------------------------------
  Alpha Z   797.33613   797.33613   797.33613
  Ewald  151854.58480151896.90672************   -22.09827   -10.04899    -2.55446
  Hartree157824.99438157837.66129************    -6.43600    -2.48814    -0.89721
  E(xc)   -1657.94686 -1657.44682 -1666.77976    -0.26638    -0.11671    -0.00574
  Local  ************************321179.44068    24.55681     9.82144     3.41627
  n-local   108.30614   109.79813    86.70707    -0.04396    -0.85940    -0.28539
  augment  1892.65534  1889.98397  1954.28478     0.80197     1.17822     0.03645
  Kinetic  5214.04238  5206.26331  5369.54000     3.70765     2.48601     0.20942
  Fock        0.00000     0.00000     0.00000     0.00000     0.00000     0.00000
  -------------------------------------------------------------------------------------
  Total     -32.94663   -33.18254     2.08566     0.22181    -0.02757    -0.08066
  in kB     -34.04508   -34.28886     2.15520     0.22921    -0.02849    -0.08335
  external pressure =      -22.06 kB  Pullay stress =        0.00 kB


 VOLUME and BASIS-vectors are now :
 -----------------------------------------------------------------------------
  energy-cutoff  :      680.29
  volume of cell :     1550.48
      direct lattice vectors                 reciprocal lattice vectors
     8.468310000  0.000000000  0.000000000     0.118087316 -0.068177744  0.000000000
     4.234155000  7.333771587  0.000000000     0.000000000  0.136355488  0.000000000
     0.000000000  0.000000000 24.965661990     0.000000000  0.000000000  0.040055016

  length of vectors
     8.468310000  8.468310000 24.965661990     0.136355488  0.136355488  0.040055016


 FORCES acting on ions
    electron-ion (+dipol)            ewald-force                    non-local-force                 convergence-correction
 -----------------------------------------------------------------------------------------------
   -.386E+01 -.228E+01 0.248E+04   0.381E+01 0.223E+01 -.248E+04   0.105E+00 0.678E-01 -.129E+01   0.272E-03 0.316E-03 0.866E-03
   -.439E+00 -.396E+01 0.247E+04   0.450E+00 0.390E+01 -.247E+04   0.159E-01 0.105E+00 -.128E+01   -.132E-02 0.511E-03 0.272E-03
   0.374E+01 -.556E+01 0.248E+04   -.374E+01 0.555E+01 -.247E+04   -.353E-01 0.979E-01 -.129E+01   0.105E-02 -.685E-03 -.222E-03
   -.361E+01 0.154E+01 0.247E+04   0.357E+01 -.153E+01 -.247E+04   0.918E-01 -.255E-01 -.128E+01   -.264E-03 -.484E-03 0.495E-03
   0.147E+00 0.429E-01 0.247E+04   -.136E+00 -.543E-01 -.247E+04   -.544E-02 0.309E-02 -.132E+01   -.148E-02 0.387E-04 -.158E-03
   0.329E+01 -.222E+01 0.247E+04   -.326E+01 0.219E+01 -.247E+04   -.750E-01 0.251E-01 -.130E+01   0.175E-02 -.104E-02 -.309E-03
   -.292E+01 0.603E+01 0.248E+04   0.292E+01 -.604E+01 -.247E+04   0.624E-01 -.680E-01 -.129E+01   -.195E-03 0.279E-03 0.422E-03
   -.238E+00 0.396E+01 0.247E+04   0.247E+00 -.396E+01 -.247E+04   -.208E-01 -.678E-01 -.130E+01   -.703E-03 0.148E-02 0.104E-03
   0.362E+01 0.212E+01 0.247E+04   -.356E+01 -.210E+01 -.247E+04   -.109E+00 -.561E-01 -.129E+01   0.904E-03 -.422E-03 -.281E-03
   -.551E+01 -.401E+01 0.833E+03   0.550E+01 0.398E+01 -.832E+03   0.904E-01 0.101E+00 -.270E+00   -.830E-03 -.154E-03 0.122E-02
   0.382E+01 -.385E+01 0.834E+03   -.379E+01 0.377E+01 -.834E+03   -.545E-01 0.120E+00 -.254E+00   -.160E-02 0.214E-03 0.748E-03
   0.114E+01 -.633E+01 0.835E+03   -.119E+01 0.627E+01 -.835E+03   -.147E-01 0.174E+00 -.318E+00   0.243E-02 -.131E-02 0.539E-03
   -.104E+01 0.480E+01 0.834E+03   0.100E+01 -.477E+01 -.833E+03   0.483E-01 -.574E-01 -.250E+00   -.858E-03 -.241E-03 0.944E-03
   0.631E+00 -.132E+00 0.839E+03   -.641E+00 0.102E+00 -.839E+03   0.499E-02 0.534E-01 -.390E+00   -.101E-02 0.490E-03 0.690E-03
   0.851E+00 -.132E+01 0.834E+03   -.798E+00 0.131E+01 -.834E+03   -.110E+00 0.433E-01 -.294E+00   0.188E-02 -.175E-02 -.302E-03
   -.446E+01 0.399E+01 0.835E+03   0.440E+01 -.403E+01 -.835E+03   0.109E+00 -.432E-01 -.325E+00   -.237E-03 0.150E-02 0.127E-02
   -.412E+00 0.124E+01 0.835E+03   0.452E+00 -.122E+01 -.834E+03   -.564E-01 -.538E-01 -.306E+00   -.147E-02 0.166E-02 0.234E-03
   0.597E+01 0.355E+01 0.831E+03   -.587E+01 -.350E+01 -.830E+03   -.184E+00 -.889E-01 -.240E+00   0.173E-02 -.404E-03 -.246E-03
   -.399E+01 -.101E+00 -.829E+03   0.408E+01 0.171E+00 0.828E+03   -.858E-01 -.832E-01 0.414E+00   0.201E-02 -.240E-02 -.779E-03
   0.205E+01 0.926E+00 -.839E+03   -.208E+01 -.930E+00 0.838E+03   0.241E-01 0.612E-02 0.506E+00   -.152E-02 0.113E-03 -.320E-03
   0.184E+01 0.874E+00 -.808E+03   -.186E+01 -.882E+00 0.807E+03   0.234E-01 -.154E-02 0.522E+00   -.352E-03 -.415E-03 0.245E-03
   -.714E+00 0.726E+00 -.829E+03   0.656E+00 -.959E+00 0.829E+03   0.661E-01 0.237E+00 0.201E+00   0.224E-02 -.176E-02 -.740E-03
   0.968E+00 0.135E+01 -.809E+03   -.101E+01 -.135E+01 0.808E+03   0.612E-01 0.162E-02 0.493E+00   -.135E-02 0.810E-03 -.182E-03
   -.288E+00 0.125E+00 -.812E+03   0.332E+00 -.947E-01 0.812E+03   -.638E-01 -.487E-01 0.502E+00   -.855E-03 0.105E-03 -.301E-03
   0.109E+01 0.693E+00 -.812E+03   -.111E+01 -.703E+00 0.812E+03   0.287E-01 0.596E-02 0.517E+00   0.265E-02 -.599E-04 -.789E-03
   -.164E+01 -.255E+01 -.826E+03   0.173E+01 0.262E+01 0.826E+03   -.102E+00 -.965E-01 0.436E+00   -.172E-02 0.173E-02 -.762E-03
   -.412E+00 -.116E+01 -.826E+03   0.184E+00 0.123E+01 0.826E+03   0.237E+00 -.424E-01 0.191E+00   -.106E-02 0.153E-02 -.345E-03
   -.148E+01 0.964E-01 -.244E+04   0.500E+00 -.606E+00 0.244E+04   0.973E+00 0.493E+00 0.152E+01   0.720E-03 -.131E-03 -.560E-02
   -.947E+01 0.197E+02 -.246E+04   0.933E+01 -.193E+02 0.246E+04   0.154E+00 -.322E+00 -.390E+00   -.131E-02 0.135E-02 -.486E-02
   -.128E+01 -.115E+01 -.245E+04   0.127E+01 0.118E+01 0.245E+04   0.499E-02 -.145E-01 0.117E+01   0.574E-03 0.519E-03 -.403E-02
   0.128E+02 -.191E+02 -.247E+04   -.125E+02 0.187E+02 0.247E+04   -.258E+00 0.416E+00 -.508E+00   0.971E-03 -.125E-02 -.516E-02
   -.122E+01 0.373E+00 -.244E+04   0.182E+01 0.258E-01 0.244E+04   -.589E+00 -.412E+00 0.139E+01   -.119E-02 0.316E-03 -.476E-02
   -.105E+01 0.142E+01 -.245E+04   0.989E+00 -.135E+01 0.245E+04   0.767E-01 -.875E-01 0.118E+01   0.148E-03 -.111E-02 -.404E-02
   -.176E+01 -.997E+00 -.245E+04   0.174E+01 0.101E+01 0.245E+04   0.317E-01 -.192E-01 0.116E+01   0.123E-02 -.330E-03 -.490E-02
   0.226E+00 -.182E+01 -.245E+04   -.243E+00 0.177E+01 0.245E+04   0.135E-01 0.583E-01 0.118E+01   -.165E-02 0.865E-03 -.457E-02
   0.110E+01 0.602E+00 -.245E+04   -.107E+01 -.587E+00 0.245E+04   -.260E-01 -.106E-01 0.121E+01   0.316E-03 0.195E-04 -.357E-02
   0.193E+01 0.186E+01 -.314E+03   -.207E+01 -.203E+01 0.316E+03   0.130E+00 0.135E+00 -.175E+01   0.420E-05 0.145E-06 -.610E-03
 -----------------------------------------------------------------------------------------------
   -.607E+00 -.541E+00 0.444E+01   -.444E-14 0.719E-13 0.853E-12   0.564E+00 0.545E+00 -.434E+01   -.729E-04 -.930E-04 -.398E-01
 
 
 POSITION                                       TOTAL-FORCE (eV/Angst)
 -----------------------------------------------------------------------------------
      0.00000      0.00000      8.50000         0.051942      0.019215     -0.128078
      2.82843      0.00000      8.50000         0.026654      0.044625     -0.080271
      5.65685      0.00000      8.50000        -0.033482      0.083141     -0.154820
      1.41421      2.44949      8.50000         0.061034     -0.018219     -0.078432
      4.24264      2.44949      8.50000         0.005894     -0.008427     -0.076900
      7.07107      2.44949      8.50000        -0.045085      0.000416     -0.089648
      2.82843      4.89898      8.50000         0.062288     -0.083756     -0.150728
      5.65685      4.89898      8.50000        -0.010981     -0.058650     -0.087268
      8.48528      4.89898      8.50000        -0.051660     -0.041439     -0.080717
      1.41421      0.81650     10.80940         0.083882      0.078466      0.209420
      4.24264      0.81650     10.80940        -0.027837      0.046047      0.131822
      7.07107      0.81650     10.80940        -0.057472      0.108360      0.051301
      2.82843      3.26599     10.80940         0.011028     -0.023351      0.142939
      5.65685      3.26599     10.80940        -0.005065      0.023361      0.030037
      8.48528      3.26599     10.80940        -0.053893      0.034109      0.167115
      4.24264      5.71548     10.80940         0.046072     -0.077176      0.054675
      7.07107      5.71548     10.80940        -0.016840     -0.032565      0.150525
      9.89949      5.71548     10.80940        -0.085196     -0.036715      0.060731
      8.48059      1.65856     13.10967         0.013230     -0.015472     -0.003839
      2.82616      1.65029     13.12830        -0.007890      0.002910     -0.033646
      5.65392      1.65302     13.08372         0.003278     -0.010178      0.011853
      9.88408      4.08314     13.11644         0.011809      0.002862      0.001599
      4.23814      4.10106     13.08605         0.022906     -0.000122     -0.008431
      7.06624      4.10134     13.09152        -0.019230     -0.018792     -0.019100
     11.29369      6.53973     13.08779         0.011016     -0.004227     -0.006048
      5.65770      6.55042     13.10586        -0.007941     -0.017889      0.009169
      8.46409      6.54262     13.11316         0.009152      0.024018     -0.013530
      8.44159      0.01787     15.41629        -0.009436     -0.016655     -0.019861
      2.85199      0.01788     15.49985         0.011806     -0.000598      0.003255
      5.65486      0.03470     15.41982         0.000636      0.010518      0.010118
      9.88776      2.49699     15.51345        -0.023179      0.049308     -0.050596
      4.27152      2.49866     15.41537         0.008263     -0.013386     -0.005927
      7.05934      2.48396     15.41855         0.012675     -0.027029      0.002550
     11.29774      4.92559     15.42543         0.012279     -0.008014     -0.004456
      5.65198      4.92041     15.41500        -0.003390      0.012394      0.012910
      8.47654      4.92072     15.42908         0.002160      0.004699     -0.002058
      2.01635      1.19164     16.51139        -0.009429     -0.031791      0.044337
 -----------------------------------------------------------------------------------
    total drift:                               -0.042974      0.004248      0.065748


--------------------------------------------------------------------------------------------------------



  FREE ENERGIE OF THE ION-ELECTRON SYSTEM (eV)
  ---------------------------------------------------
  free  energy   TOTEN  =      -104.56888602 eV

  energy  without entropy=     -104.47597398  energy(sigma->0) =     -104.53791534
 


--------------------------------------------------------------------------------------------------------


    POTLOK:  cpu time      2.2724: real time      2.3013


--------------------------------------------------------------------------------------------------------


 writing wavefunctions
     LOOP+:  cpu time    314.4443: real time    317.8450
    4ORBIT:  cpu time      0.0000: real time      0.0000

 total amount of memory used by VASP MPI-rank0   148550. kBytes
=======================================================================

   base      :      30000. kBytes
   nonlr-proj:      22477. kBytes
   fftplans  :       5213. kBytes
   grid      :      24541. kBytes
   one-center:        575. kBytes
   wavefun   :      65744. kBytes
 
  
  
 General timing and accounting informations for this job:
 ========================================================
  
                  Total CPU time used (sec):      327.142
                            User time (sec):      323.314
                          System time (sec):        3.828
                         Elapsed time (sec):      337.608
  
                   Maximum memory used (kb):      632688.
                   Average memory used (kb):          N/A
  
                          Minor page faults:       263978
                          Major page faults:          695
                 Voluntary context switches:         5319
