unknown system                          
           1
     8.468310    0.000000    0.000000
     4.234155    7.333772    0.000000
     0.000000    0.000000   24.965662
   Pt   H 
    36     1
Direct configuration=     1
   0.00000000  0.00000000  0.34046764
   0.33400137  0.00000000  0.34046764
   0.66800274  0.00000000  0.34046764
   0.00000000  0.33400137  0.34046764
   0.33400137  0.33400137  0.34046764
   0.66800274  0.33400137  0.34046764
   0.00000000  0.66800274  0.34046764
   0.33400137  0.66800274  0.34046764
   0.66800274  0.66800274  0.34046764
   0.11133379  0.11133379  0.43297074
   0.44533516  0.11133379  0.43297074
   0.77933653  0.11133379  0.43297074
   0.11133379  0.44533516  0.43297074
   0.44533516  0.44533516  0.43297074
   0.77933653  0.44533516  0.43297074
   0.11133379  0.77933653  0.43297074
   0.44533516  0.77933653  0.43297074
   0.77933653  0.77933653  0.43297074
   0.88837345  0.22615362  0.52510811
   0.22122113  0.22502622  0.52585419
   0.55495730  0.22539898  0.52406880
   0.88880591  0.55675801  0.52537942
   0.22086961  0.55920222  0.52416190
   0.55481342  0.55924082  0.52438102
   0.88777771  0.89172749  0.52423159
   0.22151016  0.89318533  0.52495563
   0.55344047  0.89212180  0.52524797
   0.99562651  0.00243672  0.61749973
   0.33556457  0.00243797  0.62084658
   0.66540159  0.00473216  0.61764109
   0.99737935  0.34047891  0.62139146
   0.33405968  0.34070601  0.61746276
   0.66426757  0.33870138  0.61759015
   0.99830495  0.67163077  0.61786578
   0.33196485  0.67092515  0.61744818
   0.66548771  0.67096715  0.61801203
   0.15686231  0.16248695  0.66136402
