
     Program PWSCF v.7.1 starts on 22Feb2025 at 22: 8:55 
        Git branch: heads/qe-7.1
        Last git commit: 48ba0178f8fede6d020eb786884699a9f063f55d-dirty
        Last git commit date: Fri Jan 27 14:22:33 2023 +0000
        Last git commit subject: Merge branch 'fix_hubbard' into 'develop'

     This program is part of the open-source Quantum ESPRESSO suite
     for quantum simulation of materials; please cite
         "P. Giannozzi et al., J. Phys.:Condens. Matter 21 395502 (2009);
         "P. Giannozzi et al., J. Phys.:Condens. Matter 29 465901 (2017);
         "P. Giannozzi et al., J. Chem. Phys. 152 154105 (2020);
          URL http://www.quantum-espresso.org", 
     in publications or presentations arising from this work. More details at
     http://www.quantum-espresso.org/quote

     Parallel version (MPI), running on    48 processors

     MPI processes distributed on     1 nodes
     17059 MiB available memory on the printing compute node when the environment starts

     Reading input from espresso.pwi
Warning: card &CELL ignored
Warning: card / ignored
Warning: card &FCP ignored
Warning: card / ignored
Warning: card &RISM ignored
Warning: card / ignored

     Current dimensions of program PWSCF are:
     Max number of different atomic species (ntypx) = 10
     Max number of k-points (npk) =  40000
     Max angular momentum in pseudopotentials (lmaxx) =  4
     file Pt.pbe-n-kjpaw_psl.1.0.0.UPF: wavefunction(s)  6S 5D renormalized
     file H.pbe-kjpaw_psl.1.0.0.UPF: wavefunction(s)  1S renormalized

     **************************************************************************
     Initializing libbeef V0.1.2 with the BEEF-vdW functional.
     Citation: Wellendorff et al., PRB 85, 235149 (2012).
     **************************************************************************


     IMPORTANT: XC functional enforced from input :
     Exchange-correlation= BEEF-VDW
                           (   1   4  43  14   2   0   0)
     Any further DFT definition will be discarded
     Please, verify this is what you really want


     R & G space division:  proc/nbgrp/npool/nimage =      48
     Subspace diagonalization in iterative solution of the eigenvalue problem:
     one sub-group per band group will be used
     custom distributed-memory algorithm (size of sub-group:  2*  2 procs)


     Parallelization info
     --------------------
     sticks:   dense  smooth     PW     G-vecs:    dense   smooth      PW
     Min         151      59     16                29407     7165    1028
     Max         152      60     17                29420     7176    1042
     Sum        7267    2839    769              1411785   344073   49691

     Using Slab Decomposition



     bravais-lattice index     =            0
     lattice parameter (alat)  =      16.0349  a.u.
     unit-cell volume          =   10068.6169 (a.u.)^3
     number of atoms/cell      =           37
     number of atomic types    =            2
     number of electrons       =       361.00
     number of Kohn-Sham states=          217
     kinetic-energy cutoff     =      40.0000  Ry
     charge density cutoff     =     410.0000  Ry
     scf convergence threshold =      1.0E-06
     mixing beta               =       0.7000
     number of iterations used =            8  local-TF  mixing
     Exchange-correlation= BEEF-VDW
                           (   1   4  43  14   2   0   0)

     celldm(1)=  16.034858  celldm(2)=   0.000000  celldm(3)=   0.000000
     celldm(4)=   0.000000  celldm(5)=   0.000000  celldm(6)=   0.000000

     crystal axes: (cart. coord. in units of alat)
               a(1) = (   1.000000   0.000000   0.000000 )  
               a(2) = (   0.500000   0.866025   0.000000 )  
               a(3) = (   0.000000   0.000000   2.819966 )  

     reciprocal axes: (cart. coord. in units 2 pi/alat)
               b(1) = (  1.000000 -0.577350  0.000000 )  
               b(2) = (  0.000000  1.154701  0.000000 )  
               b(3) = (  0.000000  0.000000  0.354614 )  


     PseudoPot. # 1 for Pt read from file:
     /users/kbadger1/espresso/pseudo/pslibrary.1.0.0/pbe/PSEUDOPOTENTIALS/Pt.pbe-n-kjpaw_psl.1.0.0.UPF
     MD5 check sum: 2e24a0b5bf98a4ed1a57fa81bca8c143
     Pseudo is Projector augmented-wave + core cor, Zval = 10.0
     Generated using 'atomic' code by A. Dal Corso  v.7.0
     Shape of augmentation charge: PSQ
     Using radial grid of 1277 points,  6 beta functions with: 
                l(1) =   0
                l(2) =   0
                l(3) =   1
                l(4) =   1
                l(5) =   2
                l(6) =   2
     Q(r) pseudized with 0 coefficients 


     PseudoPot. # 2 for H  read from file:
     /users/kbadger1/espresso/pseudo/pslibrary.1.0.0/pbe/PSEUDOPOTENTIALS/H.pbe-kjpaw_psl.1.0.0.UPF
     MD5 check sum: fe4c6fa958fa6d3815bf5d2419cbf1df
     Pseudo is Projector augmented-wave, Zval =  1.0
     Generated using 'atomic' code by A. Dal Corso  v.7.0
     Shape of augmentation charge: PSQ
     Using radial grid of  929 points,  2 beta functions with: 
                l(1) =   0
                l(2) =   0
     Q(r) pseudized with 0 coefficients 


     atomic species   valence    mass     pseudopotential
        Pt            10.00   195.08400     Pt( 1.00)
        H              1.00     1.00800     H ( 1.00)

     No symmetry found



   Cartesian axes

     site n.     atom                  positions (alat units)
         1           Pt  tau(   1) = (   0.0000000   0.0000000   1.0017346  )
         2           Pt  tau(   2) = (   0.3333333   0.0000000   1.0017346  )
         3           Pt  tau(   3) = (   0.6666667   0.0000000   1.0017346  )
         4           Pt  tau(   4) = (   0.1666667   0.2886751   1.0017346  )
         5           Pt  tau(   5) = (   0.5000000   0.2886751   1.0017346  )
         6           Pt  tau(   6) = (   0.8333333   0.2886751   1.0017346  )
         7           Pt  tau(   7) = (   0.3333333   0.5773503   1.0017346  )
         8           Pt  tau(   8) = (   0.6666667   0.5773503   1.0017346  )
         9           Pt  tau(   9) = (   1.0000000   0.5773503   1.0017346  )
        10           Pt  tau(  10) = (   0.1666667   0.0962250   1.2739001  )
        11           Pt  tau(  11) = (   0.5000000   0.0962250   1.2739001  )
        12           Pt  tau(  12) = (   0.8333333   0.0962250   1.2739001  )
        13           Pt  tau(  13) = (   0.3333333   0.3849002   1.2739001  )
        14           Pt  tau(  14) = (   0.6666667   0.3849002   1.2739001  )
        15           Pt  tau(  15) = (   1.0000000   0.3849002   1.2739001  )
        16           Pt  tau(  16) = (   0.5000000   0.6735753   1.2739001  )
        17           Pt  tau(  17) = (   0.8333333   0.6735753   1.2739001  )
        18           Pt  tau(  18) = (   1.1666667   0.6735753   1.2739001  )
        19           Pt  tau(  19) = (   0.0010520   0.1929781   1.5435757  )
        20           Pt  tau(  20) = (   0.3333641   0.1924709   1.5450560  )
        21           Pt  tau(  21) = (   0.6670177   0.1926859   1.5426245  )
        22           Pt  tau(  22) = (   0.1668651   0.4803355   1.5439441  )
        23           Pt  tau(  23) = (   0.5003804   0.4813127   1.5426269  )
        24           Pt  tau(  24) = (   0.8337273   0.4813488   1.5426323  )
        25           Pt  tau(  25) = (   0.3334516   0.7698703   1.5415821  )
        26           Pt  tau(  26) = (   0.6676497   0.7704495   1.5435811  )
        27           Pt  tau(  27) = (   0.9994131   0.7703668   1.5439427  )
        28           Pt  tau(  28) = (  -0.0010114  -0.0005814   1.8156147  )
        29           Pt  tau(  29) = (   0.3361327  -0.0014997   1.8251059  )
        30           Pt  tau(  30) = (   0.6686863   0.0002857   1.8165701  )
        31           Pt  tau(  31) = (   0.1667718   0.2918494   1.8250968  )
        32           Pt  tau(  32) = (   0.5053160   0.2917468   1.8183423  )
        33           Pt  tau(  33) = (   0.8347176   0.2892488   1.8169737  )
        34           Pt  tau(  34) = (   0.3345928   0.5789599   1.8165685  )
        35           Pt  tau(  35) = (   0.6678571   0.5782620   1.8169829  )
        36           Pt  tau(  36) = (   1.0012387   0.5780658   1.8171503  )
        37           H   tau(  37) = (   0.2917201   0.1684263   1.9379630  )

     number of k points=    13  Marzari-Vanderbilt smearing, width (Ry)=  0.0200
                       cart. coord. in units 2pi/alat
        k(    1) = (   0.0000000   0.0000000   0.0000000), wk =   0.0800000
        k(    2) = (   0.0000000   0.2309401   0.0000000), wk =   0.1600000
        k(    3) = (   0.0000000   0.4618802   0.0000000), wk =   0.1600000
        k(    4) = (   0.2000000  -0.1154701   0.0000000), wk =   0.1600000
        k(    5) = (   0.2000000   0.1154701   0.0000000), wk =   0.1600000
        k(    6) = (   0.2000000   0.3464102   0.0000000), wk =   0.1600000
        k(    7) = (   0.2000000  -0.5773503   0.0000000), wk =   0.1600000
        k(    8) = (   0.2000000  -0.3464102   0.0000000), wk =   0.1600000
        k(    9) = (   0.4000000  -0.2309401   0.0000000), wk =   0.1600000
        k(   10) = (   0.4000000  -0.0000000   0.0000000), wk =   0.1600000
        k(   11) = (   0.4000000   0.2309401   0.0000000), wk =   0.1600000
        k(   12) = (   0.4000000  -0.6928203   0.0000000), wk =   0.1600000
        k(   13) = (   0.4000000  -0.4618802   0.0000000), wk =   0.1600000

     Dense  grid:  1411785 G-vectors     FFT dimensions: ( 108, 108, 300)

     Smooth grid:   344073 G-vectors     FFT dimensions: (  72,  72, 192)

     Estimated max dynamical RAM per process >     203.68 MB

     Estimated total dynamical RAM >       9.55 GB

     Initial potential from superposition of free atoms

     starting charge     360.9939, renormalised to     361.0000

     negative rho (up, down):  3.367E-03 0.000E+00


     %%%%%%%%%%%%%%%%%%%%%%%%%%%%%%%%%%%%%%%%%%%%%%%%%%%%%%%%%%%%%%%%%%%%%%%%
     %                                                                      %
     % You are using vdW-DF, which was implemented by the Thonhauser group. %
     % Please cite the following two papers that made this development      %
     % possible and the two reviews that describe the various versions:     %
     %                                                                      %
     %   T. Thonhauser et al., PRL 115, 136402 (2015).                      %
     %   T. Thonhauser et al., PRB 76, 125112 (2007).                       %
     %   K. Berland et al., Rep. Prog. Phys. 78, 066501 (2015).             %
     %   D.C. Langreth et al., J. Phys.: Condens. Matter 21, 084203 (2009). %
     %                                                                      %
     % If you are calculating stress with vdW-DF, please also cite:         %
     %                                                                      %
     %   R. Sabatini et al., J. Phys.: Condens. Matter 24, 424209 (2012).   %
     %                                                                      %
     %%%%%%%%%%%%%%%%%%%%%%%%%%%%%%%%%%%%%%%%%%%%%%%%%%%%%%%%%%%%%%%%%%%%%%%%

     %%%%%%%%%%%%%%%%%%%%%%%%%%%%%%%%%%%%%%%%%%%%%%%%%%%%%%%%%%%%%%%%%%%%%%%%
     %                                                                      %
     %  vdW-DF NEWS:                                                        %
     %                                                                      %
     %  * vdW-DF3 is now available. DOI: 10.1021/acs.jctc.0c00471           %
     %    use with input_dft = 'vdW-DF3-opt1' or 'vdW-DF3-opt2'             %
     %                                                                      %
     %  * Unscreened and range-separated hybrid vdW-DF-cx functionals       %
     %    DOI: 10.1063/1.4986522 and 10.1088/1361-648X/ac2ad2               %
     %    use with input_dft = 'vdW-DF-cx0'    and 'vdW-DF-ahcx'            %
     %  * Unscreened and range-separated hybrid vdW-DF2-b86r functionals    %
     %    DOI: 10.1063/1.4986522 and DOI: 10.1103/PhysRevX.12.041003        %
     %    use with input_dft = 'vdW-DF2-br0' and 'vdW-DF2-ahbr'             %
     %                                                                      %
     %%%%%%%%%%%%%%%%%%%%%%%%%%%%%%%%%%%%%%%%%%%%%%%%%%%%%%%%%%%%%%%%%%%%%%%%


     Starting wfcs are  325 randomized atomic wfcs
     Checking if some PAW data can be deallocated... 

     total cpu time spent up to now is       10.8 secs

     per-process dynamical memory:   207.7 Mb

     Self-consistent Calculation

     iteration #  1     ecut=    40.00 Ry     beta= 0.70
     Davidson diagonalization with overlap
     ethr =  1.00E-02,  avg # of iterations =  2.0

     Threshold (ethr) on eigenvalues was too large:
     Diagonalizing with lowered threshold

     Davidson diagonalization with overlap
     ethr =  3.72E-04,  avg # of iterations =  3.8

     negative rho (up, down):  1.781E-02 0.000E+00

     total cpu time spent up to now is       45.2 secs

     total energy              =  -27755.28231191 Ry
     estimated scf accuracy    <       1.54329276 Ry

     iteration #  2     ecut=    40.00 Ry     beta= 0.70
     Davidson diagonalization with overlap
     ethr =  4.28E-04,  avg # of iterations =  2.0

     negative rho (up, down):  1.596E-02 0.000E+00

     total cpu time spent up to now is       63.0 secs

     total energy              =  -27755.38079502 Ry
     estimated scf accuracy    <       0.81025668 Ry

     iteration #  3     ecut=    40.00 Ry     beta= 0.70
     Davidson diagonalization with overlap
     ethr =  2.24E-04,  avg # of iterations =  2.0

     negative rho (up, down):  1.057E-02 0.000E+00

     total cpu time spent up to now is       77.8 secs

     total energy              =  -27755.43226503 Ry
     estimated scf accuracy    <       0.09338147 Ry

     iteration #  4     ecut=    40.00 Ry     beta= 0.70
     Davidson diagonalization with overlap
     c_bands:  2 eigenvalues not converged
     c_bands:  1 eigenvalues not converged
     c_bands:  1 eigenvalues not converged
     c_bands:  1 eigenvalues not converged
     ethr =  2.59E-05,  avg # of iterations = 14.4

     negative rho (up, down):  7.797E-03 0.000E+00

     total cpu time spent up to now is      120.8 secs

     total energy              =  -27755.48170953 Ry
     estimated scf accuracy    <       0.08748397 Ry

     iteration #  5     ecut=    40.00 Ry     beta= 0.70
     Davidson diagonalization with overlap
     ethr =  2.42E-05,  avg # of iterations =  3.0

     negative rho (up, down):  3.452E-03 0.000E+00

     total cpu time spent up to now is      136.9 secs

     total energy              =  -27755.48149338 Ry
     estimated scf accuracy    <       0.03025628 Ry

     iteration #  6     ecut=    40.00 Ry     beta= 0.70
     Davidson diagonalization with overlap
     c_bands:  1 eigenvalues not converged
     c_bands:  1 eigenvalues not converged
     ethr =  8.38E-06,  avg # of iterations =  6.8

     negative rho (up, down):  1.663E-03 0.000E+00

     total cpu time spent up to now is      158.4 secs

     total energy              =  -27755.48369700 Ry
     estimated scf accuracy    <       0.00244022 Ry

     iteration #  7     ecut=    40.00 Ry     beta= 0.70
     Davidson diagonalization with overlap
     c_bands:  1 eigenvalues not converged
     c_bands:  1 eigenvalues not converged
     c_bands:  1 eigenvalues not converged
     c_bands:  1 eigenvalues not converged
     ethr =  6.76E-07,  avg # of iterations = 13.8

     negative rho (up, down):  1.281E-03 0.000E+00

     total cpu time spent up to now is      195.4 secs

     total energy              =  -27755.48422870 Ry
     estimated scf accuracy    <       0.00189478 Ry

     iteration #  8     ecut=    40.00 Ry     beta= 0.70
     Davidson diagonalization with overlap
     ethr =  5.25E-07,  avg # of iterations =  3.2

     negative rho (up, down):  1.114E-03 0.000E+00

     total cpu time spent up to now is      214.5 secs

     total energy              =  -27755.48437586 Ry
     estimated scf accuracy    <       0.00020957 Ry

     iteration #  9     ecut=    40.00 Ry     beta= 0.70
     Davidson diagonalization with overlap
     ethr =  5.81E-08,  avg # of iterations =  5.2

     negative rho (up, down):  9.036E-04 0.000E+00

     total cpu time spent up to now is      247.6 secs

     total energy              =  -27755.48448991 Ry
     estimated scf accuracy    <       0.00008629 Ry

     iteration # 10     ecut=    40.00 Ry     beta= 0.70
     Davidson diagonalization with overlap
     c_bands:  1 eigenvalues not converged
     ethr =  2.39E-08,  avg # of iterations =  5.2

     negative rho (up, down):  8.822E-04 0.000E+00

     total cpu time spent up to now is      275.2 secs

     total energy              =  -27755.48450911 Ry
     estimated scf accuracy    <       0.00008507 Ry

     iteration # 11     ecut=    40.00 Ry     beta= 0.70
     Davidson diagonalization with overlap
     ethr =  2.36E-08,  avg # of iterations =  1.3

     negative rho (up, down):  9.698E-04 0.000E+00

     total cpu time spent up to now is      289.9 secs

     total energy              =  -27755.48451374 Ry
     estimated scf accuracy    <       0.00005288 Ry

     iteration # 12     ecut=    40.00 Ry     beta= 0.70
     Davidson diagonalization with overlap
     ethr =  1.46E-08,  avg # of iterations =  1.7

     negative rho (up, down):  1.204E-03 0.000E+00

     total cpu time spent up to now is      307.1 secs

     total energy              =  -27755.48451995 Ry
     estimated scf accuracy    <       0.00001902 Ry

     iteration # 13     ecut=    40.00 Ry     beta= 0.70
     Davidson diagonalization with overlap
     ethr =  5.27E-09,  avg # of iterations =  2.2

     negative rho (up, down):  1.671E-03 0.000E+00

     total cpu time spent up to now is      322.8 secs

     total energy              =  -27755.48452498 Ry
     estimated scf accuracy    <       0.00001096 Ry

     iteration # 14     ecut=    40.00 Ry     beta= 0.70
     Davidson diagonalization with overlap
     ethr =  3.03E-09,  avg # of iterations =  2.0

     negative rho (up, down):  2.009E-03 0.000E+00

     total cpu time spent up to now is      340.8 secs

     total energy              =  -27755.48452791 Ry
     estimated scf accuracy    <       0.00000672 Ry

     iteration # 15     ecut=    40.00 Ry     beta= 0.70
     Davidson diagonalization with overlap
     ethr =  1.86E-09,  avg # of iterations =  2.0

     negative rho (up, down):  2.711E-03 0.000E+00

     total cpu time spent up to now is      360.0 secs

     total energy              =  -27755.48452549 Ry
     estimated scf accuracy    <       0.00000588 Ry

     iteration # 16     ecut=    40.00 Ry     beta= 0.70
     Davidson diagonalization with overlap
     ethr =  1.63E-09,  avg # of iterations =  1.4

     negative rho (up, down):  2.862E-03 0.000E+00

     total cpu time spent up to now is      374.2 secs

     total energy              =  -27755.48452521 Ry
     estimated scf accuracy    <       0.00000109 Ry

     iteration # 17     ecut=    40.00 Ry     beta= 0.70
     Davidson diagonalization with overlap
     ethr =  3.03E-10,  avg # of iterations =  4.3

     negative rho (up, down):  3.155E-03 0.000E+00

     total cpu time spent up to now is      401.6 secs

     End of self-consistent calculation

          k = 0.0000 0.0000 0.0000 ( 42913 PWs)   bands (ev):

    -6.3110  -5.1815  -4.4568  -3.8897  -3.8823  -3.8717  -3.8687  -3.8604
    -3.8547  -3.8490  -3.5531  -3.3223  -3.3220  -3.3092  -3.3022  -3.3017
    -3.2321  -2.8541  -2.8522  -2.8502  -2.8454  -2.8408  -2.7380  -2.6342
    -2.6302  -2.6258  -2.6230  -2.6171  -2.5194  -2.4081  -2.4036  -2.4028
    -2.3981  -2.3949  -2.3890  -2.3809  -2.3739  -2.3670  -2.3452  -2.3394
    -1.9256  -1.7858  -1.7846  -1.7617  -1.7464  -1.7174  -1.7100  -1.7004
    -1.6870  -1.6865  -1.5746  -1.5490  -1.5475  -1.4477  -1.4386  -0.9781
    -0.9716  -0.9586  -0.9583  -0.9478  -0.8940  -0.8680  -0.7863  -0.7861
    -0.7787  -0.7784  -0.7632  -0.7627  -0.7472  -0.7308  -0.7239  -0.7191
    -0.7146  -0.7121  -0.6861  -0.6784  -0.6742  -0.5582  -0.5479  -0.5441
    -0.5411  -0.5367  -0.5060  -0.3809  -0.3681  -0.3656  -0.3514  -0.3474
    -0.3413  -0.3005  -0.3001  -0.2253  -0.2108  -0.1868  -0.1694  -0.1269
    -0.1244  -0.0864  -0.0843  -0.0786  -0.0005   0.0641   0.0728   0.0806
     0.0830   0.0891   0.0971   0.3341   0.5541   0.5778   0.5796   0.5886
     0.5889   0.6006   0.6219   0.6320   0.6416   0.6432   0.6568   0.7244
     0.7339   0.7821   0.8595   0.8765   0.8826   0.8836   0.8959   0.9746
     1.0066   1.0496   1.0577   1.0582   1.0633   1.2796   1.2996   1.3118
     1.3223   1.3258   1.3267   1.3802   1.3978   1.5328   1.5435   1.5619
     1.5668   1.5712   1.5728   1.7148   1.7151   1.7294   1.7427   1.7534
     1.7576   1.7604   1.7633   1.7806   1.7810   1.7829   1.7872   1.8593
     1.8826   1.8940   1.8966   1.9152   1.9228   1.9408   1.9444   1.9881
     1.9974   2.0129   2.0304   2.0316   2.0481   2.0609   2.0634   2.1261
     2.1317   2.1371   2.1523   2.1578   2.1594   2.2097   2.2362   2.2458
     2.2563   2.2594   2.2698   2.2721   2.4637   2.4653   2.5626   2.5655
     2.5750   2.5834   2.5877   2.5917   3.1162   3.4184   3.4277   3.4529
     3.4727   3.4825   3.4827   5.3997   5.7245   5.7609   5.7934   5.8116
     5.8150   7.1683   7.3123   7.3657   7.3996   7.4047   7.4049   7.5412
     7.6351

          k = 0.0000 0.2309 0.0000 ( 42996 PWs)   bands (ev):

    -6.1642  -5.0570  -4.4346  -4.3272  -3.9805  -3.9681  -3.7482  -3.6727
    -3.6360  -3.6283  -3.5185  -3.4101  -3.3792  -3.2535  -3.2391  -3.2320
    -3.1440  -2.9452  -2.8180  -2.8159  -2.7989  -2.7849  -2.7295  -2.6974
    -2.6690  -2.6398  -2.6333  -2.6052  -2.5538  -2.5330  -2.5270  -2.4337
    -2.4232  -2.4023  -2.3872  -2.2587  -2.2006  -2.1937  -2.1840  -2.1474
    -1.9637  -1.9039  -1.8994  -1.8544  -1.8197  -1.7946  -1.7855  -1.7114
    -1.6065  -1.5723  -1.5303  -1.5118  -1.4694  -1.4520  -1.4401  -1.2414
    -1.1479  -1.1440  -1.0801  -1.0566  -1.0171  -0.9895  -0.9601  -0.9477
    -0.9297  -0.9235  -0.8669  -0.8581  -0.8011  -0.7727  -0.7638  -0.7392
    -0.6802  -0.6684  -0.6512  -0.5975  -0.5944  -0.5765  -0.5352  -0.4977
    -0.4873  -0.4766  -0.4720  -0.3937  -0.3812  -0.3733  -0.3661  -0.3528
    -0.3102  -0.2878  -0.2635  -0.2349  -0.2075  -0.2030  -0.1866  -0.1556
    -0.1286  -0.1143  -0.1005  -0.0840  -0.0125   0.0449   0.0617   0.0830
     0.0863   0.0914   0.1020   0.1188   0.1592   0.1647   0.1810   0.1942
     0.3909   0.5018   0.5479   0.5775   0.5896   0.5997   0.6082   0.6296
     0.6397   0.7385   0.7987   0.8079   0.8878   0.9410   0.9478   0.9634
     0.9871   1.0100   1.0412   1.0605   1.0773   1.1543   1.1740   1.1912
     1.2029   1.2100   1.3148   1.3914   1.4152   1.4213   1.4301   1.4435
     1.4637   1.5216   1.5507   1.5787   1.5930   1.6052   1.6550   1.6699
     1.6854   1.6943   1.7684   1.7913   1.8092   1.8259   1.8577   1.9336
     1.9557   1.9605   1.9777   1.9918   2.0205   2.0325   2.1000   2.1120
     2.1614   2.1714   2.1777   2.1925   2.2217   2.2261   2.2341   2.2434
     2.2463   2.3066   2.3117   2.4490   2.4633   2.4753   2.4899   2.5058
     2.5101   2.5416   2.5632   2.5780   2.5910   2.6556   2.6936   2.7194
     2.7791   2.8781   2.8854   2.8985   2.9327   3.2674   3.3298   3.8349
     4.0484   4.0786   4.1870   4.9804   5.3834   5.4980   6.1350   6.2116
     6.2299   6.3421   6.5868   6.9992   7.1725   7.3491   7.5309   7.5765
     7.6365

          k = 0.0000 0.4619 0.0000 ( 43046 PWs)   bands (ev):

    -5.7423  -5.1138  -4.7376  -4.2285  -4.0148  -3.9941  -3.7928  -3.6463
    -3.4897  -3.3649  -3.2909  -3.2873  -3.2374  -3.1247  -3.0798  -3.0655
    -3.0614  -3.0411  -2.9105  -2.9018  -2.8974  -2.8516  -2.8460  -2.8097
    -2.7279  -2.7181  -2.7152  -2.6623  -2.4562  -2.4510  -2.4409  -2.4386
    -2.4276  -2.3368  -2.2048  -2.1938  -2.1726  -2.1521  -2.1364  -2.0475
    -1.9522  -1.8697  -1.8631  -1.8458  -1.8020  -1.7897  -1.7497  -1.7257
    -1.7093  -1.6747  -1.6479  -1.6084  -1.5010  -1.4932  -1.4625  -1.3888
    -1.3459  -1.3194  -1.2806  -1.2690  -1.2106  -1.1233  -1.0615  -1.0561
    -1.0446  -0.9990  -0.9528  -0.9411  -0.8852  -0.8151  -0.8098  -0.8029
    -0.7599  -0.6856  -0.6828  -0.6657  -0.6581  -0.6419  -0.5911  -0.5732
    -0.5605  -0.5563  -0.5420  -0.5379  -0.5287  -0.4955  -0.4633  -0.4023
    -0.3963  -0.3817  -0.3712  -0.3577  -0.3249  -0.2415  -0.2159  -0.1913
    -0.1446  -0.1313  -0.1133  -0.0898  -0.0620  -0.0540   0.0396   0.0688
     0.0864   0.1033   0.1426   0.1787   0.2281   0.3191   0.3394   0.4119
     0.4270   0.4879   0.4910   0.5221   0.5326   0.5377   0.5390   0.6019
     0.6198   0.6368   0.6513   0.6590   0.6866   0.7013   0.7152   0.7402
     0.7518   0.8716   0.8816   0.8974   0.9561   0.9798   1.0653   1.0844
     1.1634   1.1902   1.2349   1.2840   1.3474   1.3601   1.4086   1.4199
     1.4500   1.4661   1.4970   1.5165   1.5635   1.5678   1.6195   1.6577
     1.6752   1.7152   1.7302   1.7435   1.7525   1.7874   1.8844   1.9264
     1.9845   2.0015   2.0227   2.0320   2.0829   2.1268   2.1377   2.2018
     2.2153   2.2321   2.2403   2.2956   2.3216   2.3357   2.3426   2.4534
     2.4617   2.4776   2.4903   2.4937   2.4984   2.5188   2.5225   2.7012
     2.7249   2.7339   2.7454   2.7486   2.9053   2.9578   3.1527   3.3376
     3.3761   3.5792   3.7745   3.7884   4.0777   4.1711   4.2844   4.4807
     4.7789   4.9976   5.0044   5.0909   5.2159   5.2559   5.3521   5.3946
     5.6028   5.6553   6.1960   6.2862   6.6892   6.8223   7.1690   7.3058
     7.7438

          k = 0.2000-0.1155 0.0000 ( 42996 PWs)   bands (ev):

    -6.1642  -5.0570  -4.4346  -4.3272  -3.9805  -3.9681  -3.7482  -3.6727
    -3.6360  -3.6283  -3.5185  -3.4101  -3.3792  -3.2535  -3.2391  -3.2320
    -3.1440  -2.9452  -2.8180  -2.8159  -2.7989  -2.7849  -2.7295  -2.6974
    -2.6690  -2.6398  -2.6333  -2.6052  -2.5538  -2.5330  -2.5270  -2.4337
    -2.4232  -2.4023  -2.3872  -2.2587  -2.2006  -2.1937  -2.1840  -2.1474
    -1.9637  -1.9039  -1.8994  -1.8544  -1.8197  -1.7946  -1.7855  -1.7114
    -1.6065  -1.5723  -1.5303  -1.5118  -1.4694  -1.4520  -1.4401  -1.2414
    -1.1479  -1.1440  -1.0801  -1.0566  -1.0171  -0.9895  -0.9601  -0.9477
    -0.9297  -0.9235  -0.8669  -0.8581  -0.8011  -0.7727  -0.7638  -0.7393
    -0.6802  -0.6684  -0.6512  -0.5975  -0.5944  -0.5765  -0.5352  -0.4977
    -0.4873  -0.4766  -0.4720  -0.3937  -0.3812  -0.3733  -0.3661  -0.3528
    -0.3102  -0.2878  -0.2635  -0.2349  -0.2075  -0.2030  -0.1866  -0.1556
    -0.1286  -0.1143  -0.1005  -0.0840  -0.0125   0.0449   0.0617   0.0830
     0.0863   0.0914   0.1020   0.1188   0.1592   0.1647   0.1810   0.1942
     0.3909   0.5018   0.5480   0.5775   0.5896   0.5997   0.6082   0.6296
     0.6397   0.7385   0.7987   0.8079   0.8878   0.9410   0.9478   0.9634
     0.9871   1.0100   1.0412   1.0605   1.0773   1.1543   1.1740   1.1912
     1.2029   1.2100   1.3148   1.3914   1.4152   1.4213   1.4301   1.4435
     1.4637   1.5216   1.5507   1.5787   1.5930   1.6052   1.6550   1.6699
     1.6854   1.6943   1.7684   1.7913   1.8092   1.8259   1.8577   1.9336
     1.9557   1.9605   1.9777   1.9918   2.0205   2.0325   2.1000   2.1120
     2.1614   2.1714   2.1777   2.1925   2.2217   2.2261   2.2341   2.2434
     2.2463   2.3066   2.3117   2.4490   2.4633   2.4753   2.4899   2.5058
     2.5101   2.5416   2.5632   2.5780   2.5910   2.6556   2.6936   2.7194
     2.7791   2.8781   2.8854   2.8985   2.9327   3.2674   3.3298   3.8349
     4.0484   4.0786   4.1870   4.9804   5.3834   5.4980   6.1350   6.2116
     6.2299   6.3421   6.5868   6.9992   7.1725   7.3490   7.5309   7.5765
     7.6366

          k = 0.2000 0.1155 0.0000 ( 42996 PWs)   bands (ev):

    -6.1652  -5.0674  -4.4741  -4.2839  -3.9821  -3.9759  -3.7486  -3.6770
    -3.6286  -3.6281  -3.5506  -3.4053  -3.3106  -3.2556  -3.2353  -3.2346
    -3.1922  -2.9417  -2.8176  -2.8161  -2.7993  -2.7487  -2.7280  -2.6875
    -2.6688  -2.6472  -2.6407  -2.6345  -2.5349  -2.5303  -2.5014  -2.4306
    -2.4223  -2.3935  -2.3835  -2.2386  -2.1992  -2.1887  -2.1886  -2.1611
    -1.9425  -1.9037  -1.8949  -1.8550  -1.8220  -1.8035  -1.7853  -1.7347
    -1.6076  -1.5781  -1.5320  -1.5190  -1.4624  -1.4474  -1.4286  -1.2388
    -1.1452  -1.1438  -1.0766  -1.0572  -1.0169  -0.9867  -0.9701  -0.9461
    -0.9292  -0.9194  -0.8933  -0.8510  -0.7893  -0.7676  -0.7627  -0.7565
    -0.6855  -0.6771  -0.6605  -0.5996  -0.5860  -0.5756  -0.5350  -0.4851
    -0.4817  -0.4742  -0.4722  -0.3879  -0.3876  -0.3774  -0.3590  -0.3542
    -0.2995  -0.2943  -0.2671  -0.2428  -0.2093  -0.1982  -0.1915  -0.1536
    -0.1303  -0.1154  -0.1030  -0.0934  -0.0118   0.0490   0.0563   0.0657
     0.0784   0.0880   0.1054   0.1090   0.1517   0.1685   0.1739   0.1868
     0.4155   0.4991   0.5392   0.5625   0.5952   0.6040   0.6068   0.6336
     0.6457   0.6982   0.7811   0.8039   0.8915   0.9393   0.9462   0.9737
     0.9759   0.9990   1.0362   1.0630   1.0664   1.1629   1.1814   1.1917
     1.2061   1.2118   1.3746   1.3802   1.4135   1.4138   1.4253   1.4411
     1.4694   1.5303   1.5372   1.5609   1.5990   1.5992   1.6583   1.6700
     1.6846   1.6855   1.7729   1.7842   1.8167   1.8277   1.8795   1.9237
     1.9276   1.9660   1.9761   1.9778   2.0223   2.0366   2.1003   2.1092
     2.1638   2.1667   2.1839   2.2100   2.2164   2.2314   2.2337   2.2432
     2.2464   2.3060   2.3081   2.4510   2.4598   2.4709   2.4981   2.5127
     2.5151   2.5441   2.5780   2.5835   2.5918   2.6710   2.6912   2.7179
     2.7857   2.8806   2.8817   2.8953   2.9353   3.2829   3.3221   3.8463
     4.0357   4.0765   4.1941   4.9510   5.4377   5.4952   6.1014   6.2133
     6.2592   6.3333   6.5450   6.9875   7.1737   7.3379   7.5580   7.5792
     7.6362

          k = 0.2000 0.3464 0.0000 ( 43046 PWs)   bands (ev):

    -5.8812  -4.8939  -4.6343  -4.6180  -4.2099  -3.5536  -3.5496  -3.5434
    -3.5211  -3.4836  -3.4812  -3.4677  -3.3732  -3.3570  -3.1726  -2.9823
    -2.9761  -2.9657  -2.9595  -2.8952  -2.8773  -2.7402  -2.7255  -2.7168
    -2.7115  -2.6298  -2.6161  -2.5722  -2.5656  -2.5565  -2.4945  -2.4785
    -2.4557  -2.4034  -2.3954  -2.3166  -2.1516  -2.0381  -1.9677  -1.9525
    -1.9360  -1.9177  -1.9075  -1.9013  -1.8459  -1.8281  -1.7661  -1.6788
    -1.6648  -1.6507  -1.5664  -1.5396  -1.4927  -1.4833  -1.4572  -1.3981
    -1.3670  -1.2327  -1.2107  -1.1990  -1.1247  -1.1028  -1.0892  -1.0821
    -1.0546  -1.0129  -0.9885  -0.8655  -0.8476  -0.8353  -0.8197  -0.7847
    -0.7536  -0.7236  -0.7083  -0.6872  -0.6601  -0.5694  -0.5545  -0.5341
    -0.5172  -0.5149  -0.5092  -0.4805  -0.4589  -0.4423  -0.3980  -0.3889
    -0.3601  -0.3388  -0.2737  -0.2685  -0.2336  -0.2050  -0.1785  -0.1667
    -0.1552  -0.1197  -0.1072  -0.1017  -0.0965  -0.0849  -0.0709  -0.0578
    -0.0156   0.0012   0.0861   0.1017   0.1495   0.2070   0.2287   0.2354
     0.2497   0.4262   0.4358   0.4695   0.5659   0.5761   0.6100   0.6179
     0.6455   0.6480   0.6881   0.6951   0.7285   0.7369   0.7598   0.8240
     0.9291   0.9706   1.0022   1.0084   1.0350   1.0548   1.0834   1.1331
     1.1941   1.2230   1.2530   1.3052   1.3103   1.3541   1.3987   1.4412
     1.4539   1.4671   1.5163   1.5358   1.5446   1.5611   1.5708   1.5761
     1.5935   1.6035   1.6177   1.7118   1.7585   1.8047   1.9254   1.9417
     1.9662   2.0922   2.1094   2.1203   2.1261   2.1982   2.2332   2.2539
     2.2588   2.2775   2.3035   2.3141   2.3281   2.3334   2.3452   2.3886
     2.4009   2.4193   2.4862   2.5135   2.5216   2.5440   2.5534   2.6011
     2.7280   2.7480   2.7863   2.8022   2.8540   2.8690   2.8760   2.9740
     3.0174   3.3409   3.5285   3.5489   3.9498   4.0846   4.0931   4.1024
     4.5853   4.7941   4.8171   4.9900   5.0144   5.0593   5.6622   6.0924
     6.2021   6.2298   6.4034   6.6540   6.9326   6.9873   7.0048   7.0243
     7.4067

          k = 0.2000-0.5774 0.0000 ( 43014 PWs)   bands (ev):

    -5.3680  -5.3264  -4.7861  -4.5474  -4.0868  -3.8631  -3.5463  -3.4973
    -3.4032  -3.3740  -3.2693  -3.2601  -3.1589  -3.1532  -3.0568  -3.0322
    -3.0273  -2.9989  -2.9957  -2.9827  -2.8623  -2.8286  -2.8245  -2.7977
    -2.7817  -2.7723  -2.6879  -2.6245  -2.5670  -2.4698  -2.4318  -2.4259
    -2.4082  -2.3833  -2.3400  -2.2974  -2.1847  -2.1702  -2.0878  -1.9965
    -1.9839  -1.9244  -1.8503  -1.8408  -1.7889  -1.7416  -1.6705  -1.6201
    -1.5903  -1.5776  -1.5570  -1.5170  -1.5066  -1.4697  -1.3874  -1.3713
    -1.3517  -1.3444  -1.3361  -1.3289  -1.2777  -1.2592  -1.2215  -1.1368
    -1.0904  -1.0647  -1.0497  -0.9592  -0.9172  -0.9065  -0.8714  -0.8542
    -0.8233  -0.7956  -0.7493  -0.7388  -0.7191  -0.6927  -0.6593  -0.6134
    -0.5965  -0.5743  -0.5191  -0.4877  -0.4852  -0.4696  -0.4053  -0.3411
    -0.3105  -0.2957  -0.2799  -0.2561  -0.2246  -0.2197  -0.2133  -0.1803
    -0.1674  -0.1525  -0.1372  -0.1056  -0.0859  -0.0724  -0.0628  -0.0594
    -0.0516  -0.0368   0.0016   0.0317   0.0519   0.2279   0.2646   0.3377
     0.3583   0.4019   0.4507   0.4689   0.4880   0.5035   0.5458   0.5618
     0.5731   0.5781   0.6522   0.6799   0.7017   0.7289   0.7709   0.7827
     0.8421   0.8506   0.9016   1.0331   1.0619   1.1025   1.1170   1.1375
     1.1796   1.2014   1.2356   1.2465   1.2592   1.2736   1.2929   1.3070
     1.4012   1.4186   1.4335   1.4563   1.4841   1.5164   1.5315   1.5464
     1.5520   1.6914   1.7183   1.7733   1.8424   1.8623   1.9426   1.9584
     2.0002   2.0641   2.0810   2.0874   2.1715   2.1833   2.2607   2.2822
     2.3044   2.3066   2.3127   2.3427   2.3612   2.3982   2.4647   2.4707
     2.4967   2.5092   2.5210   2.5244   2.5310   2.6009   2.6993   2.7331
     2.7384   2.7467   2.7505   2.8093   2.8449   2.9316   3.0484   3.7392
     3.8944   3.9125   4.0922   4.1529   4.2231   4.2826   4.2894   4.6344
     4.8670   4.9062   5.1059   5.3571   5.3758   5.4658   5.4986   5.6660
     5.7697   5.8415   5.8921   6.1603   6.2958   6.3301   6.7828   6.9632
     6.9882

          k = 0.2000-0.3464 0.0000 ( 43046 PWs)   bands (ev):

    -5.8782  -4.8649  -4.6374  -4.6172  -4.2093  -3.5541  -3.5464  -3.5428
    -3.5287  -3.4912  -3.4819  -3.4623  -3.3716  -3.3578  -3.1987  -2.9726
    -2.9689  -2.9630  -2.9535  -2.8937  -2.8744  -2.7375  -2.7277  -2.7174
    -2.7074  -2.6650  -2.6182  -2.5760  -2.5641  -2.5519  -2.5210  -2.4817
    -2.4541  -2.4187  -2.4003  -2.3130  -2.2496  -2.0530  -1.9676  -1.9610
    -1.9240  -1.9150  -1.9034  -1.8969  -1.8467  -1.8222  -1.7723  -1.6768
    -1.6652  -1.6171  -1.5624  -1.5161  -1.4905  -1.4810  -1.4587  -1.3975
    -1.3742  -1.2270  -1.2123  -1.2039  -1.1294  -1.1054  -1.0906  -1.0766
    -1.0325  -1.0138  -1.0016  -0.8591  -0.8384  -0.8344  -0.8159  -0.7899
    -0.7610  -0.7174  -0.6977  -0.6887  -0.6576  -0.5762  -0.5520  -0.5400
    -0.5176  -0.5075  -0.5059  -0.4730  -0.4482  -0.4463  -0.3881  -0.3762
    -0.3538  -0.3199  -0.2682  -0.2623  -0.2287  -0.2011  -0.1810  -0.1706
    -0.1517  -0.1154  -0.1045  -0.0940  -0.0882  -0.0859  -0.0732  -0.0582
    -0.0287   0.0114   0.0924   0.1163   0.1516   0.1830   0.2286   0.2432
     0.2501   0.4259   0.4338   0.5083   0.5749   0.5788   0.5981   0.6201
     0.6278   0.6472   0.6827   0.7003   0.7263   0.7394   0.7657   0.8217
     0.8992   0.9689   1.0042   1.0109   1.0315   1.0607   1.1006   1.1330
     1.1916   1.2213   1.2416   1.2697   1.3244   1.3445   1.3962   1.4503
     1.4631   1.4727   1.5118   1.5234   1.5528   1.5587   1.5697   1.5844
     1.5969   1.5996   1.6224   1.7152   1.7743   1.8096   1.9234   1.9368
     1.9676   2.0736   2.1185   2.1208   2.1267   2.2143   2.2360   2.2513
     2.2634   2.2815   2.3054   2.3114   2.3312   2.3354   2.3477   2.3894
     2.4034   2.4126   2.4862   2.5159   2.5188   2.5442   2.5533   2.6017
     2.7258   2.7639   2.7863   2.7932   2.8491   2.8710   2.8785   2.9959
     3.0168   3.2989   3.5055   3.5584   3.9043   4.0861   4.0940   4.1055
     4.5926   4.8031   4.8095   4.9627   5.0080   5.0648   5.6402   6.0742
     6.2014   6.2467   6.4412   6.6877   6.9387   6.9821   7.0129   7.0197
     7.3917

          k = 0.4000-0.2309 0.0000 ( 43046 PWs)   bands (ev):

    -5.7422  -5.1138  -4.7376  -4.2285  -4.0148  -3.9941  -3.7928  -3.6463
    -3.4897  -3.3649  -3.2909  -3.2873  -3.2375  -3.1247  -3.0797  -3.0655
    -3.0614  -3.0411  -2.9105  -2.9018  -2.8974  -2.8516  -2.8460  -2.8097
    -2.7278  -2.7181  -2.7152  -2.6623  -2.4562  -2.4510  -2.4409  -2.4386
    -2.4276  -2.3368  -2.2047  -2.1938  -2.1726  -2.1521  -2.1364  -2.0476
    -1.9522  -1.8697  -1.8630  -1.8458  -1.8020  -1.7897  -1.7497  -1.7257
    -1.7093  -1.6747  -1.6479  -1.6084  -1.5010  -1.4932  -1.4625  -1.3888
    -1.3459  -1.3194  -1.2806  -1.2690  -1.2106  -1.1233  -1.0615  -1.0561
    -1.0446  -0.9990  -0.9528  -0.9411  -0.8852  -0.8151  -0.8098  -0.8029
    -0.7599  -0.6856  -0.6828  -0.6657  -0.6581  -0.6419  -0.5911  -0.5732
    -0.5605  -0.5563  -0.5420  -0.5380  -0.5287  -0.4955  -0.4633  -0.4023
    -0.3963  -0.3817  -0.3712  -0.3577  -0.3249  -0.2414  -0.2159  -0.1913
    -0.1446  -0.1313  -0.1133  -0.0898  -0.0620  -0.0540   0.0396   0.0688
     0.0864   0.1032   0.1426   0.1787   0.2281   0.3190   0.3394   0.4119
     0.4270   0.4879   0.4910   0.5221   0.5326   0.5377   0.5390   0.6019
     0.6198   0.6368   0.6513   0.6590   0.6866   0.7013   0.7152   0.7402
     0.7518   0.8716   0.8816   0.8974   0.9561   0.9798   1.0653   1.0843
     1.1634   1.1902   1.2349   1.2840   1.3474   1.3601   1.4086   1.4199
     1.4500   1.4661   1.4970   1.5165   1.5635   1.5678   1.6195   1.6577
     1.6752   1.7152   1.7302   1.7435   1.7525   1.7874   1.8844   1.9264
     1.9845   2.0015   2.0227   2.0320   2.0828   2.1268   2.1377   2.2017
     2.2153   2.2321   2.2403   2.2956   2.3216   2.3357   2.3426   2.4534
     2.4617   2.4776   2.4903   2.4937   2.4984   2.5188   2.5225   2.7012
     2.7249   2.7339   2.7454   2.7486   2.9053   2.9578   3.1527   3.3376
     3.3762   3.5792   3.7745   3.7884   4.0777   4.1711   4.2844   4.4807
     4.7789   4.9976   5.0044   5.0909   5.2159   5.2558   5.3521   5.3946
     5.6028   5.6553   6.1960   6.2862   6.6892   6.8223   7.1690   7.3058
     7.7438

          k = 0.4000-0.0000 0.0000 ( 43046 PWs)   bands (ev):

    -5.8812  -4.8939  -4.6343  -4.6181  -4.2099  -3.5536  -3.5496  -3.5433
    -3.5211  -3.4836  -3.4812  -3.4677  -3.3732  -3.3570  -3.1726  -2.9823
    -2.9761  -2.9657  -2.9595  -2.8952  -2.8772  -2.7402  -2.7255  -2.7168
    -2.7115  -2.6298  -2.6161  -2.5722  -2.5656  -2.5565  -2.4945  -2.4784
    -2.4557  -2.4034  -2.3954  -2.3166  -2.1516  -2.0381  -1.9677  -1.9525
    -1.9360  -1.9177  -1.9075  -1.9013  -1.8459  -1.8281  -1.7661  -1.6788
    -1.6648  -1.6507  -1.5664  -1.5396  -1.4927  -1.4833  -1.4573  -1.3981
    -1.3670  -1.2327  -1.2107  -1.1990  -1.1247  -1.1028  -1.0892  -1.0821
    -1.0546  -1.0129  -0.9885  -0.8655  -0.8476  -0.8353  -0.8197  -0.7847
    -0.7536  -0.7236  -0.7083  -0.6873  -0.6601  -0.5694  -0.5545  -0.5341
    -0.5172  -0.5148  -0.5092  -0.4804  -0.4589  -0.4423  -0.3981  -0.3889
    -0.3601  -0.3388  -0.2737  -0.2685  -0.2336  -0.2050  -0.1785  -0.1667
    -0.1552  -0.1197  -0.1072  -0.1017  -0.0965  -0.0850  -0.0709  -0.0578
    -0.0156   0.0012   0.0861   0.1017   0.1495   0.2070   0.2287   0.2354
     0.2497   0.4262   0.4358   0.4695   0.5659   0.5761   0.6100   0.6179
     0.6455   0.6480   0.6881   0.6951   0.7285   0.7369   0.7598   0.8240
     0.9291   0.9706   1.0022   1.0084   1.0350   1.0548   1.0834   1.1331
     1.1941   1.2230   1.2530   1.3052   1.3104   1.3541   1.3987   1.4413
     1.4539   1.4671   1.5163   1.5358   1.5446   1.5611   1.5708   1.5761
     1.5935   1.6035   1.6177   1.7118   1.7585   1.8047   1.9254   1.9417
     1.9662   2.0922   2.1094   2.1203   2.1261   2.1982   2.2332   2.2539
     2.2588   2.2775   2.3035   2.3141   2.3281   2.3334   2.3452   2.3886
     2.4009   2.4193   2.4862   2.5134   2.5216   2.5440   2.5534   2.6011
     2.7280   2.7480   2.7864   2.8022   2.8540   2.8690   2.8760   2.9740
     3.0174   3.3409   3.5285   3.5489   3.9498   4.0846   4.0931   4.1024
     4.5853   4.7941   4.8171   4.9900   5.0144   5.0593   5.6622   6.0924
     6.2021   6.2298   6.4034   6.6539   6.9325   6.9868   7.0026   7.0235
     7.0520

          k = 0.4000 0.2309 0.0000 ( 43046 PWs)   bands (ev):

    -5.7473  -5.1347  -4.7591  -4.2230  -4.0169  -4.0087  -3.7790  -3.6336
    -3.4894  -3.3640  -3.2870  -3.2860  -3.2175  -3.1224  -3.1010  -3.0683
    -3.0656  -3.0549  -2.9147  -2.9022  -2.9013  -2.8548  -2.8479  -2.8003
    -2.7350  -2.7159  -2.7134  -2.5000  -2.4561  -2.4472  -2.4447  -2.4332
    -2.4269  -2.2806  -2.2026  -2.1863  -2.1718  -2.1431  -2.1390  -2.0321
    -1.9640  -1.8618  -1.8598  -1.8483  -1.8131  -1.7868  -1.7836  -1.7173
    -1.7121  -1.6612  -1.6463  -1.6416  -1.5048  -1.4865  -1.4616  -1.4154
    -1.3406  -1.3121  -1.2752  -1.2693  -1.2111  -1.1222  -1.0561  -1.0505
    -1.0479  -0.9912  -0.9597  -0.9442  -0.9103  -0.8242  -0.8175  -0.8084
    -0.7796  -0.6919  -0.6905  -0.6609  -0.6596  -0.6410  -0.5985  -0.5672
    -0.5633  -0.5520  -0.5496  -0.5391  -0.5274  -0.4910  -0.4636  -0.3988
    -0.3928  -0.3848  -0.3729  -0.3472  -0.3287  -0.2714  -0.2201  -0.1950
    -0.1603  -0.1286  -0.1098  -0.0895  -0.0824  -0.0701   0.0420   0.0566
     0.0848   0.0879   0.1456   0.1829   0.1849   0.3140   0.3513   0.3872
     0.4195   0.4673   0.5124   0.5185   0.5361   0.5427   0.5451   0.5833
     0.6176   0.6435   0.6475   0.6697   0.6783   0.7018   0.7159   0.7465
     0.7683   0.8600   0.8669   0.8898   0.9578   1.0022   1.0734   1.0856
     1.1675   1.1880   1.2336   1.2982   1.3317   1.3648   1.3862   1.4183
     1.4578   1.4607   1.5016   1.5149   1.5586   1.5705   1.6110   1.6648
     1.6730   1.7114   1.7255   1.7407   1.7470   1.7933   1.8859   1.9149
     1.9551   1.9993   2.0110   2.0351   2.0902   2.1250   2.1335   2.2084
     2.2178   2.2340   2.2356   2.3106   2.3194   2.3311   2.3405   2.4526
     2.4598   2.4820   2.4831   2.4963   2.5032   2.5233   2.5283   2.7020
     2.7348   2.7385   2.7466   2.7497   2.9087   2.9582   3.2091   3.3317
     3.3906   3.5604   3.7798   3.7859   4.0969   4.1733   4.2798   4.5123
     4.8284   5.0024   5.0029   5.0712   5.2117   5.2408   5.3809   5.3980
     5.6003   5.6573   6.1739   6.2948   6.6675   6.8121   7.2139   7.2897
     7.7870

          k = 0.4000-0.6928 0.0000 ( 43014 PWs)   bands (ev):

    -5.3806  -5.3298  -4.7647  -4.5959  -4.0840  -3.8288  -3.5552  -3.5028
    -3.4018  -3.3777  -3.2709  -3.2630  -3.1619  -3.1532  -3.0580  -3.0333
    -3.0229  -3.0009  -2.9931  -2.9805  -2.8510  -2.8289  -2.8196  -2.8074
    -2.7866  -2.7794  -2.6645  -2.5901  -2.5577  -2.4500  -2.4245  -2.4166
    -2.4112  -2.3773  -2.3162  -2.2863  -2.1836  -2.1695  -2.0707  -1.9969
    -1.9743  -1.9477  -1.8434  -1.8403  -1.7823  -1.7640  -1.6749  -1.6226
    -1.5921  -1.5812  -1.5598  -1.5126  -1.4967  -1.4635  -1.3890  -1.3765
    -1.3589  -1.3397  -1.3362  -1.3271  -1.2905  -1.2524  -1.2135  -1.1257
    -1.1094  -1.0754  -1.0437  -0.9644  -0.9111  -0.9083  -0.8914  -0.8500
    -0.8275  -0.8152  -0.7578  -0.7363  -0.7230  -0.6907  -0.6589  -0.6300
    -0.5837  -0.5788  -0.5291  -0.4867  -0.4819  -0.4671  -0.4153  -0.3511
    -0.3089  -0.2992  -0.2835  -0.2730  -0.2231  -0.2191  -0.2091  -0.1921
    -0.1799  -0.1669  -0.1365  -0.1059  -0.0819  -0.0764  -0.0690  -0.0599
    -0.0487  -0.0391  -0.0128   0.0362   0.0450   0.2366   0.2561   0.3414
     0.3594   0.4197   0.4537   0.4716   0.4921   0.5077   0.5548   0.5668
     0.5792   0.5840   0.6471   0.6936   0.7047   0.7381   0.7660   0.7840
     0.8399   0.8424   0.8861   0.9732   1.0535   1.1044   1.1110   1.1440
     1.1863   1.2063   1.2323   1.2416   1.2637   1.2681   1.2938   1.3071
     1.3934   1.4344   1.4409   1.4691   1.4759   1.5096   1.5234   1.5379
     1.5486   1.6980   1.7298   1.7785   1.8182   1.8758   1.9483   1.9601
     2.0276   2.0573   2.0782   2.0911   2.1576   2.1921   2.2583   2.2807
     2.2897   2.3040   2.3154   2.3338   2.3679   2.3996   2.4671   2.4702
     2.4918   2.5033   2.5221   2.5280   2.5324   2.6005   2.7092   2.7353
     2.7433   2.7466   2.7503   2.8062   2.8525   2.9208   3.0160   3.7789
     3.8936   3.9118   4.1029   4.1475   4.2565   4.2821   4.2920   4.6452
     4.8493   4.9118   5.1549   5.3505   5.3827   5.4429   5.5076   5.7125
     5.7576   5.8127   5.9037   6.1502   6.2643   6.3433   6.7986   6.9480
     6.9877

          k = 0.4000-0.4619 0.0000 ( 43014 PWs)   bands (ev):

    -5.3680  -5.3264  -4.7861  -4.5474  -4.0868  -3.8630  -3.5463  -3.4973
    -3.4032  -3.3740  -3.2693  -3.2601  -3.1589  -3.1532  -3.0568  -3.0322
    -3.0273  -2.9989  -2.9957  -2.9827  -2.8623  -2.8286  -2.8245  -2.7977
    -2.7817  -2.7723  -2.6879  -2.6245  -2.5670  -2.4698  -2.4318  -2.4259
    -2.4082  -2.3833  -2.3400  -2.2974  -2.1847  -2.1702  -2.0878  -1.9965
    -1.9839  -1.9244  -1.8503  -1.8408  -1.7889  -1.7416  -1.6705  -1.6202
    -1.5903  -1.5776  -1.5570  -1.5170  -1.5066  -1.4697  -1.3874  -1.3713
    -1.3516  -1.3444  -1.3361  -1.3289  -1.2777  -1.2592  -1.2215  -1.1368
    -1.0904  -1.0647  -1.0497  -0.9591  -0.9172  -0.9065  -0.8714  -0.8542
    -0.8233  -0.7956  -0.7493  -0.7389  -0.7191  -0.6926  -0.6593  -0.6134
    -0.5965  -0.5743  -0.5191  -0.4877  -0.4852  -0.4696  -0.4053  -0.3411
    -0.3105  -0.2957  -0.2799  -0.2561  -0.2246  -0.2197  -0.2133  -0.1803
    -0.1674  -0.1525  -0.1372  -0.1056  -0.0859  -0.0724  -0.0628  -0.0594
    -0.0516  -0.0368   0.0016   0.0317   0.0519   0.2279   0.2646   0.3378
     0.3583   0.4019   0.4507   0.4689   0.4880   0.5035   0.5458   0.5618
     0.5731   0.5781   0.6522   0.6799   0.7017   0.7289   0.7709   0.7827
     0.8421   0.8507   0.9016   1.0331   1.0619   1.1025   1.1170   1.1375
     1.1796   1.2014   1.2356   1.2465   1.2592   1.2736   1.2929   1.3070
     1.4012   1.4186   1.4335   1.4563   1.4841   1.5164   1.5315   1.5464
     1.5520   1.6914   1.7183   1.7733   1.8424   1.8623   1.9426   1.9584
     2.0002   2.0641   2.0810   2.0874   2.1715   2.1833   2.2607   2.2822
     2.3044   2.3066   2.3127   2.3427   2.3612   2.3982   2.4647   2.4707
     2.4967   2.5092   2.5210   2.5244   2.5310   2.6009   2.6993   2.7331
     2.7384   2.7467   2.7505   2.8093   2.8449   2.9316   3.0484   3.7392
     3.8944   3.9125   4.0922   4.1529   4.2231   4.2826   4.2894   4.6344
     4.8670   4.9062   5.1059   5.3571   5.3757   5.4658   5.4986   5.6660
     5.7696   5.8415   5.8921   6.1603   6.2958   6.3301   6.7828   6.9632
     6.9882

     the Fermi energy is     2.5142 ev

!    total energy              =  -27755.48452378 Ry
     total all-electron energy =  -1326642.249940 Ry
     estimated scf accuracy    <       0.00000052 Ry
     smearing contrib. (-TS)   =       0.00279563 Ry
     internal energy E=F+TS    =  -27755.48731941 Ry

     The total energy is F=E-TS. E is the sum of the following terms:
     one-electron contribution =  -20685.35609163 Ry
     hartree contribution      =   10649.78785094 Ry
     xc contribution           =    -890.72272497 Ry
     ewald contribution        =    8644.78622918 Ry
     one-center paw contrib.   =  -25473.98258292 Ry

     convergence has been achieved in  17 iterations

     negative rho (up, down):  3.155E-03 0.000E+00

     Forces acting on atoms (cartesian axes, Ry/au):

     atom    1 type  1   force =    -0.00007282   -0.00005140   -0.00307750
     atom    2 type  1   force =     0.00005567    0.00000560   -0.00310671
     atom    3 type  1   force =    -0.00035615    0.00041677   -0.00359548
     atom    4 type  1   force =     0.00004258    0.00005367   -0.00310920
     atom    5 type  1   force =    -0.00020450   -0.00010433   -0.00335547
     atom    6 type  1   force =    -0.00019706   -0.00014951   -0.00350005
     atom    7 type  1   force =     0.00019385   -0.00052624   -0.00359458
     atom    8 type  1   force =    -0.00023570   -0.00009293   -0.00349303
     atom    9 type  1   force =     0.00011347    0.00006468   -0.00324408
     atom   10 type  1   force =     0.00005595    0.00001834    0.00560262
     atom   11 type  1   force =    -0.00007776   -0.00063915    0.00442713
     atom   12 type  1   force =    -0.00008714    0.00017792    0.00135532
     atom   13 type  1   force =    -0.00057268    0.00026499    0.00441192
     atom   14 type  1   force =    -0.00007892   -0.00002963    0.00289735
     atom   15 type  1   force =     0.00075502    0.00005747    0.00482343
     atom   16 type  1   force =     0.00012332   -0.00017311    0.00135764
     atom   17 type  1   force =     0.00041427    0.00063219    0.00484188
     atom   18 type  1   force =    -0.00017924   -0.00010085    0.00041201
     atom   19 type  1   force =     0.00009793    0.00000913    0.00008992
     atom   20 type  1   force =     0.00002006   -0.00001360    0.00004771
     atom   21 type  1   force =    -0.00000419   -0.00000530    0.00004394
     atom   22 type  1   force =     0.00006441    0.00002319    0.00008485
     atom   23 type  1   force =     0.00001309    0.00001817    0.00003520
     atom   24 type  1   force =     0.00007464    0.00008050    0.00008591
     atom   25 type  1   force =     0.00006909    0.00003210    0.00008608
     atom   26 type  1   force =     0.00007518    0.00005573    0.00007766
     atom   27 type  1   force =     0.00002799    0.00005232    0.00008645
     atom   28 type  1   force =     0.00016458    0.00008398   -0.00012435
     atom   29 type  1   force =     0.00021919    0.00018118   -0.00003552
     atom   30 type  1   force =     0.00010707    0.00015013   -0.00018089
     atom   31 type  1   force =     0.00026662    0.00008965   -0.00001410
     atom   32 type  1   force =     0.00022803    0.00012978   -0.00030993
     atom   33 type  1   force =     0.00015379    0.00001081   -0.00016975
     atom   34 type  1   force =     0.00019469    0.00002418   -0.00017623
     atom   35 type  1   force =     0.00008703    0.00013734   -0.00019220
     atom   36 type  1   force =     0.00021593    0.00013681   -0.00019776
     atom   37 type  2   force =    -0.00176728   -0.00102059    0.00070983
     The non-local contrib.  to forces
     atom    1 type  1   force =    -0.00085546   -0.00050248   -0.01779973
     atom    2 type  1   force =    -0.00033629    0.00070624   -0.01812059
     atom    3 type  1   force =     0.00135105   -0.00079043   -0.01835545
     atom    4 type  1   force =     0.00045387   -0.00063726   -0.01812348
     atom    5 type  1   force =    -0.00028863   -0.00015309   -0.01766254
     atom    6 type  1   force =    -0.00013808    0.00029691   -0.01810017
     atom    7 type  1   force =     0.00000353    0.00155690   -0.01836129
     atom    8 type  1   force =     0.00017967   -0.00026465   -0.01809562
     atom    9 type  1   force =    -0.00028007   -0.00016213   -0.01825445
     atom   10 type  1   force =     0.00009365    0.00004209    0.00068957
     atom   11 type  1   force =    -0.00040112    0.00047282    0.00099762
     atom   12 type  1   force =     0.00100499    0.00126620   -0.00025639
     atom   13 type  1   force =     0.00022728   -0.00057433    0.00098630
     atom   14 type  1   force =     0.00054295    0.00032680   -0.00039187
     atom   15 type  1   force =    -0.00050292    0.00021083    0.00012917
     atom   16 type  1   force =     0.00161049    0.00023027   -0.00025751
     atom   17 type  1   force =    -0.00007819   -0.00053280    0.00013981
     atom   18 type  1   force =    -0.00145535   -0.00083577    0.00011917
     atom   19 type  1   force =    -0.00269053   -0.00123427    0.00108622
     atom   20 type  1   force =     0.00084409    0.00046679    0.00886808
     atom   21 type  1   force =     0.00191967    0.00035056    0.00169795
     atom   22 type  1   force =     0.00093543    0.00325862    0.00010714
     atom   23 type  1   force =     0.00127786    0.00150096    0.00169177
     atom   24 type  1   force =    -0.00088262   -0.00048008    0.00378745
     atom   25 type  1   force =     0.00048112    0.00027174    0.00434948
     atom   26 type  1   force =    -0.00240041   -0.00173158    0.00107438
     atom   27 type  1   force =     0.00327132   -0.00081331    0.00011068
     atom   28 type  1   force =     0.01175497    0.00677729    0.02261842
     atom   29 type  1   force =    -0.00856783    0.02719944   -0.00376206
     atom   30 type  1   force =    -0.00055112    0.00090053    0.01635846
     atom   31 type  1   force =     0.01926704   -0.02102564   -0.00374772
     atom   32 type  1   force =    -0.03821343   -0.02206580    0.02892876
     atom   33 type  1   force =    -0.00042910    0.00092640    0.01561041
     atom   34 type  1   force =     0.00050927   -0.00092505    0.01636024
     atom   35 type  1   force =     0.00058644   -0.00082869    0.01560173
     atom   36 type  1   force =    -0.00065997   -0.00037601    0.01641271
     atom   37 type  2   force =    -0.00575843   -0.00332531   -0.02142357
     The ionic contribution  to forces
     atom    1 type  1   force =     0.00767997    0.00439953  -93.42686380
     atom    2 type  1   force =     0.00058314    0.00611936  -93.41229151
     atom    3 type  1   force =    -0.00828002   -0.00095877  -93.42677195
     atom    4 type  1   force =     0.00562062   -0.00255853  -93.41233034
     atom    5 type  1   force =    -0.00982060   -0.00565972  -93.41989841
     atom    6 type  1   force =     0.00423085    0.00002101  -93.43025799
     atom    7 type  1   force =    -0.00494302   -0.00668574  -93.42675447
     atom    8 type  1   force =     0.00212491    0.00368284  -93.43019866
     atom    9 type  1   force =     0.00284044    0.00166102  -93.42095819
     atom   10 type  1   force =     0.05466801    0.03131051  -31.49004071
     atom   11 type  1   force =    -0.07499998    0.00425109  -31.49211352
     atom   12 type  1   force =     0.02969073    0.03317521  -31.57992557
     atom   13 type  1   force =    -0.03365745   -0.06695647  -31.49216702
     atom   14 type  1   force =    -0.01435795   -0.00807908  -31.59729326
     atom   15 type  1   force =     0.05121947   -0.00245748  -31.55007167
     atom   16 type  1   force =     0.04380252    0.00907222  -31.57962434
     atom   17 type  1   force =     0.02320243    0.04565114  -31.54973244
     atom   18 type  1   force =    -0.06623848   -0.03824845  -31.52082652
     atom   19 type  1   force =     0.12724159    0.00600549   31.15536984
     atom   20 type  1   force =    -0.04878634   -0.02874958   31.56942331
     atom   21 type  1   force =    -0.06091893   -0.04199758   30.85598181
     atom   22 type  1   force =     0.03050619   -0.04621812   31.15327720
     atom   23 type  1   force =    -0.06632498   -0.03135880   30.85626291
     atom   24 type  1   force =     0.03371128    0.02024009   30.88343896
     atom   25 type  1   force =    -0.02641781   -0.01537671   30.61287246
     atom   26 type  1   force =     0.06913062    0.10669301   31.15641272
     atom   27 type  1   force =    -0.02516526    0.04977287   31.15322880
     atom   28 type  1   force =     0.04086273    0.02360841   92.31841529
     atom   29 type  1   force =     0.12204748   -0.84559426   92.81479889
     atom   30 type  1   force =     0.04315026    0.01052144   92.56541892
     atom   31 type  1   force =    -0.67169874    0.52851481   92.81385036
     atom   32 type  1   force =     0.18701383    0.10763696   92.42520158
     atom   33 type  1   force =     0.03817565   -0.00822363   92.65933599
     atom   34 type  1   force =     0.03046602    0.03223646   92.56531594
     atom   35 type  1   force =     0.01195742    0.03711668   92.66031558
     atom   36 type  1   force =    -0.02720629   -0.01589753   92.61006348
     atom   37 type  2   force =     0.17888973    0.10333028   11.82913633
     The local contribution  to forces
     atom    1 type  1   force =    -0.00688289   -0.00389872   93.42377058
     atom    2 type  1   force =    -0.00021475   -0.00686929   93.40945996
     atom    3 type  1   force =     0.00659463    0.00220322   93.42364845
     atom    4 type  1   force =    -0.00612438    0.00323183   93.40951384
     atom    5 type  1   force =     0.00998591    0.00570396   93.41637029
     atom    6 type  1   force =    -0.00426262   -0.00040252   93.42713132
     atom    7 type  1   force =     0.00513568    0.00463139   93.42363794
     atom    8 type  1   force =    -0.00243008   -0.00353605   93.42705515
     atom    9 type  1   force =    -0.00250781   -0.00147115   93.41824941
     atom   10 type  1   force =    -0.05469160   -0.03128141   31.49330384
     atom   11 type  1   force =     0.07529533   -0.00538223   31.49387762
     atom   12 type  1   force =    -0.03075079   -0.03413905   31.57958416
     atom   13 type  1   force =     0.03276383    0.06775121   31.49397636
     atom   14 type  1   force =     0.01380881    0.00770775   31.59861327
     atom   15 type  1   force =    -0.04994668    0.00227310   31.55298905
     atom   16 type  1   force =    -0.04519929   -0.00947202   31.57929649
     atom   17 type  1   force =    -0.02270292   -0.04448768   31.55261811
     atom   18 type  1   force =     0.06741054    0.03891614   31.51949621
     atom   19 type  1   force =    -0.12427955   -0.00466537  -31.15426725
     atom   20 type  1   force =     0.04793077    0.02830170  -31.57580551
     atom   21 type  1   force =     0.05905276    0.04159918  -30.85589308
     atom   22 type  1   force =    -0.03134461    0.04296390  -31.15138680
     atom   23 type  1   force =     0.06500767    0.02990058  -30.85617105
     atom   24 type  1   force =    -0.03271837   -0.01973532  -30.88552922
     atom   25 type  1   force =     0.02590318    0.01509774  -30.61544383
     atom   26 type  1   force =    -0.06653577   -0.10475453  -31.15529937
     atom   27 type  1   force =     0.02199139   -0.04888336  -31.15133356
     atom   28 type  1   force =    -0.05153838   -0.02974505  -92.32427907
     atom   29 type  1   force =    -0.11164296    0.81050140  -92.80009483
     atom   30 type  1   force =    -0.04289206   -0.01099759  -92.56484397
     atom   31 type  1   force =     0.64648348   -0.50193393  -92.79917868
     atom   32 type  1   force =    -0.14807563   -0.08516419  -92.43878235
     atom   33 type  1   force =    -0.03720110    0.00735371  -92.65796065
     atom   34 type  1   force =    -0.03078746   -0.03178921  -92.56474428
     atom   35 type  1   force =    -0.01222003   -0.03586240  -92.65892806
     atom   36 type  1   force =     0.02799826    0.01631628  -92.60946742
     atom   37 type  2   force =    -0.17489683   -0.10102378  -11.80688837
     The core correction contribution to forces
     atom    1 type  1   force =    -0.00001662   -0.00000991    0.01730020
     atom    2 type  1   force =     0.00001414   -0.00001012    0.01726976
     atom    3 type  1   force =    -0.00001097    0.00000608    0.01738686
     atom    4 type  1   force =    -0.00000140    0.00001741    0.01726955
     atom    5 type  1   force =    -0.00000233   -0.00000137    0.01730579
     atom    6 type  1   force =    -0.00001308   -0.00002064    0.01724153
     atom    7 type  1   force =    -0.00000023   -0.00001250    0.01738678
     atom    8 type  1   force =    -0.00002447   -0.00000068    0.01724153
     atom    9 type  1   force =    -0.00002660   -0.00001533    0.01719595
     atom   10 type  1   force =    -0.00010508   -0.00006040    0.00107759
     atom   11 type  1   force =     0.00012728    0.00003366    0.00108393
     atom   12 type  1   force =    -0.00003902   -0.00006482    0.00139472
     atom   13 type  1   force =     0.00009279    0.00009300    0.00108389
     atom   14 type  1   force =     0.00003137    0.00001778    0.00140013
     atom   15 type  1   force =    -0.00012011    0.00004538    0.00122180
     atom   16 type  1   force =    -0.00007599   -0.00000140    0.00139395
     atom   17 type  1   force =    -0.00001986   -0.00012642    0.00122108
     atom   18 type  1   force =     0.00010209    0.00005927    0.00108148
     atom   19 type  1   force =    -0.00023189   -0.00003307   -0.00232075
     atom   20 type  1   force =     0.00000825    0.00000630   -0.00261985
     atom   21 type  1   force =     0.00002777    0.00007766   -0.00200724
     atom   22 type  1   force =    -0.00010059   -0.00001227   -0.00210882
     atom   23 type  1   force =     0.00008005   -0.00001567   -0.00200657
     atom   24 type  1   force =     0.00000334   -0.00000024   -0.00188996
     atom   25 type  1   force =     0.00011702    0.00006789   -0.00194324
     atom   26 type  1   force =    -0.00014508   -0.00018287   -0.00232021
     atom   27 type  1   force =    -0.00006018   -0.00008164   -0.00210995
     atom   28 type  1   force =    -0.00098759   -0.00056993   -0.01627327
     atom   29 type  1   force =    -0.00157727    0.00791598   -0.01044989
     atom   30 type  1   force =     0.00044962   -0.00029142   -0.01648155
     atom   31 type  1   force =     0.00606803   -0.00532414   -0.01045020
     atom   32 type  1   force =    -0.00041020   -0.00023559   -0.01505642
     atom   33 type  1   force =    -0.00035759   -0.00003077   -0.01655490
     atom   34 type  1   force =    -0.00002671    0.00053474   -0.01648179
     atom   35 type  1   force =    -0.00020554   -0.00029448   -0.01655395
     atom   36 type  1   force =     0.00008661    0.00005069   -0.01659190
     atom   37 type  2   force =     0.00000000    0.00000000    0.00000000
     The Hubbard contrib.    to forces
     atom    1 type  1   force =     0.00000000    0.00000000    0.00000000
     atom    2 type  1   force =     0.00000000    0.00000000    0.00000000
     atom    3 type  1   force =     0.00000000    0.00000000    0.00000000
     atom    4 type  1   force =     0.00000000    0.00000000    0.00000000
     atom    5 type  1   force =     0.00000000    0.00000000    0.00000000
     atom    6 type  1   force =     0.00000000    0.00000000    0.00000000
     atom    7 type  1   force =     0.00000000    0.00000000    0.00000000
     atom    8 type  1   force =     0.00000000    0.00000000    0.00000000
     atom    9 type  1   force =     0.00000000    0.00000000    0.00000000
     atom   10 type  1   force =     0.00000000    0.00000000    0.00000000
     atom   11 type  1   force =     0.00000000    0.00000000    0.00000000
     atom   12 type  1   force =     0.00000000    0.00000000    0.00000000
     atom   13 type  1   force =     0.00000000    0.00000000    0.00000000
     atom   14 type  1   force =     0.00000000    0.00000000    0.00000000
     atom   15 type  1   force =     0.00000000    0.00000000    0.00000000
     atom   16 type  1   force =     0.00000000    0.00000000    0.00000000
     atom   17 type  1   force =     0.00000000    0.00000000    0.00000000
     atom   18 type  1   force =     0.00000000    0.00000000    0.00000000
     atom   19 type  1   force =     0.00000000    0.00000000    0.00000000
     atom   20 type  1   force =     0.00000000    0.00000000    0.00000000
     atom   21 type  1   force =     0.00000000    0.00000000    0.00000000
     atom   22 type  1   force =     0.00000000    0.00000000    0.00000000
     atom   23 type  1   force =     0.00000000    0.00000000    0.00000000
     atom   24 type  1   force =     0.00000000    0.00000000    0.00000000
     atom   25 type  1   force =     0.00000000    0.00000000    0.00000000
     atom   26 type  1   force =     0.00000000    0.00000000    0.00000000
     atom   27 type  1   force =     0.00000000    0.00000000    0.00000000
     atom   28 type  1   force =     0.00000000    0.00000000    0.00000000
     atom   29 type  1   force =     0.00000000    0.00000000    0.00000000
     atom   30 type  1   force =     0.00000000    0.00000000    0.00000000
     atom   31 type  1   force =     0.00000000    0.00000000    0.00000000
     atom   32 type  1   force =     0.00000000    0.00000000    0.00000000
     atom   33 type  1   force =     0.00000000    0.00000000    0.00000000
     atom   34 type  1   force =     0.00000000    0.00000000    0.00000000
     atom   35 type  1   force =     0.00000000    0.00000000    0.00000000
     atom   36 type  1   force =     0.00000000    0.00000000    0.00000000
     atom   37 type  2   force =     0.00000000    0.00000000    0.00000000
     The SCF correction term to forces
     atom    1 type  1   force =     0.00000000   -0.00000000    0.00000000
     atom    2 type  1   force =     0.00000000    0.00000000    0.00000000
     atom    3 type  1   force =    -0.00000000   -0.00000000    0.00000000
     atom    4 type  1   force =     0.00000000    0.00000000    0.00000000
     atom    5 type  1   force =    -0.00000000    0.00000000    0.00000000
     atom    6 type  1   force =    -0.00000000   -0.00000000    0.00000000
     atom    7 type  1   force =    -0.00000000   -0.00000000    0.00000000
     atom    8 type  1   force =    -0.00000000    0.00000000    0.00000000
     atom    9 type  1   force =     0.00000000    0.00000000    0.00000000
     atom   10 type  1   force =     0.00000000    0.00000000    0.00000000
     atom   11 type  1   force =    -0.00000000   -0.00000000    0.00000000
     atom   12 type  1   force =     0.00000000   -0.00000000    0.00000000
     atom   13 type  1   force =     0.00000000   -0.00000000    0.00000000
     atom   14 type  1   force =    -0.00000000   -0.00000000    0.00000000
     atom   15 type  1   force =     0.00000000   -0.00000000    0.00000000
     atom   16 type  1   force =    -0.00000000   -0.00000000    0.00000000
     atom   17 type  1   force =     0.00000000    0.00000000    0.00000000
     atom   18 type  1   force =     0.00000000    0.00000000    0.00000000
     atom   19 type  1   force =     0.00005822   -0.00006370    0.00027969
     atom   20 type  1   force =     0.00002320   -0.00003887    0.00023951
     atom   21 type  1   force =    -0.00008554   -0.00003518    0.00032232
     atom   22 type  1   force =     0.00006792    0.00003100    0.00025397
     atom   23 type  1   force =    -0.00002760   -0.00000897    0.00031596
     atom   24 type  1   force =    -0.00003907    0.00005597    0.00033651
     atom   25 type  1   force =    -0.00001450   -0.00002862    0.00030904
     atom   26 type  1   force =     0.00002573    0.00003163    0.00026796
     atom   27 type  1   force =    -0.00000937    0.00005769    0.00024831
     atom   28 type  1   force =     0.00007278    0.00001319   -0.00054789
     atom   29 type  1   force =    -0.00004031    0.00015856   -0.00046979
     atom   30 type  1   force =    -0.00004972    0.00001710   -0.00057492
     atom   31 type  1   force =     0.00014673   -0.00014151   -0.00043004
     atom   32 type  1   force =    -0.00008662   -0.00004167   -0.00054367
     atom   33 type  1   force =    -0.00003416   -0.00001497   -0.00054277
     atom   34 type  1   force =     0.00003349   -0.00003281   -0.00056850
     atom   35 type  1   force =    -0.00003136    0.00000617   -0.00056966
     atom   36 type  1   force =    -0.00000276    0.00004331   -0.00055678
     atom   37 type  2   force =    -0.00000183   -0.00000185   -0.00005673

     Total force =     0.002344     Total SCF correction =     0.001860
     SCF correction compared to forces is large: reduce conv_thr to get better values

     Writing all to output data dir ./pwscf.save/

     init_run     :     10.28s CPU     10.59s WALL (       1 calls)
     electrons    :    378.53s CPU    391.09s WALL (       1 calls)
     forces       :      5.15s CPU      6.03s WALL (       1 calls)

     Called by init_run:
     wfcinit      :      5.85s CPU      6.02s WALL (       1 calls)
     potinit      :      3.02s CPU      3.09s WALL (       1 calls)
     hinit0       :      0.83s CPU      0.84s WALL (       1 calls)

     Called by electrons:
     c_bands      :    317.45s CPU    324.05s WALL (      18 calls)
     sum_band     :     33.12s CPU     34.72s WALL (      18 calls)
     v_of_rho     :     14.94s CPU     17.25s WALL (      18 calls)
     newd         :      6.26s CPU      7.91s WALL (      18 calls)
     PAW_pot      :      4.08s CPU      4.23s WALL (      18 calls)
     mix_rho      :      4.74s CPU      4.81s WALL (      18 calls)
     vdW_kernel   :      1.67s CPU      1.68s WALL (       1 calls)

     Called by c_bands:
     init_us_2    :      2.42s CPU      2.45s WALL (     494 calls)
     init_us_2:cp :      2.42s CPU      2.45s WALL (     494 calls)
     cegterg      :    310.84s CPU    317.16s WALL (     234 calls)

     Called by *egterg:
     cdiaghg      :     66.16s CPU     66.92s WALL (    1212 calls)
     h_psi        :    132.61s CPU    135.14s WALL (    1238 calls)
     s_psi        :     17.88s CPU     18.30s WALL (    1238 calls)
     g_psi        :      0.99s CPU      1.00s WALL (     991 calls)

     Called by h_psi:
     h_psi:calbec :     21.39s CPU     22.09s WALL (    1238 calls)
     vloc_psi     :     89.87s CPU     91.44s WALL (    1238 calls)
     add_vuspsi   :     19.20s CPU     19.42s WALL (    1238 calls)

     General routines
     calbec       :     29.75s CPU     30.74s WALL (    1524 calls)
     fft          :     12.60s CPU     14.48s WALL (    1194 calls)
     ffts         :      2.47s CPU      2.50s WALL (    4118 calls)
     fftw         :     89.94s CPU     91.56s WALL (  310738 calls)
     interpolate  :      0.65s CPU      0.70s WALL (      18 calls)

     Parallel routines

     PWSCF        :   6m36.51s CPU   6m53.51s WALL


   This run was terminated on:  22:15:48  22Feb2025            

=------------------------------------------------------------------------------=
   JOB DONE.
=------------------------------------------------------------------------------=
