
     Program PWSCF v.7.1 starts on  2Mar2025 at  9:27:15 
        Git branch: heads/qe-7.1
        Last git commit: 48ba0178f8fede6d020eb786884699a9f063f55d-dirty
        Last git commit date: Fri Jan 27 14:22:33 2023 +0000
        Last git commit subject: Merge branch 'fix_hubbard' into 'develop'

     This program is part of the open-source Quantum ESPRESSO suite
     for quantum simulation of materials; please cite
         "P. Giannozzi et al., J. Phys.:Condens. Matter 21 395502 (2009);
         "P. Giannozzi et al., J. Phys.:Condens. Matter 29 465901 (2017);
         "P. Giannozzi et al., J. Chem. Phys. 152 154105 (2020);
          URL http://www.quantum-espresso.org", 
     in publications or presentations arising from this work. More details at
     http://www.quantum-espresso.org/quote

     Parallel version (MPI), running on    48 processors

     MPI processes distributed on     1 nodes
     16042 MiB available memory on the printing compute node when the environment starts

     Reading input from espresso.pwi
Warning: card &CELL ignored
Warning: card / ignored
Warning: card &FCP ignored
Warning: card / ignored
Warning: card &RISM ignored
Warning: card / ignored

     Current dimensions of program PWSCF are:
     Max number of different atomic species (ntypx) = 10
     Max number of k-points (npk) =  40000
     Max angular momentum in pseudopotentials (lmaxx) =  4
     file Pt.pbe-n-kjpaw_psl.1.0.0.UPF: wavefunction(s)  6S 5D renormalized
     file O.pbe-nl-kjpaw_psl.1.0.0.UPF: wavefunction(s)  2S 2P renormalized
     file H.pbe-kjpaw_psl.1.0.0.UPF: wavefunction(s)  1S renormalized

     **************************************************************************
     Initializing libbeef V0.1.2 with the BEEF-vdW functional.
     Citation: Wellendorff et al., PRB 85, 235149 (2012).
     **************************************************************************


     IMPORTANT: XC functional enforced from input :
     Exchange-correlation= BEEF-VDW
                           (   1   4  43  14   2   0   0)
     Any further DFT definition will be discarded
     Please, verify this is what you really want


     R & G space division:  proc/nbgrp/npool/nimage =      48
     Subspace diagonalization in iterative solution of the eigenvalue problem:
     one sub-group per band group will be used
     custom distributed-memory algorithm (size of sub-group:  2*  2 procs)


     Parallelization info
     --------------------
     sticks:   dense  smooth     PW     G-vecs:    dense   smooth      PW
     Min         151      59     16                29407     7165    1028
     Max         152      60     17                29420     7176    1042
     Sum        7267    2839    769              1411785   344073   49691

     Using Slab Decomposition



     bravais-lattice index     =            0
     lattice parameter (alat)  =      16.0349  a.u.
     unit-cell volume          =   10068.6169 (a.u.)^3
     number of atoms/cell      =           39
     number of atomic types    =            3
     number of electrons       =       368.00
     number of Kohn-Sham states=          221
     kinetic-energy cutoff     =      40.0000  Ry
     charge density cutoff     =     410.0000  Ry
     scf convergence threshold =      1.0E-08
     mixing beta               =       0.7000
     number of iterations used =            8  local-TF  mixing
     Exchange-correlation= BEEF-VDW
                           (   1   4  43  14   2   0   0)

     celldm(1)=  16.034858  celldm(2)=   0.000000  celldm(3)=   0.000000
     celldm(4)=   0.000000  celldm(5)=   0.000000  celldm(6)=   0.000000

     crystal axes: (cart. coord. in units of alat)
               a(1) = (   1.000000   0.000000   0.000000 )  
               a(2) = (   0.500000   0.866025   0.000000 )  
               a(3) = (   0.000000   0.000000   2.819966 )  

     reciprocal axes: (cart. coord. in units 2 pi/alat)
               b(1) = (  1.000000 -0.577350  0.000000 )  
               b(2) = (  0.000000  1.154701  0.000000 )  
               b(3) = (  0.000000  0.000000  0.354614 )  


     PseudoPot. # 1 for Pt read from file:
     /users/kbadger1/espresso/pseudo/pslibrary.1.0.0/pbe/PSEUDOPOTENTIALS/Pt.pbe-n-kjpaw_psl.1.0.0.UPF
     MD5 check sum: 2e24a0b5bf98a4ed1a57fa81bca8c143
     Pseudo is Projector augmented-wave + core cor, Zval = 10.0
     Generated using 'atomic' code by A. Dal Corso  v.7.0
     Shape of augmentation charge: PSQ
     Using radial grid of 1277 points,  6 beta functions with: 
                l(1) =   0
                l(2) =   0
                l(3) =   1
                l(4) =   1
                l(5) =   2
                l(6) =   2
     Q(r) pseudized with 0 coefficients 


     PseudoPot. # 2 for O  read from file:
     /users/kbadger1/espresso/pseudo/pslibrary.1.0.0/pbe/PSEUDOPOTENTIALS/O.pbe-nl-kjpaw_psl.1.0.0.UPF
     MD5 check sum: f0439fab3598ca4e468f064226030408
     Pseudo is Projector augmented-wave + core cor, Zval =  6.0
     Generated using 'atomic' code by A. Dal Corso  v.7.0
     Shape of augmentation charge: PSQ
     Using radial grid of 1095 points,  4 beta functions with: 
                l(1) =   0
                l(2) =   0
                l(3) =   1
                l(4) =   1
     Q(r) pseudized with 0 coefficients 


     PseudoPot. # 3 for H  read from file:
     /users/kbadger1/espresso/pseudo/pslibrary.1.0.0/pbe/PSEUDOPOTENTIALS/H.pbe-kjpaw_psl.1.0.0.UPF
     MD5 check sum: fe4c6fa958fa6d3815bf5d2419cbf1df
     Pseudo is Projector augmented-wave, Zval =  1.0
     Generated using 'atomic' code by A. Dal Corso  v.7.0
     Shape of augmentation charge: PSQ
     Using radial grid of  929 points,  2 beta functions with: 
                l(1) =   0
                l(2) =   0
     Q(r) pseudized with 0 coefficients 


     atomic species   valence    mass     pseudopotential
        Pt            10.00   195.08400     Pt( 1.00)
        O              6.00    15.99900     O ( 1.00)
        H              1.00     1.00800     H ( 1.00)

     No symmetry found



   Cartesian axes

     site n.     atom                  positions (alat units)
         1           Pt  tau(   1) = (   0.0000000   0.0000000   1.0017346  )
         2           Pt  tau(   2) = (   0.3333333   0.0000000   1.0017346  )
         3           Pt  tau(   3) = (   0.6666667   0.0000000   1.0017346  )
         4           Pt  tau(   4) = (   0.1666667   0.2886751   1.0017346  )
         5           Pt  tau(   5) = (   0.5000000   0.2886751   1.0017346  )
         6           Pt  tau(   6) = (   0.8333333   0.2886751   1.0017346  )
         7           Pt  tau(   7) = (   0.3333333   0.5773503   1.0017346  )
         8           Pt  tau(   8) = (   0.6666667   0.5773503   1.0017346  )
         9           Pt  tau(   9) = (   1.0000000   0.5773503   1.0017346  )
        10           Pt  tau(  10) = (   0.1666667   0.0962250   1.2739001  )
        11           Pt  tau(  11) = (   0.5000000   0.0962250   1.2739001  )
        12           Pt  tau(  12) = (   0.8333333   0.0962250   1.2739001  )
        13           Pt  tau(  13) = (   0.3333333   0.3849002   1.2739001  )
        14           Pt  tau(  14) = (   0.6666667   0.3849002   1.2739001  )
        15           Pt  tau(  15) = (   1.0000000   0.3849002   1.2739001  )
        16           Pt  tau(  16) = (   0.5000000   0.6735753   1.2739001  )
        17           Pt  tau(  17) = (   0.8333333   0.6735753   1.2739001  )
        18           Pt  tau(  18) = (   1.1666667   0.6735753   1.2739001  )
        19           Pt  tau(  19) = (  -0.0004144   0.1926548   1.5418440  )
        20           Pt  tau(  20) = (   0.3331018   0.1932284   1.5432681  )
        21           Pt  tau(  21) = (   0.6659962   0.1929108   1.5428323  )
        22           Pt  tau(  22) = (   0.1658710   0.4817616   1.5428775  )
        23           Pt  tau(  23) = (   0.4992901   0.4805925   1.5440909  )
        24           Pt  tau(  24) = (   0.8327032   0.4817758   1.5427083  )
        25           Pt  tau(  25) = (   0.3332141   0.7699505   1.5416896  )
        26           Pt  tau(  26) = (   0.6657425   0.7701088   1.5419461  )
        27           Pt  tau(  27) = (   0.9992700   0.7701028   1.5423902  )
        28           Pt  tau(  28) = (  -0.0015870   0.0011344   1.8169316  )
        29           Pt  tau(  29) = (   0.3310968  -0.0003039   1.8154803  )
        30           Pt  tau(  30) = (   0.6658661  -0.0006574   1.8150081  )
        31           Pt  tau(  31) = (   0.1639250   0.2899096   1.8162465  )
        32           Pt  tau(  32) = (   0.4978415   0.2906318   1.8183570  )
        33           Pt  tau(  33) = (   0.8332334   0.2900758   1.8155218  )
        34           Pt  tau(  34) = (   0.3311344   0.5796155   1.8169435  )
        35           Pt  tau(  35) = (   0.6658423   0.5794930   1.8169488  )
        36           Pt  tau(  36) = (   0.9983604   0.5784703   1.8177077  )
        37           O   tau(  37) = (   0.5205143   0.2514278   2.1159625  )
        38           H   tau(  38) = (   0.6152438   0.3115576   2.1379179  )
        39           H   tau(  39) = (   0.5567703   0.1431166   2.1065584  )

     number of k points=    13  Marzari-Vanderbilt smearing, width (Ry)=  0.0200
                       cart. coord. in units 2pi/alat
        k(    1) = (   0.0000000   0.0000000   0.0000000), wk =   0.0800000
        k(    2) = (   0.0000000   0.2309401   0.0000000), wk =   0.1600000
        k(    3) = (   0.0000000   0.4618802   0.0000000), wk =   0.1600000
        k(    4) = (   0.2000000  -0.1154701   0.0000000), wk =   0.1600000
        k(    5) = (   0.2000000   0.1154701   0.0000000), wk =   0.1600000
        k(    6) = (   0.2000000   0.3464102   0.0000000), wk =   0.1600000
        k(    7) = (   0.2000000  -0.5773503   0.0000000), wk =   0.1600000
        k(    8) = (   0.2000000  -0.3464102   0.0000000), wk =   0.1600000
        k(    9) = (   0.4000000  -0.2309401   0.0000000), wk =   0.1600000
        k(   10) = (   0.4000000  -0.0000000   0.0000000), wk =   0.1600000
        k(   11) = (   0.4000000   0.2309401   0.0000000), wk =   0.1600000
        k(   12) = (   0.4000000  -0.6928203   0.0000000), wk =   0.1600000
        k(   13) = (   0.4000000  -0.4618802   0.0000000), wk =   0.1600000

     Dense  grid:  1411785 G-vectors     FFT dimensions: ( 108, 108, 300)

     Smooth grid:   344073 G-vectors     FFT dimensions: (  72,  72, 192)

     Estimated max dynamical RAM per process >     207.10 MB

     Estimated total dynamical RAM >       9.71 GB

     Initial potential from superposition of free atoms

     starting charge     367.9939, renormalised to     368.0000

     negative rho (up, down):  3.008E-03 0.000E+00


     %%%%%%%%%%%%%%%%%%%%%%%%%%%%%%%%%%%%%%%%%%%%%%%%%%%%%%%%%%%%%%%%%%%%%%%%
     %                                                                      %
     % You are using vdW-DF, which was implemented by the Thonhauser group. %
     % Please cite the following two papers that made this development      %
     % possible and the two reviews that describe the various versions:     %
     %                                                                      %
     %   T. Thonhauser et al., PRL 115, 136402 (2015).                      %
     %   T. Thonhauser et al., PRB 76, 125112 (2007).                       %
     %   K. Berland et al., Rep. Prog. Phys. 78, 066501 (2015).             %
     %   D.C. Langreth et al., J. Phys.: Condens. Matter 21, 084203 (2009). %
     %                                                                      %
     % If you are calculating stress with vdW-DF, please also cite:         %
     %                                                                      %
     %   R. Sabatini et al., J. Phys.: Condens. Matter 24, 424209 (2012).   %
     %                                                                      %
     %%%%%%%%%%%%%%%%%%%%%%%%%%%%%%%%%%%%%%%%%%%%%%%%%%%%%%%%%%%%%%%%%%%%%%%%

     %%%%%%%%%%%%%%%%%%%%%%%%%%%%%%%%%%%%%%%%%%%%%%%%%%%%%%%%%%%%%%%%%%%%%%%%
     %                                                                      %
     %  vdW-DF NEWS:                                                        %
     %                                                                      %
     %  * vdW-DF3 is now available. DOI: 10.1021/acs.jctc.0c00471           %
     %    use with input_dft = 'vdW-DF3-opt1' or 'vdW-DF3-opt2'             %
     %                                                                      %
     %  * Unscreened and range-separated hybrid vdW-DF-cx functionals       %
     %    DOI: 10.1063/1.4986522 and 10.1088/1361-648X/ac2ad2               %
     %    use with input_dft = 'vdW-DF-cx0'    and 'vdW-DF-ahcx'            %
     %  * Unscreened and range-separated hybrid vdW-DF2-b86r functionals    %
     %    DOI: 10.1063/1.4986522 and DOI: 10.1103/PhysRevX.12.041003        %
     %    use with input_dft = 'vdW-DF2-br0' and 'vdW-DF2-ahbr'             %
     %                                                                      %
     %%%%%%%%%%%%%%%%%%%%%%%%%%%%%%%%%%%%%%%%%%%%%%%%%%%%%%%%%%%%%%%%%%%%%%%%


     Starting wfcs are  330 randomized atomic wfcs
     Checking if some PAW data can be deallocated... 

     total cpu time spent up to now is       11.3 secs

     per-process dynamical memory:   212.0 Mb

     Self-consistent Calculation

     iteration #  1     ecut=    40.00 Ry     beta= 0.70
     Davidson diagonalization with overlap
     ethr =  1.00E-02,  avg # of iterations =  2.2

     Threshold (ethr) on eigenvalues was too large:
     Diagonalizing with lowered threshold

     Davidson diagonalization with overlap
     ethr =  4.97E-04,  avg # of iterations =  4.9

     negative rho (up, down):  7.512E-03 0.000E+00

     total cpu time spent up to now is       56.9 secs

     total energy              =  -27798.95650271 Ry
     estimated scf accuracy    <       1.99637454 Ry

     iteration #  2     ecut=    40.00 Ry     beta= 0.70
     Davidson diagonalization with overlap
     ethr =  5.42E-04,  avg # of iterations =  3.0

     negative rho (up, down):  5.614E-03 0.000E+00

     total cpu time spent up to now is       72.7 secs

     total energy              =  -27799.11512401 Ry
     estimated scf accuracy    <       0.91594523 Ry

     iteration #  3     ecut=    40.00 Ry     beta= 0.70
     Davidson diagonalization with overlap
     ethr =  2.49E-04,  avg # of iterations =  2.4

     negative rho (up, down):  1.888E-03 0.000E+00

     total cpu time spent up to now is       94.7 secs

     total energy              =  -27799.17086879 Ry
     estimated scf accuracy    <       0.13282971 Ry

     iteration #  4     ecut=    40.00 Ry     beta= 0.70
     Davidson diagonalization with overlap
     ethr =  3.61E-05,  avg # of iterations = 12.1

     negative rho (up, down):  3.387E-04 0.000E+00

     total cpu time spent up to now is      140.7 secs

     total energy              =  -27799.21751290 Ry
     estimated scf accuracy    <       0.06189170 Ry

     iteration #  5     ecut=    40.00 Ry     beta= 0.70
     Davidson diagonalization with overlap
     ethr =  1.68E-05,  avg # of iterations =  3.4

     negative rho (up, down):  1.196E-04 0.000E+00

     total cpu time spent up to now is      163.0 secs

     total energy              =  -27799.22192890 Ry
     estimated scf accuracy    <       0.02109936 Ry

     iteration #  6     ecut=    40.00 Ry     beta= 0.70
     Davidson diagonalization with overlap
     c_bands:  1 eigenvalues not converged
     ethr =  5.73E-06,  avg # of iterations =  6.9

     negative rho (up, down):  4.853E-05 0.000E+00

     total cpu time spent up to now is      189.2 secs

     total energy              =  -27799.22354136 Ry
     estimated scf accuracy    <       0.00251894 Ry

     iteration #  7     ecut=    40.00 Ry     beta= 0.70
     Davidson diagonalization with overlap
     c_bands:  1 eigenvalues not converged
     c_bands:  2 eigenvalues not converged
     c_bands:  2 eigenvalues not converged
     c_bands:  2 eigenvalues not converged
     ethr =  6.84E-07,  avg # of iterations = 12.0

     negative rho (up, down):  4.084E-05 0.000E+00

     total cpu time spent up to now is      239.0 secs

     total energy              =  -27799.22495076 Ry
     estimated scf accuracy    <       0.00255746 Ry

     iteration #  8     ecut=    40.00 Ry     beta= 0.70
     Davidson diagonalization with overlap
     ethr =  6.84E-07,  avg # of iterations =  5.2

     negative rho (up, down):  4.315E-05 0.000E+00

     total cpu time spent up to now is      256.7 secs

     total energy              =  -27799.22509236 Ry
     estimated scf accuracy    <       0.00040896 Ry

     iteration #  9     ecut=    40.00 Ry     beta= 0.70
     Davidson diagonalization with overlap
     ethr =  1.11E-07,  avg # of iterations =  4.3

     negative rho (up, down):  6.981E-05 0.000E+00

     total cpu time spent up to now is      283.7 secs

     total energy              =  -27799.22521658 Ry
     estimated scf accuracy    <       0.00038618 Ry

     iteration # 10     ecut=    40.00 Ry     beta= 0.70
     Davidson diagonalization with overlap
     c_bands:  1 eigenvalues not converged
     ethr =  1.05E-07,  avg # of iterations =  7.7

     negative rho (up, down):  1.342E-04 0.000E+00

     total cpu time spent up to now is      309.9 secs

     total energy              =  -27799.22529194 Ry
     estimated scf accuracy    <       0.00021571 Ry

     iteration # 11     ecut=    40.00 Ry     beta= 0.70
     Davidson diagonalization with overlap
     ethr =  5.86E-08,  avg # of iterations =  3.0

     negative rho (up, down):  3.198E-04 0.000E+00

     total cpu time spent up to now is      332.5 secs

     total energy              =  -27799.22536741 Ry
     estimated scf accuracy    <       0.00016305 Ry

     iteration # 12     ecut=    40.00 Ry     beta= 0.70
     Davidson diagonalization with overlap
     ethr =  4.43E-08,  avg # of iterations =  3.3

     negative rho (up, down):  1.707E-03 0.000E+00

     total cpu time spent up to now is      348.9 secs

     total energy              =  -27799.22545174 Ry
     estimated scf accuracy    <       0.00009658 Ry

     iteration # 13     ecut=    40.00 Ry     beta= 0.70
     Davidson diagonalization with overlap
     ethr =  2.62E-08,  avg # of iterations =  3.5

     negative rho (up, down):  2.178E-03 0.000E+00

     total cpu time spent up to now is      373.1 secs

     total energy              =  -27799.22545687 Ry
     estimated scf accuracy    <       0.00003722 Ry

     iteration # 14     ecut=    40.00 Ry     beta= 0.70
     Davidson diagonalization with overlap
     ethr =  1.01E-08,  avg # of iterations =  2.0

     negative rho (up, down):  2.728E-03 0.000E+00

     total cpu time spent up to now is      395.5 secs

     total energy              =  -27799.22545244 Ry
     estimated scf accuracy    <       0.00001902 Ry

     iteration # 15     ecut=    40.00 Ry     beta= 0.70
     Davidson diagonalization with overlap
     ethr =  5.17E-09,  avg # of iterations =  2.8

     negative rho (up, down):  2.699E-03 0.000E+00

     total cpu time spent up to now is      419.8 secs

     total energy              =  -27799.22545439 Ry
     estimated scf accuracy    <       0.00001601 Ry

     iteration # 16     ecut=    40.00 Ry     beta= 0.70
     Davidson diagonalization with overlap
     ethr =  4.35E-09,  avg # of iterations =  1.2

     negative rho (up, down):  3.015E-03 0.000E+00

     total cpu time spent up to now is      435.4 secs

     total energy              =  -27799.22545298 Ry
     estimated scf accuracy    <       0.00000503 Ry

     iteration # 17     ecut=    40.00 Ry     beta= 0.70
     Davidson diagonalization with overlap
     ethr =  1.37E-09,  avg # of iterations =  2.5

     negative rho (up, down):  3.086E-03 0.000E+00

     total cpu time spent up to now is      458.5 secs

     total energy              =  -27799.22545331 Ry
     estimated scf accuracy    <       0.00000336 Ry

     iteration # 18     ecut=    40.00 Ry     beta= 0.70
     Davidson diagonalization with overlap
     ethr =  9.14E-10,  avg # of iterations =  1.8

     negative rho (up, down):  2.940E-03 0.000E+00

     total cpu time spent up to now is      480.4 secs

     total energy              =  -27799.22545442 Ry
     estimated scf accuracy    <       0.00000125 Ry

     iteration # 19     ecut=    40.00 Ry     beta= 0.70
     Davidson diagonalization with overlap
     ethr =  3.41E-10,  avg # of iterations =  3.8

     negative rho (up, down):  2.927E-03 0.000E+00

     total cpu time spent up to now is      506.7 secs

     total energy              =  -27799.22545469 Ry
     estimated scf accuracy    <       0.00000022 Ry

     iteration # 20     ecut=    40.00 Ry     beta= 0.70
     Davidson diagonalization with overlap
     ethr =  6.10E-11,  avg # of iterations =  5.0

     negative rho (up, down):  2.863E-03 0.000E+00

     total cpu time spent up to now is      544.7 secs

     total energy              =  -27799.22545521 Ry
     estimated scf accuracy    <       0.00000013 Ry

     iteration # 21     ecut=    40.00 Ry     beta= 0.70
     Davidson diagonalization with overlap
     ethr =  3.55E-11,  avg # of iterations =  2.1

     negative rho (up, down):  2.827E-03 0.000E+00

     total cpu time spent up to now is      568.0 secs

     total energy              =  -27799.22545543 Ry
     estimated scf accuracy    <       0.00000003 Ry

     iteration # 22     ecut=    40.00 Ry     beta= 0.70
     Davidson diagonalization with overlap
     ethr =  7.67E-12,  avg # of iterations =  3.8

     negative rho (up, down):  2.854E-03 0.000E+00

     total cpu time spent up to now is      586.9 secs

     total energy              =  -27799.22545528 Ry
     estimated scf accuracy    <       0.00000002 Ry

     iteration # 23     ecut=    40.00 Ry     beta= 0.70
     Davidson diagonalization with overlap
     ethr =  4.74E-12,  avg # of iterations =  2.5

     negative rho (up, down):  2.888E-03 0.000E+00

     total cpu time spent up to now is      608.9 secs

     End of self-consistent calculation

          k = 0.0000 0.0000 0.0000 ( 42913 PWs)   bands (ev):

   -18.6535  -6.2518  -6.0853  -4.7818  -3.7068  -3.6698  -3.6679  -3.6651
    -3.6642  -3.6569  -3.6539  -3.6529  -3.1260  -3.1054  -3.1053  -3.1037
    -3.1024  -3.1005  -2.7347  -2.6377  -2.6366  -2.6330  -2.6287  -2.6258
    -2.6047  -2.4293  -2.4156  -2.4143  -2.4141  -2.4128  -2.3893  -2.1891
    -2.1854  -2.1814  -2.1794  -2.1788  -2.1762  -2.1710  -2.1682  -2.1661
    -2.1644  -2.1487  -2.1415  -1.5703  -1.5692  -1.5554  -1.5405  -1.5254
    -1.4874  -1.4849  -1.4823  -1.4808  -1.4804  -1.3576  -1.3421  -1.2919
    -1.2430  -1.0753  -0.7415  -0.7392  -0.7363  -0.7347  -0.7327  -0.7119
    -0.6666  -0.5768  -0.5766  -0.5482  -0.5470  -0.5439  -0.5352  -0.5191
    -0.5163  -0.5131  -0.5120  -0.5115  -0.5068  -0.4746  -0.4743  -0.4574
    -0.3288  -0.3223  -0.3184  -0.3171  -0.3103  -0.2707  -0.1720  -0.1667
    -0.1650  -0.1579  -0.1576  -0.1507  -0.0708  -0.0699   0.0232   0.0247
     0.0798   0.0824   0.0983   0.1003   0.1332   0.1415   0.1443   0.1601
     0.2899   0.2992   0.3028   0.3060   0.3075   0.3181   0.4233   0.7867
     0.7927   0.7980   0.8035   0.8047   0.8073   0.8519   0.8663   0.8710
     0.8747   0.8800   0.8901   0.9483   0.9552   1.0978   1.1138   1.1153
     1.1179   1.1287   1.1520   1.2510   1.2554   1.2656   1.2787   1.2804
     1.2814   1.5223   1.5228   1.5329   1.5337   1.5379   1.5402   1.6077
     1.6153   1.7871   1.7894   1.7915   1.8007   1.8026   1.8227   1.9574
     1.9591   1.9679   1.9705   1.9727   1.9780   1.9951   2.0044   2.0075
     2.0121   2.0153   2.0806   2.1382   2.1477   2.1516   2.1548   2.1555
     2.1662   2.1711   2.1736   2.2403   2.2441   2.2656   2.2687   2.2709
     2.2743   2.2833   2.2856   2.3615   2.3622   2.3740   2.3799   2.3826
     2.3838   2.4554   2.4765   2.4810   2.4827   2.4913   2.4933   2.6267
     2.6950   2.7051   2.8001   2.8020   2.8096   2.8116   2.8160   2.8208
     3.5843   3.6676   3.6832   3.6904   3.6994   3.7035   3.9193   5.9566
     5.9878   6.0017   6.0220   6.0344   6.1871   6.9518   7.5603   7.5649
     7.6132   7.6226   7.6262   7.6305   7.7221

          k = 0.0000 0.2309 0.0000 ( 42996 PWs)   bands (ev):

   -18.6535  -6.2517  -5.9386  -4.6369  -4.1783  -3.7831  -3.7769  -3.5583
    -3.5187  -3.4705  -3.4322  -3.4261  -3.2279  -3.1993  -3.0514  -3.0422
    -3.0308  -3.0246  -2.7559  -2.7039  -2.6120  -2.6055  -2.5813  -2.5750
    -2.5159  -2.5097  -2.4487  -2.4444  -2.4403  -2.4279  -2.3593  -2.3365
    -2.3326  -2.2244  -2.2138  -2.2056  -2.1600  -2.1554  -1.9988  -1.9880
    -1.9683  -1.9605  -1.9349  -1.7043  -1.6937  -1.6629  -1.6143  -1.6067
    -1.5707  -1.5645  -1.4077  -1.3870  -1.3352  -1.3149  -1.2968  -1.2588
    -1.2398  -1.1289  -1.0153  -0.9363  -0.9233  -0.8588  -0.8377  -0.8157
    -0.7657  -0.7348  -0.7220  -0.7110  -0.6968  -0.6789  -0.6455  -0.5779
    -0.5618  -0.5467  -0.5390  -0.4717  -0.4444  -0.4414  -0.3953  -0.3839
    -0.3703  -0.3077  -0.2765  -0.2696  -0.2631  -0.2518  -0.1662  -0.1635
    -0.1583  -0.1480  -0.1462  -0.0777  -0.0704  -0.0468  -0.0351   0.0202
     0.0249   0.0336   0.0710   0.0791   0.1135   0.1234   0.1275   0.2340
     0.2897   0.3028   0.3085   0.3097   0.3258   0.3354   0.3466   0.3743
     0.3965   0.4140   0.4217   0.4499   0.6311   0.7129   0.7704   0.8159
     0.8192   0.8317   0.8395   0.8581   0.8611   1.0189   1.0202   1.0375
     1.1400   1.1777   1.1834   1.1925   1.2065   1.2921   1.2968   1.3074
     1.3155   1.3942   1.4068   1.4096   1.4324   1.4386   1.6247   1.6300
     1.6585   1.6597   1.6656   1.6889   1.7052   1.7783   1.8058   1.8073
     1.8374   1.8560   1.9011   1.9057   1.9134   1.9187   2.0198   2.0257
     2.0532   2.0683   2.1496   2.1926   2.2007   2.2028   2.2097   2.2260
     2.2651   2.2852   2.3349   2.3423   2.3976   2.4075   2.4081   2.4519
     2.4559   2.4603   2.4640   2.4661   2.4870   2.5387   2.5528   2.6963
     2.6987   2.7042   2.7237   2.7344   2.7401   2.7706   2.8085   2.8141
     2.8273   2.9264   2.9297   2.9523   3.1059   3.1132   3.1173   3.1243
     3.2288   3.5568   3.6150   4.2559   4.2845   4.3350   4.4724   5.2986
     5.7160   5.7970   6.4336   6.4354   6.5490   6.6202   6.8679   7.0279
     7.4010   7.4150   7.5424   7.7976   7.8043

          k = 0.0000 0.4619 0.0000 ( 43046 PWs)   bands (ev):

   -18.6535  -6.2517  -5.5157  -4.8803  -4.2306  -3.8171  -3.8111  -3.6753
    -3.4443  -3.2901  -3.1651  -3.1302  -3.0921  -3.0857  -2.9313  -2.9077
    -2.8739  -2.8650  -2.8611  -2.7450  -2.7213  -2.7026  -2.6809  -2.6525
    -2.6250  -2.5917  -2.5638  -2.5139  -2.5091  -2.4832  -2.2428  -2.2404
    -2.2298  -2.2263  -2.2245  -2.2173  -2.0049  -1.9940  -1.9464  -1.9410
    -1.9325  -1.9234  -1.7554  -1.6552  -1.6453  -1.6349  -1.6265  -1.5724
    -1.5673  -1.5285  -1.5081  -1.4968  -1.4253  -1.4234  -1.3103  -1.2927
    -1.2569  -1.2414  -1.1939  -1.1323  -1.0956  -1.0665  -1.0608  -0.9938
    -0.9073  -0.8402  -0.8346  -0.8196  -0.8024  -0.7328  -0.7169  -0.7098
    -0.5947  -0.5862  -0.5781  -0.5654  -0.4598  -0.4508  -0.4486  -0.4473
    -0.4329  -0.3727  -0.3555  -0.3507  -0.3430  -0.3255  -0.3225  -0.3105
    -0.2982  -0.2604  -0.1929  -0.1826  -0.1671  -0.1661  -0.1352  -0.1240
    -0.0772  -0.0173   0.0415   0.0788   0.0852   0.1155   0.1294   0.1492
     0.1638   0.1806   0.2877   0.2949   0.3211   0.3700   0.3770   0.4156
     0.5515   0.5573   0.5831   0.6403   0.7140   0.7277   0.7402   0.7580
     0.7614   0.7661   0.7742   0.8535   0.8578   0.8842   0.8947   0.9023
     0.9226   0.9386   0.9494   0.9756   1.0163   1.1008   1.1253   1.1362
     1.2023   1.2633   1.2978   1.3009   1.4302   1.4339   1.4997   1.5487
     1.5974   1.6075   1.6332   1.6518   1.6857   1.6926   1.7466   1.7598
     1.7983   1.8042   1.8557   1.9045   1.9147   1.9567   1.9590   1.9742
     1.9786   2.0656   2.1569   2.1725   2.2305   2.2468   2.2587   2.2604
     2.3439   2.3603   2.3672   2.4568   2.4630   2.4682   2.5070   2.5384
     2.5646   2.5688   2.5735   2.6921   2.6999   2.7132   2.7204   2.7240
     2.7317   2.7475   2.7873   2.9219   2.9595   2.9644   2.9689   2.9834
     3.1588   3.1927   3.5651   3.5983   3.6533   3.8833   4.0096   4.0123
     4.4072   4.4122   4.5968   4.7445   5.2209   5.2244   5.2379   5.3265
     5.4881   5.5114   5.6140   5.7017   5.8886   5.8992   6.4259   6.5244
     7.0407   7.0718   7.2948   7.5126   7.5842

          k = 0.2000-0.1155 0.0000 ( 42996 PWs)   bands (ev):

   -18.6535  -6.2514  -5.9389  -4.6372  -4.1811  -3.7805  -3.7758  -3.5589
    -3.5191  -3.4754  -3.4285  -3.4248  -3.2305  -3.1993  -3.0499  -3.0414
    -3.0314  -3.0245  -2.7629  -2.6980  -2.6105  -2.6086  -2.5854  -2.5569
    -2.5150  -2.5123  -2.4497  -2.4458  -2.4421  -2.4385  -2.3613  -2.3334
    -2.3302  -2.2261  -2.2149  -2.2122  -2.1562  -2.1539  -1.9963  -1.9900
    -1.9655  -1.9618  -1.9299  -1.6956  -1.6932  -1.6542  -1.6162  -1.6096
    -1.5811  -1.5661  -1.4121  -1.3859  -1.3424  -1.3158  -1.2820  -1.2677
    -1.2419  -1.1170  -1.0184  -0.9363  -0.9192  -0.8528  -0.8433  -0.7966
    -0.7566  -0.7420  -0.7371  -0.7132  -0.6987  -0.6832  -0.6469  -0.5731
    -0.5474  -0.5439  -0.5305  -0.4714  -0.4596  -0.4588  -0.3956  -0.3816
    -0.3572  -0.3070  -0.2844  -0.2567  -0.2533  -0.2432  -0.1755  -0.1703
    -0.1568  -0.1523  -0.1474  -0.0810  -0.0698  -0.0445  -0.0427   0.0243
     0.0258   0.0320   0.0676   0.0785   0.1118   0.1177   0.1282   0.2347
     0.2952   0.2963   0.3028   0.3062   0.3261   0.3395   0.3414   0.3708
     0.3950   0.4140   0.4254   0.4339   0.6571   0.7155   0.7659   0.8160
     0.8187   0.8310   0.8366   0.8580   0.8639   1.0176   1.0245   1.0300
     1.1373   1.1753   1.1922   1.1952   1.1990   1.2920   1.2960   1.3098
     1.3135   1.3950   1.4034   1.4075   1.4369   1.4407   1.6192   1.6378
     1.6592   1.6594   1.6638   1.6888   1.7004   1.7737   1.8040   1.8086
     1.8364   1.8421   1.9003   1.9073   1.9125   1.9226   2.0227   2.0313
     2.0537   2.0710   2.1510   2.1928   2.1984   2.2081   2.2097   2.2254
     2.2669   2.2886   2.3376   2.3427   2.3954   2.4042   2.4073   2.4517
     2.4571   2.4592   2.4650   2.4661   2.4848   2.5341   2.5411   2.6888
     2.6925   2.7110   2.7258   2.7378   2.7431   2.7743   2.8162   2.8213
     2.8271   2.9264   2.9299   2.9522   3.1092   3.1134   3.1148   3.1265
     3.2207   3.5593   3.6312   4.2589   4.2713   4.3349   4.4739   5.2932
     5.7198   5.8021   6.4338   6.4344   6.5523   6.6234   6.8458   7.0238
     7.3948   7.4175   7.5891   7.7997   7.8322

          k = 0.2000 0.1155 0.0000 ( 42996 PWs)   bands (ev):

   -18.6535  -6.2516  -5.9387  -4.6370  -4.1785  -3.7834  -3.7765  -3.5585
    -3.5188  -3.4711  -3.4321  -3.4256  -3.2277  -3.1995  -3.0530  -3.0412
    -3.0322  -3.0235  -2.7498  -2.7099  -2.6114  -2.6050  -2.5833  -2.5773
    -2.5147  -2.5100  -2.4472  -2.4451  -2.4395  -2.4269  -2.3599  -2.3358
    -2.3326  -2.2236  -2.2141  -2.2056  -2.1594  -2.1553  -1.9986  -1.9884
    -1.9686  -1.9603  -1.9346  -1.7051  -1.6936  -1.6616  -1.6145  -1.6077
    -1.5714  -1.5642  -1.4082  -1.3877  -1.3349  -1.3148  -1.2952  -1.2596
    -1.2404  -1.1265  -1.0163  -0.9359  -0.9214  -0.8604  -0.8374  -0.8134
    -0.7654  -0.7368  -0.7230  -0.7098  -0.6971  -0.6814  -0.6454  -0.5770
    -0.5611  -0.5467  -0.5379  -0.4715  -0.4460  -0.4420  -0.3954  -0.3841
    -0.3679  -0.3077  -0.2770  -0.2693  -0.2608  -0.2513  -0.1679  -0.1629
    -0.1583  -0.1497  -0.1456  -0.0792  -0.0702  -0.0462  -0.0360   0.0211
     0.0252   0.0312   0.0697   0.0800   0.1118   0.1246   0.1279   0.2343
     0.2896   0.3010   0.3061   0.3109   0.3266   0.3361   0.3448   0.3712
     0.3954   0.4145   0.4217   0.4525   0.6356   0.7129   0.7691   0.8155
     0.8188   0.8317   0.8399   0.8586   0.8614   1.0195   1.0206   1.0366
     1.1395   1.1764   1.1838   1.1953   1.2061   1.2926   1.2978   1.3064
     1.3167   1.3945   1.4058   1.4095   1.4322   1.4398   1.6246   1.6316
     1.6576   1.6596   1.6652   1.6908   1.7010   1.7763   1.8035   1.8078
     1.8370   1.8531   1.8994   1.9064   1.9124   1.9213   2.0198   2.0286
     2.0526   2.0699   2.1503   2.1909   2.2008   2.2051   2.2108   2.2257
     2.2644   2.2895   2.3345   2.3431   2.3969   2.4063   2.4082   2.4506
     2.4555   2.4607   2.4648   2.4664   2.4863   2.5382   2.5492   2.6947
     2.6980   2.7051   2.7243   2.7337   2.7408   2.7705   2.8092   2.8160
     2.8271   2.9254   2.9308   2.9523   3.1069   3.1135   3.1169   3.1299
     3.2200   3.5558   3.6222   4.2516   4.2841   4.3390   4.4722   5.2938
     5.7192   5.7987   6.4337   6.4355   6.5516   6.6203   6.8604   7.0257
     7.4008   7.4168   7.5498   7.7954   7.8318

          k = 0.2000 0.3464 0.0000 ( 43046 PWs)   bands (ev):

   -18.6535  -6.2517  -5.6529  -4.4283  -4.4254  -4.3594  -3.3524  -3.3458
    -3.3306  -3.3219  -3.2801  -3.2755  -3.2746  -3.2619  -3.1602  -3.1566
    -2.8090  -2.7708  -2.7647  -2.7624  -2.7122  -2.6858  -2.6468  -2.5385
    -2.5150  -2.5058  -2.4869  -2.4835  -2.4187  -2.3625  -2.3584  -2.3248
    -2.3238  -2.2779  -2.2386  -2.2289  -2.1884  -2.1819  -2.1082  -1.8427
    -1.7614  -1.7411  -1.7292  -1.7119  -1.7024  -1.6925  -1.6877  -1.6291
    -1.6161  -1.4565  -1.4546  -1.4440  -1.3753  -1.3386  -1.3244  -1.2861
    -1.2712  -1.2151  -1.1827  -1.1019  -1.0113  -1.0062  -0.9718  -0.9147
    -0.9107  -0.8756  -0.8693  -0.8316  -0.8001  -0.7930  -0.6439  -0.6204
    -0.6166  -0.6079  -0.5531  -0.5474  -0.4929  -0.4882  -0.4765  -0.4637
    -0.3578  -0.3253  -0.3169  -0.3017  -0.2994  -0.2984  -0.2816  -0.2482
    -0.2323  -0.1634  -0.1560  -0.1323  -0.1111  -0.0685  -0.0610  -0.0076
     0.0273   0.0572   0.0653   0.0695   0.1098   0.1139   0.1176   0.1368
     0.1412   0.1571   0.1758   0.1985   0.2278   0.2392   0.3343   0.3785
     0.3857   0.4469   0.4566   0.4588   0.4830   0.6440   0.6477   0.7878
     0.8052   0.8392   0.8437   0.8576   0.8720   0.8758   0.9162   0.9257
     0.9516   0.9735   1.0084   1.0400   1.1604   1.2356   1.2383   1.2777
     1.2869   1.3037   1.3388   1.3584   1.4794   1.4816   1.4898   1.5402
     1.5439   1.6157   1.6706   1.6889   1.7009   1.7076   1.7736   1.7789
     1.7802   1.7925   1.8058   1.8227   1.8261   1.8370   1.8627   1.9620
     2.0359   2.0525   2.1733   2.1748   2.2112   2.3414   2.3469   2.3496
     2.3674   2.4603   2.4775   2.4945   2.5002   2.5127   2.5384   2.5455
     2.5670   2.5701   2.5916   2.6285   2.6350   2.6540   2.7249   2.7444
     2.7562   2.7798   2.7829   2.8300   2.9569   3.0083   3.0092   3.0818
     3.0945   3.0993   3.1465   3.2440   3.2551   3.6876   3.7734   3.7860
     4.3053   4.3153   4.3349   4.3819   4.9934   5.0269   5.1008   5.2338
     5.2790   5.3203   5.9424   6.4229   6.4566   6.5119   6.6660   6.9238
     7.1293   7.2052   7.2395   7.2556   7.3026

          k = 0.2000-0.5774 0.0000 ( 43014 PWs)   bands (ev):

   -18.6535  -6.2516  -5.1206  -5.1148  -4.5106  -3.8688  -3.8611  -3.3533
    -3.3439  -3.2095  -3.1774  -3.0730  -3.0650  -2.9626  -2.9557  -2.8449
    -2.8346  -2.8318  -2.7987  -2.7942  -2.7781  -2.7694  -2.7084  -2.6280
    -2.6213  -2.6099  -2.5810  -2.5654  -2.4843  -2.3932  -2.3691  -2.3112
    -2.2123  -2.2085  -2.1964  -2.1932  -2.1756  -2.0725  -2.0669  -1.9736
    -1.9677  -1.7974  -1.7847  -1.7369  -1.6359  -1.6282  -1.5839  -1.5732
    -1.4775  -1.4213  -1.3833  -1.3675  -1.3531  -1.3218  -1.3018  -1.2768
    -1.2208  -1.1656  -1.1585  -1.1359  -1.1294  -1.1277  -1.1209  -1.0618
    -1.0468  -0.9818  -0.9244  -0.8944  -0.8508  -0.8399  -0.7337  -0.6937
    -0.6876  -0.6740  -0.6383  -0.5993  -0.5969  -0.5161  -0.5015  -0.4875
    -0.4724  -0.4414  -0.4217  -0.3749  -0.3639  -0.3218  -0.2714  -0.2670
    -0.2534  -0.2244  -0.1350  -0.0939  -0.0833  -0.0501  -0.0439  -0.0006
     0.0017   0.0110   0.0208   0.0436   0.0571   0.0938   0.1026   0.1278
     0.1476   0.1497   0.1536   0.1641   0.1761   0.1974   0.2639   0.2672
     0.2822   0.4754   0.4971   0.5725   0.5844   0.6864   0.6910   0.7012
     0.7268   0.7818   0.7861   0.7961   0.8019   0.8276   0.9015   0.9281
     0.9361   0.9946   1.0084   1.0420   1.0831   1.1003   1.1526   1.2769
     1.3363   1.3432   1.3610   1.3649   1.4506   1.4608   1.4675   1.4852
     1.4980   1.5224   1.5398   1.5470   1.6534   1.6600   1.6818   1.7256
     1.7322   1.7501   1.7580   1.7760   1.8002   1.9357   1.9905   2.0251
     2.0902   2.1043   2.1774   2.1813   2.2618   2.3060   2.3140   2.3295
     2.4178   2.4434   2.4925   2.5265   2.5347   2.5440   2.5574   2.5828
     2.6020   2.6361   2.7005   2.7048   2.7310   2.7463   2.7533   2.7554
     2.8072   2.8367   2.9583   2.9622   2.9653   2.9713   2.9822   3.0447
     3.1283   3.1599   3.2959   4.1173   4.1191   4.3116   4.3542   4.4203
     4.5129   4.5219   4.5418   4.9615   5.1267   5.1315   5.5852   5.6005
     5.6401   5.7286   5.7348   5.9382   6.0241   6.0287   6.0775   6.4626
     6.5601   6.5823   6.9491   7.2089   7.2196

          k = 0.2000-0.3464 0.0000 ( 43046 PWs)   bands (ev):

   -18.6535  -6.2514  -5.6533  -4.4286  -4.4260  -4.3601  -3.3555  -3.3471
    -3.3316  -3.3201  -3.2789  -3.2756  -3.2714  -3.2628  -3.1608  -3.1564
    -2.8029  -2.7723  -2.7675  -2.7632  -2.7031  -2.6962  -2.6517  -2.5348
    -2.5129  -2.5098  -2.4869  -2.4765  -2.4127  -2.3635  -2.3571  -2.3251
    -2.3219  -2.2767  -2.2411  -2.2328  -2.1938  -2.1862  -2.1131  -1.8437
    -1.7494  -1.7400  -1.7302  -1.7082  -1.6989  -1.6913  -1.6836  -1.6313
    -1.6163  -1.4728  -1.4531  -1.4462  -1.3663  -1.3478  -1.3189  -1.2848
    -1.2722  -1.2035  -1.1833  -1.1191  -1.0123  -1.0016  -0.9732  -0.9076
    -0.8924  -0.8739  -0.8690  -0.8294  -0.7978  -0.7876  -0.6397  -0.6289
    -0.6153  -0.6068  -0.5567  -0.5425  -0.4906  -0.4854  -0.4819  -0.4695
    -0.3475  -0.3238  -0.3163  -0.3037  -0.2983  -0.2951  -0.2816  -0.2510
    -0.2326  -0.1693  -0.1615  -0.1367  -0.1131  -0.0690  -0.0622  -0.0072
     0.0175   0.0527   0.0572   0.0691   0.1106   0.1139   0.1199   0.1375
     0.1452   0.1586   0.1677   0.1911   0.2309   0.2400   0.3339   0.3731
     0.3802   0.4461   0.4553   0.4592   0.4907   0.6448   0.6501   0.7824
     0.8059   0.8369   0.8410   0.8555   0.8738   0.8818   0.9174   0.9305
     0.9508   0.9721   1.0099   1.0472   1.1557   1.2321   1.2408   1.2784
     1.2884   1.3051   1.3347   1.3575   1.4736   1.4828   1.4907   1.5371
     1.5444   1.6143   1.6711   1.6902   1.6957   1.7069   1.7754   1.7783
     1.7842   1.7961   1.8048   1.8209   1.8269   1.8399   1.8593   1.9690
     2.0349   2.0493   2.1733   2.1768   2.2117   2.3437   2.3471   2.3501
     2.3718   2.4584   2.4759   2.4950   2.5003   2.5118   2.5377   2.5464
     2.5622   2.5669   2.5879   2.6241   2.6333   2.6591   2.7222   2.7403
     2.7563   2.7798   2.7837   2.8280   2.9646   3.0120   3.0172   3.0887
     3.0926   3.1005   3.1500   3.2402   3.2546   3.6856   3.7710   3.7842
     4.3092   4.3173   4.3410   4.3792   4.9950   5.0183   5.1058   5.2346
     5.2817   5.3197   5.9419   6.4230   6.4732   6.4961   6.6645   6.9358
     7.1150   7.1762   7.2475   7.2585   7.3011

          k = 0.4000-0.2309 0.0000 ( 43046 PWs)   bands (ev):

   -18.6535  -6.2511  -5.5163  -4.8816  -4.2316  -3.8152  -3.8101  -3.6773
    -3.4487  -3.2911  -3.1678  -3.1325  -3.0889  -3.0841  -2.9249  -2.9072
    -2.8766  -2.8663  -2.8606  -2.7588  -2.7162  -2.7016  -2.6750  -2.6507
    -2.6421  -2.5834  -2.5609  -2.5121  -2.5090  -2.4821  -2.2417  -2.2396
    -2.2314  -2.2255  -2.2231  -2.2180  -2.0057  -1.9945  -1.9410  -1.9390
    -1.9306  -1.9241  -1.7464  -1.6513  -1.6450  -1.6333  -1.6303  -1.5826
    -1.5697  -1.5183  -1.5081  -1.4979  -1.4335  -1.4265  -1.3106  -1.2886
    -1.2505  -1.2400  -1.1928  -1.1222  -1.0869  -1.0606  -1.0588  -1.0189
    -0.9078  -0.8428  -0.8259  -0.8229  -0.7958  -0.7362  -0.7126  -0.6783
    -0.6015  -0.5892  -0.5761  -0.5713  -0.4560  -0.4517  -0.4475  -0.4425
    -0.4382  -0.3689  -0.3545  -0.3491  -0.3413  -0.3253  -0.3220  -0.3169
    -0.2993  -0.2595  -0.1958  -0.1803  -0.1734  -0.1658  -0.1314  -0.1210
    -0.0792  -0.0252   0.0399   0.0675   0.0746   0.1150   0.1286   0.1473
     0.1516   0.1678   0.2897   0.2945   0.3117   0.3627   0.3791   0.4163
     0.5510   0.5549   0.5940   0.6394   0.7162   0.7203   0.7385   0.7594
     0.7620   0.7678   0.7771   0.8535   0.8724   0.8825   0.8904   0.9084
     0.9149   0.9269   0.9490   0.9876   1.0280   1.0956   1.1288   1.1322
     1.2013   1.2776   1.2914   1.2965   1.4294   1.4320   1.5002   1.5482
     1.5958   1.6042   1.6239   1.6472   1.6886   1.6943   1.7431   1.7493
     1.8011   1.8057   1.8556   1.9077   1.9213   1.9609   1.9625   1.9759
     1.9828   2.0503   2.1517   2.1827   2.2306   2.2458   2.2552   2.2613
     2.3419   2.3637   2.3673   2.4532   2.4624   2.4635   2.4981   2.5472
     2.5594   2.5683   2.5730   2.6915   2.6991   2.7148   2.7197   2.7304
     2.7354   2.7536   2.7788   2.9223   2.9653   2.9699   2.9737   2.9910
     3.1581   3.1917   3.5700   3.6196   3.6332   3.8784   4.0110   4.0124
     4.4056   4.4132   4.5916   4.7503   5.2215   5.2248   5.2512   5.3265
     5.4754   5.5143   5.6190   5.7071   5.8851   5.9000   6.4126   6.5353
     7.0292   7.0710   7.3215   7.4954   7.5892

          k = 0.4000-0.0000 0.0000 ( 43046 PWs)   bands (ev):

   -18.6535  -6.2513  -5.6534  -4.4299  -4.4248  -4.3602  -3.3557  -3.3475
    -3.3311  -3.3204  -3.2803  -3.2771  -3.2683  -3.2630  -3.1615  -3.1562
    -2.8043  -2.7712  -2.7666  -2.7645  -2.7075  -2.6905  -2.6521  -2.5346
    -2.5142  -2.5098  -2.4871  -2.4781  -2.4121  -2.3646  -2.3547  -2.3255
    -2.3225  -2.2770  -2.2390  -2.2338  -2.1906  -2.1871  -2.1133  -1.8435
    -1.7480  -1.7391  -1.7291  -1.7094  -1.6983  -1.6900  -1.6849  -1.6315
    -1.6168  -1.4757  -1.4519  -1.4477  -1.3666  -1.3468  -1.3198  -1.2848
    -1.2718  -1.2016  -1.1843  -1.1192  -1.0110  -1.0010  -0.9718  -0.9064
    -0.8908  -0.8764  -0.8684  -0.8282  -0.7968  -0.7889  -0.6411  -0.6282
    -0.6150  -0.6077  -0.5581  -0.5402  -0.4915  -0.4862  -0.4813  -0.4692
    -0.3445  -0.3246  -0.3156  -0.3043  -0.2979  -0.2956  -0.2824  -0.2521
    -0.2320  -0.1721  -0.1600  -0.1391  -0.1139  -0.0699  -0.0617  -0.0062
     0.0149   0.0505   0.0575   0.0700   0.1120   0.1129   0.1195   0.1364
     0.1428   0.1593   0.1697   0.1905   0.2318   0.2378   0.3342   0.3725
     0.3798   0.4468   0.4561   0.4589   0.4929   0.6437   0.6516   0.7821
     0.8062   0.8367   0.8410   0.8563   0.8728   0.8839   0.9180   0.9303
     0.9508   0.9726   1.0112   1.0479   1.1557   1.2293   1.2429   1.2785
     1.2894   1.3045   1.3356   1.3572   1.4720   1.4829   1.4927   1.5365
     1.5431   1.6138   1.6675   1.6890   1.6971   1.7073   1.7755   1.7784
     1.7855   1.7960   1.8036   1.8176   1.8289   1.8403   1.8564   1.9744
     2.0344   2.0464   2.1735   2.1763   2.2152   2.3435   2.3469   2.3501
     2.3766   2.4581   2.4739   2.4946   2.5006   2.5127   2.5365   2.5472
     2.5606   2.5670   2.5845   2.6233   2.6307   2.6603   2.7219   2.7413
     2.7545   2.7791   2.7846   2.8271   2.9657   3.0135   3.0181   3.0851
     3.0913   3.1015   3.1589   3.2385   3.2555   3.6853   3.7707   3.7814
     4.3105   4.3170   4.3376   4.3851   4.9946   5.0186   5.1081   5.2347
     5.2778   5.3193   5.9418   6.4226   6.4643   6.5139   6.6646   6.9380
     7.1074   7.1540   7.2462   7.2581   7.3032

          k = 0.4000 0.2309 0.0000 ( 43046 PWs)   bands (ev):

   -18.6535  -6.2515  -5.5157  -4.8804  -4.2308  -3.8174  -3.8107  -3.6755
    -3.4449  -3.2906  -3.1656  -3.1311  -3.0913  -3.0852  -2.9340  -2.9059
    -2.8728  -2.8661  -2.8599  -2.7480  -2.7175  -2.7027  -2.6850  -2.6510
    -2.6258  -2.5933  -2.5611  -2.5137  -2.5088  -2.4838  -2.2419  -2.2404
    -2.2281  -2.2275  -2.2230  -2.2179  -2.0041  -1.9938  -1.9452  -1.9411
    -1.9324  -1.9241  -1.7545  -1.6536  -1.6448  -1.6348  -1.6277  -1.5740
    -1.5664  -1.5272  -1.5084  -1.4965  -1.4269  -1.4229  -1.3112  -1.2933
    -1.2558  -1.2422  -1.1932  -1.1305  -1.0947  -1.0674  -1.0599  -0.9950
    -0.9072  -0.8369  -0.8345  -0.8196  -0.8041  -0.7330  -0.7168  -0.7088
    -0.5949  -0.5863  -0.5801  -0.5633  -0.4603  -0.4509  -0.4478  -0.4465
    -0.4342  -0.3729  -0.3553  -0.3494  -0.3430  -0.3256  -0.3239  -0.3094
    -0.2987  -0.2592  -0.1934  -0.1844  -0.1691  -0.1666  -0.1363  -0.1218
    -0.0777  -0.0183   0.0409   0.0763   0.0877   0.1139   0.1281   0.1493
     0.1617   0.1811   0.2891   0.2940   0.3180   0.3692   0.3780   0.4160
     0.5506   0.5574   0.5843   0.6402   0.7138   0.7257   0.7406   0.7568
     0.7617   0.7661   0.7734   0.8535   0.8612   0.8839   0.8957   0.9044
     0.9218   0.9352   0.9511   0.9780   1.0199   1.1004   1.1259   1.1374
     1.2018   1.2673   1.2972   1.3006   1.4296   1.4332   1.4987   1.5461
     1.5987   1.6045   1.6313   1.6518   1.6850   1.6932   1.7456   1.7565
     1.7976   1.8044   1.8554   1.9044   1.9171   1.9572   1.9613   1.9750
     1.9797   2.0616   2.1535   2.1782   2.2304   2.2454   2.2577   2.2620
     2.3440   2.3610   2.3680   2.4563   2.4649   2.4661   2.5021   2.5429
     2.5621   2.5687   2.5749   2.6915   2.6996   2.7125   2.7197   2.7254
     2.7318   2.7474   2.7868   2.9222   2.9598   2.9653   2.9689   2.9858
     3.1587   3.1925   3.5640   3.6064   3.6469   3.8830   4.0098   4.0132
     4.4059   4.4138   4.5948   4.7446   5.2208   5.2246   5.2399   5.3228
     5.4877   5.5151   5.6160   5.7035   5.8869   5.9001   6.4214   6.5238
     7.0395   7.0753   7.3023   7.5153   7.5891

          k = 0.4000-0.6928 0.0000 ( 43014 PWs)   bands (ev):

   -18.6535  -6.2515  -5.1191  -5.1164  -4.5105  -3.8693  -3.8610  -3.3535
    -3.3441  -3.2100  -3.1773  -3.0728  -3.0642  -2.9622  -2.9564  -2.8416
    -2.8363  -2.8320  -2.7981  -2.7920  -2.7840  -2.7712  -2.7099  -2.6274
    -2.6236  -2.6055  -2.5806  -2.5632  -2.4845  -2.3943  -2.3690  -2.3112
    -2.2124  -2.2083  -2.1961  -2.1931  -2.1747  -2.0721  -2.0660  -1.9743
    -1.9678  -1.7972  -1.7845  -1.7356  -1.6389  -1.6263  -1.5839  -1.5725
    -1.4778  -1.4224  -1.3844  -1.3672  -1.3541  -1.3194  -1.3002  -1.2763
    -1.2199  -1.1666  -1.1584  -1.1375  -1.1288  -1.1279  -1.1210  -1.0600
    -1.0496  -0.9806  -0.9226  -0.8950  -0.8498  -0.8380  -0.7336  -0.6936
    -0.6888  -0.6761  -0.6372  -0.5991  -0.5967  -0.5183  -0.5010  -0.4894
    -0.4724  -0.4409  -0.4195  -0.3718  -0.3678  -0.3218  -0.2718  -0.2685
    -0.2522  -0.2250  -0.1350  -0.0927  -0.0843  -0.0497  -0.0448   0.0002
     0.0017   0.0097   0.0216   0.0433   0.0560   0.0951   0.1008   0.1285
     0.1468   0.1507   0.1528   0.1622   0.1769   0.1978   0.2635   0.2685
     0.2782   0.4755   0.4976   0.5747   0.5824   0.6861   0.6920   0.7012
     0.7268   0.7806   0.7889   0.7945   0.8052   0.8270   0.9007   0.9275
     0.9365   0.9956   1.0098   1.0420   1.0814   1.0996   1.1552   1.2773
     1.3378   1.3411   1.3611   1.3660   1.4511   1.4595   1.4638   1.4850
     1.4972   1.5191   1.5397   1.5520   1.6554   1.6609   1.6821   1.7267
     1.7299   1.7493   1.7550   1.7771   1.8017   1.9344   1.9882   2.0252
     2.0919   2.1017   2.1785   2.1825   2.2629   2.3072   2.3150   2.3301
     2.4202   2.4398   2.4923   2.5252   2.5348   2.5456   2.5542   2.5817
     2.6025   2.6368   2.7013   2.7034   2.7298   2.7480   2.7530   2.7557
     2.8059   2.8338   2.9580   2.9631   2.9651   2.9713   2.9842   3.0444
     3.1315   3.1607   3.2964   4.1175   4.1189   4.3201   4.3443   4.4235
     4.5141   4.5233   4.5347   4.9639   5.1268   5.1328   5.5847   5.6048
     5.6321   5.7300   5.7342   5.9413   6.0088   6.0292   6.0924   6.4686
     6.5638   6.5760   6.9508   7.2089   7.2185

          k = 0.4000-0.4619 0.0000 ( 43014 PWs)   bands (ev):

   -18.6535  -6.2512  -5.1199  -5.1170  -4.5095  -3.8695  -3.8630  -3.3525
    -3.3461  -3.2104  -3.1765  -3.0718  -3.0627  -2.9613  -2.9571  -2.8557
    -2.8383  -2.8328  -2.7962  -2.7896  -2.7817  -2.7755  -2.6897  -2.6308
    -2.6231  -2.6095  -2.5796  -2.5711  -2.4784  -2.3937  -2.3674  -2.3116
    -2.2122  -2.2100  -2.1976  -2.1946  -2.1742  -2.0709  -2.0646  -1.9687
    -1.9656  -1.8010  -1.7828  -1.7283  -1.6455  -1.6309  -1.5828  -1.5763
    -1.4814  -1.4241  -1.3880  -1.3695  -1.3486  -1.3071  -1.2941  -1.2754
    -1.2268  -1.1648  -1.1537  -1.1365  -1.1298  -1.1270  -1.1212  -1.0545
    -1.0495  -1.0160  -0.9053  -0.8778  -0.8493  -0.8176  -0.7347  -0.6937
    -0.6868  -0.6767  -0.6401  -0.6049  -0.5979  -0.5216  -0.4988  -0.4888
    -0.4715  -0.4482  -0.4257  -0.3691  -0.3666  -0.3261  -0.2658  -0.2629
    -0.2532  -0.2256  -0.1441  -0.0885  -0.0869  -0.0441  -0.0405  -0.0010
     0.0023   0.0092   0.0174   0.0436   0.0483   0.0909   0.0987   0.1404
     0.1436   0.1495   0.1525   0.1556   0.1711   0.2020   0.2560   0.2615
     0.2726   0.4722   0.4971   0.5752   0.5815   0.6855   0.6925   0.6999
     0.7333   0.7759   0.7913   0.7917   0.8118   0.8323   0.9026   0.9250
     0.9309   1.0015   1.0137   1.0464   1.0801   1.0966   1.1580   1.2763
     1.3355   1.3384   1.3618   1.3683   1.4499   1.4565   1.4627   1.4825
     1.4976   1.5141   1.5418   1.5547   1.6599   1.6619   1.6838   1.7258
     1.7300   1.7499   1.7548   1.7752   1.8011   1.9324   1.9803   2.0253
     2.0891   2.1044   2.1808   2.1867   2.2662   2.3062   2.3162   2.3345
     2.4173   2.4402   2.4926   2.5181   2.5339   2.5401   2.5540   2.5857
     2.6005   2.6419   2.7020   2.7036   2.7220   2.7448   2.7536   2.7573
     2.8040   2.8320   2.9574   2.9688   2.9705   2.9733   2.9875   3.0439
     3.1387   3.1625   3.2949   4.1174   4.1193   4.3015   4.3572   4.4304
     4.5151   4.5182   4.5319   4.9668   5.1274   5.1340   5.5857   5.5961
     5.6366   5.7279   5.7358   5.9622   5.9771   6.0363   6.1195   6.4676
     6.5592   6.5725   6.9569   7.2032   7.2114

     the Fermi energy is     2.7373 ev

!    total energy              =  -27799.22545507 Ry
     total all-electron energy =  -1326794.837762 Ry
     estimated scf accuracy    <          5.5E-09 Ry
     smearing contrib. (-TS)   =       0.00150271 Ry
     internal energy E=F+TS    =  -27799.22695779 Ry

     The total energy is F=E-TS. E is the sum of the following terms:
     one-electron contribution =  -20641.06628469 Ry
     hartree contribution      =   10634.12647919 Ry
     xc contribution           =    -899.25945083 Ry
     ewald contribution        =    8591.08568142 Ry
     one-center paw contrib.   =  -25484.11338289 Ry

     convergence has been achieved in  23 iterations

     negative rho (up, down):  2.888E-03 0.000E+00

     Forces acting on atoms (cartesian axes, Ry/au):

     atom    1 type  1   force =    -0.00001710    0.00007243   -0.00581810
     atom    2 type  1   force =    -0.00021003   -0.00002999   -0.00315631
     atom    3 type  1   force =     0.00045309    0.00001324   -0.00333562
     atom    4 type  1   force =    -0.00002047   -0.00024680   -0.00331818
     atom    5 type  1   force =     0.00016039   -0.00012800   -0.00390711
     atom    6 type  1   force =     0.00024304   -0.00038428   -0.00337241
     atom    7 type  1   force =     0.00024598    0.00010584   -0.00322244
     atom    8 type  1   force =    -0.00006892    0.00017417   -0.00301661
     atom    9 type  1   force =     0.00016269   -0.00013762   -0.00332585
     atom   10 type  1   force =     0.00047384    0.00018568    0.00288742
     atom   11 type  1   force =    -0.00032935    0.00083337    0.00323889
     atom   12 type  1   force =    -0.00010800    0.00010386    0.00264314
     atom   13 type  1   force =     0.00037946   -0.00005255    0.00391263
     atom   14 type  1   force =    -0.00087938    0.00001522    0.00370399
     atom   15 type  1   force =    -0.00013446    0.00080450    0.00271943
     atom   16 type  1   force =     0.00023481   -0.00137464    0.00377547
     atom   17 type  1   force =     0.00002888   -0.00020112    0.00220628
     atom   18 type  1   force =    -0.00068337   -0.00040408    0.00270518
     atom   19 type  1   force =     0.00002228   -0.00007276   -0.00000688
     atom   20 type  1   force =     0.00005700   -0.00005541    0.00007138
     atom   21 type  1   force =    -0.00000082   -0.00004695    0.00008025
     atom   22 type  1   force =     0.00001147   -0.00005890   -0.00001453
     atom   23 type  1   force =     0.00005998   -0.00003529    0.00003212
     atom   24 type  1   force =     0.00004957   -0.00006381   -0.00001759
     atom   25 type  1   force =     0.00000985   -0.00003241    0.00000430
     atom   26 type  1   force =     0.00005012   -0.00003133    0.00000914
     atom   27 type  1   force =     0.00004541   -0.00009541    0.00002909
     atom   28 type  1   force =     0.00008932   -0.00014309    0.00001383
     atom   29 type  1   force =     0.00013436   -0.00010940    0.00009543
     atom   30 type  1   force =     0.00005974   -0.00007891    0.00010975
     atom   31 type  1   force =     0.00008535   -0.00013176    0.00000338
     atom   32 type  1   force =     0.00010887   -0.00025655    0.00019988
     atom   33 type  1   force =     0.00006163   -0.00016268    0.00003092
     atom   34 type  1   force =     0.00008132   -0.00015529   -0.00007374
     atom   35 type  1   force =     0.00007369   -0.00013732   -0.00006770
     atom   36 type  1   force =     0.00012571   -0.00013052    0.00000388
     atom   37 type  2   force =     0.00021731    0.00091226    0.00121880
     atom   38 type  3   force =    -0.00005061    0.00114122    0.00080683
     atom   39 type  3   force =    -0.00122265    0.00039506    0.00215160
     The non-local contrib.  to forces
     atom    1 type  1   force =     0.00014924   -0.00019355   -0.01497145
     atom    2 type  1   force =     0.00019309   -0.00018362   -0.01802680
     atom    3 type  1   force =    -0.00028042   -0.00014508   -0.01783957
     atom    4 type  1   force =    -0.00013298    0.00028382   -0.01820320
     atom    5 type  1   force =    -0.00005598    0.00009132   -0.01824837
     atom    6 type  1   force =     0.00002127    0.00034980   -0.01797986
     atom    7 type  1   force =    -0.00028902   -0.00003487   -0.01817920
     atom    8 type  1   force =     0.00026586   -0.00006949   -0.01823214
     atom    9 type  1   force =    -0.00004479   -0.00001123   -0.01856522
     atom   10 type  1   force =    -0.00031918   -0.00009252   -0.00031535
     atom   11 type  1   force =    -0.00017854    0.00062465    0.00109214
     atom   12 type  1   force =    -0.00014190   -0.00004166   -0.00059584
     atom   13 type  1   force =     0.00012060   -0.00001324    0.00180280
     atom   14 type  1   force =    -0.00068444   -0.00022486    0.00149080
     atom   15 type  1   force =    -0.00030019    0.00028597   -0.00003343
     atom   16 type  1   force =    -0.00025216    0.00023945   -0.00027956
     atom   17 type  1   force =    -0.00023429    0.00028152   -0.00031913
     atom   18 type  1   force =    -0.00029362    0.00024215   -0.00030187
     atom   19 type  1   force =    -0.00017448    0.00073704    0.00350827
     atom   20 type  1   force =    -0.00292019   -0.00174508   -0.00340505
     atom   21 type  1   force =     0.00152537   -0.00089400   -0.00168615
     atom   22 type  1   force =    -0.00003491   -0.00008091    0.00126393
     atom   23 type  1   force =     0.00002580    0.00471235   -0.00483228
     atom   24 type  1   force =     0.00030361    0.00000613    0.00146440
     atom   25 type  1   force =    -0.00110133   -0.00007833    0.00417910
     atom   26 type  1   force =     0.00097173   -0.00025789    0.00372877
     atom   27 type  1   force =    -0.00000959   -0.00041205    0.00149565
     atom   28 type  1   force =     0.00080467   -0.00045005    0.01392965
     atom   29 type  1   force =     0.00415730    0.00664857    0.01604797
     atom   30 type  1   force =    -0.00393651    0.00829487    0.00973797
     atom   31 type  1   force =     0.00650951   -0.00049071    0.01882395
     atom   32 type  1   force =     0.00716593   -0.01097391    0.06512669
     atom   33 type  1   force =    -0.00758862   -0.00122380    0.01325965
     atom   34 type  1   force =     0.00292412   -0.00527315    0.01671620
     atom   35 type  1   force =    -0.00263424   -0.00473744    0.01334465
     atom   36 type  1   force =     0.00060717   -0.00027407    0.01411812
     atom   37 type  2   force =     2.34857684   -0.79045350    0.00745210
     atom   38 type  3   force =    -0.09250814   -0.06341308   -0.02225315
     atom   39 type  3   force =    -0.03199480    0.10823088    0.00986582
     The ionic contribution  to forces
     atom    1 type  1   force =     0.00176296   -0.00186880  -94.28220288
     atom    2 type  1   force =    -0.00004176    0.00058428  -94.27765120
     atom    3 type  1   force =    -0.00175476   -0.00091183  -94.28108390
     atom    4 type  1   force =     0.00286733    0.00361629  -94.27384297
     atom    5 type  1   force =    -0.00205376    0.00452948  -94.27307437
     atom    6 type  1   force =    -0.00080902    0.00446881  -94.27773538
     atom    7 type  1   force =     0.00125833   -0.00512636  -94.27190748
     atom    8 type  1   force =    -0.00168364   -0.00295915  -94.27233631
     atom    9 type  1   force =     0.00038816   -0.00229525  -94.27465577
     atom   10 type  1   force =     0.03283898    0.02099859  -33.15240122
     atom   11 type  1   force =    -0.01992092    0.00912675  -33.16806180
     atom   12 type  1   force =    -0.01730336    0.01749428  -33.17835900
     atom   13 type  1   force =    -0.00019807    0.02432458  -33.12169308
     atom   14 type  1   force =    -0.01935242    0.03598561  -33.13842603
     atom   15 type  1   force =     0.00723837    0.02573776  -33.13559715
     atom   16 type  1   force =     0.00520061   -0.07197045  -33.13664775
     atom   17 type  1   force =    -0.00416586   -0.01648645  -33.15491407
     atom   18 type  1   force =    -0.00827374   -0.03154259  -33.15305106
     atom   19 type  1   force =     0.04494368   -0.01247116   28.74629335
     atom   20 type  1   force =    -0.20281092   -0.06598008   28.74081309
     atom   21 type  1   force =     0.13796430   -0.05009278   28.59723147
     atom   22 type  1   force =    -0.06040251    0.03014991   28.92937009
     atom   23 type  1   force =    -0.01510716    0.25036251   28.91176357
     atom   24 type  1   force =     0.08432756    0.06596515   28.83551311
     atom   25 type  1   force =     0.06260095   -0.04748425   28.70572545
     atom   26 type  1   force =    -0.05042996   -0.00892670   28.77870029
     atom   27 type  1   force =    -0.01532854   -0.14204081   28.72460790
     atom   28 type  1   force =     0.14884824   -0.08756524   90.79028346
     atom   29 type  1   force =    -0.79025255   -0.79492265   89.63362587
     atom   30 type  1   force =     0.67916113   -1.10687595   89.11607617
     atom   31 type  1   force =    -0.78667992    0.07341028   90.18161975
     atom   32 type  1   force =    -0.53262226    0.64371067   86.23592982
     atom   33 type  1   force =     1.20311413    0.11453032   89.49218843
     atom   34 type  1   force =    -0.33589099    0.56807813   90.35949316
     atom   35 type  1   force =     0.26500089    0.87804679   90.14712865
     atom   36 type  1   force =     0.08751587   -0.16126060   90.90990817
     atom   37 type  2   force =    -3.96700671    1.32168458   60.55681380
     atom   38 type  3   force =     3.02369087    2.07314015   10.53735915
     atom   39 type  3   force =     1.04336644   -3.55516380    9.89319668
     The local contribution  to forces
     atom    1 type  1   force =    -0.00194976    0.00215634   94.27415685
     atom    2 type  1   force =    -0.00037475   -0.00040373   94.27529283
     atom    3 type  1   force =     0.00250530    0.00106783   94.27837455
     atom    4 type  1   force =    -0.00273046   -0.00416967   94.27150142
     atom    5 type  1   force =     0.00226517   -0.00473981   94.27028260
     atom    6 type  1   force =     0.00103060   -0.00522200   94.27512526
     atom    7 type  1   force =    -0.00068075    0.00525955   94.26965387
     atom    8 type  1   force =     0.00129949    0.00319684   94.27031957
     atom    9 type  1   force =    -0.00016454    0.00217052   94.27272939
     atom   10 type  1   force =    -0.03178384   -0.02058764   33.15415271
     atom   11 type  1   force =     0.01972742   -0.00892159   33.16877637
     atom   12 type  1   force =     0.01714969   -0.01724363   33.18008860
     atom   13 type  1   force =     0.00045806   -0.02427828   33.12246041
     atom   14 type  1   force =     0.01910485   -0.03563289   33.13928690
     atom   15 type  1   force =    -0.00708055   -0.02512963   33.13690148
     atom   16 type  1   force =    -0.00468716    0.06990769   33.13930511
     atom   17 type  1   force =     0.00443352    0.01597021   33.15592283
     atom   18 type  1   force =     0.00782854    0.03085398   33.15456216
     atom   19 type  1   force =    -0.04479359    0.01167393  -28.74779554
     atom   20 type  1   force =     0.20563612    0.06743395  -28.73535280
     atom   21 type  1   force =    -0.13943075    0.05084103  -28.59331846
     atom   22 type  1   force =     0.06047643   -0.03012006  -28.92869606
     atom   23 type  1   force =     0.01523406   -0.25468503  -28.90517348
     atom   24 type  1   force =    -0.08463434   -0.06604619  -28.83505876
     atom   25 type  1   force =    -0.06156690    0.04755660  -28.70786260
     atom   26 type  1   force =     0.04949800    0.00912851  -28.78043368
     atom   27 type  1   force =     0.01541597    0.14238858  -28.72414951
     atom   28 type  1   force =    -0.14954134    0.08790938  -90.78786337
     atom   29 type  1   force =     0.78637174    0.78873787  -89.63319212
     atom   30 type  1   force =    -0.67522440    1.09901968  -89.10995040
     atom   31 type  1   force =     0.78082938   -0.07315989  -90.18371438
     atom   32 type  1   force =     0.52481894   -0.63250669  -86.28922608
     atom   33 type  1   force =    -1.19594178   -0.11370668  -89.48931793
     atom   34 type  1   force =     0.33330746   -0.56340172  -90.35966839
     atom   35 type  1   force =    -0.26257995   -0.87370275  -90.14418806
     atom   36 type  1   force =    -0.08794544    0.16138951  -90.90762503
     atom   37 type  2   force =     1.63975125   -0.53730919  -60.56306770
     atom   38 type  3   force =    -2.93123689   -2.00859012  -10.51430247
     atom   39 type  3   force =    -1.01259474    3.44733332   -9.90091243
     The core correction contribution to forces
     atom    1 type  1   force =     0.00001884   -0.00003461    0.01725225
     atom    2 type  1   force =     0.00000321   -0.00000991    0.01727691
     atom    3 type  1   force =    -0.00000473    0.00000573    0.01726938
     atom    4 type  1   force =    -0.00000373    0.00001681    0.01726930
     atom    5 type  1   force =    -0.00000371    0.00000529    0.01718689
     atom    6 type  1   force =    -0.00001158    0.00000668    0.01726784
     atom    7 type  1   force =    -0.00002203    0.00000288    0.01726265
     atom    8 type  1   force =     0.00001699    0.00000388    0.01728547
     atom    9 type  1   force =    -0.00000402   -0.00000055    0.01721276
     atom   10 type  1   force =    -0.00026099   -0.00014249    0.00147205
     atom   11 type  1   force =     0.00005010    0.00001178    0.00147092
     atom   12 type  1   force =     0.00017942   -0.00011900    0.00153831
     atom   13 type  1   force =     0.00002522   -0.00007791    0.00135887
     atom   14 type  1   force =     0.00002916   -0.00011377    0.00138547
     atom   15 type  1   force =     0.00000540   -0.00009688    0.00147623
     atom   16 type  1   force =    -0.00003511    0.00043957    0.00141977
     atom   17 type  1   force =    -0.00001625    0.00004192    0.00155982
     atom   18 type  1   force =     0.00007626    0.00005691    0.00153086
     atom   19 type  1   force =     0.00003746   -0.00002579   -0.00204972
     atom   20 type  1   force =     0.00017839    0.00022853   -0.00201858
     atom   21 type  1   force =    -0.00007636    0.00009602   -0.00218541
     atom   22 type  1   force =    -0.00001627    0.00001045   -0.00198573
     atom   23 type  1   force =    -0.00008519   -0.00043082   -0.00177000
     atom   24 type  1   force =     0.00003439    0.00001947   -0.00196936
     atom   25 type  1   force =     0.00006969   -0.00002875   -0.00208123
     atom   26 type  1   force =     0.00001443    0.00001500   -0.00202520
     atom   27 type  1   force =    -0.00002854   -0.00001914   -0.00195529
     atom   28 type  1   force =    -0.00002599   -0.00004398   -0.01639079
     atom   29 type  1   force =    -0.00012563   -0.00057422   -0.01644502
     atom   30 type  1   force =     0.00004698   -0.00051473   -0.01581371
     atom   31 type  1   force =    -0.00056296    0.00010605   -0.01677515
     atom   32 type  1   force =     0.00075283   -0.00049492   -0.01167156
     atom   33 type  1   force =     0.00046149    0.00023514   -0.01615187
     atom   34 type  1   force =    -0.00025496    0.00044385   -0.01667280
     atom   35 type  1   force =     0.00028547    0.00025224   -0.01641349
     atom   36 type  1   force =    -0.00005408    0.00003176   -0.01645670
     atom   37 type  2   force =    -0.02108331    0.00697976   -0.00000319
     atom   38 type  3   force =     0.00000000    0.00000000    0.00000000
     atom   39 type  3   force =     0.00000000    0.00000000    0.00000000
     The Hubbard contrib.    to forces
     atom    1 type  1   force =     0.00000000    0.00000000    0.00000000
     atom    2 type  1   force =     0.00000000    0.00000000    0.00000000
     atom    3 type  1   force =     0.00000000    0.00000000    0.00000000
     atom    4 type  1   force =     0.00000000    0.00000000    0.00000000
     atom    5 type  1   force =     0.00000000    0.00000000    0.00000000
     atom    6 type  1   force =     0.00000000    0.00000000    0.00000000
     atom    7 type  1   force =     0.00000000    0.00000000    0.00000000
     atom    8 type  1   force =     0.00000000    0.00000000    0.00000000
     atom    9 type  1   force =     0.00000000    0.00000000    0.00000000
     atom   10 type  1   force =     0.00000000    0.00000000    0.00000000
     atom   11 type  1   force =     0.00000000    0.00000000    0.00000000
     atom   12 type  1   force =     0.00000000    0.00000000    0.00000000
     atom   13 type  1   force =     0.00000000    0.00000000    0.00000000
     atom   14 type  1   force =     0.00000000    0.00000000    0.00000000
     atom   15 type  1   force =     0.00000000    0.00000000    0.00000000
     atom   16 type  1   force =     0.00000000    0.00000000    0.00000000
     atom   17 type  1   force =     0.00000000    0.00000000    0.00000000
     atom   18 type  1   force =     0.00000000    0.00000000    0.00000000
     atom   19 type  1   force =     0.00000000    0.00000000    0.00000000
     atom   20 type  1   force =     0.00000000    0.00000000    0.00000000
     atom   21 type  1   force =     0.00000000    0.00000000    0.00000000
     atom   22 type  1   force =     0.00000000    0.00000000    0.00000000
     atom   23 type  1   force =     0.00000000    0.00000000    0.00000000
     atom   24 type  1   force =     0.00000000    0.00000000    0.00000000
     atom   25 type  1   force =     0.00000000    0.00000000    0.00000000
     atom   26 type  1   force =     0.00000000    0.00000000    0.00000000
     atom   27 type  1   force =     0.00000000    0.00000000    0.00000000
     atom   28 type  1   force =     0.00000000    0.00000000    0.00000000
     atom   29 type  1   force =     0.00000000    0.00000000    0.00000000
     atom   30 type  1   force =     0.00000000    0.00000000    0.00000000
     atom   31 type  1   force =     0.00000000    0.00000000    0.00000000
     atom   32 type  1   force =     0.00000000    0.00000000    0.00000000
     atom   33 type  1   force =     0.00000000    0.00000000    0.00000000
     atom   34 type  1   force =     0.00000000    0.00000000    0.00000000
     atom   35 type  1   force =     0.00000000    0.00000000    0.00000000
     atom   36 type  1   force =     0.00000000    0.00000000    0.00000000
     atom   37 type  2   force =     0.00000000    0.00000000    0.00000000
     atom   38 type  3   force =     0.00000000    0.00000000    0.00000000
     atom   39 type  3   force =     0.00000000    0.00000000    0.00000000
     The SCF correction term to forces
     atom    1 type  1   force =     0.00000000    0.00000000   -0.00000000
     atom    2 type  1   force =     0.00000000   -0.00000000   -0.00000000
     atom    3 type  1   force =    -0.00000000   -0.00000000   -0.00000000
     atom    4 type  1   force =    -0.00000000    0.00000000   -0.00000000
     atom    5 type  1   force =     0.00000000   -0.00000000   -0.00000000
     atom    6 type  1   force =     0.00000000    0.00000000   -0.00000000
     atom    7 type  1   force =    -0.00000000    0.00000000   -0.00000000
     atom    8 type  1   force =     0.00000000    0.00000000   -0.00000000
     atom    9 type  1   force =    -0.00000000   -0.00000000   -0.00000000
     atom   10 type  1   force =    -0.00000000    0.00000000   -0.00000000
     atom   11 type  1   force =    -0.00000000   -0.00000000   -0.00000000
     atom   12 type  1   force =     0.00000000    0.00000000   -0.00000000
     atom   13 type  1   force =    -0.00000000   -0.00000000   -0.00000000
     atom   14 type  1   force =     0.00000000    0.00000000   -0.00000000
     atom   15 type  1   force =     0.00000000    0.00000000   -0.00000000
     atom   16 type  1   force =     0.00000000    0.00000000   -0.00000000
     atom   17 type  1   force =     0.00000000   -0.00000000   -0.00000000
     atom   18 type  1   force =    -0.00000000   -0.00000000   -0.00000000
     atom   19 type  1   force =     0.00000932    0.00001296    0.00003796
     atom   20 type  1   force =    -0.00002629    0.00000702    0.00003593
     atom   21 type  1   force =     0.00001674    0.00000251    0.00004000
     atom   22 type  1   force =    -0.00001116   -0.00001853    0.00003444
     atom   23 type  1   force =    -0.00000740    0.00000544    0.00004551
     atom   24 type  1   force =     0.00001847   -0.00000863    0.00003422
     atom   25 type  1   force =     0.00000756    0.00000208    0.00004478
     atom   26 type  1   force =    -0.00000396    0.00000949    0.00004015
     atom   27 type  1   force =    -0.00000377   -0.00001222    0.00003154
     atom   28 type  1   force =     0.00000387    0.00000655    0.00005608
     atom   29 type  1   force =    -0.00001638    0.00000077    0.00005994
     atom   30 type  1   force =     0.00001266   -0.00000302    0.00006092
     atom   31 type  1   force =    -0.00001054    0.00000225    0.00005041
     atom   32 type  1   force =    -0.00000645    0.00000804    0.00004221
     atom   33 type  1   force =     0.00001652    0.00000207    0.00005384
     atom   34 type  1   force =    -0.00000419   -0.00000266    0.00005928
     atom   35 type  1   force =     0.00000166    0.00000359    0.00006174
     atom   36 type  1   force =     0.00000231   -0.00001738    0.00006051
     atom   37 type  2   force =    -0.00002063    0.00001037    0.00002499
     atom   38 type  3   force =     0.00000367    0.00000402    0.00000449
     atom   39 type  3   force =     0.00000058   -0.00000559    0.00000273

     Total force =     0.003320     Total SCF correction =     0.000217

     Writing all to output data dir ./pwscf.save/

     init_run     :     10.72s CPU     11.01s WALL (       1 calls)
     electrons    :    579.08s CPU    597.92s WALL (       1 calls)
     forces       :      5.04s CPU      5.90s WALL (       1 calls)

     Called by init_run:
     wfcinit      :      5.79s CPU      5.95s WALL (       1 calls)
     potinit      :      3.20s CPU      3.27s WALL (       1 calls)
     hinit0       :      1.14s CPU      1.15s WALL (       1 calls)

     Called by electrons:
     c_bands      :    488.38s CPU    499.38s WALL (      24 calls)
     sum_band     :     51.57s CPU     53.76s WALL (      24 calls)
     v_of_rho     :     14.14s CPU     17.24s WALL (      24 calls)
     newd         :      5.56s CPU      7.51s WALL (      24 calls)
     PAW_pot      :      5.44s CPU      5.59s WALL (      24 calls)
     mix_rho      :     15.77s CPU     15.96s WALL (      24 calls)
     vdW_kernel   :      1.68s CPU      1.69s WALL (       1 calls)

     Called by c_bands:
     init_us_2    :      3.30s CPU      3.44s WALL (     650 calls)
     init_us_2:cp :      3.30s CPU      3.44s WALL (     650 calls)
     cegterg      :    478.84s CPU    489.28s WALL (     312 calls)

     Called by *egterg:
     cdiaghg      :     94.73s CPU     95.87s WALL (    1616 calls)
     h_psi        :    229.91s CPU    235.41s WALL (    1642 calls)
     s_psi        :     23.78s CPU     24.40s WALL (    1642 calls)
     g_psi        :      1.33s CPU      1.43s WALL (    1317 calls)

     Called by h_psi:
     h_psi:calbec :     37.14s CPU     38.31s WALL (    1642 calls)
     vloc_psi     :    165.36s CPU    169.00s WALL (    1642 calls)
     add_vuspsi   :     24.50s CPU     25.12s WALL (    1642 calls)

     General routines
     calbec       :     50.82s CPU     52.36s WALL (    2006 calls)
     fft          :     12.20s CPU     14.78s WALL (    1572 calls)
     ffts         :      7.82s CPU      7.91s WALL (    6700 calls)
     fftw         :    167.43s CPU    170.74s WALL (  405562 calls)
     interpolate  :      0.64s CPU      0.70s WALL (      24 calls)

     Parallel routines

     PWSCF        :   9m59.17s CPU  10m25.83s WALL


   This run was terminated on:   9:37:40   2Mar2025            

=------------------------------------------------------------------------------=
   JOB DONE.
=------------------------------------------------------------------------------=
