  37  37   0   0
  0.4190497E+02  0.8468310E-09  0.8468310E-09  0.2496566E-08  0.5000000E-15
  1.000000000000000E-004
  CAR 
 unknown system                          
      8.62382867     -9.90953623  301     -0.07377773      1.00000000
     -9.910  0.0000E+00  0.0000E+00
     -9.848  0.0000E+00  0.0000E+00
     -9.786  0.0000E+00  0.0000E+00
     -9.724 -0.4470E-28 -0.2762E-29
     -9.662 -0.6634E-24 -0.4098E-25
     -9.601 -0.4558E-20 -0.2816E-21
     -9.539 -0.1448E-16 -0.8948E-18
     -9.477 -0.2058E-13 -0.1272E-14
     -9.415 -0.1378E-10 -0.8526E-12
     -9.354 -0.4218E-08 -0.2614E-09
     -9.292 -0.5852E-06 -0.3641E-07
     -9.230 -0.3626E-04 -0.2277E-05
     -9.168 -0.9731E-03 -0.6239E-04
     -9.106 -0.1047E-01 -0.7094E-03
     -9.045 -0.3364E-01 -0.2788E-02
     -8.983  0.5253E-01  0.4576E-03
     -8.921  0.3310E+00  0.2091E-01
     -8.859  0.6206E+00  0.5924E-01
     -8.798  0.2097E+01  0.1888E+00
     -8.736  0.3816E+01  0.4245E+00
     -8.674  0.2191E+01  0.5599E+00
     -8.612 -0.4662E-01  0.5570E+00
     -8.550  0.2706E+00  0.5737E+00
     -8.489  0.2690E+01  0.7399E+00
     -8.427  0.3837E+01  0.9770E+00
     -8.365  0.3652E+01  0.1203E+01
     -8.303  0.3696E+01  0.1431E+01
     -8.242  0.1643E+01  0.1532E+01
     -8.180 -0.1207E+00  0.1525E+01
     -8.118 -0.3721E+00  0.1502E+01
     -8.056  0.5418E+00  0.1535E+01
     -7.994  0.3349E+01  0.1742E+01
     -7.933  0.5665E+01  0.2092E+01
     -7.871  0.5132E+01  0.2409E+01
     -7.809  0.4434E+01  0.2683E+01
     -7.747  0.6632E+01  0.3093E+01
     -7.686  0.6457E+01  0.3492E+01
     -7.624  0.4264E+01  0.3755E+01
     -7.562  0.3034E+01  0.3943E+01
     -7.500  0.4165E+01  0.4200E+01
     -7.438  0.7329E+01  0.4653E+01
     -7.377  0.4430E+01  0.4927E+01
     -7.315  0.3840E+00  0.4950E+01
     -7.253  0.4638E+01  0.5237E+01
     -7.191  0.1174E+02  0.5962E+01
     -7.130  0.1032E+02  0.6600E+01
     -7.068  0.4628E+01  0.6885E+01
     -7.006  0.1152E+01  0.6957E+01
     -6.944  0.3298E+01  0.7160E+01
     -6.882  0.9169E+01  0.7727E+01
     -6.821  0.8611E+01  0.8259E+01
     -6.759  0.2738E+01  0.8428E+01
     -6.697  0.1856E+01  0.8543E+01
     -6.635  0.6359E+01  0.8935E+01
     -6.574  0.1348E+02  0.9768E+01
     -6.512  0.1575E+02  0.1074E+02
     -6.450  0.1271E+02  0.1153E+02
     -6.388  0.1071E+02  0.1219E+02
     -6.326  0.7782E+01  0.1267E+02
     -6.265  0.8384E+01  0.1319E+02
     -6.203  0.1714E+02  0.1425E+02
     -6.141  0.3054E+02  0.1613E+02
     -6.079  0.3742E+02  0.1844E+02
     -6.018  0.3168E+02  0.2040E+02
     -5.956  0.2930E+02  0.2221E+02
     -5.894  0.3236E+02  0.2421E+02
     -5.832  0.3619E+02  0.2645E+02
     -5.770  0.3177E+02  0.2841E+02
     -5.709  0.2602E+02  0.3002E+02
     -5.647  0.3162E+02  0.3197E+02
     -5.585  0.3899E+02  0.3438E+02
     -5.523  0.4211E+02  0.3698E+02
     -5.462  0.4973E+02  0.4005E+02
     -5.400  0.6267E+02  0.4392E+02
     -5.338  0.6442E+02  0.4790E+02
     -5.276  0.5482E+02  0.5129E+02
     -5.214  0.4687E+02  0.5419E+02
     -5.153  0.4391E+02  0.5690E+02
     -5.091  0.4876E+02  0.5991E+02
     -5.029  0.6776E+02  0.6410E+02
     -4.967  0.6468E+02  0.6809E+02
     -4.906  0.3461E+02  0.7023E+02
     -4.844  0.2258E+02  0.7163E+02
     -4.782  0.3768E+02  0.7395E+02
     -4.720  0.4058E+02  0.7646E+02
     -4.658  0.2362E+02  0.7792E+02
     -4.597  0.2324E+02  0.7935E+02
     -4.535  0.4033E+02  0.8185E+02
     -4.473  0.5638E+02  0.8533E+02
     -4.411  0.6207E+02  0.8916E+02
     -4.350  0.5478E+02  0.9255E+02
     -4.288  0.4538E+02  0.9535E+02
     -4.226  0.3903E+02  0.9776E+02
     -4.164  0.4340E+02  0.1004E+03
     -4.102  0.6036E+02  0.1042E+03
     -4.041  0.6110E+02  0.1079E+03
     -3.979  0.5060E+02  0.1111E+03
     -3.917  0.4644E+02  0.1139E+03
     -3.855  0.4326E+02  0.1166E+03
     -3.794  0.3705E+02  0.1189E+03
     -3.732  0.4140E+02  0.1215E+03
     -3.670  0.5928E+02  0.1251E+03
     -3.608  0.6228E+02  0.1290E+03
     -3.546  0.5414E+02  0.1323E+03
     -3.485  0.5480E+02  0.1357E+03
     -3.423  0.6802E+02  0.1399E+03
     -3.361  0.7692E+02  0.1447E+03
     -3.299  0.7133E+02  0.1491E+03
     -3.238  0.6494E+02  0.1531E+03
     -3.176  0.7002E+02  0.1574E+03
     -3.114  0.8598E+02  0.1627E+03
     -3.052  0.8690E+02  0.1681E+03
     -2.990  0.7942E+02  0.1730E+03
     -2.929  0.7964E+02  0.1779E+03
     -2.867  0.7437E+02  0.1825E+03
     -2.805  0.8348E+02  0.1877E+03
     -2.743  0.1032E+03  0.1940E+03
     -2.682  0.1043E+03  0.2005E+03
     -2.620  0.8508E+02  0.2057E+03
     -2.558  0.6336E+02  0.2096E+03
     -2.496  0.6294E+02  0.2135E+03
     -2.434  0.6177E+02  0.2174E+03
     -2.373  0.4425E+02  0.2201E+03
     -2.311  0.2967E+02  0.2219E+03
     -2.249  0.2378E+02  0.2234E+03
     -2.187  0.2773E+02  0.2251E+03
     -2.126  0.4291E+02  0.2277E+03
     -2.064  0.6425E+02  0.2317E+03
     -2.002  0.8638E+02  0.2371E+03
     -1.940  0.9286E+02  0.2428E+03
     -1.878  0.8298E+02  0.2479E+03
     -1.817  0.6280E+02  0.2518E+03
     -1.755  0.4389E+02  0.2545E+03
     -1.693  0.4059E+02  0.2570E+03
     -1.631  0.4764E+02  0.2600E+03
     -1.570  0.5888E+02  0.2636E+03
     -1.508  0.5822E+02  0.2672E+03
     -1.446  0.5070E+02  0.2703E+03
     -1.384  0.5703E+02  0.2739E+03
     -1.322  0.6170E+02  0.2777E+03
     -1.261  0.5146E+02  0.2808E+03
     -1.199  0.5381E+02  0.2842E+03
     -1.137  0.7405E+02  0.2887E+03
     -1.075  0.8512E+02  0.2940E+03
     -1.014  0.8561E+02  0.2993E+03
     -0.952  0.7244E+02  0.3038E+03
     -0.890  0.5803E+02  0.3073E+03
     -0.828  0.5679E+02  0.3109E+03
     -0.766  0.5186E+02  0.3141E+03
     -0.705  0.4295E+02  0.3167E+03
     -0.643  0.5029E+02  0.3198E+03
     -0.581  0.6266E+02  0.3237E+03
     -0.519  0.5985E+02  0.3274E+03
     -0.458  0.5843E+02  0.3310E+03
     -0.396  0.6826E+02  0.3352E+03
     -0.334  0.8844E+02  0.3407E+03
     -0.272  0.9649E+02  0.3466E+03
     -0.210  0.7258E+02  0.3511E+03
     -0.149  0.5484E+02  0.3545E+03
     -0.087  0.8337E+02  0.3597E+03
     -0.025  0.9815E+02  0.3657E+03
      0.037  0.5816E+02  0.3693E+03
      0.098  0.3210E+02  0.3713E+03
      0.160  0.5014E+02  0.3744E+03
      0.222  0.5675E+02  0.3779E+03
      0.284  0.4441E+02  0.3806E+03
      0.346  0.3914E+02  0.3831E+03
      0.407  0.2807E+02  0.3848E+03
      0.469  0.1319E+02  0.3856E+03
      0.531  0.3237E+01  0.3858E+03
      0.593  0.6275E+00  0.3859E+03
      0.654  0.4258E+01  0.3861E+03
      0.716  0.1156E+02  0.3868E+03
      0.778  0.1731E+02  0.3879E+03
      0.840  0.1338E+02  0.3887E+03
      0.902  0.7810E+01  0.3892E+03
      0.963  0.1011E+02  0.3898E+03
      1.025  0.9948E+01  0.3904E+03
      1.087  0.2919E+01  0.3906E+03
      1.149  0.7916E+00  0.3907E+03
      1.210  0.8521E+01  0.3912E+03
      1.272  0.1543E+02  0.3922E+03
      1.334  0.1469E+02  0.3931E+03
      1.396  0.1138E+02  0.3938E+03
      1.458  0.1437E+02  0.3947E+03
      1.519  0.2614E+02  0.3963E+03
      1.581  0.2678E+02  0.3979E+03
      1.643  0.1819E+02  0.3990E+03
      1.705  0.1484E+02  0.4000E+03
      1.766  0.1036E+02  0.4006E+03
      1.828  0.2918E+01  0.4008E+03
      1.890  0.1904E+01  0.4009E+03
      1.952  0.3277E+01  0.4011E+03
      2.014  0.4179E+01  0.4014E+03
      2.075  0.6613E+01  0.4018E+03
      2.137  0.6543E+01  0.4022E+03
      2.199  0.9075E+01  0.4027E+03
      2.261  0.1192E+02  0.4035E+03
      2.322  0.1091E+02  0.4041E+03
      2.384  0.1385E+02  0.4050E+03
      2.446  0.2052E+02  0.4063E+03
      2.508  0.2112E+02  0.4076E+03
      2.570  0.1260E+02  0.4084E+03
      2.631  0.6774E+01  0.4088E+03
      2.693  0.6104E+01  0.4091E+03
      2.755  0.9396E+01  0.4097E+03
      2.817  0.1779E+02  0.4108E+03
      2.878  0.1994E+02  0.4121E+03
      2.940  0.1424E+02  0.4129E+03
      3.002  0.8351E+01  0.4135E+03
      3.064  0.1092E+02  0.4141E+03
      3.126  0.1396E+02  0.4150E+03
      3.187  0.1072E+02  0.4157E+03
      3.249  0.9917E+01  0.4163E+03
      3.311  0.8827E+01  0.4168E+03
      3.373  0.3631E+01  0.4170E+03
      3.434 -0.5235E+00  0.4170E+03
      3.496  0.8238E+00  0.4171E+03
      3.558  0.9812E+01  0.4177E+03
      3.620  0.2251E+02  0.4191E+03
      3.682  0.2849E+02  0.4208E+03
      3.743  0.2217E+02  0.4222E+03
      3.805  0.1104E+02  0.4229E+03
      3.867  0.4723E+01  0.4232E+03
      3.929  0.3241E+01  0.4234E+03
      3.990  0.3397E+01  0.4236E+03
      4.052  0.2831E+01  0.4237E+03
      4.114  0.5053E+01  0.4241E+03
      4.176  0.9579E+01  0.4246E+03
      4.238  0.9517E+01  0.4252E+03
      4.299  0.6587E+01  0.4256E+03
      4.361  0.1142E+02  0.4263E+03
      4.423  0.2328E+02  0.4278E+03
      4.485  0.2146E+02  0.4291E+03
      4.546  0.8300E+01  0.4296E+03
      4.608  0.6154E+01  0.4300E+03
      4.670  0.1253E+02  0.4308E+03
      4.732  0.1619E+02  0.4318E+03
      4.794  0.1360E+02  0.4326E+03
      4.855  0.8116E+01  0.4331E+03
      4.917  0.5446E+01  0.4335E+03
      4.979  0.8805E+01  0.4340E+03
      5.041  0.1022E+02  0.4346E+03
      5.102  0.4474E+01  0.4349E+03
      5.164  0.4170E+01  0.4352E+03
      5.226  0.1154E+02  0.4359E+03
      5.288  0.1482E+02  0.4368E+03
      5.350  0.1192E+02  0.4375E+03
      5.411  0.9730E+01  0.4381E+03
      5.473  0.1572E+02  0.4391E+03
      5.535  0.2416E+02  0.4406E+03
      5.597  0.2816E+02  0.4423E+03
      5.658  0.2507E+02  0.4439E+03
      5.720  0.2008E+02  0.4451E+03
      5.782  0.1897E+02  0.4463E+03
      5.844  0.1819E+02  0.4474E+03
      5.906  0.1604E+02  0.4484E+03
      5.967  0.2333E+02  0.4498E+03
      6.029  0.3508E+02  0.4520E+03
      6.091  0.2821E+02  0.4538E+03
      6.153  0.1197E+02  0.4545E+03
      6.214  0.1153E+02  0.4552E+03
      6.276  0.2251E+02  0.4566E+03
      6.338  0.3072E+02  0.4585E+03
      6.400  0.2587E+02  0.4601E+03
      6.462  0.1750E+02  0.4612E+03
      6.523  0.1937E+02  0.4624E+03
      6.585  0.2368E+02  0.4638E+03
      6.647  0.2400E+02  0.4653E+03
      6.709  0.2471E+02  0.4668E+03
      6.770  0.2560E+02  0.4684E+03
      6.832  0.2120E+02  0.4697E+03
      6.894  0.1634E+02  0.4707E+03
      6.956  0.1282E+02  0.4715E+03
      7.018  0.1017E+02  0.4722E+03
      7.079  0.1720E+02  0.4732E+03
      7.141  0.2693E+02  0.4749E+03
      7.203  0.2488E+02  0.4764E+03
      7.265  0.1738E+02  0.4775E+03
      7.326  0.1118E+02  0.4782E+03
      7.388  0.5340E+01  0.4785E+03
      7.450  0.2980E+01  0.4787E+03
      7.512  0.3930E+01  0.4790E+03
      7.574  0.5914E+01  0.4793E+03
      7.635  0.7191E+01  0.4798E+03
      7.697  0.3912E+01  0.4800E+03
      7.759  0.3115E+00  0.4800E+03
      7.821 -0.3009E+00  0.4800E+03
      7.882 -0.7667E-01  0.4800E+03
      7.944 -0.6516E-02  0.4800E+03
      8.006 -0.2311E-03  0.4800E+03
      8.068 -0.3621E-05  0.4800E+03
      8.130 -0.2563E-07  0.4800E+03
      8.191 -0.8281E-10  0.4800E+03
      8.253 -0.1242E-12  0.4800E+03
      8.315  0.0000E+00  0.4800E+03
      8.377  0.0000E+00  0.4800E+03
      8.438  0.0000E+00  0.4800E+03
      8.500  0.0000E+00  0.4800E+03
      8.562  0.0000E+00  0.4800E+03
      8.624  0.0000E+00  0.4800E+03
