   37   37    1    1
  0.4190497E+02  0.8468310E-09  0.8468310E-09  0.2496566E-08  0.5000000E-15
  1.000000000000000E-004
  CAR 
 unknown system                          
    361     13    240
 
  0.1276756E-14  0.1276756E-14  0.1276756E-14  0.4000000E-01
      1         -8.909536   1.000000
      2         -7.879455   1.000000
      3         -7.161667   1.000000
      4         -6.502121   1.000000
      5         -6.466295   1.000000
      6         -6.460513   1.000000
      7         -6.454348   1.000000
      8         -6.436103   1.000000
      9         -6.433479   1.000000
     10         -6.429630   1.000000
     11         -6.143349   1.000000
     12         -5.916344   1.000000
     13         -5.912461   1.000000
     14         -5.908029   1.000000
     15         -5.907084   1.000000
     16         -5.902582   1.000000
     17         -5.820420   1.000000
     18         -5.475729   1.000000
     19         -5.473846   1.000000
     20         -5.450467   1.000000
     21         -5.449551   1.000000
     22         -5.438128   1.000000
     23         -5.353303   1.000000
     24         -5.228996   1.000000
     25         -5.228533   1.000000
     26         -5.221268   1.000000
     27         -5.219286   1.000000
     28         -5.218518   1.000000
     29         -5.121950   1.000000
     30         -5.041904   1.000000
     31         -5.036214   1.000000
     32         -5.023940   1.000000
     33         -5.020556   1.000000
     34         -5.008170   1.000000
     35         -4.968325   1.000000
     36         -4.956804   1.000000
     37         -4.952852   1.000000
     38         -4.951557   1.000000
     39         -4.914289   1.000000
     40         -4.913671   1.000000
     41         -4.563204   1.000000
     42         -4.380974   1.000000
     43         -4.378672   1.000000
     44         -4.350100   1.000000
     45         -4.335890   1.000000
     46         -4.321284   1.000000
     47         -4.318370   1.000000
     48         -4.294886   1.000000
     49         -4.292534   1.000000
     50         -4.285650   1.000000
     51         -4.133516   1.000000
     52         -4.133246   1.000000
     53         -4.040065   1.000000
     54         -4.034019   1.000000
     55         -4.033888   1.000000
     56         -3.582466   1.000000
     57         -3.581955   1.000000
     58         -3.570805   1.000000
     59         -3.558740   1.000000
     60         -3.556868   1.000000
     61         -3.502262   1.000000
     62         -3.463812   1.000000
     63         -3.384955   1.000000
     64         -3.383692   1.000000
     65         -3.370845   1.000000
     66         -3.370562   1.000000
     67         -3.363947   1.000000
     68         -3.354499   1.000000
     69         -3.346354   1.000000
     70         -3.313338   1.000000
     71         -3.310768   1.000000
     72         -3.307422   1.000000
     73         -3.302361   1.000000
     74         -3.301412   1.000000
     75         -3.265873   1.000000
     76         -3.258030   1.000000
     77         -3.258007   1.000000
     78         -3.151067   1.000000
     79         -3.150606   1.000000
     80         -3.147742   1.000000
     81         -3.142278   1.000000
     82         -3.138231   1.000000
     83         -3.135154   1.000000
     84         -2.941278   1.000000
     85         -2.940827   1.000000
     86         -2.934370   1.000000
     87         -2.920984   1.000000
     88         -2.916996   1.000000
     89         -2.902383   1.000000
     90         -2.899512   1.000000
     91         -2.893609   1.000000
     92         -2.836072   1.000000
     93         -2.835978   1.000000
     94         -2.768395   1.000000
     95         -2.755657   1.000000
     96         -2.755351   1.000000
     97         -2.723898   1.000000
     98         -2.723441   1.000000
     99         -2.693288   1.000000
    100         -2.688249   1.000000
    101         -2.628016   1.000000
    102         -2.520597   1.000000
    103         -2.518598   1.000000
    104         -2.513433   1.000000
    105         -2.503971   1.000000
    106         -2.502263   1.000000
    107         -2.499219   1.000000
    108         -2.278316   1.000000
    109         -2.013795   1.000000
    110         -2.013358   1.000000
    111         -1.997996   1.000000
    112         -1.986672   1.000000
    113         -1.986569   1.000000
    114         -1.978310   1.000000
    115         -1.977296   1.000000
    116         -1.973645   1.000000
    117         -1.961788   1.000000
    118         -1.960095   1.000000
    119         -1.947237   1.000000
    120         -1.865558   1.000000
    121         -1.865141   1.000000
    122         -1.805234   1.000000
    123         -1.734498   1.000000
    124         -1.733314   1.000000
    125         -1.726899   1.000000
    126         -1.726193   1.000000
    127         -1.709017   1.000000
    128         -1.599975   1.000000
    129         -1.589081   1.000000
    130         -1.537505   1.000000
    131         -1.537383   1.000000
    132         -1.510942   1.000000
    133         -1.500635   1.000000
    134         -1.283754   1.000000
    135         -1.280303   1.000000
    136         -1.272327   1.000000
    137         -1.255933   1.000000
    138         -1.250239   1.000000
    139         -1.246459   1.000000
    140         -1.178869   1.000000
    141         -1.178244   1.000000
    142         -1.045210   1.000000
    143         -1.043939   1.000000
    144         -1.028450   1.000000
    145         -1.026083   1.000000
    146         -1.023938   1.000000
    147         -1.021568   1.000000
    148         -0.890298   1.000000
    149         -0.889534   1.000000
    150         -0.857410   1.000000
    151         -0.856990   1.000000
    152         -0.829253   1.000000
    153         -0.827662   1.000000
    154         -0.822529   1.000000
    155         -0.808905   1.000000
    156         -0.807846   1.000000
    157         -0.803575   1.000000
    158         -0.802822   1.000000
    159         -0.796842   1.000000
    160         -0.732278   1.000000
    161         -0.715404   1.000000
    162         -0.712834   1.000000
    163         -0.673049   1.000000
    164         -0.671909   1.000000
    165         -0.650407   1.000000
    166         -0.648364   1.000000
    167         -0.643733   1.000000
    168         -0.605608   1.000000
    169         -0.594757   1.000000
    170         -0.585709   1.000000
    171         -0.550967   1.000000
    172         -0.547783   1.000000
    173         -0.543433   1.000000
    174         -0.538943   1.000000
    175         -0.535495   1.000000
    176         -0.455529   1.000000
    177         -0.445087   1.000001
    178         -0.442673   1.000001
    179         -0.436267   1.000002
    180         -0.434375   1.000002
    181         -0.431896   1.000003
    182         -0.375111   1.000087
    183         -0.341111   1.000516
    184         -0.339741   1.000551
    185         -0.320466   1.001341
    186         -0.319030   1.001428
    187         -0.312736   1.001870
    188         -0.305494   1.002520
    189         -0.112410   0.801453
    190         -0.106965   0.764443
    191         -0.015892   0.089699
    192         -0.013885   0.080467
    193         -0.011825   0.071415
    194          0.007226   0.007429
    195          0.007573   0.006576
    196          0.010531  -0.000265
    197          0.561945  -0.000000
    198          0.820195  -0.000000
    199          0.856013  -0.000000
    200          0.858101  -0.000000
    201          0.896414  -0.000000
    202          0.898254  -0.000000
    203          0.902278  -0.000000
    204          2.918992   0.000000
    205          3.135654   0.000000
    206          3.140158   0.000000
    207          3.211737   0.000000
    208          3.212024   0.000000
    209          3.214443   0.000000
    210          4.713621   0.000000
    211          4.714217   0.000000
    212          4.765195   0.000000
    213          4.818960   0.000000
    214          4.819292   0.000000
    215          4.823162   0.000000
    216          4.925423   0.000000
    217          5.093879   0.000000
    218          5.337228   0.000000
    219          5.438596   0.000000
    220          5.438753   0.000000
    221          5.795404   0.000000
    222          5.798406   0.000000
    223          5.850653   0.000000
    224          5.863485   0.000000
    225          5.868480   0.000000
    226          6.098927   0.000000
    227          6.365561   0.000000
    228          6.600087   0.000000
    229          6.601035   0.000000
    230          6.622432   0.000000
    231          6.810916   0.000000
    232          7.061641   0.000000
    233          7.144901   0.000000
    234          7.144960   0.000000
    235          7.159543   0.000000
    236          7.170197   0.000000
    237          7.171680   0.000000
    238          7.270624   0.000000
    239          7.271127   0.000000
    240          7.328250   0.000000
 
  0.2000000E+00  0.1278043E-14  0.1276756E-14  0.8000000E-01
      1         -8.762247   1.000000
      2         -7.771202   1.000000
      3         -7.106899   1.000000
      4         -6.924471   1.000000
      5         -6.562104   1.000000
      6         -6.548318   1.000000
      7         -6.359255   1.000000
      8         -6.266517   1.000000
      9         -6.219308   1.000000
     10         -6.213996   1.000000
     11         -6.120058   1.000000
     12         -6.001882   1.000000
     13         -5.954284   1.000000
     14         -5.844924   1.000000
     15         -5.839545   1.000000
     16         -5.828768   1.000000
     17         -5.752240   1.000000
     18         -5.534701   1.000000
     19         -5.420493   1.000000
     20         -5.418294   1.000000
     21         -5.411627   1.000000
     22         -5.375826   1.000000
     23         -5.339273   1.000000
     24         -5.304406   1.000000
     25         -5.278366   1.000000
     26         -5.239510   1.000000
     27         -5.217892   1.000000
     28         -5.213424   1.000000
     29         -5.141561   1.000000
     30         -5.115509   1.000000
     31         -5.108958   1.000000
     32         -5.036913   1.000000
     33         -5.021888   1.000000
     34         -5.011317   1.000000
     35         -5.008349   1.000000
     36         -4.858282   1.000000
     37         -4.816514   1.000000
     38         -4.778698   1.000000
     39         -4.773177   1.000000
     40         -4.753776   1.000000
     41         -4.568677   1.000000
     42         -4.496508   1.000000
     43         -4.491988   1.000000
     44         -4.442567   1.000000
     45         -4.415861   1.000000
     46         -4.402426   1.000000
     47         -4.389640   1.000000
     48         -4.291192   1.000000
     49         -4.214914   1.000000
     50         -4.150696   1.000000
     51         -4.125141   1.000000
     52         -4.112814   1.000000
     53         -4.067771   1.000000
     54         -4.046889   1.000000
     55         -3.980565   1.000000
     56         -3.829833   1.000000
     57         -3.734680   1.000000
     58         -3.728769   1.000000
     59         -3.681668   1.000000
     60         -3.672784   1.000000
     61         -3.638902   1.000000
     62         -3.583586   1.000000
     63         -3.565483   1.000000
     64         -3.558638   1.000000
     65         -3.527164   1.000000
     66         -3.525449   1.000000
     67         -3.454452   1.000000
     68         -3.436913   1.000000
     69         -3.399592   1.000000
     70         -3.373441   1.000000
     71         -3.363093   1.000000
     72         -3.314580   1.000000
     73         -3.269195   1.000000
     74         -3.262330   1.000000
     75         -3.258420   1.000000
     76         -3.179689   1.000000
     77         -3.175704   1.000000
     78         -3.161162   1.000000
     79         -3.129765   1.000000
     80         -3.090022   1.000000
     81         -3.075300   1.000000
     82         -3.066576   1.000000
     83         -3.030568   1.000000
     84         -3.019066   1.000000
     85         -2.965969   1.000000
     86         -2.954118   1.000000
     87         -2.937655   1.000000
     88         -2.936243   1.000000
     89         -2.918830   1.000000
     90         -2.910033   1.000000
     91         -2.858751   1.000000
     92         -2.838398   1.000000
     93         -2.795537   1.000000
     94         -2.788361   1.000000
     95         -2.774171   1.000000
     96         -2.766673   1.000000
     97         -2.758127   1.000000
     98         -2.733855   1.000000
     99         -2.697444   1.000000
    100         -2.689022   1.000000
    101         -2.614385   1.000000
    102         -2.566306   1.000000
    103         -2.557416   1.000000
    104         -2.522132   1.000000
    105         -2.512107   1.000000
    106         -2.501434   1.000000
    107         -2.495387   1.000000
    108         -2.491376   1.000000
    109         -2.447611   1.000000
    110         -2.438533   1.000000
    111         -2.428101   1.000000
    112         -2.416925   1.000000
    113         -2.185682   1.000000
    114         -2.075099   1.000000
    115         -2.027238   1.000000
    116         -2.006515   1.000000
    117         -1.992267   1.000000
    118         -1.989264   1.000000
    119         -1.984977   1.000000
    120         -1.942921   1.000000
    121         -1.936417   1.000000
    122         -1.893781   1.000000
    123         -1.808234   1.000000
    124         -1.779248   1.000000
    125         -1.704697   1.000000
    126         -1.653424   1.000000
    127         -1.651128   1.000000
    128         -1.598167   1.000000
    129         -1.587481   1.000000
    130         -1.578123   1.000000
    131         -1.543417   1.000000
    132         -1.532506   1.000000
    133         -1.529474   1.000000
    134         -1.446324   1.000000
    135         -1.399731   1.000000
    136         -1.395214   1.000000
    137         -1.383423   1.000000
    138         -1.377752   1.000000
    139         -1.227549   1.000000
    140         -1.203434   1.000000
    141         -1.166332   1.000000
    142         -1.164389   1.000000
    143         -1.149524   1.000000
    144         -1.146961   1.000000
    145         -1.124245   1.000000
    146         -1.056527   1.000000
    147         -1.034038   1.000000
    148         -1.006095   1.000000
    149         -0.989284   1.000000
    150         -0.980911   1.000000
    151         -0.933256   1.000000
    152         -0.921255   1.000000
    153         -0.907557   1.000000
    154         -0.899362   1.000000
    155         -0.811946   1.000000
    156         -0.795947   1.000000
    157         -0.768620   1.000000
    158         -0.763881   1.000000
    159         -0.722473   1.000000
    160         -0.672775   1.000000
    161         -0.655449   1.000000
    162         -0.611217   1.000000
    163         -0.607716   1.000000
    164         -0.592447   1.000000
    165         -0.562318   1.000000
    166         -0.542769   1.000000
    167         -0.481302   1.000000
    168         -0.476648   1.000000
    169         -0.412580   1.000009
    170         -0.406414   1.000013
    171         -0.387905   1.000041
    172         -0.385171   1.000049
    173         -0.358219   1.000217
    174         -0.351128   1.000313
    175         -0.347065   1.000384
    176         -0.335535   1.000674
    177         -0.328103   1.000952
    178         -0.271335   1.008644
    179         -0.268148   1.009548
    180         -0.126229   0.883263
    181         -0.122024   0.860314
    182         -0.102695   0.733745
    183         -0.085458   0.598101
    184         -0.069992   0.467988
    185         -0.067184   0.444334
    186         -0.038393   0.220317
    187         -0.019134   0.105469
    188         -0.004937   0.044237
    189          0.004297   0.015042
    190          0.083840  -0.024169
    191          0.101048  -0.016497
    192          0.129563  -0.007166
    193          0.189703  -0.000621
    194          0.292744  -0.000001
    195          0.302154  -0.000001
    196          0.313518  -0.000000
    197          0.358385  -0.000000
    198          0.706200  -0.000000
    199          0.745245  -0.000000
    200          1.270895  -0.000000
    201          1.459885  -0.000000
    202          1.480457  -0.000000
    203          1.598145  -0.000000
    204          2.409754  -0.000000
    205          2.842736   0.000000
    206          2.904544   0.000000
    207          3.574434   0.000000
    208          3.650944   0.000000
    209          3.670830   0.000000
    210          3.738686   0.000000
    211          3.975678   0.000000
    212          4.456482   0.000000
    213          4.607130   0.000000
    214          4.762916   0.000000
    215          4.973480   0.000000
    216          4.988570   0.000000
    217          5.020231   0.000000
    218          5.222734   0.000000
    219          5.341578   0.000000
    220          5.462083   0.000000
    221          5.646426   0.000000
    222          5.705903   0.000000
    223          5.861900   0.000000
    224          5.880228   0.000000
    225          6.067011   0.000000
    226          6.206926   0.000000
    227          6.234881   0.000000
    228          6.333767   0.000000
    229          6.350829   0.000000
    230          6.540234   0.000000
    231          6.697989   0.000000
    232          6.765630   0.000000
    233          6.797245   0.000000
    234          6.831079   0.000000
    235          6.906421   0.000000
    236          7.056934   0.000000
    237          7.253566   0.000000
    238          7.475471   0.000000
    239          7.583206   0.000000
    240          7.623829   0.000000
 
  0.2000000E+00  0.2000000E+00  0.1276756E-14  0.8000000E-01
      1         -8.762268   1.000000
      2         -7.771264   1.000000
      3         -7.105850   1.000000
      4         -6.927277   1.000000
      5         -6.560705   1.000000
      6         -6.547214   1.000000
      7         -6.359503   1.000000
      8         -6.268777   1.000000
      9         -6.217471   1.000000
     10         -6.213174   1.000000
     11         -6.119952   1.000000
     12         -6.000535   1.000000
     13         -5.956510   1.000000
     14         -5.843636   1.000000
     15         -5.840565   1.000000
     16         -5.830992   1.000000
     17         -5.751489   1.000000
     18         -5.533696   1.000000
     19         -5.419265   1.000000
     20         -5.418811   1.000000
     21         -5.410859   1.000000
     22         -5.376565   1.000000
     23         -5.338733   1.000000
     24         -5.307148   1.000000
     25         -5.277872   1.000000
     26         -5.238863   1.000000
     27         -5.217908   1.000000
     28         -5.214912   1.000000
     29         -5.140934   1.000000
     30         -5.115313   1.000000
     31         -5.108604   1.000000
     32         -5.039327   1.000000
     33         -5.022079   1.000000
     34         -5.009752   1.000000
     35         -5.009425   1.000000
     36         -4.857729   1.000000
     37         -4.816469   1.000000
     38         -4.778252   1.000000
     39         -4.773372   1.000000
     40         -4.751524   1.000000
     41         -4.570622   1.000000
     42         -4.495118   1.000000
     43         -4.489161   1.000000
     44         -4.442464   1.000000
     45         -4.416487   1.000000
     46         -4.401990   1.000000
     47         -4.390092   1.000000
     48         -4.291210   1.000000
     49         -4.213578   1.000000
     50         -4.152435   1.000000
     51         -4.124695   1.000000
     52         -4.113248   1.000000
     53         -4.068079   1.000000
     54         -4.047548   1.000000
     55         -3.980457   1.000000
     56         -3.827094   1.000000
     57         -3.734677   1.000000
     58         -3.729770   1.000000
     59         -3.678916   1.000000
     60         -3.671246   1.000000
     61         -3.637376   1.000000
     62         -3.580719   1.000000
     63         -3.568250   1.000000
     64         -3.560048   1.000000
     65         -3.527432   1.000000
     66         -3.527300   1.000000
     67         -3.453770   1.000000
     68         -3.437975   1.000000
     69         -3.394435   1.000000
     70         -3.373091   1.000000
     71         -3.362744   1.000000
     72         -3.314536   1.000000
     73         -3.273005   1.000000
     74         -3.264911   1.000000
     75         -3.263996   1.000000
     76         -3.180438   1.000000
     77         -3.173557   1.000000
     78         -3.161231   1.000000
     79         -3.130174   1.000000
     80         -3.089318   1.000000
     81         -3.070152   1.000000
     82         -3.064049   1.000000
     83         -3.034479   1.000000
     84         -3.018491   1.000000
     85         -2.966715   1.000000
     86         -2.953637   1.000000
     87         -2.940044   1.000000
     88         -2.936398   1.000000
     89         -2.915874   1.000000
     90         -2.910917   1.000000
     91         -2.858511   1.000000
     92         -2.837942   1.000000
     93         -2.794635   1.000000
     94         -2.790425   1.000000
     95         -2.772384   1.000000
     96         -2.767505   1.000000
     97         -2.759289   1.000000
     98         -2.734531   1.000000
     99         -2.697264   1.000000
    100         -2.690351   1.000000
    101         -2.614746   1.000000
    102         -2.566581   1.000000
    103         -2.556373   1.000000
    104         -2.523247   1.000000
    105         -2.515029   1.000000
    106         -2.502049   1.000000
    107         -2.492721   1.000000
    108         -2.491963   1.000000
    109         -2.444576   1.000000
    110         -2.432828   1.000000
    111         -2.431378   1.000000
    112         -2.421118   1.000000
    113         -2.182771   1.000000
    114         -2.073646   1.000000
    115         -2.028144   1.000000
    116         -2.004521   1.000000
    117         -1.993553   1.000000
    118         -1.993481   1.000000
    119         -1.983541   1.000000
    120         -1.943140   1.000000
    121         -1.937372   1.000000
    122         -1.894259   1.000000
    123         -1.808082   1.000000
    124         -1.780805   1.000000
    125         -1.705781   1.000000
    126         -1.654144   1.000000
    127         -1.653009   1.000000
    128         -1.595397   1.000000
    129         -1.583991   1.000000
    130         -1.583507   1.000000
    131         -1.544491   1.000000
    132         -1.532548   1.000000
    133         -1.531093   1.000000
    134         -1.448777   1.000000
    135         -1.400099   1.000000
    136         -1.392484   1.000000
    137         -1.380200   1.000000
    138         -1.379333   1.000000
    139         -1.226604   1.000000
    140         -1.203880   1.000000
    141         -1.168105   1.000000
    142         -1.164639   1.000000
    143         -1.148419   1.000000
    144         -1.147350   1.000000
    145         -1.124533   1.000000
    146         -1.054655   1.000000
    147         -1.033585   1.000000
    148         -1.005308   1.000000
    149         -0.990569   1.000000
    150         -0.979396   1.000000
    151         -0.931107   1.000000
    152         -0.920607   1.000000
    153         -0.907139   1.000000
    154         -0.900866   1.000000
    155         -0.813225   1.000000
    156         -0.795351   1.000000
    157         -0.768017   1.000000
    158         -0.763590   1.000000
    159         -0.721870   1.000000
    160         -0.673264   1.000000
    161         -0.654837   1.000000
    162         -0.610741   1.000000
    163         -0.608352   1.000000
    164         -0.595414   1.000000
    165         -0.565695   1.000000
    166         -0.543545   1.000000
    167         -0.480655   1.000000
    168         -0.476656   1.000000
    169         -0.413032   1.000009
    170         -0.405609   1.000014
    171         -0.388957   1.000039
    172         -0.385767   1.000047
    173         -0.356001   1.000244
    174         -0.349250   1.000344
    175         -0.348583   1.000356
    176         -0.336588   1.000641
    177         -0.327288   1.000988
    178         -0.273339   1.008109
    179         -0.270457   1.008887
    180         -0.128140   0.893112
    181         -0.123719   0.869775
    182         -0.098788   0.704495
    183         -0.084455   0.589791
    184         -0.068521   0.455582
    185         -0.066951   0.442372
    186         -0.038042   0.217924
    187         -0.017242   0.096136
    188         -0.002190   0.034706
    189          0.007093   0.007757
    190          0.083116  -0.024504
    191          0.101514  -0.016305
    192          0.128687  -0.007377
    193          0.189579  -0.000625
    194          0.292853  -0.000001
    195          0.304563  -0.000001
    196          0.312524  -0.000000
    197          0.355268  -0.000000
    198          0.710033  -0.000000
    199          0.748206  -0.000000
    200          1.269942  -0.000000
    201          1.459744  -0.000000
    202          1.479452  -0.000000
    203          1.596495  -0.000000
    204          2.406868  -0.000000
    205          2.845380   0.000000
    206          2.907041   0.000000
    207          3.574607   0.000000
    208          3.651745   0.000000
    209          3.669316   0.000000
    210          3.738414   0.000000
    211          3.975693   0.000000
    212          4.455015   0.000000
    213          4.606954   0.000000
    214          4.758881   0.000000
    215          4.974799   0.000000
    216          4.988946   0.000000
    217          5.020089   0.000000
    218          5.222749   0.000000
    219          5.343484   0.000000
    220          5.465012   0.000000
    221          5.642978   0.000000
    222          5.704360   0.000000
    223          5.864369   0.000000
    224          5.881377   0.000000
    225          6.069044   0.000000
    226          6.205045   0.000000
    227          6.235211   0.000000
    228          6.334735   0.000000
    229          6.354018   0.000000
    230          6.540738   0.000000
    231          6.698857   0.000000
    232          6.764634   0.000000
    233          6.796361   0.000000
    234          6.831149   0.000000
    235          6.906467   0.000000
    236          7.056794   0.000000
    237          7.251049   0.000000
    238          7.473041   0.000000
    239          7.581436   0.000000
    240          7.623444   0.000000
 
  0.1276756E-14  0.2000000E+00  0.1276756E-14  0.8000000E-01
      1         -8.762247   1.000000
      2         -7.771201   1.000000
      3         -7.106901   1.000000
      4         -6.924472   1.000000
      5         -6.562083   1.000000
      6         -6.548333   1.000000
      7         -6.359255   1.000000
      8         -6.266523   1.000000
      9         -6.219318   1.000000
     10         -6.213979   1.000000
     11         -6.120053   1.000000
     12         -6.001880   1.000000
     13         -5.954295   1.000000
     14         -5.844917   1.000000
     15         -5.839555   1.000000
     16         -5.828768   1.000000
     17         -5.752242   1.000000
     18         -5.534698   1.000000
     19         -5.420491   1.000000
     20         -5.418297   1.000000
     21         -5.411635   1.000000
     22         -5.375826   1.000000
     23         -5.339263   1.000000
     24         -5.304411   1.000000
     25         -5.278359   1.000000
     26         -5.239515   1.000000
     27         -5.217883   1.000000
     28         -5.213439   1.000000
     29         -5.141567   1.000000
     30         -5.115504   1.000000
     31         -5.108956   1.000000
     32         -5.036923   1.000000
     33         -5.021875   1.000000
     34         -5.011311   1.000000
     35         -5.008356   1.000000
     36         -4.858291   1.000000
     37         -4.816505   1.000000
     38         -4.778713   1.000000
     39         -4.773154   1.000000
     40         -4.753774   1.000000
     41         -4.568680   1.000000
     42         -4.496500   1.000000
     43         -4.491991   1.000000
     44         -4.442569   1.000000
     45         -4.415862   1.000000
     46         -4.402430   1.000000
     47         -4.389635   1.000000
     48         -4.291197   1.000000
     49         -4.214901   1.000000
     50         -4.150706   1.000000
     51         -4.125136   1.000000
     52         -4.112815   1.000000
     53         -4.067773   1.000000
     54         -4.046886   1.000000
     55         -3.980571   1.000000
     56         -3.829823   1.000000
     57         -3.734668   1.000000
     58         -3.728789   1.000000
     59         -3.681647   1.000000
     60         -3.672784   1.000000
     61         -3.638896   1.000000
     62         -3.583575   1.000000
     63         -3.565476   1.000000
     64         -3.558655   1.000000
     65         -3.527167   1.000000
     66         -3.525460   1.000000
     67         -3.454455   1.000000
     68         -3.436915   1.000000
     69         -3.399581   1.000000
     70         -3.373454   1.000000
     71         -3.363081   1.000000
     72         -3.314578   1.000000
     73         -3.269205   1.000000
     74         -3.262333   1.000000
     75         -3.258445   1.000000
     76         -3.179689   1.000000
     77         -3.175689   1.000000
     78         -3.161165   1.000000