unknown system                          
           1
     8.468310    0.000000    0.000000
     4.234155    7.333772    0.000000
     0.000000    0.000000   24.965662
   Pt   H 
    36     1
Direct configuration=     1
   0.00000000  0.00000000  0.34046764
   0.33400137  0.00000000  0.34046764
   0.66800274  0.00000000  0.34046764
   0.00000000  0.33400137  0.34046764
   0.33400137  0.33400137  0.34046764
   0.66800274  0.33400137  0.34046764
   0.00000000  0.66800274  0.34046764
   0.33400137  0.66800274  0.34046764
   0.66800274  0.66800274  0.34046764
   0.11133379  0.11133379  0.43297074
   0.44533516  0.11133379  0.43297074
   0.77933653  0.11133379  0.43297074
   0.11133379  0.44533516  0.43297074
   0.44533516  0.44533516  0.43297074
   0.77933653  0.44533516  0.43297074
   0.11133379  0.77933653  0.43297074
   0.44533516  0.77933653  0.43297074
   0.77933653  0.77933653  0.43297074
   0.89050439  0.22315078  0.52526909
   0.22309459  0.22309809  0.52518485
   0.55677681  0.22308370  0.52424085
   0.89046500  0.55605451  0.52474023
   0.22309804  0.55677162  0.52424105
   0.55682994  0.55682570  0.52420097
   0.89052836  0.89052534  0.52486893
   0.22314831  0.89050059  0.52526876
   0.55605265  0.89045956  0.52474194
   0.99832458  0.99832195  0.61972718
   0.34005091  0.99843614  0.61959187
   0.66773894  0.00142458  0.61791016
   0.99844140  0.34004607  0.61959268
   0.33563451  0.33563083  0.61754962
   0.66570746  0.33560914  0.61752832
   0.00142804  0.66773222  0.61790948
   0.33561366  0.66570312  0.61752868
   0.66776764  0.66775949  0.61781403
   0.11224899  0.11224810  0.65321387
