
     Program PWSCF v.7.1 starts on 23Feb2025 at 17:10: 9 
        Git branch: heads/qe-7.1
        Last git commit: 48ba0178f8fede6d020eb786884699a9f063f55d-dirty
        Last git commit date: Fri Jan 27 14:22:33 2023 +0000
        Last git commit subject: Merge branch 'fix_hubbard' into 'develop'

     This program is part of the open-source Quantum ESPRESSO suite
     for quantum simulation of materials; please cite
         "P. Giannozzi et al., J. Phys.:Condens. Matter 21 395502 (2009);
         "P. Giannozzi et al., J. Phys.:Condens. Matter 29 465901 (2017);
         "P. Giannozzi et al., J. Chem. Phys. 152 154105 (2020);
          URL http://www.quantum-espresso.org", 
     in publications or presentations arising from this work. More details at
     http://www.quantum-espresso.org/quote

     Parallel version (MPI), running on    48 processors

     MPI processes distributed on     1 nodes
     252236 MiB available memory on the printing compute node when the environment starts

     Reading input from espresso.pwi
Warning: card &CELL ignored
Warning: card / ignored
Warning: card &FCP ignored
Warning: card / ignored
Warning: card &RISM ignored
Warning: card / ignored

     Current dimensions of program PWSCF are:
     Max number of different atomic species (ntypx) = 10
     Max number of k-points (npk) =  40000
     Max angular momentum in pseudopotentials (lmaxx) =  4
     file Pt.pbe-n-kjpaw_psl.1.0.0.UPF: wavefunction(s)  6S 5D renormalized
     file H.pbe-kjpaw_psl.1.0.0.UPF: wavefunction(s)  1S renormalized

     **************************************************************************
     Initializing libbeef V0.1.2 with the BEEF-vdW functional.
     Citation: Wellendorff et al., PRB 85, 235149 (2012).
     **************************************************************************


     IMPORTANT: XC functional enforced from input :
     Exchange-correlation= BEEF-VDW
                           (   1   4  43  14   2   0   0)
     Any further DFT definition will be discarded
     Please, verify this is what you really want


     R & G space division:  proc/nbgrp/npool/nimage =      48
     Subspace diagonalization in iterative solution of the eigenvalue problem:
     one sub-group per band group will be used
     custom distributed-memory algorithm (size of sub-group:  2*  2 procs)


     Parallelization info
     --------------------
     sticks:   dense  smooth     PW     G-vecs:    dense   smooth      PW
     Min         151      59     16                29407     7165    1028
     Max         152      60     17                29420     7176    1042
     Sum        7267    2839    769              1411785   344073   49691

     Using Slab Decomposition



     bravais-lattice index     =            0
     lattice parameter (alat)  =      16.0349  a.u.
     unit-cell volume          =   10068.6169 (a.u.)^3
     number of atoms/cell      =           37
     number of atomic types    =            2
     number of electrons       =       361.00
     number of Kohn-Sham states=          217
     kinetic-energy cutoff     =      40.0000  Ry
     charge density cutoff     =     410.0000  Ry
     scf convergence threshold =      1.0E-08
     mixing beta               =       0.7000
     number of iterations used =            8  local-TF  mixing
     Exchange-correlation= BEEF-VDW
                           (   1   4  43  14   2   0   0)

     celldm(1)=  16.034858  celldm(2)=   0.000000  celldm(3)=   0.000000
     celldm(4)=   0.000000  celldm(5)=   0.000000  celldm(6)=   0.000000

     crystal axes: (cart. coord. in units of alat)
               a(1) = (   1.000000   0.000000   0.000000 )  
               a(2) = (   0.500000   0.866025   0.000000 )  
               a(3) = (   0.000000   0.000000   2.819966 )  

     reciprocal axes: (cart. coord. in units 2 pi/alat)
               b(1) = (  1.000000 -0.577350  0.000000 )  
               b(2) = (  0.000000  1.154701  0.000000 )  
               b(3) = (  0.000000  0.000000  0.354614 )  


     PseudoPot. # 1 for Pt read from file:
     /users/kbadger1/espresso/pseudo/pslibrary.1.0.0/pbe/PSEUDOPOTENTIALS/Pt.pbe-n-kjpaw_psl.1.0.0.UPF
     MD5 check sum: 2e24a0b5bf98a4ed1a57fa81bca8c143
     Pseudo is Projector augmented-wave + core cor, Zval = 10.0
     Generated using 'atomic' code by A. Dal Corso  v.7.0
     Shape of augmentation charge: PSQ
     Using radial grid of 1277 points,  6 beta functions with: 
                l(1) =   0
                l(2) =   0
                l(3) =   1
                l(4) =   1
                l(5) =   2
                l(6) =   2
     Q(r) pseudized with 0 coefficients 


     PseudoPot. # 2 for H  read from file:
     /users/kbadger1/espresso/pseudo/pslibrary.1.0.0/pbe/PSEUDOPOTENTIALS/H.pbe-kjpaw_psl.1.0.0.UPF
     MD5 check sum: fe4c6fa958fa6d3815bf5d2419cbf1df
     Pseudo is Projector augmented-wave, Zval =  1.0
     Generated using 'atomic' code by A. Dal Corso  v.7.0
     Shape of augmentation charge: PSQ
     Using radial grid of  929 points,  2 beta functions with: 
                l(1) =   0
                l(2) =   0
     Q(r) pseudized with 0 coefficients 


     atomic species   valence    mass     pseudopotential
        Pt            10.00   195.08400     Pt( 1.00)
        H              1.00     1.00800     H ( 1.00)

     No symmetry found



   Cartesian axes

     site n.     atom                  positions (alat units)
         1           Pt  tau(   1) = (   0.0000000   0.0000000   1.0017346  )
         2           Pt  tau(   2) = (   0.3333333   0.0000000   1.0017346  )
         3           Pt  tau(   3) = (   0.6666667   0.0000000   1.0017346  )
         4           Pt  tau(   4) = (   0.1666667   0.2886751   1.0017346  )
         5           Pt  tau(   5) = (   0.5000000   0.2886751   1.0017346  )
         6           Pt  tau(   6) = (   0.8333333   0.2886751   1.0017346  )
         7           Pt  tau(   7) = (   0.3333333   0.5773503   1.0017346  )
         8           Pt  tau(   8) = (   0.6666667   0.5773503   1.0017346  )
         9           Pt  tau(   9) = (   1.0000000   0.5773503   1.0017346  )
        10           Pt  tau(  10) = (   0.1666667   0.0962250   1.2739001  )
        11           Pt  tau(  11) = (   0.5000000   0.0962250   1.2739001  )
        12           Pt  tau(  12) = (   0.8333333   0.0962250   1.2739001  )
        13           Pt  tau(  13) = (   0.3333333   0.3849002   1.2739001  )
        14           Pt  tau(  14) = (   0.6666667   0.3849002   1.2739001  )
        15           Pt  tau(  15) = (   1.0000000   0.3849002   1.2739001  )
        16           Pt  tau(  16) = (   0.5000000   0.6735753   1.2739001  )
        17           Pt  tau(  17) = (   0.8333333   0.6735753   1.2739001  )
        18           Pt  tau(  18) = (   1.1666667   0.6735753   1.2739001  )
        19           Pt  tau(  19) = (   0.0002329   0.1902361   1.5436600  )
        20           Pt  tau(  20) = (   0.3330776   0.1902515   1.5436773  )
        21           Pt  tau(  21) = (   0.6666560   0.1902544   1.5424731  )
        22           Pt  tau(  22) = (   0.1666735   0.4754314   1.5473697  )
        23           Pt  tau(  23) = (   0.4998876   0.4789453   1.5427683  )
        24           Pt  tau(  24) = (   0.8334406   0.4789491   1.5427563  )
        25           Pt  tau(  25) = (   0.3330924   0.7667724   1.5423521  )
        26           Pt  tau(  26) = (   0.6666620   0.7677255   1.5428090  )
        27           Pt  tau(  27) = (   1.0002413   0.7667752   1.5423406  )
        28           Pt  tau(  28) = (  -0.0020076  -0.0066687   1.8162311  )
        29           Pt  tau(  29) = (   0.3353115  -0.0066377   1.8161931  )
        30           Pt  tau(  30) = (   0.6666515  -0.0049279   1.8169735  )
        31           Pt  tau(  31) = (   0.1665924   0.2815897   1.8288425  )
        32           Pt  tau(  32) = (   0.5007021   0.2838876   1.8164952  )
        33           Pt  tau(  33) = (   0.8325469   0.2839020   1.8164798  )
        34           Pt  tau(  34) = (   0.3332448   0.5725459   1.8174532  )
        35           Pt  tau(  35) = (   0.6666549   0.5721120   1.8166646  )
        36           Pt  tau(  36) = (   1.0000549   0.5725562   1.8174399  )
        37           H   tau(  37) = (   0.1657748   0.2077985   1.9979001  )

     number of k points=    13  Marzari-Vanderbilt smearing, width (Ry)=  0.0200
                       cart. coord. in units 2pi/alat
        k(    1) = (   0.0000000   0.0000000   0.0000000), wk =   0.0800000
        k(    2) = (   0.0000000   0.2309401   0.0000000), wk =   0.1600000
        k(    3) = (   0.0000000   0.4618802   0.0000000), wk =   0.1600000
        k(    4) = (   0.2000000  -0.1154701   0.0000000), wk =   0.1600000
        k(    5) = (   0.2000000   0.1154701   0.0000000), wk =   0.1600000
        k(    6) = (   0.2000000   0.3464102   0.0000000), wk =   0.1600000
        k(    7) = (   0.2000000  -0.5773503   0.0000000), wk =   0.1600000
        k(    8) = (   0.2000000  -0.3464102   0.0000000), wk =   0.1600000
        k(    9) = (   0.4000000  -0.2309401   0.0000000), wk =   0.1600000
        k(   10) = (   0.4000000  -0.0000000   0.0000000), wk =   0.1600000
        k(   11) = (   0.4000000   0.2309401   0.0000000), wk =   0.1600000
        k(   12) = (   0.4000000  -0.6928203   0.0000000), wk =   0.1600000
        k(   13) = (   0.4000000  -0.4618802   0.0000000), wk =   0.1600000

     Dense  grid:  1411785 G-vectors     FFT dimensions: ( 108, 108, 300)

     Smooth grid:   344073 G-vectors     FFT dimensions: (  72,  72, 192)

     Estimated max dynamical RAM per process >     203.68 MB

     Estimated total dynamical RAM >       9.55 GB

     Initial potential from superposition of free atoms

     starting charge     360.9939, renormalised to     361.0000

     negative rho (up, down):  3.359E-03 0.000E+00


     %%%%%%%%%%%%%%%%%%%%%%%%%%%%%%%%%%%%%%%%%%%%%%%%%%%%%%%%%%%%%%%%%%%%%%%%
     %                                                                      %
     % You are using vdW-DF, which was implemented by the Thonhauser group. %
     % Please cite the following two papers that made this development      %
     % possible and the two reviews that describe the various versions:     %
     %                                                                      %
     %   T. Thonhauser et al., PRL 115, 136402 (2015).                      %
     %   T. Thonhauser et al., PRB 76, 125112 (2007).                       %
     %   K. Berland et al., Rep. Prog. Phys. 78, 066501 (2015).             %
     %   D.C. Langreth et al., J. Phys.: Condens. Matter 21, 084203 (2009). %
     %                                                                      %
     % If you are calculating stress with vdW-DF, please also cite:         %
     %                                                                      %
     %   R. Sabatini et al., J. Phys.: Condens. Matter 24, 424209 (2012).   %
     %                                                                      %
     %%%%%%%%%%%%%%%%%%%%%%%%%%%%%%%%%%%%%%%%%%%%%%%%%%%%%%%%%%%%%%%%%%%%%%%%

     %%%%%%%%%%%%%%%%%%%%%%%%%%%%%%%%%%%%%%%%%%%%%%%%%%%%%%%%%%%%%%%%%%%%%%%%
     %                                                                      %
     %  vdW-DF NEWS:                                                        %
     %                                                                      %
     %  * vdW-DF3 is now available. DOI: 10.1021/acs.jctc.0c00471           %
     %    use with input_dft = 'vdW-DF3-opt1' or 'vdW-DF3-opt2'             %
     %                                                                      %
     %  * Unscreened and range-separated hybrid vdW-DF-cx functionals       %
     %    DOI: 10.1063/1.4986522 and 10.1088/1361-648X/ac2ad2               %
     %    use with input_dft = 'vdW-DF-cx0'    and 'vdW-DF-ahcx'            %
     %  * Unscreened and range-separated hybrid vdW-DF2-b86r functionals    %
     %    DOI: 10.1063/1.4986522 and DOI: 10.1103/PhysRevX.12.041003        %
     %    use with input_dft = 'vdW-DF2-br0' and 'vdW-DF2-ahbr'             %
     %                                                                      %
     %%%%%%%%%%%%%%%%%%%%%%%%%%%%%%%%%%%%%%%%%%%%%%%%%%%%%%%%%%%%%%%%%%%%%%%%


     Starting wfcs are  325 randomized atomic wfcs
     Checking if some PAW data can be deallocated... 

     total cpu time spent up to now is       10.6 secs

     per-process dynamical memory:   207.7 Mb

     Self-consistent Calculation

     iteration #  1     ecut=    40.00 Ry     beta= 0.70
     Davidson diagonalization with overlap
     ethr =  1.00E-02,  avg # of iterations =  2.0

     Threshold (ethr) on eigenvalues was too large:
     Diagonalizing with lowered threshold

     Davidson diagonalization with overlap
     ethr =  3.92E-04,  avg # of iterations =  4.0

     negative rho (up, down):  1.724E-02 0.000E+00

     total cpu time spent up to now is       40.9 secs

     total energy              =  -27755.27385164 Ry
     estimated scf accuracy    <       1.61330687 Ry

     iteration #  2     ecut=    40.00 Ry     beta= 0.70
     Davidson diagonalization with overlap
     ethr =  4.47E-04,  avg # of iterations =  2.0

     negative rho (up, down):  1.530E-02 0.000E+00

     total cpu time spent up to now is       53.4 secs

     total energy              =  -27755.37620448 Ry
     estimated scf accuracy    <       0.85152349 Ry

     iteration #  3     ecut=    40.00 Ry     beta= 0.70
     Davidson diagonalization with overlap
     ethr =  2.36E-04,  avg # of iterations =  2.0

     negative rho (up, down):  9.835E-03 0.000E+00

     total cpu time spent up to now is       65.9 secs

     total energy              =  -27755.42980167 Ry
     estimated scf accuracy    <       0.10081534 Ry

     iteration #  4     ecut=    40.00 Ry     beta= 0.70
     Davidson diagonalization with overlap
     c_bands:  1 eigenvalues not converged
     c_bands:  1 eigenvalues not converged
     c_bands:  1 eigenvalues not converged
     c_bands:  1 eigenvalues not converged
     c_bands:  1 eigenvalues not converged
     c_bands:  1 eigenvalues not converged
     c_bands:  1 eigenvalues not converged
     ethr =  2.79E-05,  avg # of iterations = 15.8

     negative rho (up, down):  7.158E-03 0.000E+00

     total cpu time spent up to now is       98.0 secs

     total energy              =  -27755.48154450 Ry
     estimated scf accuracy    <       0.09157181 Ry

     iteration #  5     ecut=    40.00 Ry     beta= 0.70
     Davidson diagonalization with overlap
     ethr =  2.54E-05,  avg # of iterations =  1.9

     negative rho (up, down):  3.160E-03 0.000E+00

     total cpu time spent up to now is      110.8 secs

     total energy              =  -27755.48152946 Ry
     estimated scf accuracy    <       0.03135574 Ry

     iteration #  6     ecut=    40.00 Ry     beta= 0.70
     Davidson diagonalization with overlap
     ethr =  8.69E-06,  avg # of iterations =  7.4

     negative rho (up, down):  1.367E-03 0.000E+00

     total cpu time spent up to now is      125.9 secs

     total energy              =  -27755.48369005 Ry
     estimated scf accuracy    <       0.00246976 Ry

     iteration #  7     ecut=    40.00 Ry     beta= 0.70
     Davidson diagonalization with overlap
     ethr =  6.84E-07,  avg # of iterations = 10.3

     negative rho (up, down):  1.043E-03 0.000E+00

     total cpu time spent up to now is      153.7 secs

     total energy              =  -27755.48436371 Ry
     estimated scf accuracy    <       0.00198113 Ry

     iteration #  8     ecut=    40.00 Ry     beta= 0.70
     Davidson diagonalization with overlap
     ethr =  5.49E-07,  avg # of iterations =  1.8

     negative rho (up, down):  9.042E-04 0.000E+00

     total cpu time spent up to now is      166.3 secs

     total energy              =  -27755.48449481 Ry
     estimated scf accuracy    <       0.00024241 Ry

     iteration #  9     ecut=    40.00 Ry     beta= 0.70
     Davidson diagonalization with overlap
     ethr =  6.71E-08,  avg # of iterations =  4.5

     negative rho (up, down):  7.342E-04 0.000E+00

     total cpu time spent up to now is      190.1 secs

     total energy              =  -27755.48460464 Ry
     estimated scf accuracy    <       0.00010418 Ry

     iteration # 10     ecut=    40.00 Ry     beta= 0.70
     Davidson diagonalization with overlap
     ethr =  2.89E-08,  avg # of iterations =  4.5

     negative rho (up, down):  7.286E-04 0.000E+00

     total cpu time spent up to now is      211.2 secs

     total energy              =  -27755.48462313 Ry
     estimated scf accuracy    <       0.00010802 Ry

     iteration # 11     ecut=    40.00 Ry     beta= 0.70
     Davidson diagonalization with overlap
     ethr =  2.89E-08,  avg # of iterations =  1.1

     negative rho (up, down):  8.147E-04 0.000E+00

     total cpu time spent up to now is      222.7 secs

     total energy              =  -27755.48462837 Ry
     estimated scf accuracy    <       0.00007053 Ry

     iteration # 12     ecut=    40.00 Ry     beta= 0.70
     Davidson diagonalization with overlap
     ethr =  1.95E-08,  avg # of iterations =  1.3

     negative rho (up, down):  1.036E-03 0.000E+00

     total cpu time spent up to now is      234.8 secs

     total energy              =  -27755.48463705 Ry
     estimated scf accuracy    <       0.00002700 Ry

     iteration # 13     ecut=    40.00 Ry     beta= 0.70
     Davidson diagonalization with overlap
     ethr =  7.48E-09,  avg # of iterations =  2.0

     negative rho (up, down):  1.517E-03 0.000E+00

     total cpu time spent up to now is      247.3 secs

     total energy              =  -27755.48464530 Ry
     estimated scf accuracy    <       0.00001478 Ry

     iteration # 14     ecut=    40.00 Ry     beta= 0.70
     Davidson diagonalization with overlap
     ethr =  4.09E-09,  avg # of iterations =  2.0

     negative rho (up, down):  1.894E-03 0.000E+00

     total cpu time spent up to now is      261.3 secs

     total energy              =  -27755.48465111 Ry
     estimated scf accuracy    <       0.00000730 Ry

     iteration # 15     ecut=    40.00 Ry     beta= 0.70
     Davidson diagonalization with overlap
     ethr =  2.02E-09,  avg # of iterations =  2.0

     negative rho (up, down):  2.691E-03 0.000E+00

     total cpu time spent up to now is      273.6 secs

     total energy              =  -27755.48464910 Ry
     estimated scf accuracy    <       0.00000625 Ry

     iteration # 16     ecut=    40.00 Ry     beta= 0.70
     Davidson diagonalization with overlap
     ethr =  1.73E-09,  avg # of iterations =  1.8

     negative rho (up, down):  2.844E-03 0.000E+00

     total cpu time spent up to now is      285.8 secs

     total energy              =  -27755.48464906 Ry
     estimated scf accuracy    <       0.00000089 Ry

     iteration # 17     ecut=    40.00 Ry     beta= 0.70
     Davidson diagonalization with overlap
     c_bands:  1 eigenvalues not converged
     ethr =  2.47E-10,  avg # of iterations =  6.4

     negative rho (up, down):  3.008E-03 0.000E+00

     total cpu time spent up to now is      311.7 secs

     total energy              =  -27755.48464873 Ry
     estimated scf accuracy    <       0.00000052 Ry

     iteration # 18     ecut=    40.00 Ry     beta= 0.70
     Davidson diagonalization with overlap
     ethr =  1.44E-10,  avg # of iterations =  2.0

     negative rho (up, down):  3.057E-03 0.000E+00

     total cpu time spent up to now is      326.1 secs

     total energy              =  -27755.48464850 Ry
     estimated scf accuracy    <       0.00000022 Ry

     iteration # 19     ecut=    40.00 Ry     beta= 0.70
     Davidson diagonalization with overlap
     ethr =  6.11E-11,  avg # of iterations =  2.0

     negative rho (up, down):  3.140E-03 0.000E+00

     total cpu time spent up to now is      338.4 secs

     total energy              =  -27755.48464803 Ry
     estimated scf accuracy    <       0.00000009 Ry

     iteration # 20     ecut=    40.00 Ry     beta= 0.70
     Davidson diagonalization with overlap
     ethr =  2.62E-11,  avg # of iterations =  2.5

     negative rho (up, down):  3.166E-03 0.000E+00

     total cpu time spent up to now is      352.7 secs

     total energy              =  -27755.48464790 Ry
     estimated scf accuracy    <       0.00000002 Ry

     iteration # 21     ecut=    40.00 Ry     beta= 0.70
     Davidson diagonalization with overlap
     ethr =  4.99E-12,  avg # of iterations =  5.2

     negative rho (up, down):  3.168E-03 0.000E+00

     total cpu time spent up to now is      376.2 secs

     total energy              =  -27755.48464790 Ry
     estimated scf accuracy    <       0.00000001 Ry

     iteration # 22     ecut=    40.00 Ry     beta= 0.70
     Davidson diagonalization with overlap
     ethr =  2.94E-12,  avg # of iterations =  1.3

     negative rho (up, down):  3.169E-03 0.000E+00

     total cpu time spent up to now is      389.0 secs

     End of self-consistent calculation

          k = 0.0000 0.0000 0.0000 ( 42913 PWs)   bands (ev):

    -6.2920  -5.0180  -3.9796  -3.8875  -3.8761  -3.8667  -3.8666  -3.8639
    -3.8505  -3.8495  -3.4252  -3.3167  -3.3139  -3.3065  -3.3038  -3.2996
    -3.0399  -2.8501  -2.8408  -2.8373  -2.8364  -2.8360  -2.7667  -2.6261
    -2.6231  -2.6212  -2.6189  -2.6169  -2.4690  -2.4017  -2.3983  -2.3930
    -2.3863  -2.3839  -2.3833  -2.3790  -2.3745  -2.3676  -2.3617  -2.3308
    -2.1899  -1.7791  -1.7762  -1.7620  -1.7402  -1.7173  -1.7036  -1.6983
    -1.6921  -1.6892  -1.6177  -1.5466  -1.5238  -1.4557  -1.3504  -0.9850
    -0.9763  -0.9574  -0.9497  -0.9472  -0.9152  -0.8861  -0.7834  -0.7807
    -0.7788  -0.7682  -0.7583  -0.7538  -0.7382  -0.7313  -0.7251  -0.7180
    -0.7114  -0.6973  -0.6744  -0.6737  -0.6349  -0.5624  -0.5463  -0.5406
    -0.5360  -0.5227  -0.4574  -0.3815  -0.3709  -0.3545  -0.3526  -0.3379
    -0.3119  -0.2958  -0.2797  -0.2109  -0.2040  -0.1542  -0.1474  -0.1154
    -0.1119  -0.0922  -0.0737  -0.0685  -0.0353   0.0576   0.0703   0.0806
     0.0856   0.1019   0.1146   0.4046   0.5668   0.5769   0.5837   0.5890
     0.5928   0.5950   0.6072   0.6456   0.6572   0.6603   0.6608   0.7100
     0.7424   0.7584   0.8661   0.8845   0.9012   0.9051   0.9060   0.9987
     1.0000   1.0347   1.0675   1.0710   1.0914   1.1157   1.2867   1.3117
     1.3225   1.3247   1.3279   1.3393   1.3898   1.4006   1.5710   1.5728
     1.5771   1.5879   1.5881   1.6420   1.7354   1.7355   1.7540   1.7574
     1.7622   1.7786   1.7811   1.7883   1.7953   1.7967   1.8007   1.8840
     1.9009   1.9013   1.9206   1.9307   1.9352   1.9506   1.9608   2.0065
     2.0165   2.0310   2.0432   2.0511   2.0562   2.0640   2.0675   2.1379
     2.1462   2.1509   2.1543   2.1602   2.1632   2.1736   2.2379   2.2584
     2.2651   2.2666   2.2826   2.2851   2.4558   2.4920   2.5583   2.5734
     2.5934   2.5941   2.5993   2.6058   2.9614   3.4208   3.4667   3.4847
     3.4878   3.4885   3.4932   5.0872   5.7662   5.7864   5.8090   5.8147
     5.8322   6.9997   7.3584   7.3761   7.3934   7.4162   7.4228   7.4257
     7.5667

          k = 0.0000 0.2309 0.0000 ( 42996 PWs)   bands (ev):

    -6.1452  -4.8748  -4.3884  -4.0042  -3.9767  -3.8101  -3.7311  -3.6799
    -3.6513  -3.6229  -3.4719  -3.4029  -3.3200  -3.2487  -3.2427  -3.2318
    -3.0188  -2.8784  -2.8147  -2.8049  -2.7965  -2.7824  -2.7237  -2.6966
    -2.6624  -2.6413  -2.6353  -2.5967  -2.5742  -2.5336  -2.4881  -2.4306
    -2.4223  -2.3839  -2.3717  -2.2828  -2.1909  -2.1858  -2.1698  -2.1697
    -2.0918  -1.9030  -1.8899  -1.8299  -1.8278  -1.7861  -1.7832  -1.7313
    -1.6007  -1.5957  -1.5261  -1.5242  -1.4697  -1.4554  -1.3977  -1.2114
    -1.1497  -1.1395  -1.0718  -1.0431  -1.0247  -0.9741  -0.9735  -0.9497
    -0.9219  -0.9136  -0.8619  -0.8523  -0.7865  -0.7643  -0.7573  -0.7426
    -0.7029  -0.6841  -0.6746  -0.5963  -0.5900  -0.5738  -0.5163  -0.4932
    -0.4727  -0.4652  -0.4452  -0.3890  -0.3775  -0.3718  -0.3628  -0.3346
    -0.3161  -0.2766  -0.2506  -0.2496  -0.1996  -0.1816  -0.1640  -0.1601
    -0.1228  -0.1041  -0.1002  -0.0868   0.0124   0.0657   0.0703   0.0824
     0.0874   0.1125   0.1200   0.1260   0.1759   0.1781   0.2035   0.2113
     0.4085   0.4350   0.5081   0.5466   0.5991   0.6046   0.6161   0.6339
     0.6420   0.6973   0.7974   0.7997   0.8144   0.9258   0.9452   0.9745
     0.9967   1.0137   1.0544   1.0738   1.0907   1.0999   1.1722   1.1948
     1.2080   1.2240   1.2241   1.3906   1.4039   1.4336   1.4477   1.4540
     1.4781   1.5126   1.5563   1.5880   1.6077   1.6152   1.6637   1.6904
     1.6934   1.6977   1.7420   1.8098   1.8171   1.8457   1.8796   1.9412
     1.9746   1.9784   1.9791   1.9993   2.0020   2.0468   2.1028   2.1270
     2.1338   2.1818   2.1954   2.1970   2.2381   2.2437   2.2447   2.2507
     2.2538   2.3050   2.3150   2.4342   2.4675   2.4948   2.5088   2.5204
     2.5281   2.5624   2.5933   2.6005   2.6087   2.6973   2.7030   2.7127
     2.7314   2.8910   2.8923   2.9097   2.9348   3.2586   3.3599   3.7731
     4.0683   4.0785   4.2043   4.8756   5.3118   5.5244   6.0487   6.2235
     6.2270   6.3660   6.5790   6.9471   7.1902   7.2539   7.5547   7.5893
     7.5902

          k = 0.0000 0.4619 0.0000 ( 43046 PWs)   bands (ev):

    -5.7228  -5.0887  -4.4741  -4.0387  -4.0120  -3.9153  -3.6527  -3.5096
    -3.4507  -3.3558  -3.3186  -3.2816  -3.2160  -3.1206  -3.0801  -3.0674
    -3.0636  -2.9699  -2.9226  -2.8967  -2.8700  -2.8547  -2.8099  -2.7967
    -2.7165  -2.7124  -2.7086  -2.6409  -2.4473  -2.4395  -2.4346  -2.4236
    -2.4212  -2.3615  -2.2009  -2.1800  -2.1572  -2.1499  -2.1362  -2.0685
    -1.9005  -1.8637  -1.8526  -1.8375  -1.7951  -1.7869  -1.7782  -1.7113
    -1.7045  -1.6526  -1.6429  -1.6157  -1.4988  -1.4820  -1.4534  -1.4499
    -1.3376  -1.2903  -1.2715  -1.2686  -1.1981  -1.1154  -1.0567  -1.0557
    -1.0384  -1.0213  -0.9583  -0.9179  -0.9047  -0.8371  -0.8292  -0.8092
    -0.7917  -0.6915  -0.6703  -0.6591  -0.6483  -0.6289  -0.5848  -0.5731
    -0.5624  -0.5535  -0.5386  -0.5378  -0.5263  -0.4978  -0.4729  -0.4071
    -0.3961  -0.3678  -0.3571  -0.3472  -0.3281  -0.2357  -0.2289  -0.1820
    -0.1688  -0.1299  -0.1088  -0.0814  -0.0751  -0.0714  -0.0067   0.0709
     0.0934   0.1297   0.1510   0.1776   0.1996   0.3339   0.3475   0.3979
     0.4213   0.4860   0.5037   0.5116   0.5437   0.5468   0.5686   0.6303
     0.6353   0.6467   0.6556   0.6611   0.6851   0.6878   0.7085   0.7186
     0.7741   0.8536   0.8756   0.9034   0.9109   0.9773   1.0558   1.0755
     1.1055   1.2010   1.2237   1.3105   1.3588   1.3660   1.4024   1.4191
     1.4378   1.4784   1.4785   1.5343   1.5633   1.5828   1.6292   1.6307
     1.6994   1.7259   1.7397   1.7496   1.7632   1.7789   1.8837   1.9403
     1.9878   2.0147   2.0322   2.0377   2.0434   2.1378   2.1525   2.1635
     2.2382   2.2410   2.2505   2.3065   2.3201   2.3370   2.3543   2.4346
     2.4717   2.4926   2.4935   2.5108   2.5199   2.5360   2.5454   2.7073
     2.7375   2.7512   2.7653   2.7665   2.9279   2.9706   3.1487   3.3684
     3.4058   3.5516   3.7940   3.7947   4.1045   4.1832   4.2416   4.5300
     4.7360   5.0103   5.0113   5.0618   5.2132   5.2741   5.3514   5.4197
     5.6489   5.6677   6.0937   6.3171   6.6369   6.8349   7.0403   7.3298
     7.5615

          k = 0.2000-0.1155 0.0000 ( 42996 PWs)   bands (ev):

    -6.1451  -4.8753  -4.3865  -4.0017  -3.9780  -3.8146  -3.7309  -3.6817
    -3.6384  -3.6307  -3.4871  -3.4023  -3.3038  -3.2444  -3.2402  -3.2278
    -2.9987  -2.9394  -2.8175  -2.8043  -2.7871  -2.7565  -2.7224  -2.7030
    -2.6594  -2.6447  -2.6371  -2.5941  -2.5560  -2.5322  -2.4982  -2.4222
    -2.4153  -2.3806  -2.3762  -2.2650  -2.1988  -2.1852  -2.1792  -2.1496
    -2.1281  -1.9041  -1.8910  -1.8728  -1.8234  -1.8069  -1.7801  -1.7172
    -1.6066  -1.5742  -1.5288  -1.5083  -1.4849  -1.4527  -1.3842  -1.2374
    -1.1471  -1.1253  -1.0885  -1.0581  -1.0315  -0.9873  -0.9542  -0.9349
    -0.9175  -0.9093  -0.8868  -0.8535  -0.7977  -0.7816  -0.7563  -0.7398
    -0.6750  -0.6520  -0.6483  -0.5964  -0.5880  -0.5619  -0.5152  -0.4984
    -0.4850  -0.4636  -0.4534  -0.3862  -0.3782  -0.3611  -0.3580  -0.3506
    -0.3105  -0.2903  -0.2441  -0.2279  -0.1975  -0.1951  -0.1787  -0.1526
    -0.1379  -0.1088  -0.0914  -0.0797   0.0083   0.0600   0.0810   0.0889
     0.0931   0.1073   0.1132   0.1312   0.1646   0.1815   0.1943   0.2073
     0.3314   0.4750   0.5180   0.5689   0.5893   0.5986   0.6194   0.6316
     0.6464   0.6877   0.7951   0.8094   0.8402   0.9308   0.9538   0.9601
     1.0132   1.0169   1.0631   1.0758   1.0891   1.1498   1.1739   1.1875
     1.2047   1.2136   1.2357   1.3857   1.4092   1.4331   1.4434   1.4563
     1.4803   1.5072   1.5584   1.5823   1.5943   1.6166   1.6363   1.6815
     1.6933   1.7012   1.7342   1.8068   1.8162   1.8415   1.8842   1.9426
     1.9630   1.9747   1.9859   2.0043   2.0266   2.0464   2.1065   2.1305
     2.1468   2.1838   2.1925   2.2000   2.2363   2.2428   2.2445   2.2523
     2.2549   2.3133   2.3264   2.4502   2.4665   2.4889   2.5018   2.5072
     2.5224   2.5430   2.5678   2.5904   2.6036   2.6706   2.7092   2.7269
     2.7518   2.8825   2.8973   2.9021   2.9493   3.2342   3.3429   3.7908
     4.0695   4.0856   4.2070   4.8796   5.3319   5.5124   6.0371   6.2214
     6.2298   6.3611   6.5654   6.9607   7.1917   7.2513   7.5648   7.5773
     7.5909

          k = 0.2000 0.1155 0.0000 ( 42996 PWs)   bands (ev):

    -6.1451  -4.8753  -4.3864  -4.0018  -3.9780  -3.8145  -3.7309  -3.6817
    -3.6384  -3.6306  -3.4867  -3.4024  -3.3044  -3.2444  -3.2402  -3.2279
    -2.9979  -2.9397  -2.8174  -2.8043  -2.7871  -2.7574  -2.7224  -2.7030
    -2.6595  -2.6447  -2.6369  -2.5938  -2.5562  -2.5322  -2.4982  -2.4222
    -2.4153  -2.3808  -2.3762  -2.2647  -2.1987  -2.1852  -2.1793  -2.1496
    -2.1280  -1.9040  -1.8913  -1.8727  -1.8235  -1.8069  -1.7802  -1.7174
    -1.6066  -1.5744  -1.5285  -1.5081  -1.4849  -1.4527  -1.3841  -1.2375
    -1.1471  -1.1256  -1.0886  -1.0583  -1.0310  -0.9872  -0.9541  -0.9350
    -0.9175  -0.9093  -0.8870  -0.8535  -0.7974  -0.7814  -0.7561  -0.7396
    -0.6750  -0.6518  -0.6485  -0.5964  -0.5880  -0.5617  -0.5151  -0.4987
    -0.4850  -0.4636  -0.4533  -0.3865  -0.3786  -0.3611  -0.3580  -0.3507
    -0.3105  -0.2903  -0.2439  -0.2279  -0.1974  -0.1952  -0.1785  -0.1528
    -0.1378  -0.1089  -0.0914  -0.0799   0.0083   0.0601   0.0810   0.0890
     0.0933   0.1072   0.1134   0.1312   0.1647   0.1814   0.1945   0.2074
     0.3301   0.4753   0.5180   0.5685   0.5896   0.5987   0.6194   0.6316
     0.6464   0.6881   0.7954   0.8094   0.8400   0.9308   0.9537   0.9601
     1.0133   1.0171   1.0630   1.0758   1.0893   1.1498   1.1739   1.1874
     1.2046   1.2137   1.2357   1.3859   1.4094   1.4330   1.4434   1.4562
     1.4802   1.5072   1.5584   1.5824   1.5942   1.6167   1.6360   1.6816
     1.6932   1.7014   1.7342   1.8068   1.8162   1.8414   1.8840   1.9428
     1.9630   1.9748   1.9860   2.0043   2.0266   2.0463   2.1065   2.1305
     2.1469   2.1838   2.1925   2.1999   2.2362   2.2429   2.2445   2.2523
     2.2549   2.3133   2.3264   2.4502   2.4666   2.4890   2.5016   2.5072
     2.5223   2.5430   2.5676   2.5903   2.6037   2.6704   2.7092   2.7270
     2.7519   2.8824   2.8973   2.9021   2.9493   3.2339   3.3429   3.7908
     4.0696   4.0856   4.2069   4.8799   5.3314   5.5124   6.0371   6.2215
     6.2298   6.3612   6.5660   6.9606   7.1918   7.2512   7.5646   7.5772
     7.5909

          k = 0.2000 0.3464 0.0000 ( 43046 PWs)   bands (ev):

    -5.8598  -4.6511  -4.6292  -4.5902  -3.6967  -3.5564  -3.5412  -3.5308
    -3.5037  -3.4798  -3.4716  -3.4624  -3.3610  -3.3599  -3.1023  -2.9783
    -2.9729  -2.9617  -2.9050  -2.8995  -2.8054  -2.7302  -2.7178  -2.7072
    -2.7005  -2.6663  -2.5875  -2.5677  -2.5519  -2.5405  -2.5090  -2.4745
    -2.4475  -2.4294  -2.3957  -2.3307  -2.2449  -2.0574  -1.9627  -1.9518
    -1.9305  -1.9121  -1.9052  -1.8972  -1.8418  -1.8313  -1.7327  -1.6746
    -1.6612  -1.6509  -1.5716  -1.5397  -1.4942  -1.4817  -1.4526  -1.3922
    -1.3587  -1.2265  -1.2224  -1.1869  -1.1191  -1.1110  -1.0892  -1.0752
    -1.0378  -1.0052  -0.9840  -0.8662  -0.8500  -0.8243  -0.8190  -0.7793
    -0.7649  -0.7195  -0.7037  -0.6875  -0.6558  -0.5667  -0.5549  -0.5297
    -0.5121  -0.5076  -0.4977  -0.4868  -0.4547  -0.4354  -0.4052  -0.3762
    -0.3545  -0.3129  -0.2755  -0.2571  -0.2332  -0.1935  -0.1760  -0.1586
    -0.1479  -0.1132  -0.1057  -0.0923  -0.0793  -0.0658  -0.0555  -0.0466
    -0.0060   0.0187   0.0910   0.1128   0.1588   0.1707   0.2268   0.2372
     0.2456   0.3401   0.4379   0.4607   0.5548   0.5828   0.6050   0.6146
     0.6389   0.6666   0.6737   0.7063   0.7194   0.7344   0.7824   0.8244
     0.8486   0.9360   1.0037   1.0258   1.0550   1.0668   1.0991   1.1341
     1.1521   1.2468   1.2631   1.2751   1.3291   1.3376   1.3883   1.4565
     1.4779   1.4828   1.5069   1.5457   1.5568   1.5759   1.5792   1.5975
     1.6035   1.6130   1.6313   1.7132   1.7822   1.8212   1.8921   1.9428
     1.9635   2.0476   2.1267   2.1320   2.1380   2.1767   2.2433   2.2647
     2.2756   2.2895   2.3065   2.3268   2.3387   2.3419   2.3557   2.3883
     2.4157   2.4331   2.4868   2.5079   2.5370   2.5577   2.5685   2.6071
     2.7262   2.7669   2.8026   2.8143   2.8735   2.8832   2.8870   3.0095
     3.0277   3.2937   3.5417   3.5605   3.9265   4.0888   4.1088   4.1298
     4.4565   4.8113   4.8317   5.0159   5.0231   5.0782   5.6631   5.9251
     6.2101   6.2643   6.4438   6.5755   6.9331   7.0047   7.0220   7.0314
     7.0667

          k = 0.2000-0.5774 0.0000 ( 43014 PWs)   bands (ev):

    -5.3313  -5.3194  -4.7183  -4.1498  -4.0746  -3.6287  -3.5518  -3.4184
    -3.3862  -3.3189  -3.2613  -3.1648  -3.1570  -3.1485  -3.0439  -3.0354
    -3.0146  -2.9941  -2.9859  -2.9718  -2.8955  -2.8238  -2.8222  -2.8057
    -2.7815  -2.7012  -2.6639  -2.6041  -2.5639  -2.4879  -2.4213  -2.4107
    -2.4064  -2.3976  -2.3468  -2.2827  -2.2328  -2.1715  -2.1124  -1.9983
    -1.9810  -1.8583  -1.8522  -1.8348  -1.7846  -1.7590  -1.6659  -1.6245
    -1.5935  -1.5743  -1.5493  -1.4896  -1.4816  -1.4597  -1.3806  -1.3660
    -1.3476  -1.3355  -1.3337  -1.3232  -1.2749  -1.2552  -1.2301  -1.1264
    -1.1098  -1.0548  -1.0532  -0.9600  -0.9101  -0.8898  -0.8790  -0.8451
    -0.8328  -0.8169  -0.7657  -0.7183  -0.7037  -0.6934  -0.6660  -0.6464
    -0.5886  -0.5576  -0.5320  -0.4801  -0.4737  -0.4650  -0.4286  -0.3669
    -0.3004  -0.2879  -0.2620  -0.2511  -0.2240  -0.2209  -0.2097  -0.1857
    -0.1731  -0.1529  -0.1307  -0.1287  -0.0832  -0.0730  -0.0537  -0.0501
    -0.0427  -0.0121   0.0117   0.0331   0.0445   0.1644   0.2467   0.2639
     0.3603   0.3694   0.4636   0.4729   0.4884   0.5344   0.5490   0.5577
     0.5788   0.6015   0.6357   0.6911   0.7085   0.7336   0.7700   0.7853
     0.8390   0.8564   0.8929   0.9788   1.0489   1.1140   1.1314   1.1365
     1.1593   1.2253   1.2478   1.2655   1.2709   1.2877   1.3118   1.3235
     1.3680   1.4191   1.4494   1.4844   1.5059   1.5211   1.5317   1.5510
     1.5540   1.6526   1.7236   1.7805   1.8238   1.8808   1.9578   1.9696
     1.9769   2.0452   2.0958   2.1036   2.1356   2.2008   2.2559   2.2736
     2.2960   2.3210   2.3236   2.3479   2.3795   2.4092   2.4723   2.4830
     2.4871   2.5065   2.5358   2.5406   2.5423   2.6046   2.7247   2.7426
     2.7551   2.7628   2.7675   2.8219   2.8698   2.9435   3.0672   3.6647
     3.9034   3.9046   4.1060   4.1720   4.2733   4.2879   4.2990   4.6109
     4.9126   4.9179   5.1250   5.3673   5.3945   5.4895   5.5110   5.6434
     5.7624   5.8251   5.8982   6.1475   6.3198   6.3441   6.6650   6.9699
     6.9875

          k = 0.2000-0.3464 0.0000 ( 43046 PWs)   bands (ev):

    -5.8598  -4.6511  -4.6293  -4.5903  -3.6969  -3.5564  -3.5413  -3.5308
    -3.5037  -3.4797  -3.4716  -3.4625  -3.3611  -3.3598  -3.1019  -2.9783
    -2.9731  -2.9617  -2.9049  -2.8999  -2.8059  -2.7302  -2.7177  -2.7073
    -2.7005  -2.6655  -2.5874  -2.5677  -2.5520  -2.5405  -2.5086  -2.4744
    -2.4475  -2.4293  -2.3957  -2.3307  -2.2452  -2.0574  -1.9627  -1.9518
    -1.9305  -1.9122  -1.9054  -1.8972  -1.8418  -1.8311  -1.7329  -1.6742
    -1.6613  -1.6513  -1.5714  -1.5398  -1.4943  -1.4818  -1.4527  -1.3922
    -1.3583  -1.2264  -1.2224  -1.1868  -1.1191  -1.1115  -1.0891  -1.0751
    -1.0379  -1.0052  -0.9841  -0.8664  -0.8503  -0.8245  -0.8192  -0.7796
    -0.7649  -0.7193  -0.7036  -0.6875  -0.6559  -0.5665  -0.5547  -0.5296
    -0.5122  -0.5075  -0.4977  -0.4872  -0.4547  -0.4354  -0.4049  -0.3761
    -0.3546  -0.3133  -0.2756  -0.2571  -0.2330  -0.1933  -0.1760  -0.1585
    -0.1478  -0.1135  -0.1058  -0.0923  -0.0793  -0.0659  -0.0554  -0.0465
    -0.0057   0.0186   0.0906   0.1129   0.1590   0.1715   0.2267   0.2373
     0.2455   0.3401   0.4379   0.4607   0.5544   0.5827   0.6050   0.6146
     0.6389   0.6667   0.6735   0.7063   0.7194   0.7346   0.7824   0.8247
     0.8483   0.9359   1.0037   1.0257   1.0551   1.0667   1.0990   1.1342
     1.1520   1.2470   1.2631   1.2750   1.3291   1.3376   1.3882   1.4564
     1.4779   1.4829   1.5070   1.5457   1.5568   1.5760   1.5791   1.5974
     1.6035   1.6130   1.6312   1.7134   1.7818   1.8212   1.8925   1.9427
     1.9635   2.0476   2.1265   2.1320   2.1379   2.1764   2.2433   2.2648
     2.2756   2.2895   2.3065   2.3268   2.3387   2.3418   2.3556   2.3883
     2.4156   2.4333   2.4867   2.5080   2.5370   2.5577   2.5685   2.6071
     2.7265   2.7669   2.8027   2.8145   2.8736   2.8832   2.8869   3.0093
     3.0277   3.2939   3.5418   3.5604   3.9271   4.0887   4.1088   4.1298
     4.4563   4.8112   4.8318   5.0161   5.0232   5.0781   5.6635   5.9248
     6.2101   6.2642   6.4434   6.5753   6.9332   7.0045   7.0221   7.0315
     7.0669

          k = 0.4000-0.2309 0.0000 ( 43046 PWs)   bands (ev):

    -5.7224  -5.0879  -4.4761  -4.0402  -4.0096  -3.9239  -3.6597  -3.4930
    -3.4339  -3.3527  -3.3008  -3.2906  -3.2152  -3.1159  -3.0783  -3.0673
    -3.0569  -2.9812  -2.9202  -2.9020  -2.8847  -2.8513  -2.8233  -2.7899
    -2.7440  -2.7148  -2.7054  -2.5717  -2.4460  -2.4420  -2.4378  -2.4346
    -2.4215  -2.3584  -2.1976  -2.1820  -2.1593  -2.1538  -2.1371  -2.0778
    -1.9649  -1.8613  -1.8526  -1.8483  -1.8252  -1.7825  -1.7472  -1.7244
    -1.7014  -1.6878  -1.6374  -1.5773  -1.5053  -1.4837  -1.4569  -1.4301
    -1.3433  -1.3158  -1.2868  -1.2662  -1.2409  -1.1195  -1.0679  -1.0424
    -1.0314  -1.0124  -0.9467  -0.9374  -0.9057  -0.8158  -0.7977  -0.7853
    -0.7544  -0.6884  -0.6793  -0.6598  -0.6550  -0.6316  -0.6016  -0.5734
    -0.5557  -0.5463  -0.5360  -0.5324  -0.5267  -0.4975  -0.4500  -0.3983
    -0.3914  -0.3868  -0.3686  -0.3650  -0.3444  -0.2614  -0.2082  -0.1818
    -0.1372  -0.1211  -0.1021  -0.0936  -0.0627  -0.0547   0.0272   0.0745
     0.0880   0.0988   0.1482   0.1859   0.2091   0.3299   0.3452   0.3669
     0.4281   0.4726   0.5103   0.5148   0.5315   0.5427   0.5502   0.5664
     0.6329   0.6452   0.6614   0.6787   0.6891   0.7078   0.7237   0.7471
     0.7621   0.8721   0.8936   0.9061   0.9469   0.9836   1.0764   1.0901
     1.1278   1.2023   1.2134   1.2788   1.3453   1.3720   1.4074   1.4371
     1.4425   1.4599   1.4777   1.5281   1.5449   1.5773   1.6041   1.6348
     1.6950   1.7181   1.7400   1.7451   1.7646   1.8148   1.8589   1.9397
     1.9807   2.0111   2.0394   2.0451   2.0597   2.1326   2.1561   2.1718
     2.2432   2.2470   2.2555   2.3016   2.3333   2.3473   2.3613   2.4385
     2.4666   2.4869   2.4967   2.5065   2.5108   2.5232   2.5308   2.7084
     2.7128   2.7422   2.7429   2.7622   2.9291   2.9704   3.1607   3.3497
     3.4242   3.5438   3.7880   3.8000   4.1180   4.1855   4.2389   4.5179
     4.7372   5.0048   5.0132   5.0529   5.2278   5.2817   5.3498   5.4085
     5.6490   5.6685   6.0794   6.2987   6.6480   6.8446   7.0459   7.3284
     7.5655

          k = 0.4000-0.0000 0.0000 ( 43046 PWs)   bands (ev):

    -5.8596  -4.6545  -4.6262  -4.5897  -3.7001  -3.5448  -3.5397  -3.5326
    -3.4970  -3.4882  -3.4718  -3.4694  -3.3650  -3.3539  -3.0859  -2.9717
    -2.9670  -2.9603  -2.9285  -2.8795  -2.8153  -2.7419  -2.7153  -2.7091
    -2.7002  -2.6599  -2.6092  -2.5654  -2.5615  -2.5391  -2.5063  -2.4702
    -2.4390  -2.4236  -2.3954  -2.3122  -2.2240  -2.0439  -1.9578  -1.9565
    -1.9451  -1.9225  -1.9054  -1.9004  -1.8989  -1.8374  -1.7997  -1.6680
    -1.6644  -1.5792  -1.5716  -1.5426  -1.4894  -1.4842  -1.4423  -1.3981
    -1.3753  -1.2336  -1.2095  -1.1786  -1.1484  -1.1082  -1.0898  -1.0817
    -1.0388  -1.0061  -0.9975  -0.8602  -0.8428  -0.8185  -0.8057  -0.7754
    -0.7479  -0.7197  -0.7111  -0.6766  -0.6678  -0.5631  -0.5458  -0.5292
    -0.5151  -0.5102  -0.4986  -0.4913  -0.4494  -0.4371  -0.3947  -0.3691
    -0.3489  -0.3223  -0.2726  -0.2625  -0.2201  -0.2000  -0.1714  -0.1499
    -0.1420  -0.1207  -0.1040  -0.0955  -0.0890  -0.0794  -0.0579  -0.0455
     0.0052   0.0175   0.0447   0.1168   0.1582   0.1628   0.2340   0.2461
     0.2487   0.3695   0.4331   0.4510   0.5735   0.5835   0.6212   0.6283
     0.6352   0.6541   0.6909   0.6963   0.7259   0.7338   0.7724   0.8123
     0.8736   0.9571   1.0087   1.0360   1.0467   1.0697   1.0994   1.1449
     1.1684   1.2376   1.2700   1.2838   1.3195   1.3376   1.3902   1.4467
     1.4597   1.4782   1.5041   1.5459   1.5607   1.5695   1.5752   1.5911
     1.6012   1.6065   1.6265   1.6881   1.8072   1.8163   1.8753   1.9540
     1.9698   2.0491   2.1282   2.1314   2.1370   2.2047   2.2450   2.2586
     2.2753   2.2843   2.3127   2.3270   2.3404   2.3528   2.3636   2.3884
     2.4115   2.4168   2.4925   2.5245   2.5333   2.5574   2.5655   2.6123
     2.6751   2.7470   2.7892   2.8075   2.8654   2.8786   2.8855   3.0139
     3.0302   3.3246   3.5552   3.5670   3.9223   4.0814   4.0939   4.1188
     4.4602   4.8152   4.8364   5.0203   5.0294   5.0735   5.6869   5.9041
     6.2089   6.2462   6.4339   6.5642   6.9364   7.0122   7.0200   7.0389
     7.4271

          k = 0.4000 0.2309 0.0000 ( 43046 PWs)   bands (ev):

    -5.7224  -5.0878  -4.4760  -4.0403  -4.0096  -3.9237  -3.6597  -3.4932
    -3.4335  -3.3527  -3.3007  -3.2906  -3.2157  -3.1159  -3.0782  -3.0673
    -3.0569  -2.9807  -2.9201  -2.9020  -2.8848  -2.8512  -2.8229  -2.7901
    -2.7442  -2.7148  -2.7053  -2.5735  -2.4460  -2.4420  -2.4378  -2.4346
    -2.4215  -2.3582  -2.1976  -2.1820  -2.1594  -2.1537  -2.1370  -2.0778
    -1.9646  -1.8614  -1.8527  -1.8483  -1.8251  -1.7826  -1.7470  -1.7245
    -1.7013  -1.6879  -1.6375  -1.5772  -1.5052  -1.4838  -1.4570  -1.4302
    -1.3432  -1.3158  -1.2870  -1.2662  -1.2414  -1.1195  -1.0675  -1.0423
    -1.0313  -1.0123  -0.9467  -0.9375  -0.9047  -0.8157  -0.7975  -0.7854
    -0.7537  -0.6884  -0.6793  -0.6598  -0.6551  -0.6314  -0.6015  -0.5735
    -0.5557  -0.5464  -0.5362  -0.5324  -0.5267  -0.4976  -0.4497  -0.3990
    -0.3915  -0.3871  -0.3686  -0.3652  -0.3445  -0.2610  -0.2082  -0.1820
    -0.1370  -0.1216  -0.1023  -0.0936  -0.0625  -0.0545   0.0266   0.0745
     0.0880   0.0986   0.1482   0.1859   0.2089   0.3300   0.3451   0.3674
     0.4281   0.4727   0.5103   0.5148   0.5314   0.5427   0.5502   0.5663
     0.6328   0.6455   0.6615   0.6786   0.6890   0.7076   0.7238   0.7471
     0.7621   0.8724   0.8937   0.9062   0.9467   0.9835   1.0765   1.0902
     1.1282   1.2024   1.2134   1.2787   1.3452   1.3722   1.4075   1.4372
     1.4424   1.4599   1.4778   1.5281   1.5448   1.5773   1.6041   1.6347
     1.6950   1.7180   1.7401   1.7452   1.7647   1.8153   1.8585   1.9398
     1.9809   2.0112   2.0394   2.0451   2.0595   2.1326   2.1560   2.1719
     2.2431   2.2470   2.2556   2.3015   2.3334   2.3472   2.3613   2.4387
     2.4665   2.4869   2.4967   2.5065   2.5107   2.5231   2.5307   2.7084
     2.7127   2.7422   2.7427   2.7621   2.9291   2.9704   3.1603   3.3497
     3.4243   3.5440   3.7879   3.8000   4.1179   4.1854   4.2390   4.5176
     4.7365   5.0048   5.0132   5.0531   5.2279   5.2819   5.3496   5.4084
     5.6491   5.6685   6.0798   6.2986   6.6482   6.8448   7.0455   7.3285
     7.5654

          k = 0.4000-0.6928 0.0000 ( 43014 PWs)   bands (ev):

    -5.3309  -5.3189  -4.7185  -4.1586  -4.0722  -3.6249  -3.5451  -3.4112
    -3.3849  -3.2982  -3.2707  -3.1947  -3.1583  -3.1133  -3.0454  -3.0298
    -3.0193  -2.9968  -2.9837  -2.9762  -2.9099  -2.8324  -2.8243  -2.7989
    -2.7823  -2.7081  -2.6632  -2.5770  -2.5593  -2.4860  -2.4218  -2.4144
    -2.4004  -2.3969  -2.3432  -2.2852  -2.2468  -2.1794  -2.1256  -1.9902
    -1.9753  -1.9459  -1.8468  -1.8078  -1.7851  -1.7490  -1.6578  -1.6143
    -1.5855  -1.5675  -1.5352  -1.5097  -1.4947  -1.4681  -1.3832  -1.3757
    -1.3519  -1.3431  -1.3372  -1.3258  -1.2702  -1.2647  -1.2416  -1.1269
    -1.1061  -1.0601  -1.0229  -0.9511  -0.9200  -0.8969  -0.8870  -0.8427
    -0.8115  -0.8043  -0.7535  -0.7251  -0.7076  -0.6955  -0.6559  -0.6342
    -0.5974  -0.5793  -0.5201  -0.4955  -0.4857  -0.4632  -0.4142  -0.3375
    -0.3179  -0.2808  -0.2721  -0.2626  -0.2176  -0.2120  -0.2048  -0.1810
    -0.1721  -0.1411  -0.1214  -0.1033  -0.0942  -0.0722  -0.0567  -0.0498
    -0.0453  -0.0263   0.0064   0.0427   0.0531   0.1051   0.2612   0.3270
     0.3598   0.3671   0.4637   0.4753   0.4913   0.5042   0.5429   0.5733
     0.5801   0.5919   0.6366   0.6809   0.7090   0.7233   0.7764   0.7855
     0.8407   0.8625   0.9085   0.9994   1.0672   1.1124   1.1245   1.1385
     1.1604   1.2089   1.2305   1.2554   1.2734   1.2784   1.3105   1.3211
     1.3691   1.4290   1.4435   1.4893   1.5009   1.5220   1.5284   1.5479
     1.5662   1.6955   1.7096   1.7706   1.8200   1.8803   1.9412   1.9645
     1.9914   2.0487   2.0931   2.1009   2.1487   2.2057   2.2586   2.2816
     2.3065   2.3194   2.3279   2.3432   2.3732   2.3972   2.4707   2.4825
     2.4929   2.5188   2.5331   2.5383   2.5463   2.6064   2.7120   2.7318
     2.7438   2.7502   2.7644   2.8183   2.8481   2.9407   3.0637   3.6836
     3.9040   3.9082   4.1201   4.1628   4.2859   4.2917   4.3158   4.5933
     4.8950   4.9176   5.1498   5.3649   5.3960   5.4808   5.5113   5.6021
     5.7265   5.8192   5.9146   6.1564   6.3184   6.3594   6.6682   6.9763
     7.0046

          k = 0.4000-0.4619 0.0000 ( 43014 PWs)   bands (ev):

    -5.3309  -5.3189  -4.7185  -4.1589  -4.0722  -3.6245  -3.5452  -3.4110
    -3.3850  -3.2984  -3.2707  -3.1949  -3.1584  -3.1136  -3.0455  -3.0297
    -3.0192  -2.9969  -2.9836  -2.9762  -2.9095  -2.8324  -2.8244  -2.7989
    -2.7823  -2.7087  -2.6629  -2.5766  -2.5586  -2.4855  -2.4219  -2.4143
    -2.4004  -2.3969  -2.3433  -2.2852  -2.2474  -2.1794  -2.1252  -1.9903
    -1.9753  -1.9462  -1.8466  -1.8077  -1.7850  -1.7493  -1.6580  -1.6143
    -1.5855  -1.5675  -1.5352  -1.5097  -1.4946  -1.4678  -1.3835  -1.3756
    -1.3519  -1.3431  -1.3371  -1.3257  -1.2700  -1.2647  -1.2409  -1.1274
    -1.1066  -1.0603  -1.0232  -0.9513  -0.9202  -0.8969  -0.8871  -0.8426
    -0.8114  -0.8047  -0.7536  -0.7250  -0.7076  -0.6955  -0.6557  -0.6338
    -0.5974  -0.5793  -0.5202  -0.4954  -0.4857  -0.4633  -0.4142  -0.3374
    -0.3180  -0.2806  -0.2724  -0.2626  -0.2176  -0.2120  -0.2048  -0.1810
    -0.1724  -0.1412  -0.1214  -0.1035  -0.0941  -0.0722  -0.0567  -0.0497
    -0.0453  -0.0263   0.0061   0.0426   0.0533   0.1064   0.2611   0.3270
     0.3598   0.3671   0.4637   0.4753   0.4914   0.5043   0.5426   0.5731
     0.5802   0.5919   0.6364   0.6811   0.7093   0.7232   0.7763   0.7854
     0.8407   0.8624   0.9084   0.9986   1.0670   1.1124   1.1246   1.1385
     1.1606   1.2092   1.2306   1.2553   1.2734   1.2784   1.3106   1.3211
     1.3692   1.4289   1.4436   1.4892   1.5010   1.5220   1.5282   1.5478
     1.5661   1.6950   1.7098   1.7708   1.8200   1.8804   1.9415   1.9645
     1.9914   2.0487   2.0931   2.1009   2.1484   2.2057   2.2585   2.2816
     2.3065   2.3194   2.3279   2.3431   2.3734   2.3973   2.4707   2.4825
     2.4929   2.5187   2.5332   2.5383   2.5463   2.6064   2.7121   2.7319
     2.7438   2.7503   2.7644   2.8183   2.8483   2.9407   3.0634   3.6838
     3.9040   3.9082   4.1201   4.1628   4.2860   4.2917   4.3157   4.5935
     4.8950   4.9177   5.1501   5.3648   5.3961   5.4804   5.5116   5.6026
     5.7262   5.8191   5.9148   6.1562   6.3179   6.3595   6.6682   6.9761
     7.0048

     the Fermi energy is     2.5225 ev

!    total energy              =  -27755.48464790 Ry
     total all-electron energy =  -1326642.250065 Ry
     estimated scf accuracy    <          4.4E-09 Ry
     smearing contrib. (-TS)   =       0.00216200 Ry
     internal energy E=F+TS    =  -27755.48680990 Ry

     The total energy is F=E-TS. E is the sum of the following terms:
     one-electron contribution =  -20680.18758333 Ry
     hartree contribution      =   10647.30245024 Ry
     xc contribution           =    -890.68666386 Ry
     ewald contribution        =    8642.06294905 Ry
     one-center paw contrib.   =  -25473.97796199 Ry

     convergence has been achieved in  22 iterations

     negative rho (up, down):  3.169E-03 0.000E+00

     Forces acting on atoms (cartesian axes, Ry/au):

     atom    1 type  1   force =    -0.00029427    0.00060739   -0.00335751
     atom    2 type  1   force =     0.00029063    0.00060774   -0.00335044
     atom    3 type  1   force =     0.00001560    0.00211852   -0.00613330
     atom    4 type  1   force =     0.00000118    0.00057546   -0.00362596
     atom    5 type  1   force =     0.00037568    0.00000969   -0.00382104
     atom    6 type  1   force =    -0.00037244    0.00000405   -0.00382332
     atom    7 type  1   force =    -0.00024109    0.00046717   -0.00292676
     atom    8 type  1   force =    -0.00000113    0.00026368   -0.00344870
     atom    9 type  1   force =     0.00024452    0.00046349   -0.00292365
     atom   10 type  1   force =     0.00001039   -0.00070602    0.00585208
     atom   11 type  1   force =     0.00164442   -0.00202076   -0.00044625
     atom   12 type  1   force =    -0.00164858   -0.00202572   -0.00044569
     atom   13 type  1   force =    -0.00195733    0.00006277    0.00798556
     atom   14 type  1   force =    -0.00000456   -0.00098267    0.00272517
     atom   15 type  1   force =     0.00196354    0.00007502    0.00796124
     atom   16 type  1   force =    -0.00023542   -0.00078315    0.00309931
     atom   17 type  1   force =     0.00023053   -0.00077922    0.00308636
     atom   18 type  1   force =     0.00000462   -0.00013771    0.00166610
     atom   19 type  1   force =     0.00006921   -0.00007550   -0.00008298
     atom   20 type  1   force =    -0.00008545   -0.00007373   -0.00008263
     atom   21 type  1   force =     0.00000064   -0.00005807   -0.00013773
     atom   22 type  1   force =    -0.00001414   -0.00019850   -0.00006307
     atom   23 type  1   force =     0.00002327   -0.00011352   -0.00005581
     atom   24 type  1   force =    -0.00002151   -0.00011994   -0.00004010
     atom   25 type  1   force =    -0.00000038   -0.00016463   -0.00017161
     atom   26 type  1   force =    -0.00000257   -0.00015912   -0.00023014
     atom   27 type  1   force =    -0.00000770   -0.00017224   -0.00017498
     atom   28 type  1   force =     0.00009929   -0.00026835   -0.00033206
     atom   29 type  1   force =    -0.00012589   -0.00026938   -0.00030648
     atom   30 type  1   force =    -0.00000922   -0.00026108   -0.00009017
     atom   31 type  1   force =    -0.00001070   -0.00072749    0.00032966
     atom   32 type  1   force =    -0.00011032   -0.00038682   -0.00003909
     atom   33 type  1   force =     0.00010187   -0.00040228   -0.00004975
     atom   34 type  1   force =    -0.00007324   -0.00037590   -0.00003819
     atom   35 type  1   force =    -0.00001510   -0.00018733   -0.00010288
     atom   36 type  1   force =     0.00006689   -0.00037011   -0.00003811
     atom   37 type  2   force =     0.00008878    0.00656427    0.00363290
     The non-local contrib.  to forces
     atom    1 type  1   force =    -0.00002984   -0.00024735   -0.01813553
     atom    2 type  1   force =     0.00003785   -0.00025829   -0.01813967
     atom    3 type  1   force =    -0.00001823   -0.00195838   -0.01674980
     atom    4 type  1   force =    -0.00000437   -0.00058393   -0.01906365
     atom    5 type  1   force =     0.00010144    0.00017135   -0.01837026
     atom    6 type  1   force =    -0.00009301    0.00016766   -0.01835843
     atom    7 type  1   force =     0.00052395    0.00074904   -0.01915390
     atom    8 type  1   force =    -0.00000254   -0.00021195   -0.01905618
     atom    9 type  1   force =    -0.00052173    0.00075717   -0.01914882
     atom   10 type  1   force =    -0.00000110   -0.00158828   -0.00003875
     atom   11 type  1   force =    -0.00176963    0.00010927   -0.00035646
     atom   12 type  1   force =     0.00175968    0.00009970   -0.00035448
     atom   13 type  1   force =     0.00014436   -0.00103503    0.00157673
     atom   14 type  1   force =    -0.00000381   -0.00057818   -0.00051186
     atom   15 type  1   force =    -0.00013917   -0.00103968    0.00156823
     atom   16 type  1   force =     0.00087607   -0.00104765   -0.00052281
     atom   17 type  1   force =    -0.00088623   -0.00104395   -0.00053043
     atom   18 type  1   force =     0.00001099   -0.00332545   -0.00017766
     atom   19 type  1   force =    -0.00558253   -0.00475742    0.00262714
     atom   20 type  1   force =     0.00561547   -0.00481343    0.00251169
     atom   21 type  1   force =     0.00000011    0.00011112    0.00275537
     atom   22 type  1   force =    -0.00004434    0.01478298   -0.00990590
     atom   23 type  1   force =     0.00193901    0.00047253    0.00203618
     atom   24 type  1   force =    -0.00194621    0.00047037    0.00203861
     atom   25 type  1   force =     0.00081306    0.00024746    0.00422468
     atom   26 type  1   force =     0.00000323   -0.00274797    0.00036721
     atom   27 type  1   force =    -0.00083183    0.00024596    0.00425080
     atom   28 type  1   force =     0.01464408    0.01497976    0.02593805
     atom   29 type  1   force =    -0.01463459    0.01472316    0.02589735
     atom   30 type  1   force =    -0.00001515    0.00038274    0.01640748
     atom   31 type  1   force =     0.00021315    0.01663852   -0.11100654
     atom   32 type  1   force =    -0.00606693   -0.00091007    0.02023555
     atom   33 type  1   force =     0.00624931   -0.00100423    0.02032960
     atom   34 type  1   force =    -0.00082324   -0.00296091    0.01783371
     atom   35 type  1   force =    -0.00000501    0.00140022    0.01677761
     atom   36 type  1   force =     0.00080274   -0.00296611    0.01785241
     atom   37 type  2   force =     0.00018183    0.01624135   -0.03764392
     The ionic contribution  to forces
     atom    1 type  1   force =    -0.00055824    0.00369537  -93.42497417
     atom    2 type  1   force =     0.00056979    0.00374572  -93.42493098
     atom    3 type  1   force =    -0.00001090   -0.00840551  -93.42423062
     atom    4 type  1   force =     0.00004225    0.01128423  -93.40378456
     atom    5 type  1   force =    -0.00983650    0.00236017  -93.42350260
     atom    6 type  1   force =     0.00979293    0.00236015  -93.42358465
     atom    7 type  1   force =    -0.01321686   -0.00728921  -93.40742334
     atom    8 type  1   force =    -0.00002762   -0.00079795  -93.43033067
     atom    9 type  1   force =     0.01324473   -0.00726733  -93.40747199
     atom   10 type  1   force =     0.00044097    0.04516493  -31.54080378
     atom   11 type  1   force =    -0.03429948   -0.00338253  -31.55747337
     atom   12 type  1   force =     0.03360754   -0.00384198  -31.55781860
     atom   13 type  1   force =    -0.11011198    0.04085639  -31.47685508
     atom   14 type  1   force =    -0.00030463   -0.00738734  -31.59379758
     atom   15 type  1   force =     0.11052759    0.04110733  -31.47683903
     atom   16 type  1   force =    -0.03125449   -0.02149766  -31.58908431
     atom   17 type  1   force =     0.03103450   -0.02112952  -31.58933544
     atom   18 type  1   force =     0.00018722   -0.17778655  -31.44164825
     atom   19 type  1   force =     0.09975086    0.02940664   31.19885249
     atom   20 type  1   force =    -0.09967706    0.02891493   31.20193092
     atom   21 type  1   force =    -0.00029975   -0.05502558   30.86381764
     atom   22 type  1   force =    -0.00072621    0.06237738   31.78347834
     atom   23 type  1   force =    -0.06066771   -0.00393932   30.91356821
     atom   24 type  1   force =     0.06116357   -0.00387816   30.91086775
     atom   25 type  1   force =    -0.09003051   -0.04833283   30.79318599
     atom   26 type  1   force =     0.00013093    0.03912163   30.95263480
     atom   27 type  1   force =     0.08960033   -0.04837481   30.79081237
     atom   28 type  1   force =    -0.06142069   -0.23697181   92.30038497
     atom   29 type  1   force =     0.06084876   -0.23476954   92.29854268
     atom   30 type  1   force =    -0.00086645    0.01254059   92.75165859
     atom   31 type  1   force =     0.01204078    0.79343568   92.33241606
     atom   32 type  1   force =     0.17911613    0.05723917   92.50243173
     atom   33 type  1   force =    -0.18283108    0.05668442   92.49663685
     atom   34 type  1   force =     0.07122579    0.07323920   92.72701202
     atom   35 type  1   force =    -0.00008901    0.01983749   92.76525471
     atom   36 type  1   force =    -0.07176994    0.07655408   92.72425490
     atom   37 type  2   force =    -0.00532557   -0.50984786   12.28614800
     The local contribution  to forces
     atom    1 type  1   force =     0.00029664   -0.00283099   93.42255436
     atom    2 type  1   force =    -0.00031356   -0.00287442   93.42252691
     atom    3 type  1   force =     0.00003989    0.01259161   93.41729086
     atom    4 type  1   force =    -0.00003898   -0.01013703   93.40208519
     atom    5 type  1   force =     0.01009522   -0.00246841   93.42088386
     atom    6 type  1   force =    -0.01005488   -0.00246267   93.42094917
     atom    7 type  1   force =     0.01239636    0.00703992   93.40653080
     atom    8 type  1   force =     0.00003549    0.00126531   93.42876992
     atom    9 type  1   force =    -0.01242942    0.00700799   93.40657809
     atom   10 type  1   force =    -0.00042371   -0.04416433   31.54554239
     atom   11 type  1   force =     0.03776585    0.00114956   31.55614850
     atom   12 type  1   force =    -0.03707550    0.00162076   31.55649129
     atom   13 type  1   force =     0.10770843   -0.03964929   31.48235150
     atom   14 type  1   force =     0.00030867    0.00694962   31.59570728
     atom   15 type  1   force =    -0.10812623   -0.03987418   31.48232338
     atom   16 type  1   force =     0.03014171    0.02170737   31.59130923
     atom   17 type  1   force =    -0.02990616    0.02133984   31.59155503
     atom   18 type  1   force =    -0.00020371    0.18032760   31.44283417
     atom   19 type  1   force =    -0.09368849   -0.02473208  -31.19895541
     atom   20 type  1   force =     0.09355998   -0.02419671  -31.20192314
     atom   21 type  1   force =     0.00030105    0.05457396  -30.86476180
     atom   22 type  1   force =     0.00073990   -0.07742563  -31.77193049
     atom   23 type  1   force =     0.05869135    0.00332392  -30.91378493
     atom   24 type  1   force =    -0.05916474    0.00325987  -30.91107117
     atom   25 type  1   force =     0.08884634    0.04781638  -30.79574682
     atom   26 type  1   force =    -0.00012949   -0.03646213  -30.95120771
     atom   27 type  1   force =    -0.08841462    0.04784506  -30.79340662
     atom   28 type  1   force =     0.04727693    0.22158491  -92.31064672
     atom   29 type  1   force =    -0.04674575    0.21963842  -92.30872768
     atom   30 type  1   force =     0.00087043   -0.01308856  -92.75167325
     atom   31 type  1   force =    -0.01215236   -0.80200800  -92.22152321
     atom   32 type  1   force =    -0.17341521   -0.05663440  -92.50625975
     atom   33 type  1   force =     0.17693629   -0.05600255  -92.50058271
     atom   34 type  1   force =    -0.07049582   -0.07099446  -92.72809881
     atom   35 type  1   force =     0.00008251   -0.02119982  -92.76549383
     atom   36 type  1   force =     0.07104679   -0.07429166  -92.72536999
     atom   37 type  2   force =     0.00523260    0.50017089  -12.24488007
     The core correction contribution to forces
     atom    1 type  1   force =    -0.00001237   -0.00000316    0.01724007
     atom    2 type  1   force =     0.00001164   -0.00000366    0.01723972
     atom    3 type  1   force =    -0.00000043   -0.00011434    0.01761196
     atom    4 type  1   force =     0.00000042    0.00002919    0.01718972
     atom    5 type  1   force =     0.00001484   -0.00005481    0.01722006
     atom    6 type  1   force =    -0.00001459   -0.00005557    0.01722113
     atom    7 type  1   force =     0.00003821   -0.00004043    0.01717683
     atom    8 type  1   force =     0.00000019   -0.00000478    0.01721253
     atom    9 type  1   force =    -0.00003816   -0.00004045    0.01717791
     atom   10 type  1   force =    -0.00000144   -0.00009550    0.00120654
     atom   11 type  1   force =    -0.00004555    0.00009723    0.00128061
     atom   12 type  1   force =     0.00004919    0.00009942    0.00128324
     atom   13 type  1   force =     0.00028403   -0.00010020    0.00096661
     atom   14 type  1   force =     0.00000045    0.00002770    0.00137204
     atom   15 type  1   force =    -0.00028567   -0.00010133    0.00096748
     atom   16 type  1   force =    -0.00001807    0.00004112    0.00144808
     atom   17 type  1   force =     0.00001837    0.00004056    0.00145064
     atom   18 type  1   force =    -0.00000018    0.00062949    0.00071314
     atom   19 type  1   force =    -0.00040375    0.00003173   -0.00257009
     atom   20 type  1   force =     0.00040719    0.00003518   -0.00256636
     atom   21 type  1   force =     0.00000146    0.00027894   -0.00191609
     atom   22 type  1   force =     0.00000623    0.00007165   -0.00167401
     atom   23 type  1   force =     0.00004247    0.00002881   -0.00183476
     atom   24 type  1   force =    -0.00004561    0.00003037   -0.00183778
     atom   25 type  1   force =     0.00035213    0.00008745   -0.00179624
     atom   26 type  1   force =     0.00000034   -0.00007337   -0.00197596
     atom   27 type  1   force =    -0.00035030    0.00008755   -0.00179577
     atom   28 type  1   force =    -0.00040478    0.00013444   -0.01603971
     atom   29 type  1   force =     0.00041259    0.00012982   -0.01605241
     atom   30 type  1   force =    -0.00000082   -0.00011518   -0.01651404
     atom   31 type  1   force =    -0.00011436   -0.00877573    0.00039821
     atom   32 type  1   force =     0.00024749   -0.00007663   -0.01647794
     atom   33 type  1   force =    -0.00024189   -0.00007107   -0.01646909
     atom   34 type  1   force =     0.00000428    0.00033787   -0.01682374
     atom   35 type  1   force =     0.00000107   -0.00022437   -0.01667284
     atom   36 type  1   force =    -0.00000152    0.00033168   -0.01682030
     atom   37 type  2   force =     0.00000000    0.00000000    0.00000000
     The Hubbard contrib.    to forces
     atom    1 type  1   force =     0.00000000    0.00000000    0.00000000
     atom    2 type  1   force =     0.00000000    0.00000000    0.00000000
     atom    3 type  1   force =     0.00000000    0.00000000    0.00000000
     atom    4 type  1   force =     0.00000000    0.00000000    0.00000000
     atom    5 type  1   force =     0.00000000    0.00000000    0.00000000
     atom    6 type  1   force =     0.00000000    0.00000000    0.00000000
     atom    7 type  1   force =     0.00000000    0.00000000    0.00000000
     atom    8 type  1   force =     0.00000000    0.00000000    0.00000000
     atom    9 type  1   force =     0.00000000    0.00000000    0.00000000
     atom   10 type  1   force =     0.00000000    0.00000000    0.00000000
     atom   11 type  1   force =     0.00000000    0.00000000    0.00000000
     atom   12 type  1   force =     0.00000000    0.00000000    0.00000000
     atom   13 type  1   force =     0.00000000    0.00000000    0.00000000
     atom   14 type  1   force =     0.00000000    0.00000000    0.00000000
     atom   15 type  1   force =     0.00000000    0.00000000    0.00000000
     atom   16 type  1   force =     0.00000000    0.00000000    0.00000000
     atom   17 type  1   force =     0.00000000    0.00000000    0.00000000
     atom   18 type  1   force =     0.00000000    0.00000000    0.00000000
     atom   19 type  1   force =     0.00000000    0.00000000    0.00000000
     atom   20 type  1   force =     0.00000000    0.00000000    0.00000000
     atom   21 type  1   force =     0.00000000    0.00000000    0.00000000
     atom   22 type  1   force =     0.00000000    0.00000000    0.00000000
     atom   23 type  1   force =     0.00000000    0.00000000    0.00000000
     atom   24 type  1   force =     0.00000000    0.00000000    0.00000000
     atom   25 type  1   force =     0.00000000    0.00000000    0.00000000
     atom   26 type  1   force =     0.00000000    0.00000000    0.00000000
     atom   27 type  1   force =     0.00000000    0.00000000    0.00000000
     atom   28 type  1   force =     0.00000000    0.00000000    0.00000000
     atom   29 type  1   force =     0.00000000    0.00000000    0.00000000
     atom   30 type  1   force =     0.00000000    0.00000000    0.00000000
     atom   31 type  1   force =     0.00000000    0.00000000    0.00000000
     atom   32 type  1   force =     0.00000000    0.00000000    0.00000000
     atom   33 type  1   force =     0.00000000    0.00000000    0.00000000
     atom   34 type  1   force =     0.00000000    0.00000000    0.00000000
     atom   35 type  1   force =     0.00000000    0.00000000    0.00000000
     atom   36 type  1   force =     0.00000000    0.00000000    0.00000000
     atom   37 type  2   force =     0.00000000    0.00000000    0.00000000
     The SCF correction term to forces
     atom    1 type  1   force =     0.00000000   -0.00000000   -0.00000000
     atom    2 type  1   force =    -0.00000000   -0.00000000   -0.00000000
     atom    3 type  1   force =     0.00000000    0.00000000   -0.00000000
     atom    4 type  1   force =     0.00000000   -0.00000000   -0.00000000
     atom    5 type  1   force =     0.00000000    0.00000000   -0.00000000
     atom    6 type  1   force =    -0.00000000   -0.00000000   -0.00000000
     atom    7 type  1   force =     0.00000000    0.00000000   -0.00000000
     atom    8 type  1   force =    -0.00000000    0.00000000   -0.00000000
     atom    9 type  1   force =    -0.00000000    0.00000000   -0.00000000
     atom   10 type  1   force =    -0.00000000   -0.00000000   -0.00000000
     atom   11 type  1   force =    -0.00000000    0.00000000   -0.00000000
     atom   12 type  1   force =     0.00000000   -0.00000000   -0.00000000
     atom   13 type  1   force =     0.00000000   -0.00000000   -0.00000000
     atom   14 type  1   force =    -0.00000000    0.00000000   -0.00000000
     atom   15 type  1   force =    -0.00000000   -0.00000000   -0.00000000
     atom   16 type  1   force =     0.00000000    0.00000000   -0.00000000
     atom   17 type  1   force =    -0.00000000    0.00000000   -0.00000000
     atom   18 type  1   force =     0.00000000    0.00000000   -0.00000000
     atom   19 type  1   force =    -0.00000678   -0.00002469   -0.00004488
     atom   20 type  1   force =     0.00000906   -0.00001402   -0.00004350
     atom   21 type  1   force =    -0.00000213    0.00000318   -0.00004061
     atom   22 type  1   force =     0.00001038   -0.00000520   -0.00003876
     atom   23 type  1   force =     0.00001825    0.00000021   -0.00004828
     atom   24 type  1   force =    -0.00002842   -0.00000271   -0.00004527
     atom   25 type  1   force =     0.00001870    0.00001658   -0.00004699
     atom   26 type  1   force =    -0.00000749    0.00000240   -0.00005625
     atom   27 type  1   force =    -0.00001119    0.00002369   -0.00004353
     atom   28 type  1   force =     0.00000384    0.00000402    0.00002359
     atom   29 type  1   force =    -0.00000681    0.00000844    0.00002582
     atom   30 type  1   force =     0.00000287    0.00001900    0.00002328
     atom   31 type  1   force =     0.00000218   -0.00001828    0.00003737
     atom   32 type  1   force =     0.00000829   -0.00000521    0.00002356
     atom   33 type  1   force =    -0.00001067   -0.00000917    0.00002784
     atom   34 type  1   force =     0.00001585    0.00000207    0.00003087
     atom   35 type  1   force =    -0.00000457   -0.00000119    0.00002371
     atom   36 type  1   force =    -0.00001109    0.00000159    0.00003710
     atom   37 type  2   force =     0.00000002   -0.00000043    0.00000112

     Total force =     0.007641     Total SCF correction =     0.000177

     Writing all to output data dir ./pwscf.save/

     init_run     :     10.10s CPU     10.38s WALL (       1 calls)
     electrons    :    367.68s CPU    378.70s WALL (       1 calls)
     forces       :      3.49s CPU      4.16s WALL (       1 calls)

     Called by init_run:
     wfcinit      :      5.67s CPU      5.84s WALL (       1 calls)
     potinit      :      3.04s CPU      3.11s WALL (       1 calls)
     hinit0       :      0.81s CPU      0.82s WALL (       1 calls)

     Called by electrons:
     c_bands      :    312.52s CPU    319.22s WALL (      23 calls)
     sum_band     :     34.03s CPU     35.15s WALL (      23 calls)
     v_of_rho     :     10.34s CPU     12.18s WALL (      23 calls)
     newd         :      3.01s CPU      3.84s WALL (      23 calls)
     PAW_pot      :      4.85s CPU      5.07s WALL (      23 calls)
     mix_rho      :      5.03s CPU      5.14s WALL (      23 calls)
     vdW_kernel   :      1.70s CPU      1.71s WALL (       1 calls)

     Called by c_bands:
     init_us_2    :      3.22s CPU      3.28s WALL (     624 calls)
     init_us_2:cp :      3.22s CPU      3.28s WALL (     624 calls)
     cegterg      :    303.82s CPU    310.21s WALL (     299 calls)

     Called by *egterg:
     cdiaghg      :     79.10s CPU     80.35s WALL (    1400 calls)
     h_psi        :    142.99s CPU    146.05s WALL (    1426 calls)
     s_psi        :     16.79s CPU     17.06s WALL (    1426 calls)
     g_psi        :      0.56s CPU      0.58s WALL (    1114 calls)

     Called by h_psi:
     h_psi:calbec :     22.73s CPU     23.51s WALL (    1426 calls)
     vloc_psi     :    101.40s CPU    103.23s WALL (    1426 calls)
     add_vuspsi   :     17.50s CPU     17.83s WALL (    1426 calls)

     General routines
     calbec       :     31.32s CPU     32.24s WALL (    1777 calls)
     fft          :      6.11s CPU      8.05s WALL (    1509 calls)
     ffts         :      2.86s CPU      2.90s WALL (    5523 calls)
     fftw         :     97.05s CPU     98.73s WALL (  396425 calls)
     interpolate  :      0.61s CPU      0.66s WALL (      23 calls)

     Parallel routines

     PWSCF        :   6m22.85s CPU   6m37.37s WALL


   This run was terminated on:  17:16:47  23Feb2025            

=------------------------------------------------------------------------------=
   JOB DONE.
=------------------------------------------------------------------------------=
