
     Program PWSCF v.7.1 starts on  9Dec2025 at 13:53: 3 
        Git branch: heads/qe-7.1
        Last git commit: 48ba0178f8fede6d020eb786884699a9f063f55d-dirty
        Last git commit date: Fri Jan 27 14:22:33 2023 +0000
        Last git commit subject: Merge branch 'fix_hubbard' into 'develop'

     This program is part of the open-source Quantum ESPRESSO suite
     for quantum simulation of materials; please cite
         "P. Giannozzi et al., J. Phys.:Condens. Matter 21 395502 (2009);
         "P. Giannozzi et al., J. Phys.:Condens. Matter 29 465901 (2017);
         "P. Giannozzi et al., J. Chem. Phys. 152 154105 (2020);
          URL http://www.quantum-espresso.org", 
     in publications or presentations arising from this work. More details at
     http://www.quantum-espresso.org/quote

     Parallel version (MPI), running on    96 processors

     MPI processes distributed on     2 nodes
     48248 MiB available memory on the printing compute node when the environment starts

     Reading input from espresso.pwi
Warning: card &CELL ignored
Warning: card / ignored
Warning: card &FCP ignored
Warning: card / ignored
Warning: card &RISM ignored
Warning: card / ignored

     Current dimensions of program PWSCF are:
     Max number of different atomic species (ntypx) = 10
     Max number of k-points (npk) =  40000
     Max angular momentum in pseudopotentials (lmaxx) =  4
     file Co.pbe-n-kjpaw_psl.1.0.0.UPF: wavefunction(s)  4S 3D renormalized
     file C.pbe-n-kjpaw_psl.1.0.0.UPF: wavefunction(s)  2S 2P renormalized
     file O.pbe-nl-kjpaw_psl.1.0.0.UPF: wavefunction(s)  2S 2P renormalized
     file H.pbe-kjpaw_psl.1.0.0.UPF: wavefunction(s)  1S renormalized

     **************************************************************************
     Initializing libbeef V0.1.2 with the BEEF-vdW functional.
     Citation: Wellendorff et al., PRB 85, 235149 (2012).
     **************************************************************************


     IMPORTANT: XC functional enforced from input :
     Exchange-correlation= BEEF-VDW
                           (   1   4  43  14   2   0   0)
     Any further DFT definition will be discarded
     Please, verify this is what you really want


     R & G space division:  proc/nbgrp/npool/nimage =      96
     Subspace diagonalization in iterative solution of the eigenvalue problem:
     one sub-group per band group will be used
     custom distributed-memory algorithm (size of sub-group:  2*  2 procs)


     Parallelization info
     --------------------
     sticks:   dense  smooth     PW     G-vecs:    dense   smooth      PW
     Min          43      28      7                 7829     4248     595
     Max          44      29      8                 7845     4281     630
     Sum        4153    2773    757               752179   409445   59217

     Using Slab Decomposition



     bravais-lattice index     =            0
     lattice parameter (alat)  =      14.1729  a.u.
     unit-cell volume          =    8574.3059 (a.u.)^3
     number of atoms/cell      =           39
     number of atomic types    =            4
     number of electrons       =       335.00
     number of Kohn-Sham states=          202
     kinetic-energy cutoff     =      50.0000  Ry
     charge density cutoff     =     300.0000  Ry
     scf convergence threshold =      1.0E-08
     mixing beta               =       0.7000
     number of iterations used =            8  local-TF  mixing
     Exchange-correlation= BEEF-VDW
                           (   1   4  43  14   2   0   0)

     celldm(1)=  14.172946  celldm(2)=   0.000000  celldm(3)=   0.000000
     celldm(4)=   0.000000  celldm(5)=   0.000000  celldm(6)=   0.000000

     crystal axes: (cart. coord. in units of alat)
               a(1) = (   1.000000   0.000000   0.000000 )  
               a(2) = (   0.500000   0.866025   0.000000 )  
               a(3) = (   0.000000   0.000000   3.477667 )  

     reciprocal axes: (cart. coord. in units 2 pi/alat)
               b(1) = (  1.000000 -0.577350  0.000000 )  
               b(2) = (  0.000000  1.154701  0.000000 )  
               b(3) = (  0.000000  0.000000  0.287549 )  


     PseudoPot. # 1 for Co read from file:
     /users/kbadger1/espresso/pseudo/pslibrary.1.0.0/pbe/PSEUDOPOTENTIALS/Co.pbe-n-kjpaw_psl.1.0.0.UPF
     MD5 check sum: 88af6ec42553d4236c267fdfcb472151
     Pseudo is Projector augmented-wave + core cor, Zval =  9.0
     Generated using 'atomic' code by A. Dal Corso  v.7.0
     Shape of augmentation charge: PSQ
     Using radial grid of 1193 points,  6 beta functions with: 
                l(1) =   0
                l(2) =   0
                l(3) =   1
                l(4) =   1
                l(5) =   2
                l(6) =   2
     Q(r) pseudized with 0 coefficients 


     PseudoPot. # 2 for C  read from file:
     /users/kbadger1/espresso/pseudo/pslibrary.1.0.0/pbe/PSEUDOPOTENTIALS/C.pbe-n-kjpaw_psl.1.0.0.UPF
     MD5 check sum: 6408e75cdba28732cea38a4db8498ce4
     Pseudo is Projector augmented-wave + core cor, Zval =  4.0
     Generated using 'atomic' code by A. Dal Corso  v.7.0
     Shape of augmentation charge: PSQ
     Using radial grid of 1073 points,  4 beta functions with: 
                l(1) =   0
                l(2) =   0
                l(3) =   1
                l(4) =   1
     Q(r) pseudized with 0 coefficients 


     PseudoPot. # 3 for O  read from file:
     /users/kbadger1/espresso/pseudo/pslibrary.1.0.0/pbe/PSEUDOPOTENTIALS/O.pbe-nl-kjpaw_psl.1.0.0.UPF
     MD5 check sum: f0439fab3598ca4e468f064226030408
     Pseudo is Projector augmented-wave + core cor, Zval =  6.0
     Generated using 'atomic' code by A. Dal Corso  v.7.0
     Shape of augmentation charge: PSQ
     Using radial grid of 1095 points,  4 beta functions with: 
                l(1) =   0
                l(2) =   0
                l(3) =   1
                l(4) =   1
     Q(r) pseudized with 0 coefficients 


     PseudoPot. # 4 for H  read from file:
     /users/kbadger1/espresso/pseudo/pslibrary.1.0.0/pbe/PSEUDOPOTENTIALS/H.pbe-kjpaw_psl.1.0.0.UPF
     MD5 check sum: fe4c6fa958fa6d3815bf5d2419cbf1df
     Pseudo is Projector augmented-wave, Zval =  1.0
     Generated using 'atomic' code by A. Dal Corso  v.7.0
     Shape of augmentation charge: PSQ
     Using radial grid of  929 points,  2 beta functions with: 
                l(1) =   0
                l(2) =   0
     Q(r) pseudized with 0 coefficients 


     atomic species   valence    mass     pseudopotential
        Co             9.00    58.93319     Co( 1.00)
        C              4.00    12.01100     C ( 1.00)
        O              6.00    15.99900     O ( 1.00)
        H              1.00     1.00800     H ( 1.00)

     Starting magnetic structure 
     atomic species   magnetization
        Co           1.000
        C            1.000
        O            0.000
        H            0.000

     No symmetry found



   Cartesian axes

     site n.     atom                  positions (alat units)
         1           Co  tau(   1) = (   0.0000000   0.1924501   1.3333333  )
         2           Co  tau(   2) = (   0.3333333   0.1924501   1.3333333  )
         3           Co  tau(   3) = (   0.6666667   0.1924501   1.3333333  )
         4           Co  tau(   4) = (   0.1666667   0.4811252   1.3333333  )
         5           Co  tau(   5) = (   0.5000000   0.4811252   1.3333333  )
         6           Co  tau(   6) = (   0.8333333   0.4811252   1.3333333  )
         7           Co  tau(   7) = (   0.3333333   0.7698004   1.3333333  )
         8           Co  tau(   8) = (   0.6666667   0.7698004   1.3333333  )
         9           Co  tau(   9) = (   1.0000000   0.7698004   1.3333333  )
        10           Co  tau(  10) = (   0.0000000   0.0000000   1.6036667  )
        11           Co  tau(  11) = (   0.3333333   0.0000000   1.6036667  )
        12           Co  tau(  12) = (   0.6666667   0.0000000   1.6036667  )
        13           Co  tau(  13) = (   0.1666667   0.2886751   1.6036667  )
        14           Co  tau(  14) = (   0.5000000   0.2886751   1.6036667  )
        15           Co  tau(  15) = (   0.8333333   0.2886751   1.6036667  )
        16           Co  tau(  16) = (   0.3333333   0.5773503   1.6036667  )
        17           Co  tau(  17) = (   0.6666667   0.5773503   1.6036667  )
        18           Co  tau(  18) = (   1.0000000   0.5773503   1.6036667  )
        19           Co  tau(  19) = (   0.0000000   0.1924501   1.8740000  )
        20           Co  tau(  20) = (   0.3333333   0.1924501   1.8740000  )
        21           Co  tau(  21) = (   0.6666667   0.1924501   1.8740000  )
        22           Co  tau(  22) = (   0.1666667   0.4811252   1.8740000  )
        23           Co  tau(  23) = (   0.5000000   0.4811252   1.8740000  )
        24           Co  tau(  24) = (   0.8333333   0.4811252   1.8740000  )
        25           Co  tau(  25) = (   0.3333333   0.7698004   1.8740000  )
        26           Co  tau(  26) = (   0.6666667   0.7698004   1.8740000  )
        27           Co  tau(  27) = (   1.0000000   0.7698004   1.8740000  )
        28           Co  tau(  28) = (   0.0000000   0.0000000   2.1443333  )
        29           Co  tau(  29) = (   0.3333333   0.0000000   2.1443333  )
        30           Co  tau(  30) = (   0.6666667   0.0000000   2.1443333  )
        31           Co  tau(  31) = (   0.1666667   0.2886751   2.1443333  )
        32           Co  tau(  32) = (   0.5000000   0.2886751   2.1443333  )
        33           Co  tau(  33) = (   0.8333333   0.2886751   2.1443333  )
        34           Co  tau(  34) = (   0.3333333   0.5773503   2.1443333  )
        35           Co  tau(  35) = (   0.6666667   0.5773503   2.1443333  )
        36           Co  tau(  36) = (   1.0000000   0.5773503   2.1443333  )
        37           C   tau(  37) = (   0.1658353  -0.0397888   2.3318685  )
        38           O   tau(  38) = (   0.1366575  -0.0507543   2.4875865  )
        39           H   tau(  39) = (   0.4390177   0.0244613   2.3166994  )

     number of k points=    13  Marzari-Vanderbilt smearing, width (Ry)=  0.0010
                       cart. coord. in units 2pi/alat
        k(    1) = (   0.0000000   0.0000000   0.0000000), wk =   0.0400000
        k(    2) = (   0.0000000   0.2309401   0.0000000), wk =   0.0800000
        k(    3) = (   0.0000000   0.4618802   0.0000000), wk =   0.0800000
        k(    4) = (   0.2000000  -0.1154701   0.0000000), wk =   0.0800000
        k(    5) = (   0.2000000   0.1154701   0.0000000), wk =   0.0800000
        k(    6) = (   0.2000000   0.3464102   0.0000000), wk =   0.0800000
        k(    7) = (   0.2000000  -0.5773503   0.0000000), wk =   0.0800000
        k(    8) = (   0.2000000  -0.3464102   0.0000000), wk =   0.0800000
        k(    9) = (   0.4000000  -0.2309401   0.0000000), wk =   0.0800000
        k(   10) = (   0.4000000   0.0000000   0.0000000), wk =   0.0800000
        k(   11) = (   0.4000000   0.2309401   0.0000000), wk =   0.0800000
        k(   12) = (   0.4000000  -0.6928203   0.0000000), wk =   0.0800000
        k(   13) = (   0.4000000  -0.4618802   0.0000000), wk =   0.0800000

     Dense  grid:   752179 G-vectors     FFT dimensions: (  80,  80, 288)

     Smooth grid:   409445 G-vectors     FFT dimensions: (  64,  64, 225)

     Estimated max dynamical RAM per process >      99.02 MB

     Estimated total dynamical RAM >       9.28 GB
     Generating pointlists ...
     new r_m :   0.0840 (alat units)  1.1907 (a.u.) for type    1
     new r_m :   0.0655 (alat units)  0.9284 (a.u.) for type    2
     new r_m :   0.0655 (alat units)  0.9284 (a.u.) for type    3
     new r_m :   0.0840 (alat units)  1.1907 (a.u.) for type    4

     Initial potential from superposition of free atoms

     starting charge     334.9897, renormalised to     335.0000

     negative rho (up, down):  3.048E-03 4.571E-04


     %%%%%%%%%%%%%%%%%%%%%%%%%%%%%%%%%%%%%%%%%%%%%%%%%%%%%%%%%%%%%%%%%%%%%%%%
     %                                                                      %
     % You are using vdW-DF, which was implemented by the Thonhauser group. %
     % Please cite the following two papers that made this development      %
     % possible and the two reviews that describe the various versions:     %
     %                                                                      %
     %   T. Thonhauser et al., PRL 115, 136402 (2015).                      %
     %   T. Thonhauser et al., PRB 76, 125112 (2007).                       %
     %   K. Berland et al., Rep. Prog. Phys. 78, 066501 (2015).             %
     %   D.C. Langreth et al., J. Phys.: Condens. Matter 21, 084203 (2009). %
     %                                                                      %
     % If you are calculating stress with vdW-DF, please also cite:         %
     %                                                                      %
     %   R. Sabatini et al., J. Phys.: Condens. Matter 24, 424209 (2012).   %
     %   C.M. Frostenson et al., Electr. Struct. 4, 014001 (2022).          %
     %                                                                      %
     %%%%%%%%%%%%%%%%%%%%%%%%%%%%%%%%%%%%%%%%%%%%%%%%%%%%%%%%%%%%%%%%%%%%%%%%

     %%%%%%%%%%%%%%%%%%%%%%%%%%%%%%%%%%%%%%%%%%%%%%%%%%%%%%%%%%%%%%%%%%%%%%%%
     %                                                                      %
     %  vdW-DF NEWS:                                                        %
     %                                                                      %
     %  * vdW-DF3 is now available. DOI: 10.1021/acs.jctc.0c00471           %
     %    use with input_dft = 'vdW-DF3-opt1' or 'vdW-DF3-opt2'             %
     %                                                                      %
     %  * Unscreened and range-separated hybrid vdW-DF-cx functionals       %
     %    DOI: 10.1063/1.4986522 and 10.1088/1361-648X/ac2ad2               %
     %    use with input_dft = 'vdW-DF-cx0'    and 'vdW-DF-ahcx'            %
     %  * Unscreened and range-separated hybrid vdW-DF2-b86r functionals    %
     %    DOI: 10.1063/1.4986522 and DOI: 10.1103/PhysRevX.12.041003        %
     %    use with input_dft = 'vdW-DF2-br0' and 'vdW-DF2-ahbr'             %
     %                                                                      %
     %%%%%%%%%%%%%%%%%%%%%%%%%%%%%%%%%%%%%%%%%%%%%%%%%%%%%%%%%%%%%%%%%%%%%%%%


     Starting wfcs are  333 randomized atomic wfcs
     Checking if some PAW data can be deallocated... 

     total cpu time spent up to now is       12.3 secs

     per-process dynamical memory:   232.0 Mb

     Self-consistent Calculation

     iteration #  1     ecut=    50.00 Ry     beta= 0.70
     Davidson diagonalization with overlap
     ethr =  1.00E-02,  avg # of iterations =  2.0

     negative rho (up, down):  3.315E-05 7.432E-08

     total cpu time spent up to now is       34.4 secs

     total energy              =   -6053.07211723 Ry
     estimated scf accuracy    <      39.28303797 Ry

     total magnetization       =    69.00 Bohr mag/cell
     absolute magnetization    =    81.21 Bohr mag/cell

     iteration #  2     ecut=    50.00 Ry     beta= 0.70
     Davidson diagonalization with overlap
     ethr =  1.00E-02,  avg # of iterations =  1.0

     negative rho (up, down):  5.218E-06 3.829E-08

     total cpu time spent up to now is       48.2 secs

     total energy              =   -6052.53610408 Ry
     estimated scf accuracy    <      25.12459971 Ry

     total magnetization       =    68.84 Bohr mag/cell
     absolute magnetization    =    76.67 Bohr mag/cell

     iteration #  3     ecut=    50.00 Ry     beta= 0.70
     Davidson diagonalization with overlap
     ethr =  7.50E-03,  avg # of iterations =  1.0

     negative rho (up, down):  4.607E-08 0.000E+00

     total cpu time spent up to now is       66.4 secs

     total energy              =   -6055.14543891 Ry
     estimated scf accuracy    <      83.68124585 Ry

     total magnetization       =    66.28 Bohr mag/cell
     absolute magnetization    =    73.61 Bohr mag/cell

     iteration #  4     ecut=    50.00 Ry     beta= 0.70
     Davidson diagonalization with overlap
     ethr =  7.50E-03,  avg # of iterations =  1.0

     total cpu time spent up to now is       79.7 secs

     total energy              =   -6056.39554121 Ry
     estimated scf accuracy    <       5.13297702 Ry

     total magnetization       =    60.47 Bohr mag/cell
     absolute magnetization    =    70.18 Bohr mag/cell

     iteration #  5     ecut=    50.00 Ry     beta= 0.70
     Davidson diagonalization with overlap
     ethr =  1.53E-03,  avg # of iterations =  1.2

     total cpu time spent up to now is       97.7 secs

     total energy              =   -6056.41547226 Ry
     estimated scf accuracy    <       2.24439600 Ry

     total magnetization       =    59.89 Bohr mag/cell
     absolute magnetization    =    69.32 Bohr mag/cell

     iteration #  6     ecut=    50.00 Ry     beta= 0.70
     Davidson diagonalization with overlap
     ethr =  6.70E-04,  avg # of iterations =  1.7

     total cpu time spent up to now is      116.8 secs

     total energy              =   -6056.51804467 Ry
     estimated scf accuracy    <       0.57679446 Ry

     total magnetization       =    59.73 Bohr mag/cell
     absolute magnetization    =    68.83 Bohr mag/cell

     iteration #  7     ecut=    50.00 Ry     beta= 0.70
     Davidson diagonalization with overlap
     ethr =  1.72E-04,  avg # of iterations =  6.1

     total cpu time spent up to now is      135.2 secs

     total energy              =   -6056.56057773 Ry
     estimated scf accuracy    <       0.75914140 Ry

     total magnetization       =    59.82 Bohr mag/cell
     absolute magnetization    =    68.57 Bohr mag/cell

     iteration #  8     ecut=    50.00 Ry     beta= 0.70
     Davidson diagonalization with overlap
     ethr =  1.72E-04,  avg # of iterations =  1.7

     total cpu time spent up to now is      154.1 secs

     total energy              =   -6056.57899202 Ry
     estimated scf accuracy    <       0.12881950 Ry

     total magnetization       =    59.94 Bohr mag/cell
     absolute magnetization    =    68.52 Bohr mag/cell

     iteration #  9     ecut=    50.00 Ry     beta= 0.70
     Davidson diagonalization with overlap
     c_bands:  1 eigenvalues not converged
     ethr =  3.85E-05,  avg # of iterations = 10.0

     total cpu time spent up to now is      183.8 secs

     total energy              =   -6056.58474074 Ry
     estimated scf accuracy    <       0.17559694 Ry

     total magnetization       =    60.23 Bohr mag/cell
     absolute magnetization    =    68.40 Bohr mag/cell

     iteration # 10     ecut=    50.00 Ry     beta= 0.70
     Davidson diagonalization with overlap
     ethr =  3.85E-05,  avg # of iterations =  2.3

     total cpu time spent up to now is      198.3 secs

     total energy              =   -6056.58994709 Ry
     estimated scf accuracy    <       0.15377458 Ry

     total magnetization       =    60.29 Bohr mag/cell
     absolute magnetization    =    68.30 Bohr mag/cell

     iteration # 11     ecut=    50.00 Ry     beta= 0.70
     Davidson diagonalization with overlap
     ethr =  3.85E-05,  avg # of iterations =  1.3

     total cpu time spent up to now is      215.9 secs

     total energy              =   -6056.58468322 Ry
     estimated scf accuracy    <       0.12949891 Ry

     total magnetization       =    60.28 Bohr mag/cell
     absolute magnetization    =    68.16 Bohr mag/cell

     iteration # 12     ecut=    50.00 Ry     beta= 0.70
     Davidson diagonalization with overlap
     ethr =  3.85E-05,  avg # of iterations =  1.9

     negative rho (up, down):  1.549E-08 0.000E+00

     total cpu time spent up to now is      229.9 secs

     total energy              =   -6056.58818161 Ry
     estimated scf accuracy    <       0.07953741 Ry

     total magnetization       =    60.28 Bohr mag/cell
     absolute magnetization    =    68.02 Bohr mag/cell

     iteration # 13     ecut=    50.00 Ry     beta= 0.70
     Davidson diagonalization with overlap
     ethr =  2.37E-05,  avg # of iterations =  1.2

     total cpu time spent up to now is      247.6 secs

     total energy              =   -6056.58881161 Ry
     estimated scf accuracy    <       0.09084793 Ry

     total magnetization       =    60.28 Bohr mag/cell
     absolute magnetization    =    67.97 Bohr mag/cell

     iteration # 14     ecut=    50.00 Ry     beta= 0.70
     Davidson diagonalization with overlap
     ethr =  2.37E-05,  avg # of iterations =  1.5

     total cpu time spent up to now is      265.3 secs

     total energy              =   -6056.58292554 Ry
     estimated scf accuracy    <       0.09656572 Ry

     total magnetization       =    60.29 Bohr mag/cell
     absolute magnetization    =    68.02 Bohr mag/cell

     iteration # 15     ecut=    50.00 Ry     beta= 0.70
     Davidson diagonalization with overlap
     ethr =  2.37E-05,  avg # of iterations =  1.5

     negative rho (up, down):  3.739E-03 2.722E-03

     total cpu time spent up to now is      279.3 secs

     total energy              =   -6056.57991679 Ry
     estimated scf accuracy    <       0.08241900 Ry

     total magnetization       =    60.28 Bohr mag/cell
     absolute magnetization    =    68.01 Bohr mag/cell

     iteration # 16     ecut=    50.00 Ry     beta= 0.70
     Davidson diagonalization with overlap
     ethr =  2.37E-05,  avg # of iterations =  1.5

     negative rho (up, down):  1.537E-02 1.376E-02

     total cpu time spent up to now is      297.8 secs

     total energy              =   -6056.57800224 Ry
     estimated scf accuracy    <       0.04780343 Ry

     total magnetization       =    60.29 Bohr mag/cell
     absolute magnetization    =    67.89 Bohr mag/cell

     iteration # 17     ecut=    50.00 Ry     beta= 0.70
     Davidson diagonalization with overlap
     c_bands:  5 eigenvalues not converged
     c_bands:  1 eigenvalues not converged
     ethr =  1.43E-05,  avg # of iterations =  3.2

     negative rho (up, down):  3.469E-02 3.261E-02

     total cpu time spent up to now is      313.3 secs

     total energy              =   -6056.57570526 Ry
     estimated scf accuracy    <       0.05400207 Ry

     total magnetization       =    60.29 Bohr mag/cell
     absolute magnetization    =    67.87 Bohr mag/cell

     iteration # 18     ecut=    50.00 Ry     beta= 0.70
     Davidson diagonalization with overlap
     c_bands:  2 eigenvalues not converged
     ethr =  1.43E-05,  avg # of iterations =  3.0

     negative rho (up, down):  1.344E-02 1.220E-02

     total cpu time spent up to now is      333.3 secs

     total energy              =   -6056.57685454 Ry
     estimated scf accuracy    <       0.08238845 Ry

     total magnetization       =    60.29 Bohr mag/cell
     absolute magnetization    =    67.81 Bohr mag/cell

     iteration # 19     ecut=    50.00 Ry     beta= 0.70
     Davidson diagonalization with overlap
     ethr =  1.43E-05,  avg # of iterations =  1.1

     negative rho (up, down):  2.692E-02 2.519E-02

     total cpu time spent up to now is      346.4 secs

     total energy              =   -6056.57711403 Ry
     estimated scf accuracy    <       0.02219105 Ry

     total magnetization       =    60.28 Bohr mag/cell
     absolute magnetization    =    67.85 Bohr mag/cell

     iteration # 20     ecut=    50.00 Ry     beta= 0.70
     Davidson diagonalization with overlap
     c_bands:  1 eigenvalues not converged
     c_bands:  2 eigenvalues not converged
     ethr =  6.62E-06,  avg # of iterations =  4.2

     negative rho (up, down):  2.136E-02 1.983E-02

     total cpu time spent up to now is      367.7 secs

     total energy              =   -6056.57670755 Ry
     estimated scf accuracy    <       0.01032518 Ry

     total magnetization       =    60.34 Bohr mag/cell
     absolute magnetization    =    67.87 Bohr mag/cell

     iteration # 21     ecut=    50.00 Ry     beta= 0.70
     Davidson diagonalization with overlap
     c_bands:  1 eigenvalues not converged
     c_bands:  3 eigenvalues not converged
     c_bands:  3 eigenvalues not converged
     ethr =  3.08E-06,  avg # of iterations =  5.1

     negative rho (up, down):  2.357E-02 2.212E-02

     total cpu time spent up to now is      389.3 secs

     total energy              =   -6056.57570307 Ry
     estimated scf accuracy    <       0.01817885 Ry

     total magnetization       =    60.36 Bohr mag/cell
     absolute magnetization    =    67.89 Bohr mag/cell

     iteration # 22     ecut=    50.00 Ry     beta= 0.70
     Davidson diagonalization with overlap
     ethr =  3.08E-06,  avg # of iterations =  1.9

     negative rho (up, down):  2.306E-02 2.166E-02

     total cpu time spent up to now is      403.4 secs

     total energy              =   -6056.57571731 Ry
     estimated scf accuracy    <       0.01299634 Ry

     total magnetization       =    60.40 Bohr mag/cell
     absolute magnetization    =    67.92 Bohr mag/cell

     iteration # 23     ecut=    50.00 Ry     beta= 0.70
     Davidson diagonalization with overlap
     ethr =  3.08E-06,  avg # of iterations =  1.6

     negative rho (up, down):  1.774E-02 1.668E-02

     total cpu time spent up to now is      422.2 secs

     total energy              =   -6056.57550710 Ry
     estimated scf accuracy    <       0.00670459 Ry

     total magnetization       =    60.37 Bohr mag/cell
     absolute magnetization    =    67.91 Bohr mag/cell

     iteration # 24     ecut=    50.00 Ry     beta= 0.70
     Davidson diagonalization with overlap
     ethr =  2.00E-06,  avg # of iterations =  1.7

     negative rho (up, down):  1.558E-02 1.459E-02

     total cpu time spent up to now is      436.1 secs

     total energy              =   -6056.57544393 Ry
     estimated scf accuracy    <       0.00697736 Ry

     total magnetization       =    60.37 Bohr mag/cell
     absolute magnetization    =    67.91 Bohr mag/cell

     iteration # 25     ecut=    50.00 Ry     beta= 0.70
     Davidson diagonalization with overlap
     ethr =  2.00E-06,  avg # of iterations =  1.3

     negative rho (up, down):  1.268E-02 1.189E-02

     total cpu time spent up to now is      454.1 secs

     total energy              =   -6056.57561511 Ry
     estimated scf accuracy    <       0.00207901 Ry

     total magnetization       =    60.38 Bohr mag/cell
     absolute magnetization    =    67.92 Bohr mag/cell

     iteration # 26     ecut=    50.00 Ry     beta= 0.70
     Davidson diagonalization with overlap
     c_bands:  1 eigenvalues not converged
     c_bands:  1 eigenvalues not converged
     ethr =  6.21E-07,  avg # of iterations =  3.9

     negative rho (up, down):  9.296E-03 8.654E-03

     total cpu time spent up to now is      470.2 secs

     total energy              =   -6056.57576122 Ry
     estimated scf accuracy    <       0.00180049 Ry

     total magnetization       =    60.39 Bohr mag/cell
     absolute magnetization    =    67.94 Bohr mag/cell

     iteration # 27     ecut=    50.00 Ry     beta= 0.70
     Davidson diagonalization with overlap
     ethr =  5.37E-07,  avg # of iterations =  1.5

     negative rho (up, down):  6.157E-03 5.456E-03

     total cpu time spent up to now is      489.0 secs

     total energy              =   -6056.57572090 Ry
     estimated scf accuracy    <       0.00059383 Ry

     total magnetization       =    60.40 Bohr mag/cell
     absolute magnetization    =    67.96 Bohr mag/cell

     iteration # 28     ecut=    50.00 Ry     beta= 0.70
     Davidson diagonalization with overlap
     ethr =  1.77E-07,  avg # of iterations =  3.4

     negative rho (up, down):  6.404E-03 5.687E-03

     total cpu time spent up to now is      508.8 secs

     total energy              =   -6056.57570882 Ry
     estimated scf accuracy    <       0.00112722 Ry

     total magnetization       =    60.39 Bohr mag/cell
     absolute magnetization    =    67.95 Bohr mag/cell

     iteration # 29     ecut=    50.00 Ry     beta= 0.70
     Davidson diagonalization with overlap
     ethr =  1.77E-07,  avg # of iterations =  1.4

     negative rho (up, down):  5.486E-03 4.731E-03

     total cpu time spent up to now is      522.6 secs

     total energy              =   -6056.57576607 Ry
     estimated scf accuracy    <       0.00061514 Ry

     total magnetization       =    60.39 Bohr mag/cell
     absolute magnetization    =    67.95 Bohr mag/cell

     iteration # 30     ecut=    50.00 Ry     beta= 0.70
     Davidson diagonalization with overlap
     ethr =  1.77E-07,  avg # of iterations =  1.1

     negative rho (up, down):  4.581E-03 3.643E-03

     total cpu time spent up to now is      540.6 secs

     total energy              =   -6056.57585700 Ry
     estimated scf accuracy    <       0.00016415 Ry

     total magnetization       =    60.39 Bohr mag/cell
     absolute magnetization    =    67.95 Bohr mag/cell

     iteration # 31     ecut=    50.00 Ry     beta= 0.70
     Davidson diagonalization with overlap
     ethr =  4.90E-08,  avg # of iterations =  4.2

     negative rho (up, down):  4.178E-03 3.175E-03

     total cpu time spent up to now is      556.9 secs

     total energy              =   -6056.57585221 Ry
     estimated scf accuracy    <       0.00007652 Ry

     total magnetization       =    60.39 Bohr mag/cell
     absolute magnetization    =    67.95 Bohr mag/cell

     iteration # 32     ecut=    50.00 Ry     beta= 0.70
     Davidson diagonalization with overlap
     c_bands:  1 eigenvalues not converged
     c_bands:  1 eigenvalues not converged
     ethr =  2.28E-08,  avg # of iterations =  3.7

     negative rho (up, down):  4.064E-03 3.044E-03

     total cpu time spent up to now is      577.4 secs

     total energy              =   -6056.57585172 Ry
     estimated scf accuracy    <       0.00012389 Ry

     total magnetization       =    60.39 Bohr mag/cell
     absolute magnetization    =    67.95 Bohr mag/cell

     iteration # 33     ecut=    50.00 Ry     beta= 0.70
     Davidson diagonalization with overlap
     ethr =  2.28E-08,  avg # of iterations =  1.4

     negative rho (up, down):  3.835E-03 2.781E-03

     total cpu time spent up to now is      593.3 secs

     total energy              =   -6056.57584593 Ry
     estimated scf accuracy    <       0.00006688 Ry

     total magnetization       =    60.39 Bohr mag/cell
     absolute magnetization    =    67.95 Bohr mag/cell

     iteration # 34     ecut=    50.00 Ry     beta= 0.70
     Davidson diagonalization with overlap
     ethr =  2.00E-08,  avg # of iterations =  1.5

     negative rho (up, down):  3.978E-03 2.999E-03

     total cpu time spent up to now is      609.8 secs

     total energy              =   -6056.57585216 Ry
     estimated scf accuracy    <       0.00010199 Ry

     total magnetization       =    60.39 Bohr mag/cell
     absolute magnetization    =    67.95 Bohr mag/cell

     iteration # 35     ecut=    50.00 Ry     beta= 0.70
     Davidson diagonalization with overlap
     ethr =  2.00E-08,  avg # of iterations =  1.5

     negative rho (up, down):  4.051E-03 3.120E-03

     total cpu time spent up to now is      628.5 secs

     total energy              =   -6056.57585910 Ry
     estimated scf accuracy    <       0.00008516 Ry

     total magnetization       =    60.39 Bohr mag/cell
     absolute magnetization    =    67.94 Bohr mag/cell

     iteration # 36     ecut=    50.00 Ry     beta= 0.70
     Davidson diagonalization with overlap
     ethr =  2.00E-08,  avg # of iterations =  1.1

     negative rho (up, down):  4.129E-03 3.235E-03

     total cpu time spent up to now is      641.8 secs

     total energy              =   -6056.57586462 Ry
     estimated scf accuracy    <       0.00006619 Ry

     total magnetization       =    60.39 Bohr mag/cell
     absolute magnetization    =    67.94 Bohr mag/cell

     iteration # 37     ecut=    50.00 Ry     beta= 0.70
     Davidson diagonalization with overlap
     ethr =  1.98E-08,  avg # of iterations =  1.2

     negative rho (up, down):  4.110E-03 3.252E-03

     total cpu time spent up to now is      660.4 secs

     total energy              =   -6056.57586847 Ry
     estimated scf accuracy    <       0.00005508 Ry

     total magnetization       =    60.39 Bohr mag/cell
     absolute magnetization    =    67.95 Bohr mag/cell

     iteration # 38     ecut=    50.00 Ry     beta= 0.70
     Davidson diagonalization with overlap
     ethr =  1.64E-08,  avg # of iterations =  1.5

     negative rho (up, down):  3.805E-03 2.914E-03

     total cpu time spent up to now is      674.4 secs

     total energy              =   -6056.57586129 Ry
     estimated scf accuracy    <       0.00007816 Ry

     total magnetization       =    60.39 Bohr mag/cell
     absolute magnetization    =    67.94 Bohr mag/cell

     iteration # 39     ecut=    50.00 Ry     beta= 0.70
     Davidson diagonalization with overlap
     ethr =  1.64E-08,  avg # of iterations =  1.0

     negative rho (up, down):  3.820E-03 2.951E-03

     total cpu time spent up to now is      691.9 secs

     total energy              =   -6056.57586319 Ry
     estimated scf accuracy    <       0.00003302 Ry

     total magnetization       =    60.38 Bohr mag/cell
     absolute magnetization    =    67.94 Bohr mag/cell

     iteration # 40     ecut=    50.00 Ry     beta= 0.70
     Davidson diagonalization with overlap
     ethr =  9.86E-09,  avg # of iterations =  1.4

     negative rho (up, down):  3.496E-03 2.619E-03

     total cpu time spent up to now is      705.6 secs

     total energy              =   -6056.57585372 Ry
     estimated scf accuracy    <       0.00009240 Ry

     total magnetization       =    60.39 Bohr mag/cell
     absolute magnetization    =    67.94 Bohr mag/cell

     iteration # 41     ecut=    50.00 Ry     beta= 0.70
     Davidson diagonalization with overlap
     ethr =  9.86E-09,  avg # of iterations =  1.5

     negative rho (up, down):  3.240E-03 2.295E-03

     total cpu time spent up to now is      724.4 secs

     total energy              =   -6056.57584774 Ry
     estimated scf accuracy    <       0.00001941 Ry

     total magnetization       =    60.38 Bohr mag/cell
     absolute magnetization    =    67.94 Bohr mag/cell

     iteration # 42     ecut=    50.00 Ry     beta= 0.70
     Davidson diagonalization with overlap
     ethr =  5.79E-09,  avg # of iterations =  1.3

     negative rho (up, down):  2.645E-03 1.612E-03

     total cpu time spent up to now is      738.1 secs

     total energy              =   -6056.57583904 Ry
     estimated scf accuracy    <       0.00003932 Ry

     total magnetization       =    60.38 Bohr mag/cell
     absolute magnetization    =    67.94 Bohr mag/cell

     iteration # 43     ecut=    50.00 Ry     beta= 0.70
     Davidson diagonalization with overlap
     ethr =  5.79E-09,  avg # of iterations =  1.7

     negative rho (up, down):  2.877E-03 1.853E-03

     total cpu time spent up to now is      756.7 secs

     total energy              =   -6056.57584147 Ry
     estimated scf accuracy    <       0.00001172 Ry

     total magnetization       =    60.38 Bohr mag/cell
     absolute magnetization    =    67.94 Bohr mag/cell

     iteration # 44     ecut=    50.00 Ry     beta= 0.70
     Davidson diagonalization with overlap
     ethr =  3.50E-09,  avg # of iterations =  2.5

     negative rho (up, down):  2.676E-03 1.632E-03

     total cpu time spent up to now is      776.0 secs

     total energy              =   -6056.57583944 Ry
     estimated scf accuracy    <       0.00003655 Ry

     total magnetization       =    60.38 Bohr mag/cell
     absolute magnetization    =    67.94 Bohr mag/cell

     iteration # 45     ecut=    50.00 Ry     beta= 0.70
     Davidson diagonalization with overlap
     ethr =  3.50E-09,  avg # of iterations =  1.4

     negative rho (up, down):  2.514E-03 1.455E-03

     total cpu time spent up to now is      790.2 secs

     total energy              =   -6056.57584040 Ry
     estimated scf accuracy    <       0.00001006 Ry

     total magnetization       =    60.38 Bohr mag/cell
     absolute magnetization    =    67.94 Bohr mag/cell

     iteration # 46     ecut=    50.00 Ry     beta= 0.70
     Davidson diagonalization with overlap
     ethr =  3.00E-09,  avg # of iterations =  1.2

     negative rho (up, down):  2.415E-03 1.338E-03

     total cpu time spent up to now is      808.2 secs

     total energy              =   -6056.57584119 Ry
     estimated scf accuracy    <       0.00000448 Ry

     total magnetization       =    60.38 Bohr mag/cell
     absolute magnetization    =    67.94 Bohr mag/cell

     iteration # 47     ecut=    50.00 Ry     beta= 0.70
     Davidson diagonalization with overlap
     c_bands:  1 eigenvalues not converged
     ethr =  1.34E-09,  avg # of iterations =  2.9

     negative rho (up, down):  2.326E-03 1.242E-03

     total cpu time spent up to now is      823.6 secs

     total energy              =   -6056.57584130 Ry
     estimated scf accuracy    <       0.00000486 Ry

     total magnetization       =    60.38 Bohr mag/cell
     absolute magnetization    =    67.94 Bohr mag/cell

     iteration # 48     ecut=    50.00 Ry     beta= 0.70
     Davidson diagonalization with overlap
     ethr =  1.34E-09,  avg # of iterations =  1.3

     negative rho (up, down):  2.310E-03 1.226E-03

     total cpu time spent up to now is      842.1 secs

     total energy              =   -6056.57584132 Ry
     estimated scf accuracy    <       0.00000258 Ry

     total magnetization       =    60.38 Bohr mag/cell
     absolute magnetization    =    67.94 Bohr mag/cell

     iteration # 49     ecut=    50.00 Ry     beta= 0.70
     Davidson diagonalization with overlap
     ethr =  7.71E-10,  avg # of iterations =  1.9

     negative rho (up, down):  2.307E-03 1.220E-03

     total cpu time spent up to now is      856.5 secs

     total energy              =   -6056.57584136 Ry
     estimated scf accuracy    <       0.00000205 Ry

     total magnetization       =    60.38 Bohr mag/cell
     absolute magnetization    =    67.94 Bohr mag/cell

     iteration # 50     ecut=    50.00 Ry     beta= 0.70
     Davidson diagonalization with overlap
     ethr =  6.12E-10,  avg # of iterations =  1.6

     negative rho (up, down):  2.261E-03 1.172E-03

     total cpu time spent up to now is      874.9 secs

     total energy              =   -6056.57584127 Ry
     estimated scf accuracy    <       0.00000144 Ry

     total magnetization       =    60.38 Bohr mag/cell
     absolute magnetization    =    67.94 Bohr mag/cell

     iteration # 51     ecut=    50.00 Ry     beta= 0.70
     Davidson diagonalization with overlap
     ethr =  4.30E-10,  avg # of iterations =  1.8

     negative rho (up, down):  2.248E-03 1.160E-03

     total cpu time spent up to now is      889.1 secs

     total energy              =   -6056.57584131 Ry
     estimated scf accuracy    <       0.00000013 Ry

     total magnetization       =    60.38 Bohr mag/cell
     absolute magnetization    =    67.94 Bohr mag/cell

     iteration # 52     ecut=    50.00 Ry     beta= 0.70
     Davidson diagonalization with overlap
     ethr =  3.85E-11,  avg # of iterations =  8.0

     negative rho (up, down):  2.257E-03 1.170E-03

     total cpu time spent up to now is      915.9 secs

     total energy              =   -6056.57584137 Ry
     estimated scf accuracy    <       0.00000012 Ry

     total magnetization       =    60.38 Bohr mag/cell
     absolute magnetization    =    67.94 Bohr mag/cell

     iteration # 53     ecut=    50.00 Ry     beta= 0.70
     Davidson diagonalization with overlap
     ethr =  3.59E-11,  avg # of iterations =  1.7

     negative rho (up, down):  2.257E-03 1.170E-03

     total cpu time spent up to now is      934.4 secs

     total energy              =   -6056.57584137 Ry
     estimated scf accuracy    <       0.00000007 Ry

     total magnetization       =    60.38 Bohr mag/cell
     absolute magnetization    =    67.94 Bohr mag/cell

     iteration # 54     ecut=    50.00 Ry     beta= 0.70
     Davidson diagonalization with overlap
     ethr =  2.01E-11,  avg # of iterations =  1.3

     negative rho (up, down):  2.258E-03 1.173E-03

     total cpu time spent up to now is      947.9 secs

     total energy              =   -6056.57584139 Ry
     estimated scf accuracy    <       0.00000004 Ry

     total magnetization       =    60.38 Bohr mag/cell
     absolute magnetization    =    67.94 Bohr mag/cell

     iteration # 55     ecut=    50.00 Ry     beta= 0.70
     Davidson diagonalization with overlap
     ethr =  1.22E-11,  avg # of iterations =  2.7

     negative rho (up, down):  2.256E-03 1.170E-03

     total cpu time spent up to now is      968.5 secs

     total energy              =   -6056.57584139 Ry
     estimated scf accuracy    <       0.00000003 Ry

     total magnetization       =    60.38 Bohr mag/cell
     absolute magnetization    =    67.94 Bohr mag/cell

     iteration # 56     ecut=    50.00 Ry     beta= 0.70
     Davidson diagonalization with overlap
     ethr =  7.74E-12,  avg # of iterations =  1.6

     negative rho (up, down):  2.245E-03 1.160E-03

     Magnetic moment per site  (integrated on atomic sphere of radius R)
     atom   1 (R=0.084)  charge=  5.3402  magn=  1.5760
     atom   2 (R=0.084)  charge=  5.3424  magn=  1.5722
     atom   3 (R=0.084)  charge=  5.3421  magn=  1.5799
     atom   4 (R=0.084)  charge=  5.3426  magn=  1.5855
     atom   5 (R=0.084)  charge=  5.3422  magn=  1.5808
     atom   6 (R=0.084)  charge=  5.3427  magn=  1.5796
     atom   7 (R=0.084)  charge=  5.3402  magn=  1.5791
     atom   8 (R=0.084)  charge=  5.3413  magn=  1.5649
     atom   9 (R=0.084)  charge=  5.3429  magn=  1.5760
     atom  10 (R=0.084)  charge=  5.3334  magn=  1.5171
     atom  11 (R=0.084)  charge=  5.3356  magn=  1.5099
     atom  12 (R=0.084)  charge=  5.3354  magn=  1.5250
     atom  13 (R=0.084)  charge=  5.3347  magn=  1.5274
     atom  14 (R=0.084)  charge=  5.3358  magn=  1.5242
     atom  15 (R=0.084)  charge=  5.3352  magn=  1.5202
     atom  16 (R=0.084)  charge=  5.3349  magn=  1.5142
     atom  17 (R=0.084)  charge=  5.3351  magn=  1.5229
     atom  18 (R=0.084)  charge=  5.3357  magn=  1.5208
     atom  19 (R=0.084)  charge=  5.3338  magn=  1.5111
     atom  20 (R=0.084)  charge=  5.3348  magn=  1.5106
     atom  21 (R=0.084)  charge=  5.3342  magn=  1.5364
     atom  22 (R=0.084)  charge=  5.3355  magn=  1.5148
     atom  23 (R=0.084)  charge=  5.3351  magn=  1.5048
     atom  24 (R=0.084)  charge=  5.3353  magn=  1.5176
     atom  25 (R=0.084)  charge=  5.3333  magn=  1.4948
     atom  26 (R=0.084)  charge=  5.3324  magn=  1.5163
     atom  27 (R=0.084)  charge=  5.3348  magn=  1.5116
     atom  28 (R=0.084)  charge=  5.3472  magn=  1.2143
     atom  29 (R=0.084)  charge=  5.3417  magn=  0.7759
     atom  30 (R=0.084)  charge=  5.3403  magn=  1.5531
     atom  31 (R=0.084)  charge=  5.3437  magn=  1.6007
     atom  32 (R=0.084)  charge=  5.3431  magn=  1.5880
     atom  33 (R=0.084)  charge=  5.3401  magn=  1.5946
     atom  34 (R=0.084)  charge=  5.3410  magn=  1.6063
     atom  35 (R=0.084)  charge=  5.3463  magn=  1.5186
     atom  36 (R=0.084)  charge=  5.3432  magn=  1.6110
     atom  37 (R=0.066)  charge=  1.0468  magn= -0.0197
     atom  38 (R=0.066)  charge=  2.9239  magn= -0.0354
     atom  39 (R=0.084)  charge=  0.7113  magn= -0.0147

     total cpu time spent up to now is      986.7 secs

     End of self-consistent calculation

 ------ SPIN UP ------------


          k = 0.0000 0.0000 0.0000 ( 51087 PWs)   bands (ev):

   -21.9493  -9.2359  -7.6324  -6.4192  -5.8049  -5.7424  -5.3928  -4.8421
    -4.8061  -4.8036  -4.7993  -4.7805  -4.7708  -4.7515  -4.4557  -4.2883
    -4.2703  -4.2680  -4.2484  -4.2353  -4.2210  -3.9129  -3.7550  -3.7512
    -3.7441  -3.7288  -3.7018  -3.6640  -3.6202  -3.6178  -3.6127  -3.6072
    -3.5887  -3.5422  -3.5364  -3.4162  -3.2362  -3.2319  -3.2279  -3.2255
    -3.1719  -3.1673  -3.1606  -3.1552  -3.1525  -3.1451  -3.1343  -3.1076
    -2.9998  -2.9988  -2.9322  -2.9289  -2.9224  -2.9174  -2.9062  -2.8960
    -2.8946  -2.8920  -2.8825  -2.8635  -2.7948  -2.7868  -2.7819  -2.7740
    -2.7079  -2.6261  -2.2884  -2.2543  -2.2512  -2.2470  -2.2444  -2.1482
    -2.1251  -2.1155  -2.0998  -2.0936  -2.0831  -2.0724  -2.0699  -2.0645
    -2.0225  -2.0199  -1.9932  -1.9757  -1.9731  -1.9642  -1.9508  -1.9424
    -1.9370  -1.9322  -1.9259  -1.9210  -1.9126  -1.8978  -1.8930  -1.8848
    -1.8834  -1.8804  -1.8780  -1.8764  -1.8733  -1.8716  -1.8681  -1.8584
    -1.8492  -1.8446  -1.8164  -1.7990  -1.7887  -1.7208  -1.7148  -1.6108
    -1.5414  -1.4309  -1.4300  -1.4281  -1.4204  -1.4116  -1.3990  -1.3868
    -1.3828  -1.3760  -1.3604  -1.3344  -1.3307  -1.2107  -1.2066  -1.1942
    -1.1792  -1.1694  -1.0793  -1.0336  -1.0075  -0.9989  -0.9704  -0.9613
    -0.9467  -0.9439  -0.9350  -0.9317  -0.9204  -0.8741  -0.8211  -0.7960
    -0.7134  -0.6922  -0.6881  -0.6831  -0.6677  -0.6442  -0.6270  -0.6217
    -0.6185  -0.6164  -0.6153  -0.6128  -0.6062  -0.5966  -0.5934  -0.5847
    -0.5804  -0.5721  -0.5633  -0.5503  -0.5460  -0.5417  -0.5315  -0.5209
    -0.5195  -0.5071  -0.4991  -0.4948  -0.4881  -0.4763  -0.4749  -0.4698
    -0.4655  -0.4597  -0.4388  -0.4147  -0.3983  -0.3899  -0.3853  -0.3776
    -0.3730  -0.3637  -0.3503  -0.3439  -0.3346  -0.2969  -0.2915  -0.2905
    -0.2828  -0.2787  -0.2262  -0.2214  -0.2148  -0.2063  -0.1686  -0.1543
     0.4746   0.8316

          k = 0.0000 0.2309 0.0000 ( 51134 PWs)   bands (ev):

   -21.9493  -9.2270  -7.4895  -6.3205  -5.8196  -5.7458  -5.5314  -5.3613
    -5.0424  -5.0211  -4.7051  -4.5757  -4.4614  -4.4564  -4.3940  -4.3638
    -4.2918  -4.2761  -4.2013  -4.1375  -4.1294  -3.9338  -3.8382  -3.7563
    -3.7471  -3.6795  -3.6353  -3.6252  -3.6222  -3.6106  -3.6010  -3.5862
    -3.5662  -3.5099  -3.4963  -3.4735  -3.4666  -3.3801  -3.2561  -3.2450
    -3.2349  -3.1915  -3.1880  -3.1794  -3.1586  -3.0859  -3.0581  -3.0484
    -3.0220  -3.0199  -3.0112  -2.9815  -2.9610  -2.8857  -2.8766  -2.8463
    -2.8147  -2.8095  -2.7820  -2.7763  -2.7512  -2.7149  -2.7134  -2.6957
    -2.6820  -2.5962  -2.3724  -2.3657  -2.3439  -2.3375  -2.3100  -2.2253
    -2.2148  -2.2014  -2.1959  -2.1859  -2.1803  -2.1713  -2.1473  -2.0920
    -2.0787  -2.0684  -2.0460  -2.0150  -2.0104  -2.0063  -1.9919  -1.9862
    -1.9741  -1.9682  -1.9605  -1.9587  -1.9504  -1.9277  -1.9123  -1.8743
    -1.8553  -1.8516  -1.7873  -1.7823  -1.7718  -1.7696  -1.7609  -1.7575
    -1.7447  -1.7364  -1.7273  -1.7248  -1.7129  -1.6970  -1.6837  -1.6705
    -1.6545  -1.6457  -1.6208  -1.5581  -1.5457  -1.4748  -1.4554  -1.4514
    -1.4435  -1.4259  -1.4217  -1.4129  -1.3931  -1.3776  -1.3537  -1.2542
    -1.2336  -1.2149  -1.1653  -1.1557  -1.1389  -1.0872  -1.0664  -1.0567
    -1.0378  -0.9663  -0.9553  -0.9415  -0.9160  -0.9126  -0.8820  -0.8706
    -0.8546  -0.8399  -0.8312  -0.8000  -0.7857  -0.7731  -0.7662  -0.7613
    -0.7091  -0.7014  -0.6874  -0.6816  -0.6739  -0.6504  -0.6276  -0.6163
    -0.6085  -0.6022  -0.5978  -0.5851  -0.5667  -0.5580  -0.5465  -0.5286
    -0.5022  -0.4902  -0.4739  -0.4368  -0.4215  -0.4014  -0.3898  -0.3651
    -0.3598  -0.3448  -0.3416  -0.3297  -0.3127  -0.3065  -0.3002  -0.2671
    -0.2305  -0.2240  -0.2120  -0.1907  -0.1846  -0.1689  -0.1504  -0.1337
    -0.0699   0.0043   0.1522   0.1656   0.2614   0.3255   0.4279   0.4407
     0.4693   0.7890

          k = 0.0000 0.4619 0.0000 ( 51204 PWs)   bands (ev):

   -21.9493  -9.2129  -7.0686  -6.4163  -6.0870  -5.7823  -5.6521  -5.3518
    -5.1885  -5.1404  -5.0420  -4.4306  -4.2926  -4.2883  -4.2696  -4.2211
    -4.1304  -4.0996  -4.0739  -4.0025  -3.9675  -3.9617  -3.9497  -3.7942
    -3.7840  -3.7786  -3.7703  -3.7481  -3.7059  -3.6623  -3.6519  -3.5274
    -3.4969  -3.4861  -3.4714  -3.4507  -3.4406  -3.3922  -3.3401  -3.3341
    -3.3205  -3.3154  -3.2468  -3.1969  -3.1178  -3.0961  -3.0244  -3.0181
    -2.9842  -2.9679  -2.9417  -2.9300  -2.9230  -2.8986  -2.8839  -2.8328
    -2.8255  -2.7972  -2.7701  -2.7653  -2.6311  -2.6246  -2.5971  -2.5849
    -2.5423  -2.5117  -2.4851  -2.4752  -2.4559  -2.3999  -2.3426  -2.3399
    -2.3345  -2.3275  -2.3189  -2.2987  -2.2842  -2.2705  -2.2563  -2.2425
    -2.2110  -2.1738  -2.1589  -2.1402  -2.1138  -2.0926  -2.0516  -2.0176
    -2.0090  -1.9998  -1.9775  -1.9635  -1.9548  -1.9112  -1.8976  -1.8905
    -1.8863  -1.8694  -1.8581  -1.8326  -1.8189  -1.8116  -1.8051  -1.7863
    -1.7737  -1.7454  -1.7081  -1.7047  -1.6375  -1.6219  -1.6099  -1.6031
    -1.5789  -1.5582  -1.5335  -1.5075  -1.4909  -1.4704  -1.4673  -1.4604
    -1.4568  -1.4511  -1.4431  -1.4310  -1.4271  -1.4124  -1.4023  -1.3918
    -1.3856  -1.3442  -1.2791  -1.2672  -1.2460  -1.2223  -1.2075  -1.1941
    -1.1619  -1.0997  -1.0913  -1.0869  -1.0586  -1.0403  -1.0025  -0.9606
    -0.9400  -0.9215  -0.9139  -0.8908  -0.8765  -0.8622  -0.8391  -0.7505
    -0.7387  -0.7258  -0.7059  -0.7010  -0.6859  -0.6786  -0.6718  -0.6603
    -0.6502  -0.6327  -0.5473  -0.5357  -0.5272  -0.5183  -0.5116  -0.4969
    -0.4861  -0.4744  -0.4514  -0.4450  -0.4197  -0.4034  -0.3574  -0.3382
    -0.3309  -0.3058  -0.2966  -0.2451  -0.2334  -0.2085  -0.1978  -0.1573
    -0.1254  -0.1190  -0.1141  -0.0979  -0.0880  -0.0828  -0.0749  -0.0175
     0.0172   0.0627   0.4900   0.6443   0.9458   1.1286   1.1525   1.3684
     1.4932   1.5264

          k = 0.2000-0.1155 0.0000 ( 51134 PWs)   bands (ev):

   -21.9493  -9.2255  -7.4906  -6.3228  -5.8610  -5.7136  -5.5222  -5.3595
    -5.0415  -5.0255  -4.7110  -4.5533  -4.4646  -4.4558  -4.3975  -4.3591
    -4.3115  -4.2735  -4.1915  -4.1510  -4.1323  -3.8979  -3.8641  -3.7511
    -3.7353  -3.6770  -3.6408  -3.6262  -3.6221  -3.6165  -3.6058  -3.5878
    -3.5566  -3.5174  -3.4975  -3.4751  -3.4675  -3.3886  -3.2645  -3.2476
    -3.2402  -3.1925  -3.1879  -3.1718  -3.1573  -3.0948  -3.0588  -3.0455
    -3.0221  -3.0182  -3.0111  -2.9775  -2.9503  -2.8871  -2.8772  -2.8521
    -2.8118  -2.7977  -2.7796  -2.7780  -2.7497  -2.7154  -2.7117  -2.6970
    -2.6687  -2.6049  -2.3759  -2.3648  -2.3407  -2.3296  -2.3084  -2.2242
    -2.2164  -2.2047  -2.1972  -2.1872  -2.1816  -2.1660  -2.1318  -2.0897
    -2.0834  -2.0677  -2.0473  -2.0148  -2.0103  -2.0046  -1.9991  -1.9819
    -1.9762  -1.9722  -1.9646  -1.9603  -1.9470  -1.9326  -1.8947  -1.8710
    -1.8596  -1.8365  -1.7997  -1.7852  -1.7791  -1.7690  -1.7610  -1.7558
    -1.7482  -1.7387  -1.7289  -1.7241  -1.7179  -1.7033  -1.6808  -1.6705
    -1.6579  -1.6376  -1.6288  -1.5712  -1.5490  -1.4987  -1.4514  -1.4476
    -1.4362  -1.4300  -1.4180  -1.4152  -1.3926  -1.3732  -1.2991  -1.2628
    -1.2315  -1.2226  -1.1674  -1.1566  -1.1329  -1.0989  -1.0746  -1.0592
    -1.0057  -0.9763  -0.9685  -0.9542  -0.9262  -0.9138  -0.8870  -0.8806
    -0.8643  -0.8362  -0.8151  -0.7928  -0.7854  -0.7794  -0.7682  -0.7512
    -0.7129  -0.6947  -0.6859  -0.6818  -0.6628  -0.6396  -0.6231  -0.6156
    -0.6086  -0.6037  -0.5958  -0.5865  -0.5724  -0.5590  -0.5456  -0.5351
    -0.4916  -0.4752  -0.4644  -0.4377  -0.4253  -0.4102  -0.3812  -0.3660
    -0.3565  -0.3432  -0.3354  -0.3330  -0.3134  -0.3063  -0.3015  -0.2593
    -0.2287  -0.2164  -0.2124  -0.1909  -0.1832  -0.1680  -0.1501  -0.1294
    -0.0762  -0.0084   0.1384   0.1658   0.2251   0.3048   0.4124   0.4417
     0.4759   0.7953

          k = 0.2000 0.1155 0.0000 ( 51134 PWs)   bands (ev):

   -21.9493  -9.2251  -7.4910  -6.3245  -5.8787  -5.6992  -5.4911  -5.3897
    -5.0400  -5.0230  -4.7132  -4.5439  -4.4642  -4.4549  -4.4050  -4.3529
    -4.3099  -4.2837  -4.1927  -4.1501  -4.1323  -3.9008  -3.8534  -3.7574
    -3.7315  -3.6739  -3.6357  -3.6281  -3.6229  -3.6190  -3.6026  -3.5968
    -3.5385  -3.5257  -3.5062  -3.4730  -3.4691  -3.3952  -3.2663  -3.2467
    -3.2411  -3.1927  -3.1889  -3.1739  -3.1554  -3.0850  -3.0601  -3.0433
    -3.0210  -3.0170  -3.0096  -2.9811  -2.9562  -2.8884  -2.8780  -2.8490
    -2.8164  -2.7912  -2.7810  -2.7741  -2.7550  -2.7156  -2.7106  -2.7028
    -2.6509  -2.6124  -2.3738  -2.3675  -2.3361  -2.3295  -2.3102  -2.2237
    -2.2178  -2.2110  -2.1940  -2.1898  -2.1795  -2.1658  -2.1234  -2.0908
    -2.0841  -2.0684  -2.0369  -2.0141  -2.0094  -2.0058  -1.9994  -1.9825
    -1.9758  -1.9716  -1.9647  -1.9605  -1.9487  -1.9276  -1.9076  -1.8723
    -1.8610  -1.8365  -1.7971  -1.7838  -1.7804  -1.7677  -1.7613  -1.7582
    -1.7481  -1.7386  -1.7327  -1.7239  -1.7226  -1.7025  -1.6777  -1.6726
    -1.6593  -1.6441  -1.6176  -1.5686  -1.5473  -1.5093  -1.4535  -1.4459
    -1.4351  -1.4253  -1.4196  -1.4127  -1.3936  -1.3655  -1.2816  -1.2681
    -1.2425  -1.2240  -1.1671  -1.1585  -1.1301  -1.1075  -1.0770  -1.0688
    -0.9992  -0.9819  -0.9689  -0.9436  -0.9310  -0.9158  -0.8865  -0.8800
    -0.8638  -0.8352  -0.8184  -0.7918  -0.7900  -0.7781  -0.7745  -0.7519
    -0.7103  -0.6904  -0.6834  -0.6806  -0.6651  -0.6300  -0.6262  -0.6158
    -0.6079  -0.6034  -0.5958  -0.5870  -0.5716  -0.5583  -0.5521  -0.5449
    -0.4883  -0.4688  -0.4594  -0.4410  -0.4218  -0.4202  -0.3797  -0.3665
    -0.3599  -0.3466  -0.3371  -0.3270  -0.3125  -0.3059  -0.2998  -0.2562
    -0.2240  -0.2163  -0.2106  -0.1895  -0.1838  -0.1433  -0.1391  -0.1291
    -0.0760  -0.0286   0.1375   0.1667   0.2031   0.3050   0.4145   0.4368
     0.4709   0.7709

          k = 0.2000 0.3464 0.0000 ( 51202 PWs)   bands (ev):

   -21.9493  -9.2136  -7.2091  -6.1797  -6.0042  -5.9066  -5.6727  -5.5761
    -5.3601  -4.7817  -4.6935  -4.4752  -4.4656  -4.4510  -4.2595  -4.2443
    -4.1743  -4.1469  -4.1411  -4.0186  -4.0054  -3.9236  -3.8669  -3.8359
    -3.8002  -3.7465  -3.6623  -3.6467  -3.6221  -3.6096  -3.5983  -3.5913
    -3.5633  -3.5530  -3.5146  -3.4876  -3.4502  -3.4158  -3.4031  -3.3551
    -3.2681  -3.2209  -3.1880  -3.1691  -3.1453  -3.1270  -3.0800  -3.0292
    -2.9907  -2.9706  -2.9541  -2.9369  -2.9302  -2.8913  -2.8843  -2.8577
    -2.8360  -2.8196  -2.7324  -2.6966  -2.6611  -2.6476  -2.6368  -2.6084
    -2.5802  -2.5625  -2.4782  -2.4093  -2.3931  -2.3690  -2.3489  -2.3207
    -2.3060  -2.2957  -2.2906  -2.2678  -2.2529  -2.2397  -2.2260  -2.2224
    -2.2162  -2.1693  -2.1377  -2.0935  -2.0444  -2.0402  -2.0148  -2.0008
    -1.9920  -1.9671  -1.9475  -1.9372  -1.9241  -1.8984  -1.8837  -1.8801
    -1.8734  -1.8609  -1.8508  -1.8392  -1.8272  -1.8184  -1.8031  -1.7942
    -1.7737  -1.7654  -1.7363  -1.7002  -1.6935  -1.6625  -1.6456  -1.6442
    -1.6359  -1.6135  -1.5925  -1.5595  -1.5490  -1.5349  -1.5152  -1.4843
    -1.4800  -1.4674  -1.4612  -1.4373  -1.4304  -1.4083  -1.3968  -1.3588
    -1.3296  -1.3077  -1.2903  -1.2339  -1.1985  -1.1681  -1.1488  -1.0813
    -1.0525  -1.0336  -1.0257  -1.0105  -1.0089  -1.0004  -0.9747  -0.9660
    -0.9506  -0.9379  -0.9137  -0.8743  -0.8681  -0.8474  -0.8317  -0.8245
    -0.8051  -0.7846  -0.7613  -0.7517  -0.7406  -0.7329  -0.6253  -0.5854
    -0.5836  -0.5612  -0.5475  -0.5376  -0.5242  -0.5189  -0.4981  -0.4912
    -0.4659  -0.4401  -0.4109  -0.4018  -0.3844  -0.3712  -0.3352  -0.3221
    -0.3114  -0.3060  -0.3037  -0.2786  -0.2680  -0.2613  -0.2577  -0.2325
    -0.2240  -0.1524  -0.1359  -0.1329  -0.0885  -0.0829  -0.0589   0.0476
     0.2111   0.2570   0.2922   0.4592   0.5607   0.6663   1.0457   1.1399
     1.2783   1.4034

          k = 0.2000-0.5774 0.0000 ( 51262 PWs)   bands (ev):

   -21.9493  -9.2071  -6.6736  -6.6585  -6.1047  -5.9733  -5.7078  -5.5557
    -5.2168  -5.1759  -4.7767  -4.4488  -4.2518  -4.2064  -4.1588  -4.0593
    -4.0291  -4.0110  -4.0007  -3.9930  -3.9329  -3.9263  -3.9153  -3.9126
    -3.8701  -3.8340  -3.7690  -3.7612  -3.7399  -3.7327  -3.6763  -3.5932
    -3.5822  -3.5721  -3.5538  -3.4980  -3.4296  -3.4102  -3.3483  -3.2892
    -3.2862  -3.2389  -3.2043  -3.1862  -3.1584  -3.1280  -3.0733  -3.0704
    -3.0365  -3.0035  -2.9744  -2.9101  -2.8724  -2.8548  -2.8365  -2.7938
    -2.7852  -2.7122  -2.7002  -2.6863  -2.6792  -2.6676  -2.6448  -2.6258
    -2.5396  -2.4956  -2.4818  -2.4664  -2.4546  -2.4096  -2.3938  -2.3474
    -2.3393  -2.2990  -2.2939  -2.2904  -2.2793  -2.2571  -2.2322  -2.2276
    -2.2116  -2.2019  -2.1822  -2.1589  -2.1546  -2.1261  -2.0815  -2.0634
    -2.0503  -2.0114  -1.9845  -1.9681  -1.9516  -1.9228  -1.9089  -1.8981
    -1.8779  -1.8665  -1.8594  -1.8527  -1.8395  -1.8168  -1.8072  -1.8052
    -1.7485  -1.7237  -1.7144  -1.7046  -1.6894  -1.6824  -1.6779  -1.6656
    -1.6620  -1.6553  -1.6352  -1.5991  -1.5769  -1.5621  -1.5502  -1.5202
    -1.4645  -1.4601  -1.4357  -1.4181  -1.4022  -1.3955  -1.3753  -1.3492
    -1.3206  -1.3025  -1.2734  -1.2424  -1.1972  -1.1669  -1.1579  -1.1403
    -1.1215  -1.1160  -1.1009  -1.0739  -1.0545  -1.0332  -1.0216  -1.0123
    -0.9630  -0.9408  -0.9299  -0.9235  -0.9166  -0.8729  -0.8488  -0.8330
    -0.8252  -0.8090  -0.7952  -0.7853  -0.7694  -0.7521  -0.7100  -0.5862
    -0.5533  -0.5492  -0.5397  -0.5269  -0.5167  -0.5104  -0.4925  -0.4826
    -0.4532  -0.4389  -0.4337  -0.4219  -0.3831  -0.3323  -0.3123  -0.3029
    -0.2882  -0.2785  -0.2598  -0.2492  -0.2149  -0.2055  -0.1992  -0.1836
    -0.1760  -0.1137  -0.1098  -0.1015  -0.0894  -0.0747  -0.0564  -0.0106
     0.1677   0.2760   0.5124   0.8756   1.1375   1.1974   1.3352   1.5307
     1.7052   1.7443

          k = 0.2000-0.3464 0.0000 ( 51202 PWs)   bands (ev):

   -21.9493  -9.2142  -7.2079  -6.1809  -5.9775  -5.9156  -5.6782  -5.6007
    -5.3483  -4.7772  -4.6899  -4.4898  -4.4622  -4.4515  -4.2516  -4.2454
    -4.1801  -4.1472  -4.1407  -4.0155  -3.9973  -3.9308  -3.8690  -3.8460
    -3.8003  -3.7438  -3.6619  -3.6412  -3.6319  -3.6122  -3.6034  -3.5800
    -3.5626  -3.5537  -3.5099  -3.4854  -3.4519  -3.4140  -3.3978  -3.3537
    -3.2702  -3.2201  -3.1857  -3.1747  -3.1427  -3.1237  -3.0793  -3.0283
    -2.9842  -2.9785  -2.9523  -2.9386  -2.9303  -2.8947  -2.8750  -2.8559
    -2.8389  -2.8243  -2.7272  -2.7137  -2.6621  -2.6503  -2.6232  -2.6114
    -2.5867  -2.5625  -2.4755  -2.4090  -2.3887  -2.3684  -2.3492  -2.3199
    -2.3054  -2.2960  -2.2917  -2.2680  -2.2491  -2.2417  -2.2280  -2.2204
    -2.2112  -2.1742  -2.1420  -2.1161  -2.0448  -2.0383  -2.0150  -1.9999
    -1.9911  -1.9664  -1.9565  -1.9333  -1.9160  -1.9004  -1.8862  -1.8814
    -1.8724  -1.8614  -1.8557  -1.8371  -1.8250  -1.8207  -1.8030  -1.7868
    -1.7754  -1.7685  -1.7455  -1.6994  -1.6941  -1.6692  -1.6490  -1.6402
    -1.6366  -1.6093  -1.5886  -1.5691  -1.5433  -1.5176  -1.5106  -1.4891
    -1.4735  -1.4685  -1.4587  -1.4404  -1.4337  -1.4072  -1.3985  -1.3507
    -1.3316  -1.2959  -1.2843  -1.2355  -1.1941  -1.1592  -1.1554  -1.0732
    -1.0574  -1.0355  -1.0205  -1.0163  -1.0083  -1.0011  -0.9747  -0.9655
    -0.9497  -0.9429  -0.9171  -0.8746  -0.8643  -0.8513  -0.8313  -0.8166
    -0.7989  -0.7827  -0.7686  -0.7540  -0.7435  -0.7321  -0.6241  -0.5954
    -0.5824  -0.5621  -0.5491  -0.5375  -0.5274  -0.5127  -0.5016  -0.4885
    -0.4680  -0.4383  -0.4037  -0.3965  -0.3866  -0.3729  -0.3398  -0.3180
    -0.3122  -0.3075  -0.3020  -0.2775  -0.2705  -0.2609  -0.2529  -0.2365
    -0.2315  -0.1547  -0.1363  -0.1323  -0.0905  -0.0854  -0.0725   0.0603
     0.1966   0.2562   0.2857   0.4849   0.5399   0.6679   1.0773   1.1481
     1.2786   1.3800

          k = 0.4000-0.2309 0.0000 ( 51204 PWs)   bands (ev):

   -21.9493  -9.2089  -7.0735  -6.4253  -6.0946  -5.8367  -5.5677  -5.3764
    -5.1779  -5.1419  -5.0387  -4.4314  -4.3189  -4.2925  -4.2563  -4.2169
    -4.1286  -4.1005  -4.0873  -3.9857  -3.9654  -3.9608  -3.9104  -3.7966
    -3.7843  -3.7745  -3.7698  -3.7468  -3.6909  -3.6652  -3.6482  -3.5889
    -3.4992  -3.4919  -3.4764  -3.4532  -3.4404  -3.3946  -3.3444  -3.3347
    -3.3234  -3.3120  -3.2836  -3.1998  -3.1088  -3.0907  -3.0171  -3.0056
    -2.9813  -2.9601  -2.9402  -2.9301  -2.9203  -2.9094  -2.8772  -2.8368
    -2.8260  -2.8028  -2.7611  -2.7377  -2.6310  -2.6148  -2.5959  -2.5706
    -2.5447  -2.5100  -2.4878  -2.4729  -2.4581  -2.4006  -2.3421  -2.3403
    -2.3378  -2.3259  -2.3154  -2.2968  -2.2846  -2.2741  -2.2637  -2.2218
    -2.2074  -2.1773  -2.1596  -2.1396  -2.1115  -2.0988  -2.0626  -2.0214
    -2.0097  -2.0018  -1.9789  -1.9635  -1.9440  -1.9076  -1.8967  -1.8923
    -1.8853  -1.8609  -1.8560  -1.8354  -1.8247  -1.8161  -1.8113  -1.7808
    -1.7706  -1.7404  -1.7107  -1.7068  -1.6395  -1.6268  -1.6002  -1.5841
    -1.5753  -1.5579  -1.5456  -1.4997  -1.4905  -1.4765  -1.4709  -1.4625
    -1.4543  -1.4483  -1.4415  -1.4336  -1.4281  -1.4205  -1.3989  -1.3845
    -1.3666  -1.3530  -1.3017  -1.2569  -1.2438  -1.2282  -1.2117  -1.1824
    -1.1655  -1.1189  -1.0903  -1.0843  -1.0654  -1.0449  -1.0142  -0.9842
    -0.9651  -0.9258  -0.9120  -0.8998  -0.8734  -0.8428  -0.8176  -0.7731
    -0.7536  -0.7105  -0.7033  -0.6842  -0.6816  -0.6770  -0.6647  -0.6582
    -0.6368  -0.6305  -0.5414  -0.5310  -0.5285  -0.5199  -0.5042  -0.4928
    -0.4780  -0.4641  -0.4561  -0.4505  -0.4175  -0.3991  -0.3490  -0.3359
    -0.3235  -0.3107  -0.2828  -0.2411  -0.2360  -0.2049  -0.1959  -0.1578
    -0.1213  -0.1163  -0.1090  -0.0923  -0.0875  -0.0835  -0.0735  -0.0228
     0.0175   0.0572   0.4374   0.6532   0.9490   1.0993   1.1465   1.2885
     1.4709   1.5317

          k = 0.4000 0.0000 0.0000 ( 51202 PWs)   bands (ev):

   -21.9493  -9.2111  -7.2122  -6.1762  -6.0420  -5.8986  -5.6679  -5.5439
    -5.3769  -4.7578  -4.7076  -4.4788  -4.4658  -4.4521  -4.2601  -4.2458
    -4.1726  -4.1447  -4.1412  -4.0394  -4.0137  -3.8826  -3.8714  -3.8121
    -3.7928  -3.7537  -3.6647  -3.6588  -3.6201  -3.6147  -3.5993  -3.5912
    -3.5622  -3.5482  -3.5303  -3.4945  -3.4489  -3.4248  -3.4106  -3.3661
    -3.2799  -3.2317  -3.1873  -3.1571  -3.1423  -3.1286  -3.0737  -3.0277
    -2.9958  -2.9592  -2.9532  -2.9472  -2.9215  -2.8930  -2.8717  -2.8655
    -2.8442  -2.8078  -2.7408  -2.6706  -2.6619  -2.6419  -2.6279  -2.6004
    -2.5923  -2.5526  -2.4803  -2.4064  -2.3883  -2.3667  -2.3510  -2.3237
    -2.3060  -2.2977  -2.2915  -2.2710  -2.2514  -2.2415  -2.2359  -2.2208
    -2.1932  -2.1715  -2.1458  -2.0859  -2.0447  -2.0373  -2.0266  -2.0051
    -1.9874  -1.9709  -1.9447  -1.9348  -1.9277  -1.8969  -1.8814  -1.8744
    -1.8661  -1.8632  -1.8583  -1.8362  -1.8322  -1.8157  -1.8041  -1.7959
    -1.7688  -1.7404  -1.7205  -1.7008  -1.6917  -1.6713  -1.6462  -1.6438
    -1.6311  -1.6180  -1.5983  -1.5722  -1.5482  -1.5352  -1.5092  -1.4942
    -1.4815  -1.4710  -1.4590  -1.4443  -1.4304  -1.4192  -1.4011  -1.3636
    -1.3249  -1.3183  -1.3055  -1.2204  -1.1872  -1.1712  -1.1530  -1.0904
    -1.0425  -1.0361  -1.0305  -1.0245  -1.0062  -0.9959  -0.9811  -0.9754
    -0.9548  -0.9310  -0.9135  -0.8717  -0.8536  -0.8465  -0.8293  -0.8215
    -0.7967  -0.7823  -0.7629  -0.7560  -0.7439  -0.7340  -0.6227  -0.5880
    -0.5765  -0.5560  -0.5478  -0.5372  -0.5232  -0.5183  -0.4985  -0.4910
    -0.4717  -0.4363  -0.4178  -0.3993  -0.3836  -0.3656  -0.3246  -0.3202
    -0.3092  -0.3080  -0.2993  -0.2793  -0.2685  -0.2636  -0.2547  -0.2319
    -0.2222  -0.1502  -0.1368  -0.1340  -0.0929  -0.0900  -0.0456   0.0511
     0.2489   0.2572   0.3149   0.4098   0.5740   0.6424   0.9575   1.1471
     1.2489   1.4112

          k = 0.4000 0.2309 0.0000 ( 51204 PWs)   bands (ev):

   -21.9493  -9.2079  -7.0752  -6.4290  -6.1010  -5.8518  -5.5142  -5.4058
    -5.1785  -5.1360  -5.0374  -4.4384  -4.3276  -4.2871  -4.2619  -4.2173
    -4.1209  -4.0986  -4.0916  -3.9831  -3.9663  -3.9613  -3.8841  -3.7956
    -3.7844  -3.7746  -3.7682  -3.7455  -3.6714  -3.6687  -3.6447  -3.6279
    -3.5014  -3.4964  -3.4828  -3.4526  -3.4464  -3.3974  -3.3430  -3.3367
    -3.3246  -3.3105  -3.2817  -3.1885  -3.1108  -3.0784  -3.0179  -2.9983
    -2.9833  -2.9633  -2.9407  -2.9383  -2.9252  -2.9082  -2.8662  -2.8377
    -2.8287  -2.8033  -2.7682  -2.7246  -2.6240  -2.6134  -2.6017  -2.5739
    -2.5460  -2.5041  -2.4857  -2.4772  -2.4692  -2.3980  -2.3470  -2.3391
    -2.3355  -2.3253  -2.3169  -2.2989  -2.2815  -2.2762  -2.2584  -2.2151
    -2.2005  -2.1801  -2.1631  -2.1456  -2.1081  -2.0907  -2.0559  -2.0294
    -2.0114  -2.0035  -1.9782  -1.9645  -1.9379  -1.9072  -1.9012  -1.8875
    -1.8753  -1.8646  -1.8572  -1.8334  -1.8259  -1.8204  -1.8119  -1.7839
    -1.7674  -1.7342  -1.7244  -1.7064  -1.6428  -1.6302  -1.6005  -1.5822
    -1.5656  -1.5602  -1.5415  -1.4946  -1.4895  -1.4824  -1.4704  -1.4658
    -1.4524  -1.4517  -1.4358  -1.4338  -1.4260  -1.4217  -1.4089  -1.3840
    -1.3648  -1.3484  -1.3135  -1.2570  -1.2360  -1.2313  -1.2126  -1.1784
    -1.1700  -1.1202  -1.1022  -1.0877  -1.0778  -1.0347  -1.0231  -0.9878
    -0.9623  -0.9254  -0.9090  -0.9050  -0.8733  -0.8433  -0.8160  -0.7774
    -0.7405  -0.7113  -0.7033  -0.6868  -0.6804  -0.6719  -0.6664  -0.6530
    -0.6415  -0.6380  -0.5404  -0.5315  -0.5292  -0.5132  -0.5021  -0.4883
    -0.4806  -0.4701  -0.4539  -0.4418  -0.4270  -0.3973  -0.3466  -0.3318
    -0.3255  -0.3125  -0.2787  -0.2386  -0.2338  -0.2002  -0.1959  -0.1566
    -0.1195  -0.1124  -0.1097  -0.0894  -0.0849  -0.0821  -0.0636  -0.0312
     0.0169   0.0572   0.4114   0.7337   0.9129   1.0554   1.1514   1.2207
     1.5014   1.5314

          k = 0.4000-0.6928 0.0000 ( 51262 PWs)   bands (ev):

   -21.9493  -9.2040  -6.7001  -6.6473  -6.1042  -5.9227  -5.8417  -5.4254
    -5.2320  -5.1918  -4.7835  -4.4506  -4.2952  -4.1842  -4.1608  -4.0350
    -4.0281  -4.0067  -3.9979  -3.9742  -3.9415  -3.9203  -3.9158  -3.9076
    -3.8719  -3.7932  -3.7692  -3.7645  -3.7418  -3.7289  -3.6924  -3.5961
    -3.5829  -3.5764  -3.5604  -3.5341  -3.4789  -3.4150  -3.3208  -3.2895
    -3.2830  -3.2639  -3.1935  -3.1855  -3.1573  -3.1045  -3.0720  -3.0679
    -3.0633  -2.9939  -2.9781  -2.9088  -2.8705  -2.8458  -2.8370  -2.7855
    -2.7683  -2.7106  -2.7015  -2.6951  -2.6840  -2.6742  -2.6261  -2.6105
    -2.5369  -2.4922  -2.4811  -2.4666  -2.4596  -2.4159  -2.4014  -2.3459
    -2.3364  -2.3029  -2.2972  -2.2819  -2.2737  -2.2552  -2.2303  -2.2153
    -2.2053  -2.1964  -2.1751  -2.1607  -2.1530  -2.1278  -2.0949  -2.0738
    -2.0560  -2.0392  -1.9899  -1.9572  -1.9363  -1.9184  -1.9108  -1.9007
    -1.8758  -1.8704  -1.8564  -1.8422  -1.8301  -1.8170  -1.8051  -1.7598
    -1.7407  -1.7257  -1.7126  -1.7043  -1.6942  -1.6865  -1.6819  -1.6716
    -1.6651  -1.6582  -1.6332  -1.6218  -1.5759  -1.5594  -1.5440  -1.5398
    -1.4802  -1.4673  -1.4460  -1.4136  -1.3993  -1.3874  -1.3758  -1.3613
    -1.3108  -1.3066  -1.2822  -1.2329  -1.1817  -1.1748  -1.1666  -1.1382
    -1.1239  -1.1088  -1.0983  -1.0887  -1.0681  -1.0445  -1.0151  -0.9938
    -0.9628  -0.9537  -0.9328  -0.9196  -0.9099  -0.8789  -0.8533  -0.8472
    -0.8209  -0.8089  -0.7964  -0.7731  -0.7659  -0.7474  -0.7172  -0.5840
    -0.5542  -0.5458  -0.5356  -0.5228  -0.5196  -0.5052  -0.4912  -0.4625
    -0.4596  -0.4410  -0.4404  -0.4307  -0.3683  -0.3169  -0.3096  -0.3004
    -0.2910  -0.2769  -0.2593  -0.2315  -0.2141  -0.2065  -0.1968  -0.1855
    -0.1783  -0.1437  -0.1094  -0.1009  -0.0892  -0.0745  -0.0559  -0.0107
     0.1755   0.2950   0.5936   0.8991   0.9388   1.1978   1.2651   1.5963
     1.7003   1.7390

          k = 0.4000-0.4619 0.0000 ( 51262 PWs)   bands (ev):

   -21.9493  -9.2045  -6.6958  -6.6470  -6.1059  -5.9472  -5.7924  -5.4696
    -5.2312  -5.1819  -4.7746  -4.4501  -4.2826  -4.1909  -4.1635  -4.0400
    -4.0278  -4.0092  -3.9997  -3.9841  -3.9346  -3.9202  -3.9160  -3.9105
    -3.8733  -3.8107  -3.7701  -3.7627  -3.7417  -3.7303  -3.6803  -3.5980
    -3.5831  -3.5714  -3.5562  -3.5180  -3.4683  -3.4202  -3.3266  -3.2885
    -3.2837  -3.2677  -3.1970  -3.1831  -3.1574  -3.1226  -3.0752  -3.0660
    -3.0439  -2.9988  -2.9628  -2.9099  -2.8741  -2.8530  -2.8392  -2.7855
    -2.7723  -2.7094  -2.7052  -2.6922  -2.6843  -2.6690  -2.6400  -2.5975
    -2.5388  -2.4884  -2.4808  -2.4725  -2.4570  -2.4114  -2.3970  -2.3463
    -2.3378  -2.3016  -2.2907  -2.2874  -2.2766  -2.2589  -2.2360  -2.2207
    -2.2067  -2.1974  -2.1813  -2.1614  -2.1546  -2.1144  -2.0876  -2.0718
    -2.0622  -2.0450  -1.9817  -1.9633  -1.9409  -1.9179  -1.9051  -1.8987
    -1.8774  -1.8695  -1.8587  -1.8464  -1.8321  -1.8119  -1.8082  -1.7766
    -1.7456  -1.7252  -1.7139  -1.7078  -1.6925  -1.6845  -1.6763  -1.6690
    -1.6602  -1.6586  -1.6320  -1.6109  -1.5745  -1.5556  -1.5510  -1.5310
    -1.4814  -1.4682  -1.4469  -1.4113  -1.4007  -1.3873  -1.3796  -1.3521
    -1.3135  -1.3040  -1.2857  -1.2143  -1.1893  -1.1764  -1.1635  -1.1431
    -1.1230  -1.1123  -1.0971  -1.0789  -1.0615  -1.0446  -1.0227  -1.0038
    -0.9622  -0.9573  -0.9339  -0.9246  -0.9027  -0.8747  -0.8481  -0.8369
    -0.8289  -0.8058  -0.7927  -0.7787  -0.7695  -0.7456  -0.7192  -0.5804
    -0.5567  -0.5438  -0.5324  -0.5282  -0.5140  -0.5074  -0.4935  -0.4738
    -0.4544  -0.4496  -0.4377  -0.4216  -0.3713  -0.3271  -0.3076  -0.3021
    -0.2851  -0.2770  -0.2602  -0.2414  -0.2186  -0.2051  -0.2007  -0.1838
    -0.1712  -0.1313  -0.1078  -0.1026  -0.0904  -0.0735  -0.0551  -0.0119
     0.1675   0.2917   0.5574   0.8960   0.9915   1.1991   1.2812   1.5777
     1.7004   1.7427

 ------ SPIN DOWN ----------


          k = 0.0000 0.0000 0.0000 ( 51087 PWs)   bands (ev):

   -22.0270  -9.3158  -7.7675  -6.5018  -5.8052  -5.7824  -5.4206  -4.6617
    -4.6143  -4.6089  -4.6061  -4.5826  -4.5659  -4.5237  -3.9088  -3.7380
    -3.7345  -3.7234  -3.7077  -3.6995  -3.6495  -3.2423  -2.8000  -2.7909
    -2.7851  -2.7767  -2.7174  -2.5695  -2.3364  -2.3252  -2.3185  -2.3150
    -2.2966  -2.2589  -2.1252  -2.1205  -2.0551  -2.0366  -2.0263  -2.0252
    -1.9408  -1.9372  -1.8899  -1.8858  -1.8360  -1.8114  -1.8044  -1.7800
    -1.7551  -1.7310  -1.5493  -1.5437  -1.5253  -1.5148  -1.4989  -1.4980
    -1.4859  -1.4845  -1.4541  -1.4511  -1.4210  -1.4101  -1.4067  -1.4055
    -1.3302  -1.2612  -0.8986  -0.8556  -0.8365  -0.8290  -0.7998  -0.7500
    -0.6505  -0.6225  -0.5347  -0.5211  -0.5112  -0.5033  -0.4927  -0.4826
    -0.4594  -0.4458  -0.4211  -0.4174  -0.4109  -0.4102  -0.3563  -0.3539
    -0.3481  -0.3153  -0.3008  -0.2949  -0.2731  -0.2605  -0.2562  -0.2494
    -0.2461  -0.2368  -0.2262  -0.2252  -0.2217  -0.2193  -0.1702  -0.1347
    -0.1188  -0.0958  -0.0804  -0.0629  -0.0116   0.0000   0.0041   0.0073
     0.0103   0.0140   0.0184   0.0482   0.0875   0.0891   0.1387   0.1639
     0.1753   0.1820   0.1908   0.2172   0.2587   0.3974   0.4089   0.4523
     0.4635   0.4837   0.4944   0.4965   0.5875   0.6976   0.7803   0.8142
     0.8316   0.8722   0.9737   1.0042   1.0263   1.0531   1.0606   1.0635
     1.1194   1.1999   1.2080   1.2195   1.2310   1.2384   1.2461   1.2669
     1.2770   1.2945   1.3020   1.3203   1.3331   1.3376   1.3453   1.3784
     1.3837   1.3884   1.3915   1.3995   1.4317   1.4440   1.4531   1.4621
     1.4715   1.4886   1.4948   1.5051   1.5108   1.5187   1.5206   1.5545
     1.5609   1.5796   1.5831   1.5898   1.5988   1.6053   1.6107   1.6447
     1.6496   1.6540   1.6566   1.6611   1.6660   1.6737   1.6817   1.6856
     1.6905   1.7354   1.7370   1.8785   1.8855   1.8887   1.8905   1.8931
     1.8962   2.0078

          k = 0.0000 0.2309 0.0000 ( 51134 PWs)   bands (ev):

   -22.0270  -9.3068  -7.6241  -6.3970  -5.8476  -5.7844  -5.5496  -5.3848
    -4.9831  -4.9610  -4.5039  -4.4064  -4.0644  -4.0557  -3.9794  -3.9318
    -3.7802  -3.6691  -3.4296  -3.3838  -3.3531  -3.2206  -2.9151  -2.7876
    -2.7602  -2.7081  -2.6680  -2.5917  -2.4199  -2.3565  -2.3534  -2.3366
    -2.3128  -2.2931  -2.2661  -2.2620  -2.2195  -2.2113  -2.0889  -2.0781
    -1.9983  -1.9957  -1.9567  -1.8656  -1.8339  -1.8035  -1.7970  -1.6968
    -1.6684  -1.6518  -1.5944  -1.5624  -1.5444  -1.5268  -1.5049  -1.5002
    -1.4909  -1.4851  -1.3965  -1.3801  -1.3668  -1.3512  -1.3136  -1.2664
    -1.2414  -1.1447  -0.9577  -0.9254  -0.8860  -0.8806  -0.8285  -0.7810
    -0.7318  -0.7056  -0.6744  -0.6311  -0.6190  -0.5580  -0.5416  -0.5320
    -0.4876  -0.4762  -0.4702  -0.4647  -0.4510  -0.4229  -0.4063  -0.3729
    -0.3500  -0.3097  -0.2992  -0.2980  -0.2787  -0.2590  -0.2426  -0.2249
    -0.2177  -0.2142  -0.2050  -0.1989  -0.1969  -0.1944  -0.1676  -0.1496
    -0.1322  -0.1125  -0.1037  -0.0926  -0.0674  -0.0521  -0.0377  -0.0190
    -0.0063   0.0196   0.0437   0.0622   0.1045   0.1215   0.1241   0.1549
     0.2395   0.2735   0.3094   0.3608   0.3775   0.3885   0.4339   0.4421
     0.4463   0.4546   0.4683   0.4753   0.6009   0.6955   0.7756   0.8012
     0.8066   0.8180   0.8292   0.8388   0.8936   0.9086   0.9579   0.9776
     1.0180   1.0288   1.0691   1.0900   1.1129   1.1295   1.1587   1.2124
     1.2227   1.2507   1.2637   1.2830   1.2948   1.3029   1.3419   1.3498
     1.3774   1.3934   1.4283   1.4375   1.4579   1.4690   1.4805   1.4963
     1.5319   1.5457   1.5481   1.5517   1.5789   1.6302   1.6348   1.6440
     1.6488   1.6674   1.6784   1.7036   1.7057   1.7203   1.7266   1.7319
     1.7528   1.7945   1.7985   1.8137   1.8197   1.8276   1.8401   1.8553
     1.8760   1.8791   1.8876   1.9152   1.9749   1.9883   1.9922   2.0414
     2.0716   2.1165

          k = 0.0000 0.4619 0.0000 ( 51204 PWs)   bands (ev):

   -22.0270  -9.2927  -7.1983  -6.5218  -6.1410  -5.8243  -5.6983  -5.3778
    -5.2025  -5.1474  -5.0324  -4.2480  -4.0832  -4.0056  -3.7179  -3.4455
    -3.4365  -3.3509  -3.3074  -3.1517  -3.0355  -2.9951  -2.9738  -2.8425
    -2.8375  -2.7749  -2.7268  -2.7024  -2.6284  -2.5988  -2.5893  -2.5359
    -2.5208  -2.3879  -2.3120  -2.3002  -2.2262  -2.2218  -2.1114  -2.1059
    -2.0874  -2.0781  -2.0645  -1.8455  -1.8084  -1.7907  -1.7586  -1.7444
    -1.5947  -1.5783  -1.5647  -1.5530  -1.5471  -1.5170  -1.5102  -1.4942
    -1.4781  -1.4032  -1.3908  -1.3737  -1.3601  -1.3445  -1.1931  -1.1628
    -1.0728  -1.0247  -0.9411  -0.9099  -0.9039  -0.8733  -0.8510  -0.8401
    -0.8205  -0.8080  -0.7894  -0.7567  -0.7138  -0.6755  -0.6593  -0.6341
    -0.6057  -0.5912  -0.5604  -0.5524  -0.5158  -0.5008  -0.4514  -0.3880
    -0.3706  -0.3567  -0.3439  -0.3179  -0.2985  -0.2760  -0.2426  -0.2289
    -0.1942  -0.1860  -0.1702  -0.1600  -0.1453  -0.1411  -0.1177  -0.0918
    -0.0844  -0.0631  -0.0521  -0.0454  -0.0354  -0.0233  -0.0085   0.0064
     0.0184   0.0450   0.0683   0.1145   0.1616   0.1657   0.1860   0.2225
     0.2264   0.2419   0.2562   0.2877   0.3260   0.3404   0.3462   0.3682
     0.4060   0.4139   0.4334   0.4437   0.4811   0.5381   0.6115   0.6188
     0.6758   0.7095   0.7440   0.8007   0.8442   0.8726   0.8887   0.9008
     0.9258   0.9399   0.9642   0.9910   1.0056   1.0679   1.1608   1.1929
     1.2059   1.2357   1.2512   1.2742   1.3131   1.3260   1.3512   1.3648
     1.3912   1.4106   1.4156   1.4719   1.4951   1.5040   1.5504   1.5593
     1.5693   1.5706   1.5983   1.6154   1.6336   1.6452   1.6556   1.6814
     1.6897   1.7494   1.7552   1.7886   1.8007   1.8194   1.8281   1.8460
     1.8506   1.8761   1.8798   1.8959   1.9131   1.9181   1.9278   1.9301
     1.9760   2.0313   2.0466   2.1194   2.1396   2.2320   2.5693   2.6421
     2.6689   2.7128

          k = 0.2000-0.1155 0.0000 ( 51134 PWs)   bands (ev):

   -22.0270  -9.3054  -7.6251  -6.3999  -5.8981  -5.7331  -5.5454  -5.3906
    -4.9769  -4.9661  -4.5227  -4.3687  -4.0736  -4.0563  -4.0085  -3.9211
    -3.7750  -3.6691  -3.4473  -3.3838  -3.3007  -3.2157  -2.9598  -2.7770
    -2.7501  -2.7274  -2.6718  -2.5634  -2.4414  -2.3563  -2.3521  -2.3412
    -2.3124  -2.2896  -2.2670  -2.2665  -2.2204  -2.2022  -2.0857  -2.0800
    -1.9999  -1.9980  -1.9632  -1.8426  -1.8308  -1.8053  -1.7867  -1.7000
    -1.6635  -1.6531  -1.5942  -1.5604  -1.5505  -1.5210  -1.5061  -1.5023
    -1.4890  -1.4712  -1.4069  -1.3789  -1.3660  -1.3463  -1.3188  -1.2834
    -1.2342  -1.1482  -0.9556  -0.9243  -0.8868  -0.8822  -0.8350  -0.7703
    -0.7521  -0.7183  -0.6812  -0.6292  -0.6166  -0.5614  -0.5338  -0.5266
    -0.4881  -0.4832  -0.4650  -0.4566  -0.4466  -0.4311  -0.4183  -0.3743
    -0.3336  -0.3153  -0.2998  -0.2972  -0.2882  -0.2619  -0.2387  -0.2294
    -0.2180  -0.2072  -0.2050  -0.1978  -0.1968  -0.1932  -0.1754  -0.1478
    -0.1228  -0.1109  -0.0959  -0.0902  -0.0856  -0.0613  -0.0455  -0.0197
     0.0071   0.0126   0.0547   0.0740   0.0986   0.1175   0.1252   0.1550
     0.2457   0.2815   0.3122   0.3565   0.3811   0.3968   0.4229   0.4382
     0.4463   0.4529   0.4716   0.4767   0.5878   0.7145   0.7744   0.7947
     0.8043   0.8205   0.8312   0.8453   0.8912   0.8983   0.9605   0.9835
     1.0203   1.0423   1.0730   1.1009   1.1197   1.1370   1.1620   1.1711
     1.2271   1.2449   1.2662   1.2814   1.2912   1.3059   1.3416   1.3501
     1.3702   1.3911   1.4207   1.4419   1.4587   1.4707   1.4901   1.5158
     1.5334   1.5444   1.5502   1.5522   1.5723   1.6192   1.6315   1.6386
     1.6463   1.6683   1.6754   1.7045   1.7099   1.7203   1.7263   1.7378
     1.7507   1.7959   1.7983   1.8168   1.8204   1.8275   1.8383   1.8549
     1.8687   1.8782   1.8862   1.9015   1.9741   1.9880   1.9951   2.0461
     2.0693   2.1177

          k = 0.2000 0.1155 0.0000 ( 51134 PWs)   bands (ev):

   -22.0270  -9.3051  -7.6255  -6.4018  -5.9156  -5.7157  -5.5179  -5.4181
    -4.9743  -4.9674  -4.5322  -4.3486  -4.0700  -4.0588  -4.0066  -3.9412
    -3.7698  -3.6686  -3.4494  -3.3862  -3.2910  -3.2059  -2.9661  -2.7997
    -2.7412  -2.7131  -2.6866  -2.5485  -2.4509  -2.3601  -2.3519  -2.3373
    -2.3166  -2.2934  -2.2675  -2.2602  -2.2255  -2.1943  -2.0853  -2.0813
    -2.0028  -1.9966  -1.9505  -1.8477  -1.8278  -1.8031  -1.7963  -1.6836
    -1.6713  -1.6602  -1.5860  -1.5727  -1.5508  -1.5185  -1.5032  -1.5009
    -1.4944  -1.4481  -1.4138  -1.3859  -1.3678  -1.3489  -1.3191  -1.2824
    -1.2370  -1.1455  -0.9585  -0.9281  -0.8866  -0.8713  -0.8211  -0.7989
    -0.7584  -0.7005  -0.6709  -0.6361  -0.6207  -0.5618  -0.5446  -0.5141
    -0.4917  -0.4802  -0.4674  -0.4582  -0.4534  -0.4320  -0.4210  -0.3692
    -0.3292  -0.3119  -0.2999  -0.2974  -0.2885  -0.2592  -0.2354  -0.2268
    -0.2192  -0.2094  -0.2043  -0.2002  -0.1971  -0.1964  -0.1626  -0.1483
    -0.1271  -0.1134  -0.0974  -0.0930  -0.0827  -0.0579  -0.0414  -0.0274
     0.0036   0.0185   0.0635   0.0838   0.0869   0.1132   0.1256   0.1560
     0.2272   0.2836   0.3189   0.3492   0.3700   0.3932   0.4252   0.4328
     0.4453   0.4592   0.4726   0.4762   0.6276   0.6883   0.7774   0.7911
     0.8062   0.8133   0.8360   0.8484   0.8761   0.8999   0.9446   0.9756
     0.9974   1.0644   1.0796   1.1009   1.1183   1.1464   1.1627   1.1691
     1.2245   1.2565   1.2768   1.2874   1.2942   1.3006   1.3406   1.3492
     1.3675   1.3936   1.4259   1.4494   1.4563   1.4703   1.4890   1.5081
     1.5297   1.5421   1.5502   1.5578   1.5698   1.6163   1.6257   1.6385
     1.6487   1.6665   1.6801   1.7064   1.7126   1.7192   1.7272   1.7363
     1.7526   1.7957   1.8000   1.8162   1.8190   1.8286   1.8365   1.8541
     1.8711   1.8810   1.8861   1.8912   1.9739   1.9861   1.9956   2.0377
     2.0721   2.1195

          k = 0.2000 0.3464 0.0000 ( 51202 PWs)   bands (ev):

   -22.0270  -9.2935  -7.3410  -6.2403  -6.0749  -5.9882  -5.7089  -5.6089
    -5.3898  -4.7405  -4.6130  -4.2728  -4.2362  -4.2185  -3.6810  -3.4231
    -3.4058  -3.4042  -3.3922  -3.2689  -3.1451  -3.1160  -3.0942  -2.8774
    -2.7386  -2.6637  -2.6573  -2.6308  -2.5670  -2.5480  -2.5399  -2.4570
    -2.4513  -2.4386  -2.4125  -2.3234  -2.2828  -2.2386  -2.0820  -2.0647
    -2.0425  -1.9864  -1.9685  -1.9300  -1.9170  -1.7788  -1.7264  -1.7174
    -1.6513  -1.5928  -1.5512  -1.5442  -1.5299  -1.5215  -1.5025  -1.4900
    -1.4718  -1.4593  -1.4052  -1.3683  -1.3297  -1.2835  -1.1866  -1.1572
    -1.0847  -1.0629  -0.9710  -0.9460  -0.8893  -0.8485  -0.8352  -0.8079
    -0.7950  -0.7606  -0.7484  -0.7109  -0.6859  -0.6657  -0.6497  -0.6320
    -0.6160  -0.5915  -0.5802  -0.5515  -0.5391  -0.4442  -0.4302  -0.4035
[...]
     atom    8 type  1   force =    -0.00280287   -0.00081782   -0.10514754
     atom    9 type  1   force =     0.00380091    0.00001464   -0.10629742
     atom   10 type  1   force =    -0.00063494    0.00068517   -0.00936015
     atom   11 type  1   force =     0.00011183   -0.00011415   -0.00696379
     atom   12 type  1   force =     0.00044710    0.00059519   -0.00859102
     atom   13 type  1   force =     0.00017716   -0.00142799   -0.01108076
     atom   14 type  1   force =    -0.00020795   -0.00135319   -0.01107521
     atom   15 type  1   force =    -0.00059119   -0.00049787   -0.01295407
     atom   16 type  1   force =    -0.00050339    0.00155856   -0.01677978
     atom   17 type  1   force =     0.00189595   -0.00056502   -0.00889241
     atom   18 type  1   force =    -0.00141928    0.00138605   -0.01237765
     atom   19 type  1   force =     0.00221212    0.00425692    0.00911747
     atom   20 type  1   force =    -0.00040921    0.01629454   -0.00267551
     atom   21 type  1   force =    -0.00157137    0.00042276    0.01407154
     atom   22 type  1   force =     0.00016117    0.00055718    0.01845614
     atom   23 type  1   force =    -0.00120234   -0.00092745    0.01236838
     atom   24 type  1   force =    -0.00042527   -0.00015141    0.01227136
     atom   25 type  1   force =    -0.00329033   -0.00348508    0.00402011
     atom   26 type  1   force =    -0.00765339   -0.00829929   -0.00370369
     atom   27 type  1   force =     0.01295097   -0.00712125   -0.00115484
     atom   28 type  1   force =     0.04616687   -0.01427952    0.10592706
     atom   29 type  1   force =    -0.07636406   -0.02010225    0.05385197
     atom   30 type  1   force =    -0.00565670    0.00180454    0.11658488
     atom   31 type  1   force =     0.00368728   -0.02217994    0.13844220
     atom   32 type  1   force =    -0.00008398   -0.01443155    0.12716409
     atom   33 type  1   force =    -0.00027595    0.00021961    0.10649472
     atom   34 type  1   force =     0.00167512    0.00034760    0.11606862
     atom   35 type  1   force =    -0.00023434    0.04416591    0.14013555
     atom   36 type  1   force =     0.00152324    0.01108770    0.12813778
     atom   37 type  2   force =    -0.04564583   -0.06370758    0.41016454
     atom   38 type  3   force =     0.51716601    0.17898150   -2.65812830
     atom   39 type  4   force =    -0.00915037   -0.00233006   -0.02591964
     The ionic contribution  to forces
     atom    1 type  1   force =    -0.00574591    0.00818741 -111.13592247
     atom    2 type  1   force =     0.00467948    0.00874261 -111.13804228
     atom    3 type  1   force =     0.00106639    0.00235698 -111.12663202
     atom    4 type  1   force =    -0.00006149    0.00144761 -111.12509395
     atom    5 type  1   force =    -0.00262430   -0.00548794 -111.13040229
     atom    6 type  1   force =     0.00268579   -0.00666468 -111.13026909
     atom    7 type  1   force =    -0.00737301   -0.00202524 -111.13344059
     atom    8 type  1   force =    -0.00099740   -0.00386548 -111.15027774
     atom    9 type  1   force =     0.00837046   -0.00269130 -111.13545086
     atom   10 type  1   force =    -0.06155014    0.01526468  -40.17579895
     atom   11 type  1   force =     0.05300766    0.01317724  -40.19257858
     atom   12 type  1   force =     0.00853188    0.00423832  -40.07116814
     atom   13 type  1   force =    -0.00557588    0.06801992  -40.09612048
     atom   14 type  1   force =     0.02205662    0.01860626  -40.06289283
     atom   15 type  1   force =    -0.01647687    0.01221327  -40.05166333
     atom   16 type  1   force =    -0.03408504   -0.02486875  -40.06279200
     atom   17 type  1   force =    -0.00225715   -0.07380626  -40.13633932
     atom   18 type  1   force =     0.03634530   -0.03284330  -40.06740014
     atom   19 type  1   force =    -0.28724840    0.41235814   31.29108942
     atom   20 type  1   force =     0.23058477    0.45121218   31.19162999
     atom   21 type  1   force =     0.05552572    0.10729757   31.70270313
     atom   22 type  1   force =    -0.00245035    0.06072144   31.77279715
     atom   23 type  1   force =    -0.12617799   -0.26527332   31.55551636
     atom   24 type  1   force =     0.12854400   -0.31245551   31.56568248
     atom   25 type  1   force =    -0.36596659   -0.09296683   31.41647080
     atom   26 type  1   force =    -0.04626559   -0.22398277   30.47294044
     atom   27 type  1   force =     0.41390191   -0.14106847   31.30607265
     atom   28 type  1   force =    -4.59502229    1.20485430   98.86530912
     atom   29 type  1   force =     3.49519221    0.86428443   97.90134290
     atom   30 type  1   force =     0.59036176    0.06329790  103.90826432
     atom   31 type  1   force =    -0.13783516    2.64239301  103.35792394
     atom   32 type  1   force =     0.65993851    0.79249801  104.16388423
     atom   33 type  1   force =    -0.49441703    0.41713482  104.39386995
     atom   34 type  1   force =    -1.14836092   -0.86418137  104.10705381
     atom   35 type  1   force =     0.02122979   -3.85146922  101.69906800
     atom   36 type  1   force =     1.15015853   -1.12787269  104.10565573
     atom   37 type  2   force =     1.29664298    0.31571491   51.29887464
     atom   38 type  3   force =    -1.97819437   -0.73658822   89.76755309
     atom   39 type  4   force =     1.13986214    0.28409036   15.27858290
     The local contribution  to forces
     atom    1 type  1   force =     0.00347600   -0.00631216  111.24278952
     atom    2 type  1   force =    -0.00357810   -0.01142269  111.24522556
     atom    3 type  1   force =     0.00058404   -0.00080286  111.23143162
     atom    4 type  1   force =    -0.00026271   -0.00220587  111.23160822
     atom    5 type  1   force =     0.00171136    0.00496915  111.23634304
     atom    6 type  1   force =    -0.00112536    0.00524557  111.23792068
     atom    7 type  1   force =     0.00896682    0.00231671  111.24166872
     atom    8 type  1   force =     0.00365683    0.00530817  111.25940356
     atom    9 type  1   force =    -0.01277541    0.00402950  111.24463236
     atom   10 type  1   force =     0.06068799   -0.01733264   40.16535548
     atom   11 type  1   force =    -0.05228470   -0.01372628   40.17804676
     atom   12 type  1   force =    -0.00837948   -0.00482589   40.06050247
     atom   13 type  1   force =     0.00504830   -0.06567968   40.09060022
     atom   14 type  1   force =    -0.02243538   -0.01700702   40.05415157
     atom   15 type  1   force =     0.01762717   -0.01164820   40.04348836
     atom   16 type  1   force =     0.03439504    0.02461274   40.05907561
     atom   17 type  1   force =     0.00001440    0.07384948   40.12860157
     atom   18 type  1   force =    -0.03415531    0.03200938   40.06078254
     atom   19 type  1   force =     0.28629599   -0.41353933  -31.28366914
     atom   20 type  1   force =    -0.23137072   -0.46491671  -31.17389220
     atom   21 type  1   force =    -0.05274784   -0.10716795  -31.69442027
     atom   22 type  1   force =     0.00122483   -0.06231155  -31.76605425
     atom   23 type  1   force =     0.12639073    0.26437101  -31.54482648
     atom   24 type  1   force =    -0.12740849    0.31195070  -31.55777144
     atom   25 type  1   force =     0.36707295    0.09569641  -31.40429409
     atom   26 type  1   force =     0.05368707    0.23200081  -30.45816966
     atom   27 type  1   force =    -0.42752630    0.14761237  -31.29007699
     atom   28 type  1   force =     4.52087507   -1.18520865  -98.98261444
     atom   29 type  1   force =    -3.41744752   -0.84659925  -97.92690104
     atom   30 type  1   force =    -0.58420388   -0.06592996 -104.02713196
     atom   31 type  1   force =     0.12942956   -2.60715309 -103.50600522
     atom   32 type  1   force =    -0.65850749   -0.77348563 -104.29845465
     atom   33 type  1   force =     0.49531351   -0.41657316 -104.51061837
     atom   34 type  1   force =     1.14470683    0.86197668 -104.23105715
     atom   35 type  1   force =    -0.02382938    3.79415851 -101.84467730
     atom   36 type  1   force =    -1.14647017    1.10840353 -104.24204671
     atom   37 type  2   force =    -1.25190189   -0.25476481  -51.70809926
     atom   38 type  3   force =     1.47463122    0.55679186  -87.12727518
     atom   39 type  4   force =    -1.10217759   -0.27515069  -15.26516539
     The core correction contribution to forces
     atom    1 type  1   force =    -0.00005863    0.00005531    0.00984180
     atom    2 type  1   force =     0.00003934   -0.00022427    0.01019929
     atom    3 type  1   force =     0.00027663    0.00005588    0.00975271
     atom    4 type  1   force =     0.00010076   -0.00011692    0.01022585
     atom    5 type  1   force =     0.00018139   -0.00003110    0.01004043
     atom    6 type  1   force =    -0.00000235   -0.00004585    0.00986939
     atom    7 type  1   force =     0.00001717    0.00006245    0.01016289
     atom    8 type  1   force =     0.00028135    0.00033302    0.00994793
     atom    9 type  1   force =    -0.00037503   -0.00002941    0.01027064
     atom   10 type  1   force =    -0.00017848    0.00011816   -0.00194133
     atom   11 type  1   force =     0.00011027    0.00015395   -0.00162907
     atom   12 type  1   force =     0.00008600    0.00013767   -0.00175828
     atom   13 type  1   force =    -0.00033475    0.00018482   -0.00180708
     atom   14 type  1   force =     0.00015426    0.00004029   -0.00191339
     atom   15 type  1   force =     0.00019909   -0.00005219   -0.00171274
     atom   16 type  1   force =    -0.00016995   -0.00000960   -0.00186946
     atom   17 type  1   force =    -0.00013678   -0.00003051   -0.00187240
     atom   18 type  1   force =     0.00007710   -0.00020059   -0.00178683
     atom   19 type  1   force =    -0.00001678    0.00052378    0.00109976
     atom   20 type  1   force =    -0.00020100    0.00083002    0.00011134
     atom   21 type  1   force =     0.00050471    0.00011413    0.00189622
     atom   22 type  1   force =     0.00018478    0.00018752    0.00199654
     atom   23 type  1   force =    -0.00021228    0.00009777    0.00191594
     atom   24 type  1   force =     0.00046567   -0.00052504    0.00134605
     atom   25 type  1   force =     0.00037311   -0.00027470    0.00186511
     atom   26 type  1   force =    -0.00094805   -0.00071813    0.00055588
     atom   27 type  1   force =     0.00067350   -0.00037147    0.00078408
     atom   28 type  1   force =     0.01037412   -0.00194146   -0.00443161
     atom   29 type  1   force =    -0.00891876   -0.00156055    0.00314416
     atom   30 type  1   force =    -0.00709601    0.00076584   -0.00665653
     atom   31 type  1   force =     0.00096627   -0.00617146   -0.00742966
     atom   32 type  1   force =    -0.00134381   -0.00542908   -0.00706441
     atom   33 type  1   force =     0.00017709   -0.00091921   -0.01036969
     atom   34 type  1   force =     0.00099880    0.00112912   -0.00943972
     atom   35 type  1   force =     0.00049796    0.00828899   -0.00575620
     atom   36 type  1   force =    -0.00182281    0.00463534   -0.00748204
     atom   37 type  2   force =     0.00023738    0.00098721   -0.00082030
     atom   38 type  3   force =    -0.00389304   -0.00129089    0.01942150
     atom   39 type  4   force =     0.00000000    0.00000000    0.00000000
     The Hubbard contrib.    to forces
     atom    1 type  1   force =     0.00000000    0.00000000    0.00000000
     atom    2 type  1   force =     0.00000000    0.00000000    0.00000000
     atom    3 type  1   force =     0.00000000    0.00000000    0.00000000
     atom    4 type  1   force =     0.00000000    0.00000000    0.00000000
     atom    5 type  1   force =     0.00000000    0.00000000    0.00000000
     atom    6 type  1   force =     0.00000000    0.00000000    0.00000000
     atom    7 type  1   force =     0.00000000    0.00000000    0.00000000
     atom    8 type  1   force =     0.00000000    0.00000000    0.00000000
     atom    9 type  1   force =     0.00000000    0.00000000    0.00000000
     atom   10 type  1   force =     0.00000000    0.00000000    0.00000000
     atom   11 type  1   force =     0.00000000    0.00000000    0.00000000
     atom   12 type  1   force =     0.00000000    0.00000000    0.00000000
     atom   13 type  1   force =     0.00000000    0.00000000    0.00000000
     atom   14 type  1   force =     0.00000000    0.00000000    0.00000000
     atom   15 type  1   force =     0.00000000    0.00000000    0.00000000
     atom   16 type  1   force =     0.00000000    0.00000000    0.00000000
     atom   17 type  1   force =     0.00000000    0.00000000    0.00000000
     atom   18 type  1   force =     0.00000000    0.00000000    0.00000000
     atom   19 type  1   force =     0.00000000    0.00000000    0.00000000
     atom   20 type  1   force =     0.00000000    0.00000000    0.00000000
     atom   21 type  1   force =     0.00000000    0.00000000    0.00000000
     atom   22 type  1   force =     0.00000000    0.00000000    0.00000000
     atom   23 type  1   force =     0.00000000    0.00000000    0.00000000
     atom   24 type  1   force =     0.00000000    0.00000000    0.00000000
     atom   25 type  1   force =     0.00000000    0.00000000    0.00000000
     atom   26 type  1   force =     0.00000000    0.00000000    0.00000000
     atom   27 type  1   force =     0.00000000    0.00000000    0.00000000
     atom   28 type  1   force =     0.00000000    0.00000000    0.00000000
     atom   29 type  1   force =     0.00000000    0.00000000    0.00000000
     atom   30 type  1   force =     0.00000000    0.00000000    0.00000000
     atom   31 type  1   force =     0.00000000    0.00000000    0.00000000
     atom   32 type  1   force =     0.00000000    0.00000000    0.00000000
     atom   33 type  1   force =     0.00000000    0.00000000    0.00000000
     atom   34 type  1   force =     0.00000000    0.00000000    0.00000000
     atom   35 type  1   force =     0.00000000    0.00000000    0.00000000
     atom   36 type  1   force =     0.00000000    0.00000000    0.00000000
     atom   37 type  2   force =     0.00000000    0.00000000    0.00000000
     atom   38 type  3   force =     0.00000000    0.00000000    0.00000000
     atom   39 type  4   force =     0.00000000    0.00000000    0.00000000
     The SCF correction term to forces
     atom    1 type  1   force =    -0.00000000    0.00000000    0.00000000
     atom    2 type  1   force =     0.00000000   -0.00000000    0.00000000
     atom    3 type  1   force =    -0.00000000   -0.00000000    0.00000000
     atom    4 type  1   force =     0.00000000    0.00000000    0.00000000
     atom    5 type  1   force =    -0.00000000   -0.00000000    0.00000000
     atom    6 type  1   force =     0.00000000    0.00000000    0.00000000
     atom    7 type  1   force =    -0.00000000   -0.00000000    0.00000000
     atom    8 type  1   force =     0.00000000    0.00000000    0.00000000
     atom    9 type  1   force =     0.00000000    0.00000000    0.00000000
     atom   10 type  1   force =    -0.00000000    0.00000000    0.00000000
     atom   11 type  1   force =     0.00000000    0.00000000    0.00000000
     atom   12 type  1   force =    -0.00000000   -0.00000000    0.00000000
     atom   13 type  1   force =     0.00000000    0.00000000    0.00000000
     atom   14 type  1   force =    -0.00000000    0.00000000    0.00000000
     atom   15 type  1   force =    -0.00000000   -0.00000000    0.00000000
     atom   16 type  1   force =     0.00000000   -0.00000000    0.00000000
     atom   17 type  1   force =    -0.00000000   -0.00000000    0.00000000
     atom   18 type  1   force =     0.00000000    0.00000000    0.00000000
     atom   19 type  1   force =    -0.00000000    0.00000000    0.00000000
     atom   20 type  1   force =     0.00000000    0.00000000    0.00000000
     atom   21 type  1   force =     0.00000000    0.00000000    0.00000000
     atom   22 type  1   force =     0.00000000   -0.00000000    0.00000000
     atom   23 type  1   force =    -0.00000000   -0.00000000    0.00000000
     atom   24 type  1   force =     0.00000000   -0.00000000    0.00000000
     atom   25 type  1   force =    -0.00000000   -0.00000000    0.00000000
     atom   26 type  1   force =    -0.00000000   -0.00000000    0.00000000
     atom   27 type  1   force =     0.00000000   -0.00000000    0.00000000
     atom   28 type  1   force =    -0.00000000    0.00000000    0.00000000
     atom   29 type  1   force =     0.00000000    0.00000000    0.00000000
     atom   30 type  1   force =     0.00000000    0.00000000    0.00000000
     atom   31 type  1   force =    -0.00000000    0.00000000    0.00000000
     atom   32 type  1   force =     0.00000000   -0.00000000    0.00000000
     atom   33 type  1   force =     0.00000000   -0.00000000    0.00000000
     atom   34 type  1   force =    -0.00000000    0.00000000    0.00000000
     atom   35 type  1   force =     0.00000000   -0.00000000    0.00000000
     atom   36 type  1   force =     0.00000000   -0.00000000    0.00000000
     atom   37 type  2   force =    -0.00000960    0.00000330    0.00001808
     atom   38 type  3   force =    -0.00000256    0.00000255   -0.00000812
     atom   39 type  4   force =     0.00000202   -0.00000048    0.00000137

     Total force =     0.033452     Total SCF correction =     0.000023

     Writing all to output data dir ./pwscf.save/

     init_run     :     11.50s CPU     11.96s WALL (       1 calls)
     electrons    :    952.74s CPU    974.55s WALL (       1 calls)
     forces       :      3.36s CPU      3.41s WALL (       1 calls)

     Called by init_run:
     wfcinit      :      8.44s CPU      8.78s WALL (       1 calls)
     potinit      :      1.98s CPU      2.07s WALL (       1 calls)
     hinit0       :      0.84s CPU      0.85s WALL (       1 calls)

     Called by electrons:
     c_bands      :    801.28s CPU    820.62s WALL (      56 calls)
     sum_band     :    100.66s CPU    102.16s WALL (      56 calls)
     v_of_rho     :      9.89s CPU     10.06s WALL (      57 calls)
     newd         :      5.91s CPU      5.98s WALL (      57 calls)
     PAW_pot      :     16.37s CPU     16.51s WALL (      57 calls)
     mix_rho      :     19.90s CPU     20.26s WALL (      56 calls)
     vdW_kernel   :      1.09s CPU      1.10s WALL (       1 calls)

     Called by c_bands:
     init_us_2    :     10.13s CPU     10.31s WALL (    2964 calls)
     init_us_2:cp :     10.11s CPU     10.30s WALL (    2964 calls)
     cegterg      :    772.86s CPU    791.02s WALL (    1456 calls)

     Called by *egterg:
     cdiaghg      :    216.41s CPU    221.14s WALL (    4677 calls)
     h_psi        :    369.51s CPU    379.90s WALL (    4703 calls)
     s_psi        :     41.19s CPU     41.93s WALL (    4703 calls)
     g_psi        :      1.11s CPU      1.14s WALL (    3221 calls)

     Called by h_psi:
     h_psi:calbec :     58.29s CPU     60.12s WALL (    4703 calls)
     vloc_psi     :    265.93s CPU    273.89s WALL (    4703 calls)
     add_vuspsi   :     42.60s CPU     43.17s WALL (    4703 calls)

     General routines
     calbec       :     85.02s CPU     87.22s WALL (    6263 calls)
     fft          :      6.85s CPU      6.97s WALL (    5150 calls)
     ffts         :     11.35s CPU     11.58s WALL (   22581 calls)
     fftw         :    305.86s CPU    314.13s WALL ( 1504902 calls)
     interpolate  :      0.41s CPU      0.42s WALL (     114 calls)

     Parallel routines

     PWSCF        :  16m13.20s CPU  16m40.69s WALL


   This run was terminated on:  14: 9:43   9Dec2025            

=------------------------------------------------------------------------------=
   JOB DONE.
=------------------------------------------------------------------------------=
