
     Program PWSCF v.7.1 starts on  9Dec2025 at 14: 9:46 
        Git branch: heads/qe-7.1
        Last git commit: 48ba0178f8fede6d020eb786884699a9f063f55d-dirty
        Last git commit date: Fri Jan 27 14:22:33 2023 +0000
        Last git commit subject: Merge branch 'fix_hubbard' into 'develop'

     This program is part of the open-source Quantum ESPRESSO suite
     for quantum simulation of materials; please cite
         "P. Giannozzi et al., J. Phys.:Condens. Matter 21 395502 (2009);
         "P. Giannozzi et al., J. Phys.:Condens. Matter 29 465901 (2017);
         "P. Giannozzi et al., J. Chem. Phys. 152 154105 (2020);
          URL http://www.quantum-espresso.org", 
     in publications or presentations arising from this work. More details at
     http://www.quantum-espresso.org/quote

     Parallel version (MPI), running on    96 processors

     MPI processes distributed on     2 nodes
     48149 MiB available memory on the printing compute node when the environment starts

     Reading input from espresso.pwi
Warning: card &CELL ignored
Warning: card / ignored
Warning: card &FCP ignored
Warning: card / ignored
Warning: card &RISM ignored
Warning: card / ignored

     Current dimensions of program PWSCF are:
     Max number of different atomic species (ntypx) = 10
     Max number of k-points (npk) =  40000
     Max angular momentum in pseudopotentials (lmaxx) =  4
     file Co.pbe-n-kjpaw_psl.1.0.0.UPF: wavefunction(s)  4S 3D renormalized
     file C.pbe-n-kjpaw_psl.1.0.0.UPF: wavefunction(s)  2S 2P renormalized
     file O.pbe-nl-kjpaw_psl.1.0.0.UPF: wavefunction(s)  2S 2P renormalized
     file H.pbe-kjpaw_psl.1.0.0.UPF: wavefunction(s)  1S renormalized

     **************************************************************************
     Initializing libbeef V0.1.2 with the BEEF-vdW functional.
     Citation: Wellendorff et al., PRB 85, 235149 (2012).
     **************************************************************************


     IMPORTANT: XC functional enforced from input :
     Exchange-correlation= BEEF-VDW
                           (   1   4  43  14   2   0   0)
     Any further DFT definition will be discarded
     Please, verify this is what you really want


     R & G space division:  proc/nbgrp/npool/nimage =      96
     Subspace diagonalization in iterative solution of the eigenvalue problem:
     one sub-group per band group will be used
     custom distributed-memory algorithm (size of sub-group:  2*  2 procs)


     Parallelization info
     --------------------
     sticks:   dense  smooth     PW     G-vecs:    dense   smooth      PW
     Min          43      28      7                 7829     4248     595
     Max          44      29      8                 7845     4281     630
     Sum        4153    2773    757               752179   409445   59217

     Using Slab Decomposition



     bravais-lattice index     =            0
     lattice parameter (alat)  =      14.1729  a.u.
     unit-cell volume          =    8574.3059 (a.u.)^3
     number of atoms/cell      =           39
     number of atomic types    =            4
     number of electrons       =       335.00
     number of Kohn-Sham states=          202
     kinetic-energy cutoff     =      50.0000  Ry
     charge density cutoff     =     300.0000  Ry
     scf convergence threshold =      1.0E-08
     mixing beta               =       0.7000
     number of iterations used =            8  local-TF  mixing
     Exchange-correlation= BEEF-VDW
                           (   1   4  43  14   2   0   0)

     celldm(1)=  14.172946  celldm(2)=   0.000000  celldm(3)=   0.000000
     celldm(4)=   0.000000  celldm(5)=   0.000000  celldm(6)=   0.000000

     crystal axes: (cart. coord. in units of alat)
               a(1) = (   1.000000   0.000000   0.000000 )  
               a(2) = (   0.500000   0.866025   0.000000 )  
               a(3) = (   0.000000   0.000000   3.477667 )  

     reciprocal axes: (cart. coord. in units 2 pi/alat)
               b(1) = (  1.000000 -0.577350  0.000000 )  
               b(2) = (  0.000000  1.154701  0.000000 )  
               b(3) = (  0.000000  0.000000  0.287549 )  


     PseudoPot. # 1 for Co read from file:
     /users/kbadger1/espresso/pseudo/pslibrary.1.0.0/pbe/PSEUDOPOTENTIALS/Co.pbe-n-kjpaw_psl.1.0.0.UPF
     MD5 check sum: 88af6ec42553d4236c267fdfcb472151
     Pseudo is Projector augmented-wave + core cor, Zval =  9.0
     Generated using 'atomic' code by A. Dal Corso  v.7.0
     Shape of augmentation charge: PSQ
     Using radial grid of 1193 points,  6 beta functions with: 
                l(1) =   0
                l(2) =   0
                l(3) =   1
                l(4) =   1
                l(5) =   2
                l(6) =   2
     Q(r) pseudized with 0 coefficients 


     PseudoPot. # 2 for C  read from file:
     /users/kbadger1/espresso/pseudo/pslibrary.1.0.0/pbe/PSEUDOPOTENTIALS/C.pbe-n-kjpaw_psl.1.0.0.UPF
     MD5 check sum: 6408e75cdba28732cea38a4db8498ce4
     Pseudo is Projector augmented-wave + core cor, Zval =  4.0
     Generated using 'atomic' code by A. Dal Corso  v.7.0
     Shape of augmentation charge: PSQ
     Using radial grid of 1073 points,  4 beta functions with: 
                l(1) =   0
                l(2) =   0
                l(3) =   1
                l(4) =   1
     Q(r) pseudized with 0 coefficients 


     PseudoPot. # 3 for O  read from file:
     /users/kbadger1/espresso/pseudo/pslibrary.1.0.0/pbe/PSEUDOPOTENTIALS/O.pbe-nl-kjpaw_psl.1.0.0.UPF
     MD5 check sum: f0439fab3598ca4e468f064226030408
     Pseudo is Projector augmented-wave + core cor, Zval =  6.0
     Generated using 'atomic' code by A. Dal Corso  v.7.0
     Shape of augmentation charge: PSQ
     Using radial grid of 1095 points,  4 beta functions with: 
                l(1) =   0
                l(2) =   0
                l(3) =   1
                l(4) =   1
     Q(r) pseudized with 0 coefficients 


     PseudoPot. # 4 for H  read from file:
     /users/kbadger1/espresso/pseudo/pslibrary.1.0.0/pbe/PSEUDOPOTENTIALS/H.pbe-kjpaw_psl.1.0.0.UPF
     MD5 check sum: fe4c6fa958fa6d3815bf5d2419cbf1df
     Pseudo is Projector augmented-wave, Zval =  1.0
     Generated using 'atomic' code by A. Dal Corso  v.7.0
     Shape of augmentation charge: PSQ
     Using radial grid of  929 points,  2 beta functions with: 
                l(1) =   0
                l(2) =   0
     Q(r) pseudized with 0 coefficients 


     atomic species   valence    mass     pseudopotential
        Co             9.00    58.93319     Co( 1.00)
        C              4.00    12.01100     C ( 1.00)
        O              6.00    15.99900     O ( 1.00)
        H              1.00     1.00800     H ( 1.00)

     Starting magnetic structure 
     atomic species   magnetization
        Co           1.000
        C            1.000
        O            0.000
        H            0.000

     No symmetry found



   Cartesian axes

     site n.     atom                  positions (alat units)
         1           Co  tau(   1) = (   0.0000000   0.1924501   1.3333333  )
         2           Co  tau(   2) = (   0.3333333   0.1924501   1.3333333  )
         3           Co  tau(   3) = (   0.6666667   0.1924501   1.3333333  )
         4           Co  tau(   4) = (   0.1666667   0.4811252   1.3333333  )
         5           Co  tau(   5) = (   0.5000000   0.4811252   1.3333333  )
         6           Co  tau(   6) = (   0.8333333   0.4811252   1.3333333  )
         7           Co  tau(   7) = (   0.3333333   0.7698004   1.3333333  )
         8           Co  tau(   8) = (   0.6666667   0.7698004   1.3333333  )
         9           Co  tau(   9) = (   1.0000000   0.7698004   1.3333333  )
        10           Co  tau(  10) = (   0.0000000   0.0000000   1.6036667  )
        11           Co  tau(  11) = (   0.3333333   0.0000000   1.6036667  )
        12           Co  tau(  12) = (   0.6666667   0.0000000   1.6036667  )
        13           Co  tau(  13) = (   0.1666667   0.2886751   1.6036667  )
        14           Co  tau(  14) = (   0.5000000   0.2886751   1.6036667  )
        15           Co  tau(  15) = (   0.8333333   0.2886751   1.6036667  )
        16           Co  tau(  16) = (   0.3333333   0.5773503   1.6036667  )
        17           Co  tau(  17) = (   0.6666667   0.5773503   1.6036667  )
        18           Co  tau(  18) = (   1.0000000   0.5773503   1.6036667  )
        19           Co  tau(  19) = (   0.0000000   0.1924501   1.8740000  )
        20           Co  tau(  20) = (   0.3333333   0.1924501   1.8740000  )
        21           Co  tau(  21) = (   0.6666667   0.1924501   1.8740000  )
        22           Co  tau(  22) = (   0.1666667   0.4811252   1.8740000  )
        23           Co  tau(  23) = (   0.5000000   0.4811252   1.8740000  )
        24           Co  tau(  24) = (   0.8333333   0.4811252   1.8740000  )
        25           Co  tau(  25) = (   0.3333333   0.7698004   1.8740000  )
        26           Co  tau(  26) = (   0.6666667   0.7698004   1.8740000  )
        27           Co  tau(  27) = (   1.0000000   0.7698004   1.8740000  )
        28           Co  tau(  28) = (   0.0000000   0.0000000   2.1443333  )
        29           Co  tau(  29) = (   0.3333333   0.0000000   2.1443333  )
        30           Co  tau(  30) = (   0.6666667   0.0000000   2.1443333  )
        31           Co  tau(  31) = (   0.1666667   0.2886751   2.1443333  )
        32           Co  tau(  32) = (   0.5000000   0.2886751   2.1443333  )
        33           Co  tau(  33) = (   0.8333333   0.2886751   2.1443333  )
        34           Co  tau(  34) = (   0.3333333   0.5773503   2.1443333  )
        35           Co  tau(  35) = (   0.6666667   0.5773503   2.1443333  )
        36           Co  tau(  36) = (   1.0000000   0.5773503   2.1443333  )
        37           C   tau(  37) = (   0.1668921  -0.0417668   2.3323236  )
        38           O   tau(  38) = (   0.1450156  -0.0532025   2.4890243  )
        39           H   tau(  39) = (   0.4671416   0.0320780   2.3018107  )

     number of k points=    13  Marzari-Vanderbilt smearing, width (Ry)=  0.0010
                       cart. coord. in units 2pi/alat
        k(    1) = (   0.0000000   0.0000000   0.0000000), wk =   0.0400000
        k(    2) = (   0.0000000   0.2309401   0.0000000), wk =   0.0800000
        k(    3) = (   0.0000000   0.4618802   0.0000000), wk =   0.0800000
        k(    4) = (   0.2000000  -0.1154701   0.0000000), wk =   0.0800000
        k(    5) = (   0.2000000   0.1154701   0.0000000), wk =   0.0800000
        k(    6) = (   0.2000000   0.3464102   0.0000000), wk =   0.0800000
        k(    7) = (   0.2000000  -0.5773503   0.0000000), wk =   0.0800000
        k(    8) = (   0.2000000  -0.3464102   0.0000000), wk =   0.0800000
        k(    9) = (   0.4000000  -0.2309401   0.0000000), wk =   0.0800000
        k(   10) = (   0.4000000   0.0000000   0.0000000), wk =   0.0800000
        k(   11) = (   0.4000000   0.2309401   0.0000000), wk =   0.0800000
        k(   12) = (   0.4000000  -0.6928203   0.0000000), wk =   0.0800000
        k(   13) = (   0.4000000  -0.4618802   0.0000000), wk =   0.0800000

     Dense  grid:   752179 G-vectors     FFT dimensions: (  80,  80, 288)

     Smooth grid:   409445 G-vectors     FFT dimensions: (  64,  64, 225)

     Estimated max dynamical RAM per process >      99.02 MB

     Estimated total dynamical RAM >       9.28 GB
     Generating pointlists ...
     new r_m :   0.0863 (alat units)  1.2226 (a.u.) for type    1
     new r_m :   0.0654 (alat units)  0.9274 (a.u.) for type    2
     new r_m :   0.0654 (alat units)  0.9274 (a.u.) for type    3
     new r_m :   0.0863 (alat units)  1.2226 (a.u.) for type    4

     Initial potential from superposition of free atoms

     starting charge     334.9897, renormalised to     335.0000

     negative rho (up, down):  3.047E-03 4.538E-04


     %%%%%%%%%%%%%%%%%%%%%%%%%%%%%%%%%%%%%%%%%%%%%%%%%%%%%%%%%%%%%%%%%%%%%%%%
     %                                                                      %
     % You are using vdW-DF, which was implemented by the Thonhauser group. %
     % Please cite the following two papers that made this development      %
     % possible and the two reviews that describe the various versions:     %
     %                                                                      %
     %   T. Thonhauser et al., PRL 115, 136402 (2015).                      %
     %   T. Thonhauser et al., PRB 76, 125112 (2007).                       %
     %   K. Berland et al., Rep. Prog. Phys. 78, 066501 (2015).             %
     %   D.C. Langreth et al., J. Phys.: Condens. Matter 21, 084203 (2009). %
     %                                                                      %
     % If you are calculating stress with vdW-DF, please also cite:         %
     %                                                                      %
     %   R. Sabatini et al., J. Phys.: Condens. Matter 24, 424209 (2012).   %
     %   C.M. Frostenson et al., Electr. Struct. 4, 014001 (2022).          %
     %                                                                      %
     %%%%%%%%%%%%%%%%%%%%%%%%%%%%%%%%%%%%%%%%%%%%%%%%%%%%%%%%%%%%%%%%%%%%%%%%

     %%%%%%%%%%%%%%%%%%%%%%%%%%%%%%%%%%%%%%%%%%%%%%%%%%%%%%%%%%%%%%%%%%%%%%%%
     %                                                                      %
     %  vdW-DF NEWS:                                                        %
     %                                                                      %
     %  * vdW-DF3 is now available. DOI: 10.1021/acs.jctc.0c00471           %
     %    use with input_dft = 'vdW-DF3-opt1' or 'vdW-DF3-opt2'             %
     %                                                                      %
     %  * Unscreened and range-separated hybrid vdW-DF-cx functionals       %
     %    DOI: 10.1063/1.4986522 and 10.1088/1361-648X/ac2ad2               %
     %    use with input_dft = 'vdW-DF-cx0'    and 'vdW-DF-ahcx'            %
     %  * Unscreened and range-separated hybrid vdW-DF2-b86r functionals    %
     %    DOI: 10.1063/1.4986522 and DOI: 10.1103/PhysRevX.12.041003        %
     %    use with input_dft = 'vdW-DF2-br0' and 'vdW-DF2-ahbr'             %
     %                                                                      %
     %%%%%%%%%%%%%%%%%%%%%%%%%%%%%%%%%%%%%%%%%%%%%%%%%%%%%%%%%%%%%%%%%%%%%%%%


     Starting wfcs are  333 randomized atomic wfcs
     Checking if some PAW data can be deallocated... 

     total cpu time spent up to now is       16.9 secs

     per-process dynamical memory:   231.9 Mb

     Self-consistent Calculation

     iteration #  1     ecut=    50.00 Ry     beta= 0.70
     Davidson diagonalization with overlap
     ethr =  1.00E-02,  avg # of iterations =  2.0

     negative rho (up, down):  3.373E-05 6.260E-08

     total cpu time spent up to now is       34.6 secs

     total energy              =   -6053.09637637 Ry
     estimated scf accuracy    <      39.19149898 Ry

     total magnetization       =    69.00 Bohr mag/cell
     absolute magnetization    =    81.20 Bohr mag/cell

     iteration #  2     ecut=    50.00 Ry     beta= 0.70
     Davidson diagonalization with overlap
     ethr =  1.00E-02,  avg # of iterations =  1.0

     negative rho (up, down):  5.377E-06 4.962E-08

     total cpu time spent up to now is       53.4 secs

     total energy              =   -6052.58676955 Ry
     estimated scf accuracy    <      24.86588219 Ry

     total magnetization       =    68.90 Bohr mag/cell
     absolute magnetization    =    76.72 Bohr mag/cell

     iteration #  3     ecut=    50.00 Ry     beta= 0.70
     Davidson diagonalization with overlap
     ethr =  7.42E-03,  avg # of iterations =  1.2

     negative rho (up, down):  3.279E-08 0.000E+00

     total cpu time spent up to now is       67.6 secs

     total energy              =   -6055.17503282 Ry
     estimated scf accuracy    <      84.19170602 Ry

     total magnetization       =    66.12 Bohr mag/cell
     absolute magnetization    =    73.52 Bohr mag/cell

     iteration #  4     ecut=    50.00 Ry     beta= 0.70
     Davidson diagonalization with overlap
     ethr =  7.42E-03,  avg # of iterations =  1.0

     total cpu time spent up to now is       86.2 secs

     total energy              =   -6056.42378315 Ry
     estimated scf accuracy    <       5.21702054 Ry

     total magnetization       =    60.45 Bohr mag/cell
     absolute magnetization    =    70.19 Bohr mag/cell

     iteration #  5     ecut=    50.00 Ry     beta= 0.70
     Davidson diagonalization with overlap
     ethr =  1.56E-03,  avg # of iterations =  1.2

     total cpu time spent up to now is      104.4 secs

     total energy              =   -6056.43256519 Ry
     estimated scf accuracy    <       2.15910094 Ry

     total magnetization       =    59.98 Bohr mag/cell
     absolute magnetization    =    69.42 Bohr mag/cell

     iteration #  6     ecut=    50.00 Ry     beta= 0.70
     Davidson diagonalization with overlap
     ethr =  6.45E-04,  avg # of iterations =  1.7

     total cpu time spent up to now is      119.4 secs

     total energy              =   -6056.53805681 Ry
     estimated scf accuracy    <       0.62554523 Ry

     total magnetization       =    59.90 Bohr mag/cell
     absolute magnetization    =    68.96 Bohr mag/cell

     iteration #  7     ecut=    50.00 Ry     beta= 0.70
     Davidson diagonalization with overlap
     ethr =  1.87E-04,  avg # of iterations =  5.2

     total cpu time spent up to now is      142.4 secs

     total energy              =   -6056.57011225 Ry
     estimated scf accuracy    <       0.63341490 Ry

     total magnetization       =    59.96 Bohr mag/cell
     absolute magnetization    =    68.69 Bohr mag/cell

     iteration #  8     ecut=    50.00 Ry     beta= 0.70
     Davidson diagonalization with overlap
     ethr =  1.87E-04,  avg # of iterations =  1.5

     total cpu time spent up to now is      156.2 secs

     total energy              =   -6056.59148974 Ry
     estimated scf accuracy    <       0.12061540 Ry

     total magnetization       =    59.96 Bohr mag/cell
     absolute magnetization    =    68.54 Bohr mag/cell

     iteration #  9     ecut=    50.00 Ry     beta= 0.70
     Davidson diagonalization with overlap
     c_bands:  3 eigenvalues not converged
     c_bands:  1 eigenvalues not converged
     ethr =  3.60E-05,  avg # of iterations = 11.5

     total cpu time spent up to now is      195.0 secs

     total energy              =   -6056.60328702 Ry
     estimated scf accuracy    <       0.22849789 Ry

     total magnetization       =    60.28 Bohr mag/cell
     absolute magnetization    =    68.37 Bohr mag/cell

     iteration # 10     ecut=    50.00 Ry     beta= 0.70
     Davidson diagonalization with overlap
     ethr =  3.60E-05,  avg # of iterations =  1.8

     total cpu time spent up to now is      209.3 secs

     total energy              =   -6056.60849834 Ry
     estimated scf accuracy    <       0.11880732 Ry

     total magnetization       =    60.44 Bohr mag/cell
     absolute magnetization    =    68.35 Bohr mag/cell

     iteration # 11     ecut=    50.00 Ry     beta= 0.70
     Davidson diagonalization with overlap
     ethr =  3.55E-05,  avg # of iterations =  1.2

     total cpu time spent up to now is      226.8 secs

     total energy              =   -6056.60154991 Ry
     estimated scf accuracy    <       0.09140034 Ry

     total magnetization       =    60.34 Bohr mag/cell
     absolute magnetization    =    68.22 Bohr mag/cell

     iteration # 12     ecut=    50.00 Ry     beta= 0.70
     Davidson diagonalization with overlap
     ethr =  2.73E-05,  avg # of iterations =  1.8

     negative rho (up, down):  1.194E-07 0.000E+00

     total cpu time spent up to now is      242.5 secs

     total energy              =   -6056.60292984 Ry
     estimated scf accuracy    <       0.09936045 Ry

     total magnetization       =    60.29 Bohr mag/cell
     absolute magnetization    =    68.04 Bohr mag/cell

     iteration # 13     ecut=    50.00 Ry     beta= 0.70
     Davidson diagonalization with overlap
     ethr =  2.73E-05,  avg # of iterations =  1.0

     total cpu time spent up to now is      259.5 secs

     total energy              =   -6056.60475714 Ry
     estimated scf accuracy    <       0.08058843 Ry

     total magnetization       =    60.32 Bohr mag/cell
     absolute magnetization    =    68.01 Bohr mag/cell

     iteration # 14     ecut=    50.00 Ry     beta= 0.70
     Davidson diagonalization with overlap
     ethr =  2.41E-05,  avg # of iterations =  1.0

     total cpu time spent up to now is      272.5 secs

     total energy              =   -6056.60042545 Ry
     estimated scf accuracy    <       0.06444354 Ry

     total magnetization       =    60.32 Bohr mag/cell
     absolute magnetization    =    68.00 Bohr mag/cell

     iteration # 15     ecut=    50.00 Ry     beta= 0.70
     Davidson diagonalization with overlap
     ethr =  1.92E-05,  avg # of iterations =  1.1

     negative rho (up, down):  2.510E-03 1.787E-03

     total cpu time spent up to now is      289.9 secs

     total energy              =   -6056.59675323 Ry
     estimated scf accuracy    <       0.05396439 Ry

     total magnetization       =    60.33 Bohr mag/cell
     absolute magnetization    =    68.03 Bohr mag/cell

     iteration # 16     ecut=    50.00 Ry     beta= 0.70
     Davidson diagonalization with overlap
     ethr =  1.61E-05,  avg # of iterations =  1.7

     negative rho (up, down):  1.155E-02 1.025E-02

     total cpu time spent up to now is      305.3 secs

     total energy              =   -6056.59430247 Ry
     estimated scf accuracy    <       0.09638378 Ry

     total magnetization       =    60.32 Bohr mag/cell
     absolute magnetization    =    67.91 Bohr mag/cell

     iteration # 17     ecut=    50.00 Ry     beta= 0.70
     Davidson diagonalization with overlap
     ethr =  1.61E-05,  avg # of iterations =  1.2

     negative rho (up, down):  5.571E-03 4.676E-03

     total cpu time spent up to now is      323.3 secs

     total energy              =   -6056.59354023 Ry
     estimated scf accuracy    <       0.06232742 Ry

     total magnetization       =    60.29 Bohr mag/cell
     absolute magnetization    =    67.85 Bohr mag/cell

     iteration # 18     ecut=    50.00 Ry     beta= 0.70
     Davidson diagonalization with overlap
     ethr =  1.61E-05,  avg # of iterations =  1.1

     negative rho (up, down):  2.867E-02 2.704E-02

     total cpu time spent up to now is      336.4 secs

     total energy              =   -6056.59210661 Ry
     estimated scf accuracy    <       0.02564422 Ry

     total magnetization       =    60.29 Bohr mag/cell
     absolute magnetization    =    67.86 Bohr mag/cell

     iteration # 19     ecut=    50.00 Ry     beta= 0.70
     Davidson diagonalization with overlap
     ethr =  7.65E-06,  avg # of iterations =  2.8

     negative rho (up, down):  3.201E-02 3.039E-02

     total cpu time spent up to now is      356.7 secs

     total energy              =   -6056.59190467 Ry
     estimated scf accuracy    <       0.02561630 Ry

     total magnetization       =    60.31 Bohr mag/cell
     absolute magnetization    =    67.84 Bohr mag/cell

     iteration # 20     ecut=    50.00 Ry     beta= 0.70
     Davidson diagonalization with overlap
     ethr =  7.65E-06,  avg # of iterations =  1.1

     negative rho (up, down):  2.100E-02 1.956E-02

     total cpu time spent up to now is      375.1 secs

     total energy              =   -6056.59201460 Ry
     estimated scf accuracy    <       0.01356197 Ry

     total magnetization       =    60.32 Bohr mag/cell
     absolute magnetization    =    67.84 Bohr mag/cell

     iteration # 21     ecut=    50.00 Ry     beta= 0.70
     Davidson diagonalization with overlap
     c_bands:  2 eigenvalues not converged
     ethr =  4.05E-06,  avg # of iterations =  2.7

     negative rho (up, down):  2.256E-02 2.106E-02

     total cpu time spent up to now is      390.1 secs

     total energy              =   -6056.59105916 Ry
     estimated scf accuracy    <       0.00686659 Ry

     total magnetization       =    60.34 Bohr mag/cell
     absolute magnetization    =    67.88 Bohr mag/cell

     iteration # 22     ecut=    50.00 Ry     beta= 0.70
     Davidson diagonalization with overlap
     c_bands:  1 eigenvalues not converged
     c_bands:  3 eigenvalues not converged
     c_bands:  3 eigenvalues not converged
     ethr =  2.05E-06,  avg # of iterations =  5.3

     negative rho (up, down):  2.027E-02 1.901E-02

     total cpu time spent up to now is      411.7 secs

     total energy              =   -6056.59054002 Ry
     estimated scf accuracy    <       0.01137308 Ry

     total magnetization       =    60.38 Bohr mag/cell
     absolute magnetization    =    67.91 Bohr mag/cell

     iteration # 23     ecut=    50.00 Ry     beta= 0.70
     Davidson diagonalization with overlap
     ethr =  2.05E-06,  avg # of iterations =  2.5

     negative rho (up, down):  1.094E-02 1.007E-02

     total cpu time spent up to now is      427.6 secs

     total energy              =   -6056.59002113 Ry
     estimated scf accuracy    <       0.00714760 Ry

     total magnetization       =    60.36 Bohr mag/cell
     absolute magnetization    =    67.91 Bohr mag/cell

     iteration # 24     ecut=    50.00 Ry     beta= 0.70
     Davidson diagonalization with overlap
     ethr =  2.05E-06,  avg # of iterations =  1.6

     negative rho (up, down):  1.197E-02 1.117E-02

     total cpu time spent up to now is      446.0 secs

     total energy              =   -6056.59032091 Ry
     estimated scf accuracy    <       0.00491052 Ry

     total magnetization       =    60.38 Bohr mag/cell
     absolute magnetization    =    67.95 Bohr mag/cell

     iteration # 25     ecut=    50.00 Ry     beta= 0.70
     Davidson diagonalization with overlap
     ethr =  1.47E-06,  avg # of iterations =  1.3

     negative rho (up, down):  8.991E-03 8.275E-03

     total cpu time spent up to now is      464.1 secs

     total energy              =   -6056.59041702 Ry
     estimated scf accuracy    <       0.00159165 Ry

     total magnetization       =    60.39 Bohr mag/cell
     absolute magnetization    =    67.97 Bohr mag/cell

     iteration # 26     ecut=    50.00 Ry     beta= 0.70
     Davidson diagonalization with overlap
     c_bands:  1 eigenvalues not converged
     ethr =  4.75E-07,  avg # of iterations =  3.0

     negative rho (up, down):  4.802E-03 4.092E-03

     total cpu time spent up to now is      479.9 secs

     total energy              =   -6056.59049344 Ry
     estimated scf accuracy    <       0.00092417 Ry

     total magnetization       =    60.40 Bohr mag/cell
     absolute magnetization    =    67.98 Bohr mag/cell

     iteration # 27     ecut=    50.00 Ry     beta= 0.70
     Davidson diagonalization with overlap
     ethr =  2.76E-07,  avg # of iterations =  1.8

     negative rho (up, down):  5.353E-03 4.662E-03

     total cpu time spent up to now is      499.4 secs

     total energy              =   -6056.59060658 Ry
     estimated scf accuracy    <       0.00164502 Ry

     total magnetization       =    60.41 Bohr mag/cell
     absolute magnetization    =    67.99 Bohr mag/cell

     iteration # 28     ecut=    50.00 Ry     beta= 0.70
     Davidson diagonalization with overlap
     ethr =  2.76E-07,  avg # of iterations =  1.3

     negative rho (up, down):  4.684E-03 3.938E-03

     total cpu time spent up to now is      513.1 secs

     total energy              =   -6056.59068694 Ry
     estimated scf accuracy    <       0.00043929 Ry

     total magnetization       =    60.40 Bohr mag/cell
     absolute magnetization    =    67.99 Bohr mag/cell

     iteration # 29     ecut=    50.00 Ry     beta= 0.70
     Davidson diagonalization with overlap
     c_bands:  1 eigenvalues not converged
     ethr =  1.31E-07,  avg # of iterations =  2.9

     negative rho (up, down):  4.009E-03 3.209E-03

     total cpu time spent up to now is      532.5 secs

     total energy              =   -6056.59068338 Ry
     estimated scf accuracy    <       0.00018016 Ry

     total magnetization       =    60.41 Bohr mag/cell
     absolute magnetization    =    67.99 Bohr mag/cell

     iteration # 30     ecut=    50.00 Ry     beta= 0.70
     Davidson diagonalization with overlap
     ethr =  5.38E-08,  avg # of iterations =  3.7

     negative rho (up, down):  3.186E-03 2.212E-03

     total cpu time spent up to now is      554.4 secs

     total energy              =   -6056.59074570 Ry
     estimated scf accuracy    <       0.00014846 Ry

     total magnetization       =    60.40 Bohr mag/cell
     absolute magnetization    =    67.99 Bohr mag/cell

     iteration # 31     ecut=    50.00 Ry     beta= 0.70
     Davidson diagonalization with overlap
     ethr =  4.43E-08,  avg # of iterations =  1.5

     negative rho (up, down):  2.632E-03 1.516E-03

     total cpu time spent up to now is      568.6 secs

     total energy              =   -6056.59076371 Ry
     estimated scf accuracy    <       0.00006049 Ry

     total magnetization       =    60.40 Bohr mag/cell
     absolute magnetization    =    67.99 Bohr mag/cell

     iteration # 32     ecut=    50.00 Ry     beta= 0.70
     Davidson diagonalization with overlap
     ethr =  1.81E-08,  avg # of iterations =  3.3

     negative rho (up, down):  2.630E-03 1.509E-03

     total cpu time spent up to now is      588.8 secs

     total energy              =   -6056.59077130 Ry
     estimated scf accuracy    <       0.00015977 Ry

     total magnetization       =    60.40 Bohr mag/cell
     absolute magnetization    =    67.98 Bohr mag/cell

     iteration # 33     ecut=    50.00 Ry     beta= 0.70
     Davidson diagonalization with overlap
     ethr =  1.81E-08,  avg # of iterations =  1.7

     negative rho (up, down):  2.613E-03 1.549E-03

     total cpu time spent up to now is      604.1 secs

     total energy              =   -6056.59077429 Ry
     estimated scf accuracy    <       0.00010234 Ry

     total magnetization       =    60.40 Bohr mag/cell
     absolute magnetization    =    67.98 Bohr mag/cell

     iteration # 34     ecut=    50.00 Ry     beta= 0.70
     Davidson diagonalization with overlap
     ethr =  1.81E-08,  avg # of iterations =  1.9

     negative rho (up, down):  2.575E-03 1.548E-03

     total cpu time spent up to now is      623.9 secs

     total energy              =   -6056.59077330 Ry
     estimated scf accuracy    <       0.00008618 Ry

     total magnetization       =    60.40 Bohr mag/cell
     absolute magnetization    =    67.98 Bohr mag/cell

     iteration # 35     ecut=    50.00 Ry     beta= 0.70
     Davidson diagonalization with overlap
     ethr =  1.81E-08,  avg # of iterations =  1.2

     negative rho (up, down):  2.658E-03 1.645E-03

     total cpu time spent up to now is      637.4 secs

     total energy              =   -6056.59077570 Ry
     estimated scf accuracy    <       0.00001945 Ry

     total magnetization       =    60.40 Bohr mag/cell
     absolute magnetization    =    67.98 Bohr mag/cell

     iteration # 36     ecut=    50.00 Ry     beta= 0.70
     Davidson diagonalization with overlap
     ethr =  5.81E-09,  avg # of iterations =  3.7

     negative rho (up, down):  2.385E-03 1.326E-03

     total cpu time spent up to now is      658.3 secs

     total energy              =   -6056.59077341 Ry
     estimated scf accuracy    <       0.00006386 Ry

     total magnetization       =    60.40 Bohr mag/cell
     absolute magnetization    =    67.98 Bohr mag/cell

     iteration # 37     ecut=    50.00 Ry     beta= 0.70
     Davidson diagonalization with overlap
     ethr =  5.81E-09,  avg # of iterations =  2.0

     negative rho (up, down):  2.362E-03 1.287E-03

     total cpu time spent up to now is      678.7 secs

     total energy              =   -6056.59077583 Ry
     estimated scf accuracy    <       0.00001281 Ry

     total magnetization       =    60.39 Bohr mag/cell
     absolute magnetization    =    67.98 Bohr mag/cell

     iteration # 38     ecut=    50.00 Ry     beta= 0.70
     Davidson diagonalization with overlap
     ethr =  3.82E-09,  avg # of iterations =  1.5

     negative rho (up, down):  2.430E-03 1.361E-03

     total cpu time spent up to now is      692.8 secs

     total energy              =   -6056.59077602 Ry
     estimated scf accuracy    <       0.00001087 Ry

     total magnetization       =    60.39 Bohr mag/cell
     absolute magnetization    =    67.98 Bohr mag/cell

     iteration # 39     ecut=    50.00 Ry     beta= 0.70
     Davidson diagonalization with overlap
     ethr =  3.24E-09,  avg # of iterations =  1.5

     negative rho (up, down):  2.399E-03 1.326E-03

     total cpu time spent up to now is      710.8 secs

     total energy              =   -6056.59077649 Ry
     estimated scf accuracy    <       0.00001157 Ry

     total magnetization       =    60.40 Bohr mag/cell
     absolute magnetization    =    67.98 Bohr mag/cell

     iteration # 40     ecut=    50.00 Ry     beta= 0.70
     Davidson diagonalization with overlap
     ethr =  3.24E-09,  avg # of iterations =  1.1

     negative rho (up, down):  2.385E-03 1.314E-03

     total cpu time spent up to now is      724.5 secs

     total energy              =   -6056.59077678 Ry
     estimated scf accuracy    <       0.00000219 Ry

     total magnetization       =    60.40 Bohr mag/cell
     absolute magnetization    =    67.98 Bohr mag/cell

     iteration # 41     ecut=    50.00 Ry     beta= 0.70
     Davidson diagonalization with overlap
     c_bands:  1 eigenvalues not converged
     c_bands:  1 eigenvalues not converged
     ethr =  6.52E-10,  avg # of iterations =  5.6

     negative rho (up, down):  2.352E-03 1.272E-03

     total cpu time spent up to now is      748.1 secs

     total energy              =   -6056.59077713 Ry
     estimated scf accuracy    <       0.00000057 Ry

     total magnetization       =    60.40 Bohr mag/cell
     absolute magnetization    =    67.98 Bohr mag/cell

     iteration # 42     ecut=    50.00 Ry     beta= 0.70
     Davidson diagonalization with overlap
     c_bands:  1 eigenvalues not converged
     ethr =  1.69E-10,  avg # of iterations =  7.8

     negative rho (up, down):  2.353E-03 1.272E-03

     total cpu time spent up to now is      774.3 secs

     total energy              =   -6056.59077721 Ry
     estimated scf accuracy    <       0.00000041 Ry

     total magnetization       =    60.40 Bohr mag/cell
     absolute magnetization    =    67.98 Bohr mag/cell

     iteration # 43     ecut=    50.00 Ry     beta= 0.70
     Davidson diagonalization with overlap
     ethr =  1.21E-10,  avg # of iterations =  1.6

     negative rho (up, down):  2.344E-03 1.260E-03

     total cpu time spent up to now is      793.6 secs

     total energy              =   -6056.59077724 Ry
     estimated scf accuracy    <       0.00000022 Ry

     total magnetization       =    60.40 Bohr mag/cell
     absolute magnetization    =    67.98 Bohr mag/cell

     iteration # 44     ecut=    50.00 Ry     beta= 0.70
     Davidson diagonalization with overlap
     c_bands:  1 eigenvalues not converged
     ethr =  6.66E-11,  avg # of iterations =  2.8

     negative rho (up, down):  2.327E-03 1.241E-03

     total cpu time spent up to now is      809.2 secs

     total energy              =   -6056.59077724 Ry
     estimated scf accuracy    <       0.00000027 Ry

     total magnetization       =    60.40 Bohr mag/cell
     absolute magnetization    =    67.98 Bohr mag/cell

     iteration # 45     ecut=    50.00 Ry     beta= 0.70
     Davidson diagonalization with overlap
     ethr =  6.66E-11,  avg # of iterations =  1.9

     negative rho (up, down):  2.314E-03 1.227E-03

     total cpu time spent up to now is      828.1 secs

     total energy              =   -6056.59077724 Ry
     estimated scf accuracy    <       0.00000039 Ry

     total magnetization       =    60.40 Bohr mag/cell
     absolute magnetization    =    67.98 Bohr mag/cell

     iteration # 46     ecut=    50.00 Ry     beta= 0.70
     Davidson diagonalization with overlap
     ethr =  6.66E-11,  avg # of iterations =  1.9

     negative rho (up, down):  2.310E-03 1.223E-03

     total cpu time spent up to now is      842.7 secs

     total energy              =   -6056.59077725 Ry
     estimated scf accuracy    <       0.00000019 Ry

     total magnetization       =    60.40 Bohr mag/cell
     absolute magnetization    =    67.98 Bohr mag/cell

     iteration # 47     ecut=    50.00 Ry     beta= 0.70
     Davidson diagonalization with overlap
     ethr =  5.70E-11,  avg # of iterations =  1.2

     negative rho (up, down):  2.295E-03 1.207E-03

     total cpu time spent up to now is      860.9 secs

     total energy              =   -6056.59077724 Ry
     estimated scf accuracy    <       0.00000018 Ry

     total magnetization       =    60.40 Bohr mag/cell
     absolute magnetization    =    67.98 Bohr mag/cell

     iteration # 48     ecut=    50.00 Ry     beta= 0.70
     Davidson diagonalization with overlap
     ethr =  5.33E-11,  avg # of iterations =  1.7

     negative rho (up, down):  2.277E-03 1.189E-03

     total cpu time spent up to now is      875.5 secs

     total energy              =   -6056.59077722 Ry
     estimated scf accuracy    <       0.00000008 Ry

     total magnetization       =    60.40 Bohr mag/cell
     absolute magnetization    =    67.98 Bohr mag/cell

     iteration # 49     ecut=    50.00 Ry     beta= 0.70
     Davidson diagonalization with overlap
     ethr =  2.42E-11,  avg # of iterations =  1.8

     negative rho (up, down):  2.261E-03 1.174E-03

     total cpu time spent up to now is      894.5 secs

     total energy              =   -6056.59077720 Ry
     estimated scf accuracy    <       0.00000016 Ry

     total magnetization       =    60.40 Bohr mag/cell
     absolute magnetization    =    67.98 Bohr mag/cell

     iteration # 50     ecut=    50.00 Ry     beta= 0.70
     Davidson diagonalization with overlap
     ethr =  2.42E-11,  avg # of iterations =  1.5

     negative rho (up, down):  2.256E-03 1.168E-03

     total cpu time spent up to now is      913.3 secs

     total energy              =   -6056.59077720 Ry
     estimated scf accuracy    <       0.00000002 Ry

     total magnetization       =    60.40 Bohr mag/cell
     absolute magnetization    =    67.98 Bohr mag/cell

     iteration # 51     ecut=    50.00 Ry     beta= 0.70
     Davidson diagonalization with overlap
     c_bands:  1 eigenvalues not converged
     ethr =  7.35E-12,  avg # of iterations =  5.5

     negative rho (up, down):  2.244E-03 1.157E-03

     total cpu time spent up to now is      931.7 secs

     total energy              =   -6056.59077718 Ry
     estimated scf accuracy    <       0.00000004 Ry

     total magnetization       =    60.40 Bohr mag/cell
     absolute magnetization    =    67.98 Bohr mag/cell

     iteration # 52     ecut=    50.00 Ry     beta= 0.70
     Davidson diagonalization with overlap
     ethr =  7.35E-12,  avg # of iterations =  2.3

     negative rho (up, down):  2.244E-03 1.158E-03

     total cpu time spent up to now is      950.6 secs

     total energy              =   -6056.59077718 Ry
     estimated scf accuracy    <       0.00000003 Ry

     total magnetization       =    60.40 Bohr mag/cell
     absolute magnetization    =    67.98 Bohr mag/cell

     iteration # 53     ecut=    50.00 Ry     beta= 0.70
     Davidson diagonalization with overlap
     ethr =  7.35E-12,  avg # of iterations =  1.2

     negative rho (up, down):  2.245E-03 1.158E-03

     Magnetic moment per site  (integrated on atomic sphere of radius R)
     atom   1 (R=0.086)  charge=  5.4618  magn=  1.6049
     atom   2 (R=0.086)  charge=  5.4617  magn=  1.5998
     atom   3 (R=0.086)  charge=  5.4612  magn=  1.6079
     atom   4 (R=0.086)  charge=  5.4611  magn=  1.6138
     atom   5 (R=0.086)  charge=  5.4614  magn=  1.6088
     atom   6 (R=0.086)  charge=  5.4613  magn=  1.6074
     atom   7 (R=0.086)  charge=  5.4618  magn=  1.6072
     atom   8 (R=0.086)  charge=  5.4629  magn=  1.5950
     atom   9 (R=0.086)  charge=  5.4614  magn=  1.6042
     atom  10 (R=0.086)  charge=  5.4561  magn=  1.5443
     atom  11 (R=0.086)  charge=  5.4571  magn=  1.5373
     atom  12 (R=0.086)  charge=  5.4569  magn=  1.5511
     atom  13 (R=0.086)  charge=  5.4562  magn=  1.5540
     atom  14 (R=0.086)  charge=  5.4568  magn=  1.5504
     atom  15 (R=0.086)  charge=  5.4567  magn=  1.5481
     atom  16 (R=0.086)  charge=  5.4564  magn=  1.5419
     atom  17 (R=0.086)  charge=  5.4567  magn=  1.5488
     atom  18 (R=0.086)  charge=  5.4567  magn=  1.5473
     atom  19 (R=0.086)  charge=  5.4562  magn=  1.5368
     atom  20 (R=0.086)  charge=  5.4563  magn=  1.5400
     atom  21 (R=0.086)  charge=  5.4553  magn=  1.5650
     atom  22 (R=0.086)  charge=  5.4562  magn=  1.5414
     atom  23 (R=0.086)  charge=  5.4563  magn=  1.5294
     atom  24 (R=0.086)  charge=  5.4560  magn=  1.5434
     atom  25 (R=0.086)  charge=  5.4556  magn=  1.5158
     atom  26 (R=0.086)  charge=  5.4546  magn=  1.5483
     atom  27 (R=0.086)  charge=  5.4560  magn=  1.5384
     atom  28 (R=0.086)  charge=  5.4692  magn=  1.2392
     atom  29 (R=0.086)  charge=  5.4660  magn=  0.8631
     atom  30 (R=0.086)  charge=  5.4590  magn=  1.5464
     atom  31 (R=0.086)  charge=  5.4631  magn=  1.6322
     atom  32 (R=0.086)  charge=  5.4614  magn=  1.6103
     atom  33 (R=0.086)  charge=  5.4598  magn=  1.6256
     atom  34 (R=0.086)  charge=  5.4602  magn=  1.6386
     atom  35 (R=0.086)  charge=  5.4661  magn=  1.5425
     atom  36 (R=0.086)  charge=  5.4614  magn=  1.6423
     atom  37 (R=0.065)  charge=  1.0448  magn= -0.0202
     atom  38 (R=0.065)  charge=  2.9208  magn= -0.0374
     atom  39 (R=0.086)  charge=  0.7534  magn= -0.0151

     total cpu time spent up to now is      963.7 secs

     End of self-consistent calculation

 ------ SPIN UP ------------


          k = 0.0000 0.0000 0.0000 ( 51087 PWs)   bands (ev):

   -21.9603  -9.1858  -7.6444  -6.4557  -5.8095  -5.6359  -5.3856  -4.9212
    -4.8187  -4.8133  -4.8084  -4.7960  -4.7830  -4.7658  -4.5386  -4.3493
    -4.2793  -4.2782  -4.2610  -4.2444  -4.2298  -4.0260  -3.7640  -3.7621
    -3.7520  -3.7391  -3.7158  -3.6786  -3.6293  -3.6268  -3.6232  -3.6177
    -3.6007  -3.5502  -3.5465  -3.4325  -3.2456  -3.2405  -3.2368  -3.2346
    -3.1809  -3.1764  -3.1696  -3.1661  -3.1630  -3.1551  -3.1478  -3.0987
    -3.0090  -3.0075  -2.9421  -2.9376  -2.9328  -2.9265  -2.9180  -2.9043
    -2.9009  -2.9002  -2.8752  -2.8717  -2.8044  -2.7956  -2.7925  -2.7840
    -2.7233  -2.6003  -2.3007  -2.2630  -2.2615  -2.2566  -2.2554  -2.1563
    -2.1347  -2.1221  -2.1104  -2.1021  -2.0918  -2.0843  -2.0791  -2.0731
    -2.0330  -2.0293  -2.0036  -1.9912  -1.9817  -1.9742  -1.9604  -1.9513
    -1.9475  -1.9400  -1.9347  -1.9291  -1.9184  -1.9073  -1.9025  -1.8919
    -1.8912  -1.8879  -1.8854  -1.8846  -1.8812  -1.8792  -1.8760  -1.8617
    -1.8552  -1.8499  -1.8260  -1.8113  -1.8024  -1.7322  -1.7258  -1.6251
    -1.5455  -1.4404  -1.4390  -1.4376  -1.4277  -1.4243  -1.4109  -1.3959
    -1.3914  -1.3863  -1.3712  -1.3447  -1.3411  -1.2173  -1.2134  -1.1944
    -1.1804  -1.1654  -1.0847  -1.0437  -1.0205  -1.0085  -0.9721  -0.9590
    -0.9557  -0.9528  -0.9433  -0.9310  -0.9259  -0.8830  -0.8304  -0.8053
    -0.7249  -0.6995  -0.6967  -0.6925  -0.6777  -0.6526  -0.6369  -0.6307
    -0.6272  -0.6254  -0.6231  -0.6210  -0.6156  -0.6069  -0.6026  -0.5925
    -0.5901  -0.5813  -0.5717  -0.5579  -0.5562  -0.5488  -0.5395  -0.5306
    -0.5283  -0.5173  -0.5091  -0.5025  -0.4967  -0.4856  -0.4834  -0.4786
    -0.4751  -0.4689  -0.4498  -0.4264  -0.4116  -0.3989  -0.3935  -0.3858
    -0.3824  -0.3731  -0.3681  -0.3543  -0.3495  -0.3082  -0.3029  -0.2995
    -0.2920  -0.2912  -0.2354  -0.2299  -0.2247  -0.2162  -0.1866  -0.1730
     0.4857   0.7899

          k = 0.0000 0.2309 0.0000 ( 51134 PWs)   bands (ev):

   -21.9603  -9.1763  -7.5022  -6.3567  -5.8220  -5.6585  -5.5284  -5.3554
    -5.0552  -5.0254  -4.8224  -4.6225  -4.4711  -4.4660  -4.4269  -4.3967
    -4.3053  -4.2854  -4.2237  -4.1474  -4.1390  -4.0426  -3.8575  -3.7683
    -3.7589  -3.6889  -3.6439  -3.6335  -3.6300  -3.6195  -3.6116  -3.5961
    -3.5809  -3.5190  -3.5062  -3.4829  -3.4784  -3.3966  -3.2605  -3.2540
    -3.2402  -3.2008  -3.1969  -3.1883  -3.1675  -3.0930  -3.0665  -3.0547
    -3.0316  -3.0303  -3.0134  -2.9901  -2.9665  -2.8937  -2.8857  -2.8539
    -2.8260  -2.8188  -2.7905  -2.7855  -2.7613  -2.7229  -2.7196  -2.7066
    -2.6894  -2.5858  -2.3820  -2.3747  -2.3533  -2.3448  -2.3206  -2.2342
    -2.2239  -2.2083  -2.2038  -2.1949  -2.1884  -2.1805  -2.1555  -2.1002
    -2.0883  -2.0773  -2.0559  -2.0242  -2.0171  -2.0127  -1.9996  -1.9945
    -1.9817  -1.9775  -1.9691  -1.9682  -1.9601  -1.9414  -1.9250  -1.8824
    -1.8648  -1.8600  -1.7967  -1.7901  -1.7803  -1.7785  -1.7702  -1.7663
    -1.7539  -1.7462  -1.7375  -1.7345  -1.7251  -1.7055  -1.6949  -1.6784
    -1.6649  -1.6570  -1.6238  -1.5687  -1.5552  -1.4742  -1.4627  -1.4611
    -1.4531  -1.4325  -1.4284  -1.4206  -1.3991  -1.3867  -1.3680  -1.2628
    -1.2421  -1.2004  -1.1758  -1.1634  -1.1476  -1.0920  -1.0752  -1.0657
    -1.0505  -0.9728  -0.9618  -0.9517  -0.9262  -0.9214  -0.8908  -0.8789
    -0.8630  -0.8490  -0.8403  -0.8119  -0.7979  -0.7815  -0.7760  -0.7709
    -0.7131  -0.7056  -0.6953  -0.6895  -0.6785  -0.6611  -0.6356  -0.6223
    -0.6171  -0.6113  -0.6073  -0.5935  -0.5769  -0.5675  -0.5533  -0.5381
    -0.5107  -0.4963  -0.4833  -0.4483  -0.4305  -0.4130  -0.3996  -0.3733
    -0.3685  -0.3558  -0.3506  -0.3371  -0.3210  -0.3136  -0.3082  -0.2755
    -0.2414  -0.2336  -0.2205  -0.2001  -0.1935  -0.1775  -0.1658  -0.1458
    -0.0862  -0.0114   0.1417   0.1551   0.2457   0.3019   0.4166   0.4302
     0.4626   0.7798

          k = 0.0000 0.4619 0.0000 ( 51204 PWs)   bands (ev):

   -21.9603  -9.1614  -7.0827  -6.4343  -6.1083  -5.7409  -5.6144  -5.3540
    -5.2015  -5.1393  -5.0619  -4.6283  -4.3082  -4.2978  -4.2783  -4.2367
    -4.1757  -4.1084  -4.0996  -4.0361  -3.9765  -3.9707  -3.9634  -3.8053
    -3.7927  -3.7893  -3.7792  -3.7720  -3.7171  -3.6726  -3.6662  -3.5323
    -3.5053  -3.4958  -3.4806  -3.4604  -3.4528  -3.4097  -3.3500  -3.3446
    -3.3302  -3.3250  -3.2446  -3.1949  -3.1271  -3.0993  -3.0346  -3.0278
    -2.9932  -2.9767  -2.9499  -2.9382  -2.9301  -2.9096  -2.8899  -2.8409
    -2.8334  -2.8080  -2.7812  -2.7734  -2.6407  -2.6335  -2.6084  -2.5981
    -2.5454  -2.5198  -2.4929  -2.4829  -2.4664  -2.4057  -2.3511  -2.3482
    -2.3436  -2.3356  -2.3281  -2.3074  -2.2933  -2.2769  -2.2624  -2.2519
    -2.2202  -2.1840  -2.1672  -2.1475  -2.1238  -2.0945  -2.0567  -2.0265
    -2.0172  -2.0063  -1.9773  -1.9738  -1.9653  -1.9199  -1.9057  -1.8984
    -1.8961  -1.8798  -1.8646  -1.8407  -1.8295  -1.8217  -1.8162  -1.7966
    -1.7821  -1.7520  -1.7184  -1.7162  -1.6484  -1.6311  -1.6156  -1.6122
    -1.5900  -1.5658  -1.5373  -1.5163  -1.5009  -1.4796  -1.4771  -1.4702
    -1.4670  -1.4584  -1.4497  -1.4391  -1.4347  -1.4243  -1.4124  -1.4022
    -1.3948  -1.3470  -1.2837  -1.2756  -1.2571  -1.2345  -1.2152  -1.2054
    -1.1746  -1.1121  -1.1021  -1.0943  -1.0554  -1.0455  -1.0113  -0.9695
    -0.9498  -0.9347  -0.9208  -0.8993  -0.8866  -0.8705  -0.8480  -0.7550
    -0.7397  -0.7336  -0.7127  -0.7065  -0.6942  -0.6864  -0.6805  -0.6691
    -0.6598  -0.6354  -0.5547  -0.5440  -0.5347  -0.5261  -0.5207  -0.5062
    -0.4948  -0.4834  -0.4590  -0.4533  -0.4337  -0.4134  -0.3650  -0.3471
    -0.3395  -0.3170  -0.3049  -0.2484  -0.2424  -0.2165  -0.2078  -0.1658
    -0.1346  -0.1319  -0.1232  -0.1096  -0.0965  -0.0913  -0.0857  -0.0321
     0.0075   0.0432   0.4996   0.6061   0.9236   1.1184   1.1434   1.3539
     1.4849   1.5112

          k = 0.2000-0.1155 0.0000 ( 51134 PWs)   bands (ev):

   -21.9603  -9.1746  -7.5033  -6.3579  -5.8445  -5.6637  -5.5064  -5.3515
    -5.0515  -5.0317  -4.8279  -4.5799  -4.4837  -4.4653  -4.4379  -4.3951
    -4.3306  -4.2831  -4.2024  -4.1775  -4.1406  -3.9949  -3.8791  -3.7626
    -3.7494  -3.6872  -3.6509  -3.6345  -3.6300  -3.6258  -3.6155  -3.5985
    -3.5674  -3.5311  -3.5068  -3.4841  -3.4784  -3.4047  -3.2733  -3.2568
    -3.2498  -3.2018  -3.1970  -3.1815  -3.1631  -3.1026  -3.0683  -3.0493
    -3.0315  -3.0259  -3.0186  -2.9860  -2.9550  -2.8953  -2.8858  -2.8620
    -2.8207  -2.8101  -2.7892  -2.7855  -2.7603  -2.7226  -2.7198  -2.7074
    -2.6732  -2.5943  -2.3855  -2.3740  -2.3490  -2.3367  -2.3184  -2.2333
    -2.2258  -2.2121  -2.2063  -2.1955  -2.1886  -2.1740  -2.1422  -2.0974
    -2.0928  -2.0766  -2.0577  -2.0247  -2.0201  -2.0136  -2.0015  -1.9912
    -1.9842  -1.9811  -1.9729  -1.9692  -1.9563  -1.9447  -1.9074  -1.8756
    -1.8682  -1.8484  -1.8048  -1.7946  -1.7876  -1.7769  -1.7697  -1.7672
    -1.7582  -1.7489  -1.7396  -1.7335  -1.7301  -1.7128  -1.6905  -1.6805
    -1.6685  -1.6495  -1.6299  -1.5808  -1.5579  -1.5025  -1.4606  -1.4564
    -1.4429  -1.4388  -1.4267  -1.4227  -1.4007  -1.3774  -1.3077  -1.2703
    -1.2353  -1.2085  -1.1774  -1.1659  -1.1409  -1.1087  -1.0844  -1.0693
    -1.0141  -0.9863  -0.9790  -0.9624  -0.9343  -0.9235  -0.8956  -0.8872
    -0.8717  -0.8450  -0.8242  -0.8032  -0.7972  -0.7888  -0.7780  -0.7615
    -0.7105  -0.7012  -0.6931  -0.6897  -0.6698  -0.6470  -0.6314  -0.6241
    -0.6174  -0.6130  -0.6049  -0.5952  -0.5812  -0.5679  -0.5559  -0.5375
    -0.5002  -0.4847  -0.4733  -0.4485  -0.4350  -0.4234  -0.3902  -0.3749
    -0.3649  -0.3527  -0.3447  -0.3406  -0.3221  -0.3144  -0.3091  -0.2679
    -0.2404  -0.2273  -0.2213  -0.2005  -0.1919  -0.1811  -0.1622  -0.1410
    -0.0926  -0.0221   0.1261   0.1545   0.2017   0.2883   0.4004   0.4307
     0.4674   0.7973

          k = 0.2000 0.1155 0.0000 ( 51134 PWs)   bands (ev):

   -21.9603  -9.1742  -7.5038  -6.3590  -5.8604  -5.6567  -5.4701  -5.3818
    -5.0499  -5.0301  -4.8336  -4.5587  -4.4877  -4.4642  -4.4452  -4.3892
    -4.3316  -4.2949  -4.2037  -4.1766  -4.1414  -3.9873  -3.8793  -3.7679
    -3.7423  -3.6834  -3.6450  -3.6362  -3.6310  -3.6280  -3.6145  -3.6074
    -3.5481  -3.5394  -3.5156  -3.4831  -3.4791  -3.4073  -3.2774  -3.2557
    -3.2520  -3.2020  -3.1988  -3.1845  -3.1592  -3.0991  -3.0706  -3.0464
    -3.0298  -3.0266  -3.0177  -2.9917  -2.9543  -2.8963  -2.8860  -2.8600
    -2.8260  -2.8009  -2.7904  -2.7839  -2.7668  -2.7221  -2.7209  -2.7080
    -2.6590  -2.5987  -2.3833  -2.3749  -2.3464  -2.3366  -2.3207  -2.2328
    -2.2268  -2.2193  -2.2032  -2.1970  -2.1888  -2.1751  -2.1281  -2.0995
    -2.0927  -2.0781  -2.0490  -2.0231  -2.0186  -2.0135  -2.0075  -1.9920
    -1.9844  -1.9800  -1.9741  -1.9697  -1.9581  -1.9384  -1.9206  -1.8780
    -1.8665  -1.8472  -1.8060  -1.7950  -1.7892  -1.7770  -1.7709  -1.7672
    -1.7572  -1.7480  -1.7442  -1.7334  -1.7319  -1.7152  -1.6872  -1.6821
    -1.6682  -1.6562  -1.6235  -1.5799  -1.5602  -1.5129  -1.4627  -1.4549
    -1.4438  -1.4345  -1.4275  -1.4211  -1.4022  -1.3655  -1.2880  -1.2756
    -1.2360  -1.2131  -1.1775  -1.1671  -1.1401  -1.1185  -1.0854  -1.0769
    -1.0044  -0.9898  -0.9774  -0.9529  -0.9391  -0.9257  -0.8956  -0.8887
    -0.8710  -0.8444  -0.8275  -0.8037  -0.8006  -0.7882  -0.7833  -0.7623
    -0.7068  -0.6979  -0.6918  -0.6872  -0.6745  -0.6387  -0.6339  -0.6238
    -0.6172  -0.6114  -0.6055  -0.5932  -0.5802  -0.5680  -0.5604  -0.5494
    -0.4973  -0.4774  -0.4688  -0.4509  -0.4373  -0.4295  -0.3892  -0.3749
    -0.3681  -0.3556  -0.3457  -0.3357  -0.3214  -0.3134  -0.3081  -0.2650
    -0.2344  -0.2269  -0.2196  -0.1994  -0.1925  -0.1578  -0.1498  -0.1426
    -0.0912  -0.0433   0.1216   0.1560   0.1914   0.2849   0.4035   0.4266
     0.4619   0.7614

          k = 0.2000 0.3464 0.0000 ( 51202 PWs)   bands (ev):

   -21.9603  -9.1620  -7.2229  -6.2103  -6.0019  -5.9139  -5.6641  -5.5128
    -5.3528  -4.8590  -4.7144  -4.5751  -4.4757  -4.4602  -4.2899  -4.2531
    -4.2308  -4.1555  -4.1489  -4.0402  -4.0215  -3.9777  -3.8787  -3.8537
    -3.8080  -3.7594  -3.6703  -3.6553  -3.6325  -3.6180  -3.6088  -3.6041
    -3.5720  -3.5640  -3.5254  -3.4986  -3.4605  -3.4232  -3.4163  -3.3649
    -3.2795  -3.2203  -3.1970  -3.1784  -3.1530  -3.1370  -3.0866  -3.0376
    -3.0001  -2.9792  -2.9622  -2.9455  -2.9346  -2.9002  -2.8949  -2.8659
    -2.8484  -2.8289  -2.7420  -2.7079  -2.6712  -2.6528  -2.6429  -2.6195
    -2.5919  -2.5577  -2.4860  -2.4183  -2.4030  -2.3763  -2.3589  -2.3292
    -2.3152  -2.3055  -2.2994  -2.2766  -2.2624  -2.2487  -2.2357  -2.2309
    -2.2238  -2.1746  -2.1463  -2.1032  -2.0526  -2.0481  -2.0235  -2.0091
    -2.0013  -1.9773  -1.9526  -1.9442  -1.9345  -1.9089  -1.8924  -1.8904
    -1.8824  -1.8706  -1.8634  -1.8479  -1.8369  -1.8272  -1.8132  -1.8033
    -1.7853  -1.7758  -1.7483  -1.7083  -1.7013  -1.6643  -1.6550  -1.6537
    -1.6455  -1.6267  -1.5977  -1.5648  -1.5508  -1.5439  -1.5240  -1.4920
    -1.4880  -1.4768  -1.4664  -1.4458  -1.4301  -1.4177  -1.4050  -1.3615
    -1.3413  -1.3164  -1.2986  -1.2345  -1.2084  -1.1769  -1.1586  -1.0875
    -1.0620  -1.0418  -1.0323  -1.0220  -1.0184  -1.0104  -0.9829  -0.9746
    -0.9591  -0.9478  -0.9235  -0.8839  -0.8769  -0.8550  -0.8427  -0.8330
    -0.8101  -0.7902  -0.7723  -0.7605  -0.7480  -0.7386  -0.6235  -0.5941
    -0.5924  -0.5700  -0.5558  -0.5446  -0.5297  -0.5249  -0.5049  -0.4986
    -0.4755  -0.4514  -0.4224  -0.4136  -0.3936  -0.3805  -0.3438  -0.3289
    -0.3182  -0.3151  -0.3116  -0.2867  -0.2766  -0.2672  -0.2658  -0.2445
    -0.2346  -0.1618  -0.1458  -0.1432  -0.0985  -0.0934  -0.0740   0.0419
     0.1817   0.2479   0.2772   0.4439   0.5446   0.6560   1.0303   1.1341
     1.2598   1.4162

          k = 0.2000-0.5774 0.0000 ( 51262 PWs)   bands (ev):

   -21.9603  -9.1551  -6.6939  -6.6694  -6.1105  -5.9845  -5.6662  -5.5410
    -5.2251  -5.1816  -4.8047  -4.4972  -4.4549  -4.2180  -4.1687  -4.0685
    -4.0383  -4.0246  -4.0084  -4.0034  -3.9499  -3.9366  -3.9246  -3.9237
    -3.8928  -3.8440  -3.7773  -3.7701  -3.7487  -3.7437  -3.6940  -3.6018
    -3.5924  -3.5839  -3.5624  -3.5098  -3.4423  -3.4262  -3.3597  -3.2986
    -3.2928  -3.2387  -3.2130  -3.1937  -3.1666  -3.1226  -3.0799  -3.0783
    -3.0413  -3.0131  -2.9887  -2.9194  -2.8806  -2.8608  -2.8461  -2.8041
    -2.7956  -2.7203  -2.7105  -2.6980  -2.6892  -2.6776  -2.6546  -2.6382
    -2.5491  -2.5047  -2.4912  -2.4752  -2.4542  -2.4182  -2.4000  -2.3549
    -2.3496  -2.3082  -2.3016  -2.2996  -2.2880  -2.2673  -2.2417  -2.2380
    -2.2211  -2.2114  -2.1922  -2.1677  -2.1644  -2.1345  -2.0899  -2.0742
    -2.0585  -2.0189  -1.9944  -1.9735  -1.9569  -1.9304  -1.9178  -1.9066
    -1.8881  -1.8765  -1.8701  -1.8619  -1.8492  -1.8260  -1.8186  -1.8004
    -1.7573  -1.7335  -1.7243  -1.7144  -1.6979  -1.6912  -1.6854  -1.6742
    -1.6641  -1.6620  -1.6420  -1.6085  -1.5767  -1.5674  -1.5546  -1.5283
    -1.4714  -1.4683  -1.4438  -1.4267  -1.4108  -1.4021  -1.3847  -1.3619
    -1.3307  -1.3127  -1.2844  -1.2556  -1.2034  -1.1753  -1.1674  -1.1470
    -1.1324  -1.1234  -1.1111  -1.0822  -1.0636  -1.0443  -1.0310  -1.0211
    -0.9721  -0.9520  -0.9396  -0.9322  -0.9200  -0.8743  -0.8596  -0.8424
    -0.8357  -0.8184  -0.8092  -0.7948  -0.7700  -0.7594  -0.7194  -0.5870
    -0.5611  -0.5574  -0.5463  -0.5313  -0.5252  -0.5156  -0.5022  -0.4857
    -0.4612  -0.4474  -0.4406  -0.4312  -0.3907  -0.3422  -0.3199  -0.3117
    -0.2971  -0.2887  -0.2698  -0.2584  -0.2233  -0.2149  -0.2086  -0.1945
    -0.1877  -0.1228  -0.1187  -0.1103  -0.0986  -0.0859  -0.0660  -0.0274
     0.1511   0.2632   0.4956   0.8751   1.1162   1.1875   1.3098   1.5225
     1.6928   1.7357

          k = 0.2000-0.3464 0.0000 ( 51202 PWs)   bands (ev):

   -21.9603  -9.1627  -7.2216  -6.2127  -5.9756  -5.9220  -5.6647  -5.5423
    -5.3413  -4.8493  -4.6990  -4.6077  -4.4731  -4.4601  -4.2811  -4.2543
    -4.2363  -4.1549  -4.1491  -4.0222  -4.0167  -4.0014  -3.8807  -3.8577
    -3.8098  -3.7592  -3.6694  -3.6515  -3.6416  -3.6209  -3.6139  -3.5916
    -3.5718  -3.5647  -3.5250  -3.4984  -3.4618  -3.4219  -3.4069  -3.3675
    -3.2817  -3.2178  -3.1959  -3.1807  -3.1533  -3.1314  -3.0757  -3.0378
    -2.9923  -2.9887  -2.9597  -2.9449  -2.9385  -2.9045  -2.8859  -2.8667
    -2.8485  -2.8306  -2.7387  -2.7224  -2.6728  -2.6581  -2.6343  -2.6207
    -2.5963  -2.5575  -2.4839  -2.4192  -2.3968  -2.3766  -2.3591  -2.3289
    -2.3158  -2.3051  -2.2998  -2.2753  -2.2591  -2.2489  -2.2371  -2.2301
    -2.2210  -2.1778  -2.1483  -2.1237  -2.0536  -2.0480  -2.0231  -2.0086
    -2.0013  -1.9769  -1.9609  -1.9417  -1.9250  -1.9107  -1.8939  -1.8896
    -1.8812  -1.8714  -1.8647  -1.8464  -1.8346  -1.8298  -1.8121  -1.7970
    -1.7851  -1.7810  -1.7572  -1.7071  -1.7031  -1.6705  -1.6571  -1.6487
    -1.6444  -1.6214  -1.5835  -1.5754  -1.5526  -1.5263  -1.5148  -1.4971
    -1.4832  -1.4784  -1.4682  -1.4457  -1.4369  -1.4160  -1.4065  -1.3566
    -1.3426  -1.3060  -1.2934  -1.2417  -1.2037  -1.1692  -1.1590  -1.0856
    -1.0673  -1.0441  -1.0303  -1.0268  -1.0197  -1.0111  -0.9838  -0.9745
    -0.9586  -0.9527  -0.9274  -0.8847  -0.8733  -0.8610  -0.8404  -0.8274
    -0.8065  -0.7842  -0.7720  -0.7628  -0.7496  -0.7402  -0.6203  -0.6055
    -0.5888  -0.5707  -0.5561  -0.5447  -0.5366  -0.5198  -0.5113  -0.4944
    -0.4770  -0.4502  -0.4169  -0.4072  -0.3952  -0.3818  -0.3482  -0.3248
    -0.3202  -0.3153  -0.3099  -0.2865  -0.2787  -0.2689  -0.2614  -0.2471
    -0.2395  -0.1634  -0.1483  -0.1426  -0.1009  -0.0958  -0.0858   0.0550
     0.1678   0.2476   0.2705   0.4688   0.5278   0.6556   1.0550   1.1389
     1.2598   1.3885

          k = 0.4000-0.2309 0.0000 ( 51204 PWs)   bands (ev):

   -21.9603  -9.1568  -7.0876  -6.4396  -6.1138  -5.8144  -5.5334  -5.3709
    -5.1856  -5.1424  -5.0483  -4.6344  -4.3357  -4.3019  -4.2668  -4.2257
    -4.1707  -4.1096  -4.1033  -4.0052  -3.9750  -3.9710  -3.9346  -3.8107
    -3.7931  -3.7830  -3.7791  -3.7704  -3.7029  -3.6760  -3.6641  -3.6070
    -3.5085  -3.5007  -3.4852  -3.4628  -3.4512  -3.4111  -3.3535  -3.3440
    -3.3332  -3.3214  -3.2940  -3.2063  -3.1189  -3.0946  -3.0268  -3.0134
    -2.9901  -2.9698  -2.9493  -2.9374  -2.9281  -2.9168  -2.8907  -2.8466
    -2.8345  -2.8130  -2.7714  -2.7437  -2.6410  -2.6239  -2.6060  -2.5782
    -2.5503  -2.5183  -2.4955  -2.4807  -2.4698  -2.4086  -2.3507  -2.3491
    -2.3469  -2.3345  -2.3245  -2.3053  -2.2924  -2.2834  -2.2657  -2.2304
    -2.2175  -2.1876  -2.1693  -2.1464  -2.1180  -2.1086  -2.0612  -2.0334
    -2.0186  -2.0081  -1.9879  -1.9655  -1.9537  -1.9161  -1.9058  -1.8960
    -1.8945  -1.8691  -1.8639  -1.8431  -1.8335  -1.8296  -1.8212  -1.7887
    -1.7769  -1.7417  -1.7245  -1.7156  -1.6508  -1.6347  -1.6089  -1.5949
    -1.5801  -1.5634  -1.5518  -1.5071  -1.4997  -1.4861  -1.4815  -1.4723
    -1.4619  -1.4571  -1.4505  -1.4423  -1.4323  -1.4272  -1.4052  -1.3919
    -1.3772  -1.3609  -1.3077  -1.2648  -1.2536  -1.2403  -1.2206  -1.1934
    -1.1758  -1.1298  -1.1009  -1.0920  -1.0662  -1.0542  -1.0209  -0.9945
    -0.9745  -0.9356  -0.9217  -0.9090  -0.8830  -0.8522  -0.8267  -0.7810
    -0.7496  -0.7178  -0.7085  -0.6925  -0.6900  -0.6835  -0.6741  -0.6654
    -0.6461  -0.6338  -0.5487  -0.5389  -0.5355  -0.5256  -0.5126  -0.4990
    -0.4880  -0.4714  -0.4638  -0.4593  -0.4306  -0.4116  -0.3570  -0.3443
    -0.3313  -0.3197  -0.2928  -0.2484  -0.2438  -0.2127  -0.2054  -0.1666
    -0.1346  -0.1261  -0.1182  -0.1015  -0.0961  -0.0923  -0.0840  -0.0364
     0.0077   0.0371   0.4295   0.6162   0.9386   1.0890   1.1364   1.2668
     1.4718   1.5224

          k = 0.4000 0.0000 0.0000 ( 51202 PWs)   bands (ev):

   -21.9603  -9.1592  -7.2259  -6.2034  -6.0417  -5.9069  -5.6655  -5.4790
    -5.3695  -4.8180  -4.7552  -4.5525  -4.4749  -4.4727  -4.2915  -4.2552
    -4.2235  -4.1542  -4.1487  -4.0748  -4.0231  -3.9092  -3.8824  -3.8517
    -3.8039  -3.7641  -3.6730  -3.6678  -3.6294  -3.6239  -3.6112  -3.5998
    -3.5715  -3.5604  -3.5413  -3.5063  -3.4591  -3.4374  -3.4243  -3.3714
    -3.2894  -3.2442  -3.1967  -3.1662  -3.1496  -3.1379  -3.0858  -3.0370
    -3.0058  -2.9662  -2.9621  -2.9522  -2.9262  -2.9012  -2.8811  -2.8740
    -2.8552  -2.8245  -2.7501  -2.6805  -2.6724  -2.6498  -2.6296  -2.6114
    -2.6003  -2.5481  -2.4885  -2.4162  -2.3964  -2.3748  -2.3612  -2.3328
    -2.3157  -2.3072  -2.3008  -2.2820  -2.2598  -2.2501  -2.2432  -2.2302
    -2.2022  -2.1772  -2.1535  -2.0945  -2.0535  -2.0448  -2.0361  -2.0151
    -1.9963  -1.9787  -1.9483  -1.9416  -1.9377  -1.9077  -1.8897  -1.8834
    -1.8758  -1.8737  -1.8659  -1.8460  -1.8431  -1.8252  -1.8111  -1.8057
    -1.7806  -1.7519  -1.7301  -1.7093  -1.7004  -1.6760  -1.6553  -1.6504
    -1.6388  -1.6251  -1.6068  -1.5749  -1.5520  -1.5445  -1.5172  -1.5008
    -1.4904  -1.4795  -1.4669  -1.4552  -1.4390  -1.4248  -1.4095  -1.3621
    -1.3366  -1.3262  -1.3149  -1.2162  -1.1985  -1.1797  -1.1626  -1.0958
    -1.0489  -1.0460  -1.0410  -1.0349  -1.0168  -1.0059  -0.9890  -0.9838
    -0.9643  -0.9386  -0.9234  -0.8811  -0.8622  -0.8519  -0.8403  -0.8297
    -0.8012  -0.7915  -0.7740  -0.7661  -0.7513  -0.7396  -0.6218  -0.5968
    -0.5781  -0.5647  -0.5557  -0.5438  -0.5315  -0.5221  -0.5078  -0.5011
    -0.4798  -0.4486  -0.4294  -0.4116  -0.3929  -0.3743  -0.3335  -0.3256
    -0.3173  -0.3158  -0.3080  -0.2876  -0.2768  -0.2716  -0.2636  -0.2412
    -0.2339  -0.1589  -0.1473  -0.1444  -0.1027  -0.1007  -0.0628   0.0472
     0.2353   0.2473   0.3000   0.3787   0.5591   0.6327   0.9362   1.1397
     1.2385   1.4231

          k = 0.4000 0.2309 0.0000 ( 51204 PWs)   bands (ev):

   -21.9603  -9.1558  -7.0895  -6.4422  -6.1195  -5.8350  -5.4807  -5.3947
    -5.1858  -5.1405  -5.0425  -4.6432  -4.3388  -4.2965  -4.2773  -4.2256
    -4.1623  -4.1097  -4.1056  -3.9985  -3.9761  -3.9706  -3.9046  -3.8148
    -3.7926  -3.7829  -3.7781  -3.7700  -3.6844  -3.6785  -3.6554  -3.6477
    -3.5102  -3.5058  -3.4921  -3.4625  -3.4574  -3.4084  -3.3523  -3.3463
    -3.3337  -3.3208  -3.2934  -3.2036  -3.1218  -3.0852  -3.0285  -3.0063
    -2.9932  -2.9688  -2.9499  -2.9463  -2.9336  -2.9126  -2.8788  -2.8479
    -2.8367  -2.8143  -2.7789  -2.7308  -2.6346  -2.6246  -2.6106  -2.5786
    -2.5528  -2.5141  -2.4935  -2.4872  -2.4766  -2.4069  -2.3547  -2.3483
    -2.3444  -2.3348  -2.3244  -2.3076  -2.2904  -2.2851  -2.2635  -2.2234
    -2.2100  -2.1894  -2.1719  -2.1550  -2.1157  -2.0987  -2.0592  -2.0366
    -2.0217  -2.0100  -1.9892  -1.9714  -1.9482  -1.9161  -1.9098  -1.8970
    -1.8843  -1.8735  -1.8630  -1.8455  -1.8358  -1.8284  -1.8208  -1.7912
    -1.7768  -1.7483  -1.7295  -1.7148  -1.6507  -1.6382  -1.6089  -1.5930
    -1.5747  -1.5629  -1.5464  -1.5019  -1.4993  -1.4913  -1.4807  -1.4745
    -1.4639  -1.4601  -1.4442  -1.4431  -1.4328  -1.4222  -1.4051  -1.3929
    -1.3744  -1.3603  -1.3200  -1.2655  -1.2478  -1.2393  -1.2207  -1.1903
    -1.1787  -1.1283  -1.1057  -1.0929  -1.0826  -1.0446  -1.0324  -0.9970
    -0.9709  -0.9364  -0.9188  -0.9134  -0.8816  -0.8525  -0.8279  -0.7868
    -0.7318  -0.7173  -0.7067  -0.6944  -0.6891  -0.6792  -0.6732  -0.6610
    -0.6501  -0.6485  -0.5483  -0.5396  -0.5368  -0.5213  -0.5112  -0.4916
    -0.4885  -0.4789  -0.4622  -0.4508  -0.4369  -0.4103  -0.3550  -0.3397
    -0.3344  -0.3217  -0.2871  -0.2449  -0.2431  -0.2068  -0.2058  -0.1656
    -0.1331  -0.1238  -0.1198  -0.0985  -0.0945  -0.0912  -0.0727  -0.0454
     0.0073   0.0386   0.4040   0.6867   0.9013   1.0445   1.1418   1.2148
     1.4919   1.5362

          k = 0.4000-0.6928 0.0000 ( 51262 PWs)   bands (ev):

   -21.9603  -9.1516  -6.7197  -6.6563  -6.1205  -5.9257  -5.8190  -5.4151
    -5.2066  -5.1917  -4.8345  -4.5155  -4.4474  -4.2098  -4.1707  -4.0432
    -4.0372  -4.0150  -4.0061  -3.9836  -3.9541  -3.9294  -3.9248  -3.9177
    -3.8990  -3.8030  -3.7797  -3.7746  -3.7548  -3.7376  -3.7195  -3.6101
    -3.5911  -3.5863  -3.5713  -3.5481  -3.4881  -3.4275  -3.3287  -3.2987
    -3.2934  -3.2726  -3.2011  -3.1924  -3.1649  -3.1187  -3.0804  -3.0777
    -3.0651  -2.9986  -2.9884  -2.9166  -2.8809  -2.8552  -2.8494  -2.7946
    -2.7778  -2.7199  -2.7120  -2.7050  -2.6934  -2.6844  -2.6370  -2.6186
    -2.5442  -2.5005  -2.4908  -2.4754  -2.4648  -2.4260  -2.4090  -2.3531
    -2.3445  -2.3127  -2.3060  -2.2906  -2.2839  -2.2625  -2.2406  -2.2262
    -2.2146  -2.2056  -2.1815  -2.1710  -2.1618  -2.1404  -2.1017  -2.0819
    -2.0659  -2.0470  -1.9990  -1.9649  -1.9479  -1.9269  -1.9162  -1.9087
    -1.8858  -1.8795  -1.8699  -1.8521  -1.8351  -1.8288  -1.8166  -1.7601
    -1.7417  -1.7361  -1.7219  -1.7081  -1.6990  -1.6951  -1.6831  -1.6779
    -1.6738  -1.6675  -1.6406  -1.6321  -1.5835  -1.5624  -1.5543  -1.5357
    -1.4933  -1.4732  -1.4549  -1.4210  -1.4068  -1.3967  -1.3852  -1.3692
    -1.3205  -1.3175  -1.2908  -1.2389  -1.1881  -1.1840  -1.1745  -1.1485
    -1.1302  -1.1177  -1.1081  -1.0947  -1.0784  -1.0538  -1.0279  -1.0045
    -0.9718  -0.9642  -0.9405  -0.9251  -0.9169  -0.8819  -0.8623  -0.8565
    -0.8319  -0.8193  -0.8045  -0.7843  -0.7710  -0.7559  -0.7268  -0.5783
    -0.5607  -0.5531  -0.5439  -0.5319  -0.5288  -0.5127  -0.5014  -0.4689
    -0.4635  -0.4492  -0.4479  -0.4347  -0.3772  -0.3253  -0.3195  -0.3085
    -0.2991  -0.2851  -0.2682  -0.2388  -0.2240  -0.2159  -0.2065  -0.1962
    -0.1887  -0.1616  -0.1182  -0.1106  -0.0984  -0.0863  -0.0654  -0.0269
     0.1640   0.2846   0.5777   0.8494   0.9566   1.1897   1.2494   1.5844
     1.6919   1.7295

          k = 0.4000-0.4619 0.0000 ( 51262 PWs)   bands (ev):

   -21.9603  -9.1523  -6.7151  -6.6566  -6.1194  -5.9524  -5.7668  -5.4527
    -5.2226  -5.1826  -4.8144  -4.5109  -4.4502  -4.2116  -4.1716  -4.0476
    -4.0368  -4.0204  -4.0085  -3.9961  -3.9468  -3.9304  -3.9248  -3.9217
    -3.8991  -3.8250  -3.7786  -3.7725  -3.7518  -3.7420  -3.7002  -3.6087
    -3.5919  -3.5826  -3.5646  -3.5367  -3.4831  -3.4327  -3.3340  -3.2980
    -3.2916  -3.2756  -3.2065  -3.1913  -3.1648  -3.1205  -3.0821  -3.0748
    -3.0515  -3.0078  -2.9791  -2.9174  -2.8849  -2.8634  -2.8459  -2.7967
    -2.7791  -2.7190  -2.7146  -2.7035  -2.6921  -2.6801  -2.6505  -2.6063
    -2.5469  -2.4978  -2.4895  -2.4814  -2.4591  -2.4203  -2.4081  -2.3547
    -2.3466  -2.3112  -2.3001  -2.2956  -2.2842  -2.2651  -2.2455  -2.2311
    -2.2155  -2.2083  -2.1909  -2.1700  -2.1625  -2.1226  -2.0955  -2.0805
    -2.0705  -2.0513  -1.9926  -1.9685  -1.9474  -1.9259  -1.9158  -1.9076
    -1.8869  -1.8788  -1.8679  -1.8573  -1.8403  -1.8233  -1.8170  -1.7684
    -1.7543  -1.7340  -1.7222  -1.7171  -1.7000  -1.6936  -1.6861  -1.6741
    -1.6689  -1.6643  -1.6384  -1.6214  -1.5818  -1.5609  -1.5547  -1.5250
    -1.4908  -1.4757  -1.4591  -1.4193  -1.4078  -1.3953  -1.3885  -1.3624
    -1.3227  -1.3157  -1.2961  -1.2289  -1.1919  -1.1860  -1.1700  -1.1530
    -1.1266  -1.1208  -1.1085  -1.0893  -1.0715  -1.0528  -1.0348  -1.0132
    -0.9718  -0.9684  -0.9432  -0.9290  -0.9109  -0.8776  -0.8573  -0.8476
    -0.8379  -0.8159  -0.8053  -0.7893  -0.7713  -0.7531  -0.7292  -0.5784
    -0.5610  -0.5506  -0.5387  -0.5369  -0.5227  -0.5157  -0.5016  -0.4761
    -0.4635  -0.4563  -0.4457  -0.4295  -0.3793  -0.3347  -0.3167  -0.3112
    -0.2958  -0.2856  -0.2700  -0.2520  -0.2270  -0.2145  -0.2096  -0.1934
    -0.1814  -0.1473  -0.1166  -0.1116  -0.0995  -0.0846  -0.0649  -0.0292
     0.1555   0.2808   0.5380   0.9002   0.9639   1.1899   1.2611   1.5670
     1.6854   1.7356

 ------ SPIN DOWN ----------


          k = 0.0000 0.0000 0.0000 ( 51087 PWs)   bands (ev):

   -22.0426  -9.2678  -7.7792  -6.5361  -5.8029  -5.6781  -5.4168  -4.7710
    -4.6278  -4.6179  -4.6154  -4.5911  -4.5772  -4.5644  -4.0946  -3.7472
    -3.7452  -3.7304  -3.7165  -3.7060  -3.6627  -3.2914  -2.8105  -2.8001
    -2.7921  -2.7866  -2.7245  -2.5731  -2.3453  -2.3334  -2.3280  -2.3231
    -2.3050  -2.2303  -2.1339  -2.1301  -2.0632  -2.0450  -2.0352  -2.0341
    -1.9499  -1.9460  -1.8988  -1.8951  -1.8386  -1.8124  -1.8028  -1.7899
    -1.7528  -1.7409  -1.5540  -1.5481  -1.5325  -1.5248  -1.5103  -1.5089
    -1.4953  -1.4940  -1.4637  -1.4581  -1.4277  -1.4196  -1.4166  -1.4150
    -1.3459  -1.2549  -0.9042  -0.8653  -0.8428  -0.8379  -0.7976  -0.7488
    -0.6514  -0.6295  -0.5421  -0.5288  -0.5203  -0.5129  -0.5017  -0.4899
    -0.4665  -0.4572  -0.4326  -0.4287  -0.4207  -0.4200  -0.3676  -0.3611
    -0.3551  -0.3249  -0.3097  -0.2995  -0.2812  -0.2724  -0.2631  -0.2576
    -0.2550  -0.2461  -0.2350  -0.2335  -0.2313  -0.2290  -0.1895  -0.1477
    -0.1273  -0.1081  -0.0923  -0.0668  -0.0240  -0.0108  -0.0048  -0.0018
     0.0009   0.0042   0.0094   0.0514   0.0781   0.0796   0.1276   0.1539
     0.1655   0.1717   0.1804   0.2110   0.2535   0.3884   0.3997   0.4482
     0.4557   0.4740   0.4821   0.4865   0.5995   0.6869   0.7722   0.8055
     0.8223   0.8648   0.9803   0.9980   1.0237   1.0425   1.0490   1.0540
     1.1044   1.1789   1.1972   1.2127   1.2212   1.2292   1.2373   1.2582
     1.2666   1.2812   1.2903   1.3090   1.3227   1.3292   1.3341   1.3691
     1.3716   1.3790   1.3823   1.3922   1.4212   1.4340   1.4408   1.4503
     1.4609   1.4730   1.4840   1.4960   1.4989   1.5087   1.5111   1.5450
     1.5533   1.5702   1.5731   1.5795   1.5875   1.5938   1.6003   1.6356
     1.6416   1.6440   1.6468   1.6513   1.6555   1.6645   1.6733   1.6781
     1.6815   1.7266   1.7280   1.8699   1.8759   1.8788   1.8822   1.8841
     1.8865   2.0336

          k = 0.0000 0.2309 0.0000 ( 51134 PWs)   bands (ev):

   -22.0426  -9.2582  -7.6364  -6.4309  -5.8427  -5.6980  -5.5506  -5.3815
    -4.9987  -4.9675  -4.6548  -4.4512  -4.0768  -4.0653  -4.0261  -3.9397
    -3.8266  -3.7436  -3.4424  -3.3931  -3.3739  -3.2394  -2.9195  -2.7977
    -2.7698  -2.7126  -2.6776  -2.6013  -2.4243  -2.3660  -2.3623  -2.3407
    -2.3216  -2.2847  -2.2749  -2.2704  -2.2246  -2.2062  -2.0975  -2.0897
    -2.0073  -2.0043  -1.9495  -1.8703  -1.8366  -1.8134  -1.8085  -1.7023
    -1.6729  -1.6574  -1.6010  -1.5703  -1.5522  -1.5327  -1.5167  -1.5096
    -1.5005  -1.4947  -1.4038  -1.3904  -1.3770  -1.3617  -1.3224  -1.2786
    -1.2418  -1.1460  -0.9631  -0.9268  -0.8933  -0.8890  -0.8336  -0.7902
    -0.7323  -0.7085  -0.6827  -0.6372  -0.6213  -0.5674  -0.5494  -0.5403
    -0.4999  -0.4896  -0.4793  -0.4746  -0.4614  -0.4353  -0.4113  -0.3794
    -0.3572  -0.3126  -0.3082  -0.3050  -0.2881  -0.2680  -0.2500  -0.2348
    -0.2274  -0.2244  -0.2162  -0.2090  -0.2071  -0.2050  -0.1755  -0.1579
    -0.1414  -0.1234  -0.1134  -0.1014  -0.0772  -0.0634  -0.0481  -0.0269
    -0.0183   0.0093   0.0333   0.0550   0.0996   0.1134   0.1205   0.1454
     0.2326   0.2626   0.2995   0.3523   0.3692   0.3766   0.4276   0.4348
     0.4381   0.4467   0.4590   0.4628   0.5962   0.6966   0.7706   0.7915
     0.7976   0.8052   0.8196   0.8278   0.8864   0.8975   0.9457   0.9688
     1.0123   1.0280   1.0607   1.0780   1.1010   1.1179   1.1480   1.2044
     1.2154   1.2401   1.2527   1.2697   1.2846   1.2920   1.3327   1.3397
     1.3652   1.3831   1.4193   1.4275   1.4463   1.4570   1.4726   1.4865
     1.5202   1.5359   1.5373   1.5402   1.5690   1.6218   1.6253   1.6351
     1.6397   1.6616   1.6679   1.6952   1.6987   1.7102   1.7164   1.7219
     1.7436   1.7860   1.7901   1.8049   1.8090   1.8183   1.8297   1.8456
     1.8668   1.8704   1.8764   1.9095   1.9658   1.9789   1.9811   2.0320
     2.0622   2.1163

          k = 0.0000 0.4619 0.0000 ( 51204 PWs)   bands (ev):

   -22.0426  -9.2432  -7.2120  -6.5385  -6.1623  -5.7720  -5.6697  -5.3820
    -5.2176  -5.1479  -5.0520  -4.4606  -4.0952  -4.0184  -3.8108  -3.4535
    -3.4457  -3.3778  -3.3231  -3.1586  -3.0383  -3.0053  -2.9900  -2.8522
    -2.8465  -2.7847  -2.7359  -2.7095  -2.6269  -2.6091  -2.6025  -2.5426
    -2.5347  -2.3617  -2.3240  -2.3065  -2.2346  -2.2265  -2.1202  -2.1135
    -2.0953  -2.0838  -2.0520  -1.8472  -1.8161  -1.7968  -1.7689  -1.7546
    -1.6000  -1.5884  -1.5746  -1.5626  -1.5521  -1.5259  -1.5201  -1.5006
    -1.4879  -1.4125  -1.4014  -1.3835  -1.3694  -1.3525  -1.1991  -1.1720
    -1.0755  -1.0330  -0.9438  -0.9157  -0.9056  -0.8770  -0.8561  -0.8498
    -0.8281  -0.8137  -0.7939  -0.7657  -0.7195  -0.6835  -0.6620  -0.6386
    -0.6165  -0.6006  -0.5705  -0.5631  -0.5265  -0.5105  -0.4599  -0.4012
    -0.3778  -0.3657  -0.3447  -0.3259  -0.3041  -0.2835  -0.2528  -0.2348
    -0.2046  -0.1948  -0.1805  -0.1729  -0.1553  -0.1524  -0.1224  -0.1015
    -0.0928  -0.0740  -0.0624  -0.0541  -0.0456  -0.0318  -0.0189  -0.0011
     0.0090   0.0352   0.0623   0.1061   0.1519   0.1551   0.1756   0.2150
     0.2165   0.2315   0.2512   0.2787   0.3180   0.3305   0.3399   0.3580
     0.3951   0.4100   0.4242   0.4332   0.4715   0.5337   0.6006   0.6040
     0.6700   0.7002   0.7419   0.7882   0.8371   0.8626   0.8793   0.8913
     0.9185   0.9298   0.9493   0.9831   0.9968   1.0588   1.1647   1.1833
     1.1960   1.2250   1.2402   1.2586   1.3017   1.3166   1.3422   1.3555
     1.3802   1.3958   1.4063   1.4661   1.4851   1.4913   1.5432   1.5499
     1.5606   1.5623   1.5864   1.6014   1.6240   1.6359   1.6455   1.6717
     1.6789   1.7372   1.7482   1.7802   1.7919   1.8081   1.8185   1.8365
     1.8396   1.8678   1.8711   1.8871   1.9032   1.9092   1.9190   1.9213
     1.9671   2.0265   2.0457   2.1098   2.1299   2.2151   2.5586   2.6351
     2.6595   2.7081

          k = 0.2000-0.1155 0.0000 ( 51134 PWs)   bands (ev):

   -22.0426  -9.2567  -7.6375  -6.4328  -5.8728  -5.6840  -5.5323  -5.3869
    -4.9885  -4.9752  -4.6716  -4.3920  -4.1351  -4.0652  -4.0467  -3.9280
    -3.7934  -3.7543  -3.4623  -3.3919  -3.3105  -3.2425  -2.9698  -2.7843
    -2.7596  -2.7367  -2.6808  -2.5679  -2.4507  -2.3648  -2.3607  -2.3497
    -2.3183  -2.2892  -2.2766  -2.2751  -2.2277  -2.1885  -2.0940  -2.0913
    -2.0079  -2.0068  -1.9667  -1.8440  -1.8340  -1.8135  -1.7949  -1.7044
    -1.6704  -1.6556  -1.6028  -1.5657  -1.5587  -1.5290  -1.5171  -1.5124
    -1.4965  -1.4822  -1.4125  -1.3890  -1.3762  -1.3559  -1.3274  -1.2905
    -1.2352  -1.1532  -0.9599  -0.9208  -0.8952  -0.8890  -0.8395  -0.7764
    -0.7628  -0.7162  -0.6852  -0.6348  -0.6224  -0.5720  -0.5434  -0.5355
    -0.5003  -0.4933  -0.4738  -0.4646  -0.4573  -0.4433  -0.4275  -0.3777
    -0.3404  -0.3218  -0.3084  -0.3062  -0.2988  -0.2668  -0.2501  -0.2388
    -0.2286  -0.2176  -0.2147  -0.2081  -0.2065  -0.2036  -0.1831  -0.1570
    -0.1312  -0.1221  -0.1050  -0.0990  -0.0948  -0.0746  -0.0535  -0.0283
    -0.0055   0.0021   0.0442   0.0688   0.0943   0.1105   0.1167   0.1456
     0.2397   0.2719   0.3036   0.3492   0.3715   0.3817   0.4159   0.4344
     0.4373   0.4446   0.4599   0.4661   0.5858   0.7100   0.7677   0.7852
     0.7963   0.8112   0.8212   0.8361   0.8784   0.8908   0.9485   0.9738
     1.0166   1.0334   1.0651   1.0929   1.1084   1.1284   1.1514   1.1556
     1.2189   1.2368   1.2572   1.2705   1.2811   1.2957   1.3323   1.3405
     1.3586   1.3780   1.4118   1.4328   1.4490   1.4573   1.4805   1.5055
     1.5238   1.5339   1.5397   1.5423   1.5626   1.6103   1.6217   1.6297
     1.6363   1.6609   1.6663   1.6961   1.7024   1.7110   1.7174   1.7270
     1.7421   1.7874   1.7907   1.8073   1.8100   1.8180   1.8289   1.8460
     1.8595   1.8691   1.8754   1.8935   1.9647   1.9785   1.9841   2.0381
     2.0593   2.1102

          k = 0.2000 0.1155 0.0000 ( 51134 PWs)   bands (ev):

   -22.0426  -9.2563  -7.6380  -6.4342  -5.8895  -5.6728  -5.5019  -5.4116
    -4.9872  -4.9762  -4.6829  -4.3567  -4.1432  -4.0677  -4.0479  -3.9524
    -3.7819  -3.7544  -3.4642  -3.3958  -3.2976  -3.2310  -2.9772  -2.8083
    -2.7535  -2.7233  -2.6951  -2.5485  -2.4586  -2.3684  -2.3596  -2.3447
    -2.3258  -2.2956  -2.2775  -2.2721  -2.2355  -2.1761  -2.0935  -2.0906
    -2.0102  -2.0056  -1.9609  -1.8560  -1.8198  -1.8105  -1.8012  -1.6921
    -1.6784  -1.6627  -1.5946  -1.5796  -1.5569  -1.5279  -1.5132  -1.5095
    -1.5044  -1.4595  -1.4256  -1.3883  -1.3770  -1.3571  -1.3274  -1.2889
    -1.2357  -1.1558  -0.9634  -0.9263  -0.8956  -0.8809  -0.8292  -0.8049
    -0.7671  -0.6918  -0.6755  -0.6436  -0.6293  -0.5720  -0.5540  -0.5246
    -0.5022  -0.4906  -0.4757  -0.4660  -0.4634  -0.4424  -0.4314  -0.3701
    -0.3390  -0.3184  -0.3094  -0.3053  -0.2973  -0.2631  -0.2452  -0.2370
    -0.2305  -0.2195  -0.2142  -0.2115  -0.2067  -0.2061  -0.1728  -0.1576
    -0.1385  -0.1229  -0.1059  -0.1017  -0.0925  -0.0690  -0.0521  -0.0357
    -0.0085   0.0087   0.0511   0.0783   0.0848   0.1078   0.1160   0.1462
     0.2195   0.2787   0.3105   0.3429   0.3608   0.3845   0.4180   0.4254
     0.4393   0.4491   0.4619   0.4659   0.6242   0.6835   0.7695   0.7831
     0.7993   0.8049   0.8247   0.8379   0.8686   0.8909   0.9408   0.9657
     0.9890   1.0554   1.0714   1.0908   1.1079   1.1362   1.1517   1.1556
     1.2167   1.2473   1.2625   1.2765   1.2863   1.2894   1.3311   1.3398
     1.3552   1.3822   1.4173   1.4386   1.4449   1.4571   1.4784   1.5002
     1.5201   1.5332   1.5402   1.5494   1.5589   1.6068   1.6160   1.6295
     1.6395   1.6597   1.6685   1.6978   1.7049   1.7104   1.7173   1.7264
     1.7438   1.7872   1.7918   1.8068   1.8087   1.8192   1.8287   1.8447
     1.8619   1.8696   1.8758   1.8838   1.9642   1.9764   1.9847   2.0306
     2.0624   2.1094

          k = 0.2000 0.3464 0.0000 ( 51202 PWs)   bands (ev):

   -22.0426  -9.2440  -7.3544  -6.2692  -6.0741  -5.9960  -5.6828  -5.5591
    -5.3847  -4.8124  -4.6355  -4.3886  -4.2510  -4.2408  -3.8204  -3.4312
    -3.4155  -3.4137  -3.4058  -3.2784  -3.1510  -3.1205  -3.1077  -2.8866
    -2.7489  -2.6754  -2.6679  -2.6355  -2.5758  -2.5571  -2.5517  -2.4667
    -2.4601  -2.4483  -2.4210  -2.3127  -2.2769  -2.2411  -2.0867  -2.0734
    -2.0540  -1.9912  -1.9671  -1.9374  -1.9216  -1.7877  -1.7339  -1.7275
    -1.6474  -1.6035  -1.5593  -1.5532  -1.5404  -1.5306  -1.5106  -1.4985
    -1.4818  -1.4672  -1.4160  -1.3759  -1.3384  -1.2928  -1.1895  -1.1611
    -1.0935  -1.0675  -0.9809  -0.9451  -0.8943  -0.8572  -0.8424  -0.8175
    -0.8039  -0.7677  -0.7482  -0.7152  -0.6935  -0.6746  -0.6578  -0.6409
    -0.6250  -0.6032  -0.5900  -0.5565  -0.5454  -0.4496  -0.4379  -0.4134
    -0.3962  -0.3802  -0.3497  -0.3321  -0.3041  -0.2892  -0.2772  -0.2649
    -0.2532  -0.2353  -0.2224  -0.1993  -0.1906  -0.1698  -0.1584  -0.1236
    -0.1107  -0.1038  -0.0943  -0.0752  -0.0638  -0.0590  -0.0430  -0.0311
     0.0277   0.0538   0.0589   0.0744   0.1679   0.1772   0.2122   0.2369
     0.2588   0.2870   0.3073   0.3225   0.3554   0.3769   0.3826   0.3922
     0.4031   0.4261   0.4473   0.4748   0.5348   0.6069   0.6580   0.7032
     0.7498   0.7851   0.8070   0.8400   0.8496   0.8548   0.8734   0.8927
     0.9027   0.9150   0.9349   0.9515   0.9908   1.0387   1.0881   1.1102
     1.1204   1.1548   1.1641   1.1976   1.2060   1.2570   1.2740   1.3198
     1.3490   1.3990   1.4539   1.5012   1.5141   1.5291   1.5462   1.5554
     1.5712   1.5819   1.6042   1.6107   1.6616   1.6799   1.6870   1.6908
     1.7044   1.7340   1.7437   1.7511   1.7662   1.7833   1.7917   1.8142
     1.8255   1.8286   1.8394   1.8502   1.8652   1.8766   1.9181   1.9476
     1.9576   1.9982   2.0566   2.0880   2.1873   2.2277   2.3583   2.4757
     2.5369   2.5550

          k = 0.2000-0.5774 0.0000 ( 51262 PWs)   bands (ev):

   -22.0426  -9.2371  -6.8101  -6.7906  -6.1888  -6.0292  -5.7069  -5.5968
    -5.2492  -5.2126  -4.7698  -4.3352  -4.2499  -3.7760  -3.4657  -3.4510
    -3.4420  -3.3613  -3.2010  -3.1269  -3.0373  -3.0292  -3.0153  -2.8978
    -2.8913  -2.8819  -2.8588  -2.8520  -2.7453  -2.6034  -2.5217  -2.5001
    -2.4799  -2.4407  -2.4289  -2.4175  -2.3461  -2.2988  -2.2279  -2.0584
[...]
     atom    8 type  1   force =    -0.00239407   -0.00084522   -0.10508663
     atom    9 type  1   force =     0.00355932    0.00006951   -0.10667055
     atom   10 type  1   force =    -0.00072976    0.00063738   -0.00954727
     atom   11 type  1   force =     0.00041501    0.00012462   -0.00667081
     atom   12 type  1   force =     0.00038722    0.00053583   -0.00862541
     atom   13 type  1   force =     0.00055765   -0.00153522   -0.01140758
     atom   14 type  1   force =    -0.00046498   -0.00145085   -0.01077357
     atom   15 type  1   force =    -0.00065673   -0.00049670   -0.01315355
     atom   16 type  1   force =    -0.00049935    0.00144012   -0.01688410
     atom   17 type  1   force =     0.00186548   -0.00057228   -0.00947606
     atom   18 type  1   force =    -0.00145463    0.00156843   -0.01261418
     atom   19 type  1   force =     0.00217466    0.00427497    0.00925704
     atom   20 type  1   force =    -0.00062679    0.01454036   -0.00242798
     atom   21 type  1   force =    -0.00162058    0.00106295    0.01339968
     atom   22 type  1   force =     0.00028173    0.00043798    0.01898238
     atom   23 type  1   force =    -0.00127431   -0.00064975    0.01183243
     atom   24 type  1   force =    -0.00017471   -0.00008980    0.01237137
     atom   25 type  1   force =    -0.00225709   -0.00417481    0.00150561
     atom   26 type  1   force =    -0.00625120   -0.00750830   -0.00312053
     atom   27 type  1   force =     0.01020979   -0.00665569   -0.00065242
     atom   28 type  1   force =     0.04812686   -0.01417053    0.10086501
     atom   29 type  1   force =    -0.07004711   -0.01916018    0.04664928
     atom   30 type  1   force =     0.00023643    0.00214411    0.09734210
     atom   31 type  1   force =     0.00351979   -0.02186658    0.13726683
     atom   32 type  1   force =     0.00046468   -0.02067481    0.12665126
     atom   33 type  1   force =    -0.00104184    0.00066061    0.10729126
     atom   34 type  1   force =     0.00162346   -0.00043153    0.11615517
     atom   35 type  1   force =     0.00041639    0.04530789    0.13947311
     atom   36 type  1   force =     0.00035226    0.01363605    0.12935394
     atom   37 type  2   force =    -0.05521666   -0.07217062    0.41725859
     atom   38 type  3   force =     0.38488958    0.18581172   -2.67768715
     atom   39 type  4   force =    -0.00672488   -0.00243903   -0.02382881
     The ionic contribution  to forces
     atom    1 type  1   force =    -0.00554398    0.00808688 -111.13711562
     atom    2 type  1   force =     0.00420868    0.00882950 -111.13976527
     atom    3 type  1   force =     0.00133527    0.00250316 -111.12876188
     atom    4 type  1   force =    -0.00003385    0.00120350 -111.12665328
     atom    5 type  1   force =    -0.00267774   -0.00521139 -111.13201535
     atom    6 type  1   force =     0.00271159   -0.00670804 -111.13193289
     atom    7 type  1   force =    -0.00693095   -0.00206835 -111.13503163
     atom    8 type  1   force =    -0.00128850   -0.00375818 -111.15157038
     atom    9 type  1   force =     0.00821949   -0.00287713 -111.13763161
     atom   10 type  1   force =    -0.06019592    0.01555573  -40.17380628
     atom   11 type  1   force =     0.04925041    0.01321241  -40.19513330
     atom   12 type  1   force =     0.01093719    0.00361073  -40.07659611
     atom   13 type  1   force =    -0.00683099    0.06710223  -40.09526324
     atom   14 type  1   force =     0.02084611    0.02055024  -40.06700013
     atom   15 type  1   force =    -0.01401187    0.01219899  -40.05312168
     atom   16 type  1   force =    -0.03304613   -0.02489871  -40.06363659
     atom   17 type  1   force =    -0.00315911   -0.07239961  -40.13702257
     atom   18 type  1   force =     0.03620739   -0.03493085  -40.07011804
     atom   19 type  1   force =    -0.27769223    0.40548309   31.31098826
     atom   20 type  1   force =     0.20546912    0.45537886   31.18881518
     atom   21 type  1   force =     0.07126764    0.11743037   31.67844137
     atom   22 type  1   force =    -0.00073285    0.05061490   31.77576998
     atom   23 type  1   force =    -0.12916026   -0.25380459   31.55595698
     atom   24 type  1   force =     0.12984717   -0.31461344   31.56381639
     atom   25 type  1   force =    -0.34476343   -0.09472711   31.42010320
     atom   26 type  1   force =    -0.05904145   -0.21576927   30.48958341
     atom   27 type  1   force =     0.40504438   -0.15456917   31.27655630
     atom   28 type  1   force =    -4.51345887    1.22704031   99.06064385
     atom   29 type  1   force =     3.27920338    0.87705582   98.11630995
     atom   30 type  1   force =     0.85442247   -0.00595153  103.74024805
     atom   31 type  1   force =    -0.16227448    2.57938111  103.41979722
     atom   32 type  1   force =     0.61219659    0.91557945  104.11970194
     atom   33 type  1   force =    -0.42712760    0.40330549  104.41179268
     atom   34 type  1   force =    -1.12161378   -0.85330526  104.13720386
     atom   35 type  1   force =    -0.01323207   -3.82766232  101.67814860
     atom   36 type  1   force =     1.14900445   -1.18401933  104.09902911
     atom   37 type  2   force =     0.95030249    0.36109992   51.20219242
     atom   38 type  3   force =    -1.50211181   -0.75341176   89.72004836
     atom   39 type  4   force =     0.89445406    0.26546332   15.18702875
     The local contribution  to forces
     atom    1 type  1   force =     0.00337049   -0.00599803  111.24372513
     atom    2 type  1   force =    -0.00349138   -0.01133958  111.24756252
     atom    3 type  1   force =     0.00052671   -0.00095791  111.23355026
     atom    4 type  1   force =    -0.00044442   -0.00208600  111.23278446
     atom    5 type  1   force =     0.00183294    0.00485505  111.23799312
     atom    6 type  1   force =    -0.00121675    0.00495267  111.23999093
     atom    7 type  1   force =     0.00844209    0.00227206  111.24318106
     atom    8 type  1   force =     0.00358449    0.00537705  111.26084150
     atom    9 type  1   force =    -0.01226410    0.00419305  111.24727252
     atom   10 type  1   force =     0.05942175   -0.01763554   40.16348516
     atom   11 type  1   force =    -0.04862729   -0.01389582   40.18053290
     atom   12 type  1   force =    -0.01063067   -0.00417492   40.06575027
     atom   13 type  1   force =     0.00587951   -0.06463676   40.08993691
     atom   14 type  1   force =    -0.02096139   -0.01869620   40.05790990
     atom   15 type  1   force =     0.01533716   -0.01144929   40.04506723
     atom   16 type  1   force =     0.03334355    0.02472321   40.06037995
     atom   17 type  1   force =     0.00090742    0.07233322   40.12961649
     atom   18 type  1   force =    -0.03398499    0.03384704   40.06359090
     atom   19 type  1   force =     0.27684070   -0.40647933  -31.30368632
     atom   20 type  1   force =    -0.20636081   -0.46698778  -31.17186756
     atom   21 type  1   force =    -0.06840403   -0.11805974  -31.66967872
     atom   22 type  1   force =    -0.00058653   -0.05211279  -31.76966523
     atom   23 type  1   force =     0.12925358    0.25244065  -31.54498685
     atom   24 type  1   force =    -0.12852366    0.31385430  -31.55592405
     atom   25 type  1   force =     0.34520482    0.09818890  -31.40581273
     atom   26 type  1   force =     0.06554901    0.22359230  -30.47358865
     atom   27 type  1   force =    -0.41591106    0.16043351  -31.26178696
     atom   28 type  1   force =     4.44080370   -1.20857686  -99.16835122
     atom   29 type  1   force =    -3.20990441   -0.86129796  -98.14180815
     atom   30 type  1   force =    -0.85258170    0.00294512 -103.83801698
     atom   31 type  1   force =     0.15412092   -2.54531432 -103.56650666
     atom   32 type  1   force =    -0.61151812   -0.89077222 -104.25244436
     atom   33 type  1   force =     0.42948905   -0.40316861 -104.52951501
     atom   34 type  1   force =     1.11813339    0.85200924 -104.26143138
     atom   35 type  1   force =     0.01057615    3.77066739 -101.82251554
     atom   36 type  1   force =    -1.14455649    1.16148410 -104.23685331
     atom   37 type  2   force =    -0.89420979   -0.29112702  -51.61773778
     atom   38 type  3   force =     1.12696659    0.56710531  -87.06081179
     atom   39 type  4   force =    -0.86514427   -0.25616225  -15.17521267
     The core correction contribution to forces
     atom    1 type  1   force =    -0.00008699    0.00002933    0.00984568
     atom    2 type  1   force =    -0.00000930   -0.00023989    0.01019989
     atom    3 type  1   force =     0.00030782    0.00005738    0.00980757
     atom    4 type  1   force =     0.00011059   -0.00011547    0.01017911
     atom    5 type  1   force =     0.00017233   -0.00001491    0.01003708
     atom    6 type  1   force =    -0.00003241   -0.00006507    0.00988584
     atom    7 type  1   force =    -0.00002161    0.00001930    0.01015870
     atom    8 type  1   force =     0.00026625    0.00036512    0.00988307
     atom    9 type  1   force =    -0.00034311   -0.00004866    0.01025103
     atom   10 type  1   force =    -0.00012981    0.00010697   -0.00195826
     atom   11 type  1   force =     0.00009828    0.00014038   -0.00170206
     atom   12 type  1   force =     0.00003787    0.00018244   -0.00180829
     atom   13 type  1   force =    -0.00036625    0.00018356   -0.00180530
     atom   14 type  1   force =     0.00016692    0.00004010   -0.00193125
     atom   15 type  1   force =     0.00021704   -0.00004789   -0.00170444
     atom   16 type  1   force =    -0.00012708   -0.00000868   -0.00189580
     atom   17 type  1   force =    -0.00014137   -0.00000392   -0.00191913
     atom   18 type  1   force =     0.00007386   -0.00021976   -0.00174986
     atom   19 type  1   force =    -0.00003147    0.00062291    0.00108587
     atom   20 type  1   force =    -0.00029778    0.00084255    0.00021560
     atom   21 type  1   force =     0.00058411    0.00011451    0.00192433
     atom   22 type  1   force =     0.00014621    0.00014300    0.00196492
     atom   23 type  1   force =    -0.00026191    0.00020111    0.00181816
     atom   24 type  1   force =     0.00047096   -0.00055680    0.00135655
     atom   25 type  1   force =     0.00043841   -0.00035015    0.00173510
     atom   26 type  1   force =    -0.00097238   -0.00074669    0.00085742
     atom   27 type  1   force =     0.00069190   -0.00041263    0.00089878
     atom   28 type  1   force =     0.01012233   -0.00200839   -0.00484350
     atom   29 type  1   force =    -0.00541631   -0.00083679    0.00179875
     atom   30 type  1   force =    -0.00870551    0.00136238   -0.00599113
     atom   31 type  1   force =     0.00080909   -0.00585682   -0.00756610
     atom   32 type  1   force =    -0.00106600   -0.00638067   -0.00684688
     atom   33 type  1   force =     0.00002018   -0.00109676   -0.01027026
     atom   34 type  1   force =     0.00100552    0.00123023   -0.00939101
     atom   35 type  1   force =     0.00034395    0.00814871   -0.00573614
     atom   36 type  1   force =    -0.00158714    0.00481766   -0.00744055
     atom   37 type  2   force =     0.00074328    0.00113269   -0.00093590
     atom   38 type  3   force =    -0.00288165   -0.00133390    0.01949022
     atom   39 type  4   force =     0.00000000    0.00000000    0.00000000
     The Hubbard contrib.    to forces
     atom    1 type  1   force =     0.00000000    0.00000000    0.00000000
     atom    2 type  1   force =     0.00000000    0.00000000    0.00000000
     atom    3 type  1   force =     0.00000000    0.00000000    0.00000000
     atom    4 type  1   force =     0.00000000    0.00000000    0.00000000
     atom    5 type  1   force =     0.00000000    0.00000000    0.00000000
     atom    6 type  1   force =     0.00000000    0.00000000    0.00000000
     atom    7 type  1   force =     0.00000000    0.00000000    0.00000000
     atom    8 type  1   force =     0.00000000    0.00000000    0.00000000
     atom    9 type  1   force =     0.00000000    0.00000000    0.00000000
     atom   10 type  1   force =     0.00000000    0.00000000    0.00000000
     atom   11 type  1   force =     0.00000000    0.00000000    0.00000000
     atom   12 type  1   force =     0.00000000    0.00000000    0.00000000
     atom   13 type  1   force =     0.00000000    0.00000000    0.00000000
     atom   14 type  1   force =     0.00000000    0.00000000    0.00000000
     atom   15 type  1   force =     0.00000000    0.00000000    0.00000000
     atom   16 type  1   force =     0.00000000    0.00000000    0.00000000
     atom   17 type  1   force =     0.00000000    0.00000000    0.00000000
     atom   18 type  1   force =     0.00000000    0.00000000    0.00000000
     atom   19 type  1   force =     0.00000000    0.00000000    0.00000000
     atom   20 type  1   force =     0.00000000    0.00000000    0.00000000
     atom   21 type  1   force =     0.00000000    0.00000000    0.00000000
     atom   22 type  1   force =     0.00000000    0.00000000    0.00000000
     atom   23 type  1   force =     0.00000000    0.00000000    0.00000000
     atom   24 type  1   force =     0.00000000    0.00000000    0.00000000
     atom   25 type  1   force =     0.00000000    0.00000000    0.00000000
     atom   26 type  1   force =     0.00000000    0.00000000    0.00000000
     atom   27 type  1   force =     0.00000000    0.00000000    0.00000000
     atom   28 type  1   force =     0.00000000    0.00000000    0.00000000
     atom   29 type  1   force =     0.00000000    0.00000000    0.00000000
     atom   30 type  1   force =     0.00000000    0.00000000    0.00000000
     atom   31 type  1   force =     0.00000000    0.00000000    0.00000000
     atom   32 type  1   force =     0.00000000    0.00000000    0.00000000
     atom   33 type  1   force =     0.00000000    0.00000000    0.00000000
     atom   34 type  1   force =     0.00000000    0.00000000    0.00000000
     atom   35 type  1   force =     0.00000000    0.00000000    0.00000000
     atom   36 type  1   force =     0.00000000    0.00000000    0.00000000
     atom   37 type  2   force =     0.00000000    0.00000000    0.00000000
     atom   38 type  3   force =     0.00000000    0.00000000    0.00000000
     atom   39 type  4   force =     0.00000000    0.00000000    0.00000000
     The SCF correction term to forces
     atom    1 type  1   force =    -0.00000000   -0.00000000   -0.00000000
     atom    2 type  1   force =    -0.00000000    0.00000000   -0.00000000
     atom    3 type  1   force =     0.00000000    0.00000000   -0.00000000
     atom    4 type  1   force =     0.00000000    0.00000000   -0.00000000
     atom    5 type  1   force =    -0.00000000    0.00000000   -0.00000000
     atom    6 type  1   force =    -0.00000000   -0.00000000   -0.00000000
     atom    7 type  1   force =     0.00000000   -0.00000000   -0.00000000
     atom    8 type  1   force =    -0.00000000   -0.00000000   -0.00000000
     atom    9 type  1   force =     0.00000000   -0.00000000   -0.00000000
     atom   10 type  1   force =    -0.00000000   -0.00000000   -0.00000000
     atom   11 type  1   force =     0.00000000   -0.00000000   -0.00000000
     atom   12 type  1   force =     0.00000000   -0.00000000   -0.00000000
     atom   13 type  1   force =    -0.00000000    0.00000000   -0.00000000
     atom   14 type  1   force =     0.00000000    0.00000000   -0.00000000
     atom   15 type  1   force =    -0.00000000    0.00000000   -0.00000000
     atom   16 type  1   force =    -0.00000000    0.00000000   -0.00000000
     atom   17 type  1   force =    -0.00000000   -0.00000000   -0.00000000
     atom   18 type  1   force =     0.00000000   -0.00000000   -0.00000000
     atom   19 type  1   force =    -0.00000000    0.00000000    0.00000000
     atom   20 type  1   force =     0.00000000    0.00000000    0.00000000
     atom   21 type  1   force =    -0.00000000    0.00000000    0.00000000
     atom   22 type  1   force =     0.00000000    0.00000000    0.00000000
     atom   23 type  1   force =    -0.00000000   -0.00000000    0.00000000
     atom   24 type  1   force =    -0.00000000   -0.00000000    0.00000000
     atom   25 type  1   force =    -0.00000000   -0.00000000    0.00000000
     atom   26 type  1   force =    -0.00000000   -0.00000000    0.00000000
     atom   27 type  1   force =     0.00000000   -0.00000000    0.00000000
     atom   28 type  1   force =    -0.00000000   -0.00000000    0.00000000
     atom   29 type  1   force =     0.00000000    0.00000000    0.00000000
     atom   30 type  1   force =     0.00000000    0.00000000    0.00000000
     atom   31 type  1   force =     0.00000000    0.00000000    0.00000000
     atom   32 type  1   force =     0.00000000    0.00000000    0.00000000
     atom   33 type  1   force =    -0.00000000    0.00000000    0.00000000
     atom   34 type  1   force =     0.00000000   -0.00000000    0.00000000
     atom   35 type  1   force =    -0.00000000   -0.00000000    0.00000000
     atom   36 type  1   force =    -0.00000000   -0.00000000    0.00000000
     atom   37 type  2   force =     0.00000652   -0.00001370    0.00000332
     atom   38 type  3   force =     0.00000126   -0.00000809   -0.00000163
     atom   39 type  4   force =     0.00000004    0.00000489    0.00000122

     Total force =     0.027516     Total SCF correction =     0.000018

     Writing all to output data dir ./pwscf.save/

     init_run     :     16.00s CPU     16.56s WALL (       1 calls)
     electrons    :    930.54s CPU    946.94s WALL (       1 calls)
     forces       :      3.46s CPU      3.58s WALL (       1 calls)

     Called by init_run:
     wfcinit      :     12.95s CPU     13.36s WALL (       1 calls)
     potinit      :      1.97s CPU      2.08s WALL (       1 calls)
     hinit0       :      0.83s CPU      0.84s WALL (       1 calls)

     Called by electrons:
     c_bands      :    783.72s CPU    797.24s WALL (      53 calls)
     sum_band     :    102.88s CPU    104.63s WALL (      53 calls)
     v_of_rho     :      9.35s CPU      9.79s WALL (      54 calls)
     newd         :      2.96s CPU      3.02s WALL (      54 calls)
     PAW_pot      :     13.45s CPU     13.63s WALL (      54 calls)
     mix_rho      :     19.29s CPU     19.61s WALL (      53 calls)
     vdW_kernel   :      1.08s CPU      1.09s WALL (       1 calls)

     Called by c_bands:
     init_us_2    :      9.55s CPU      9.76s WALL (    2808 calls)
     init_us_2:cp :      9.53s CPU      9.75s WALL (    2808 calls)
     cegterg      :    756.60s CPU    769.09s WALL (    1378 calls)

     Called by *egterg:
     cdiaghg      :    210.79s CPU    212.60s WALL (    4622 calls)
     h_psi        :    360.88s CPU    368.24s WALL (    4648 calls)
     s_psi        :     39.13s CPU     40.22s WALL (    4648 calls)
     g_psi        :      1.03s CPU      1.06s WALL (    3244 calls)

     Called by h_psi:
     h_psi:calbec :     61.42s CPU     63.22s WALL (    4648 calls)
     vloc_psi     :    257.55s CPU    261.90s WALL (    4648 calls)
     add_vuspsi   :     39.49s CPU     40.64s WALL (    4648 calls)

     General routines
     calbec       :     88.30s CPU     90.59s WALL (    6130 calls)
     fft          :      7.90s CPU      8.38s WALL (    4883 calls)
     ffts         :     11.37s CPU     11.58s WALL (   22456 calls)
     fftw         :    299.91s CPU    304.83s WALL ( 1429102 calls)
     interpolate  :      0.39s CPU      0.40s WALL (     108 calls)

     Parallel routines

     PWSCF        :  16m 0.37s CPU  16m22.34s WALL


   This run was terminated on:  14:26: 8   9Dec2025            

=------------------------------------------------------------------------------=
   JOB DONE.
=------------------------------------------------------------------------------=
