
     Program PWSCF v.7.1 starts on  6Dec2025 at 14: 2:31 
        Git branch: heads/qe-7.1
        Last git commit: 48ba0178f8fede6d020eb786884699a9f063f55d-dirty
        Last git commit date: Fri Jan 27 14:22:33 2023 +0000
        Last git commit subject: Merge branch 'fix_hubbard' into 'develop'

     This program is part of the open-source Quantum ESPRESSO suite
     for quantum simulation of materials; please cite
         "P. Giannozzi et al., J. Phys.:Condens. Matter 21 395502 (2009);
         "P. Giannozzi et al., J. Phys.:Condens. Matter 29 465901 (2017);
         "P. Giannozzi et al., J. Chem. Phys. 152 154105 (2020);
          URL http://www.quantum-espresso.org", 
     in publications or presentations arising from this work. More details at
     http://www.quantum-espresso.org/quote

     Parallel version (MPI), running on    96 processors

     MPI processes distributed on     2 nodes
     82850 MiB available memory on the printing compute node when the environment starts

     Reading input from espresso.pwi
Warning: card &CELL ignored
Warning: card / ignored
Warning: card &FCP ignored
Warning: card / ignored
Warning: card &RISM ignored
Warning: card / ignored

     Current dimensions of program PWSCF are:
     Max number of different atomic species (ntypx) = 10
     Max number of k-points (npk) =  40000
     Max angular momentum in pseudopotentials (lmaxx) =  4
     file Co.pbe-n-kjpaw_psl.1.0.0.UPF: wavefunction(s)  4S 3D renormalized
     file C.pbe-n-kjpaw_psl.1.0.0.UPF: wavefunction(s)  2S 2P renormalized
     file O.pbe-nl-kjpaw_psl.1.0.0.UPF: wavefunction(s)  2S 2P renormalized
     file H.pbe-kjpaw_psl.1.0.0.UPF: wavefunction(s)  1S renormalized

     **************************************************************************
     Initializing libbeef V0.1.2 with the BEEF-vdW functional.
     Citation: Wellendorff et al., PRB 85, 235149 (2012).
     **************************************************************************


     IMPORTANT: XC functional enforced from input :
     Exchange-correlation= BEEF-VDW
                           (   1   4  43  14   2   0   0)
     Any further DFT definition will be discarded
     Please, verify this is what you really want


     R & G space division:  proc/nbgrp/npool/nimage =      96
     Subspace diagonalization in iterative solution of the eigenvalue problem:
     one sub-group per band group will be used
     custom distributed-memory algorithm (size of sub-group:  2*  2 procs)


     Parallelization info
     --------------------
     sticks:   dense  smooth     PW     G-vecs:    dense   smooth      PW
     Min          43      23      6                 7829     3049     440
     Max          44      24      7                 7845     3068     465
     Sum        4153    2221    613               752179   293251   42993

     Using Slab Decomposition



     bravais-lattice index     =            0
     lattice parameter (alat)  =      14.1729  a.u.
     unit-cell volume          =    8574.3059 (a.u.)^3
     number of atoms/cell      =           39
     number of atomic types    =            4
     number of electrons       =       335.00
     number of Kohn-Sham states=          202
     kinetic-energy cutoff     =      40.0000  Ry
     charge density cutoff     =     300.0000  Ry
     scf convergence threshold =      1.0E-06
     mixing beta               =       0.7000
     number of iterations used =            8  local-TF  mixing
     Exchange-correlation= BEEF-VDW
                           (   1   4  43  14   2   0   0)

     celldm(1)=  14.172946  celldm(2)=   0.000000  celldm(3)=   0.000000
     celldm(4)=   0.000000  celldm(5)=   0.000000  celldm(6)=   0.000000

     crystal axes: (cart. coord. in units of alat)
               a(1) = (   1.000000   0.000000   0.000000 )  
               a(2) = (   0.500000   0.866025   0.000000 )  
               a(3) = (   0.000000   0.000000   3.477667 )  

     reciprocal axes: (cart. coord. in units 2 pi/alat)
               b(1) = (  1.000000 -0.577350  0.000000 )  
               b(2) = (  0.000000  1.154701  0.000000 )  
               b(3) = (  0.000000  0.000000  0.287549 )  


     PseudoPot. # 1 for Co read from file:
     /users/kbadger1/espresso/pseudo/pslibrary.1.0.0/pbe/PSEUDOPOTENTIALS/Co.pbe-n-kjpaw_psl.1.0.0.UPF
     MD5 check sum: 88af6ec42553d4236c267fdfcb472151
     Pseudo is Projector augmented-wave + core cor, Zval =  9.0
     Generated using 'atomic' code by A. Dal Corso  v.7.0
     Shape of augmentation charge: PSQ
     Using radial grid of 1193 points,  6 beta functions with: 
                l(1) =   0
                l(2) =   0
                l(3) =   1
                l(4) =   1
                l(5) =   2
                l(6) =   2
     Q(r) pseudized with 0 coefficients 


     PseudoPot. # 2 for C  read from file:
     /users/kbadger1/espresso/pseudo/pslibrary.1.0.0/pbe/PSEUDOPOTENTIALS/C.pbe-n-kjpaw_psl.1.0.0.UPF
     MD5 check sum: 6408e75cdba28732cea38a4db8498ce4
     Pseudo is Projector augmented-wave + core cor, Zval =  4.0
     Generated using 'atomic' code by A. Dal Corso  v.7.0
     Shape of augmentation charge: PSQ
     Using radial grid of 1073 points,  4 beta functions with: 
                l(1) =   0
                l(2) =   0
                l(3) =   1
                l(4) =   1
     Q(r) pseudized with 0 coefficients 


     PseudoPot. # 3 for O  read from file:
     /users/kbadger1/espresso/pseudo/pslibrary.1.0.0/pbe/PSEUDOPOTENTIALS/O.pbe-nl-kjpaw_psl.1.0.0.UPF
     MD5 check sum: f0439fab3598ca4e468f064226030408
     Pseudo is Projector augmented-wave + core cor, Zval =  6.0
     Generated using 'atomic' code by A. Dal Corso  v.7.0
     Shape of augmentation charge: PSQ
     Using radial grid of 1095 points,  4 beta functions with: 
                l(1) =   0
                l(2) =   0
                l(3) =   1
                l(4) =   1
     Q(r) pseudized with 0 coefficients 


     PseudoPot. # 4 for H  read from file:
     /users/kbadger1/espresso/pseudo/pslibrary.1.0.0/pbe/PSEUDOPOTENTIALS/H.pbe-kjpaw_psl.1.0.0.UPF
     MD5 check sum: fe4c6fa958fa6d3815bf5d2419cbf1df
     Pseudo is Projector augmented-wave, Zval =  1.0
     Generated using 'atomic' code by A. Dal Corso  v.7.0
     Shape of augmentation charge: PSQ
     Using radial grid of  929 points,  2 beta functions with: 
                l(1) =   0
                l(2) =   0
     Q(r) pseudized with 0 coefficients 


     atomic species   valence    mass     pseudopotential
        Co             9.00    58.93319     Co( 1.00)
        C              4.00    12.01100     C ( 1.00)
        O              6.00    15.99900     O ( 1.00)
        H              1.00     1.00800     H ( 1.00)

     Starting magnetic structure 
     atomic species   magnetization
        Co           1.000
        C            1.000
        O            0.000
        H            0.000

     No symmetry found



   Cartesian axes

     site n.     atom                  positions (alat units)
         1           Co  tau(   1) = (   0.0000000   0.1924501   1.3333333  )
         2           Co  tau(   2) = (   0.3333333   0.1924501   1.3333333  )
         3           Co  tau(   3) = (   0.6666667   0.1924501   1.3333333  )
         4           Co  tau(   4) = (   0.1666667   0.4811252   1.3333333  )
         5           Co  tau(   5) = (   0.5000000   0.4811252   1.3333333  )
         6           Co  tau(   6) = (   0.8333333   0.4811252   1.3333333  )
         7           Co  tau(   7) = (   0.3333333   0.7698004   1.3333333  )
         8           Co  tau(   8) = (   0.6666667   0.7698004   1.3333333  )
         9           Co  tau(   9) = (   1.0000000   0.7698004   1.3333333  )
        10           Co  tau(  10) = (   0.0000000   0.0000000   1.6036667  )
        11           Co  tau(  11) = (   0.3333333   0.0000000   1.6036667  )
        12           Co  tau(  12) = (   0.6666667   0.0000000   1.6036667  )
        13           Co  tau(  13) = (   0.1666667   0.2886751   1.6036667  )
        14           Co  tau(  14) = (   0.5000000   0.2886751   1.6036667  )
        15           Co  tau(  15) = (   0.8333333   0.2886751   1.6036667  )
        16           Co  tau(  16) = (   0.3333333   0.5773503   1.6036667  )
        17           Co  tau(  17) = (   0.6666667   0.5773503   1.6036667  )
        18           Co  tau(  18) = (   1.0000000   0.5773503   1.6036667  )
        19           Co  tau(  19) = (   0.0000000   0.1924501   1.8740000  )
        20           Co  tau(  20) = (   0.3333333   0.1924501   1.8740000  )
        21           Co  tau(  21) = (   0.6666667   0.1924501   1.8740000  )
        22           Co  tau(  22) = (   0.1666667   0.4811252   1.8740000  )
        23           Co  tau(  23) = (   0.5000000   0.4811252   1.8740000  )
        24           Co  tau(  24) = (   0.8333333   0.4811252   1.8740000  )
        25           Co  tau(  25) = (   0.3333333   0.7698004   1.8740000  )
        26           Co  tau(  26) = (   0.6666667   0.7698004   1.8740000  )
        27           Co  tau(  27) = (   1.0000000   0.7698004   1.8740000  )
        28           Co  tau(  28) = (   0.0000000   0.0000000   2.1443333  )
        29           Co  tau(  29) = (   0.3333333   0.0000000   2.1443333  )
        30           Co  tau(  30) = (   0.6666667   0.0000000   2.1443333  )
        31           Co  tau(  31) = (   0.1666667   0.2886751   2.1443333  )
        32           Co  tau(  32) = (   0.5000000   0.2886751   2.1443333  )
        33           Co  tau(  33) = (   0.8333333   0.2886751   2.1443333  )
        34           Co  tau(  34) = (   0.3333333   0.5773503   2.1443333  )
        35           Co  tau(  35) = (   0.6666667   0.5773503   2.1443333  )
        36           Co  tau(  36) = (   1.0000000   0.5773503   2.1443333  )
        37           C   tau(  37) = (   0.1633198  -0.0076584   2.3379572  )
        38           O   tau(  38) = (   0.1660199  -0.0076248   2.4961463  )
        39           H   tau(  39) = (   0.4984254   0.0931738   2.2743894  )

     number of k points=    13  Marzari-Vanderbilt smearing, width (Ry)=  0.0010
                       cart. coord. in units 2pi/alat
        k(    1) = (   0.0000000   0.0000000   0.0000000), wk =   0.0400000
        k(    2) = (   0.0000000   0.2309401   0.0000000), wk =   0.0800000
        k(    3) = (   0.0000000   0.4618802   0.0000000), wk =   0.0800000
        k(    4) = (   0.2000000  -0.1154701   0.0000000), wk =   0.0800000
        k(    5) = (   0.2000000   0.1154701   0.0000000), wk =   0.0800000
        k(    6) = (   0.2000000   0.3464102   0.0000000), wk =   0.0800000
        k(    7) = (   0.2000000  -0.5773503   0.0000000), wk =   0.0800000
        k(    8) = (   0.2000000  -0.3464102   0.0000000), wk =   0.0800000
        k(    9) = (   0.4000000  -0.2309401   0.0000000), wk =   0.0800000
        k(   10) = (   0.4000000   0.0000000   0.0000000), wk =   0.0800000
        k(   11) = (   0.4000000   0.2309401   0.0000000), wk =   0.0800000
        k(   12) = (   0.4000000  -0.6928203   0.0000000), wk =   0.0800000
        k(   13) = (   0.4000000  -0.4618802   0.0000000), wk =   0.0800000

     Dense  grid:   752179 G-vectors     FFT dimensions: (  80,  80, 288)

     Smooth grid:   293251 G-vectors     FFT dimensions: (  60,  60, 200)

     Estimated max dynamical RAM per process >      84.82 MB

     Estimated total dynamical RAM >       7.95 GB
     Generating pointlists ...
     new r_m :   0.0948 (alat units)  1.3440 (a.u.) for type    1
     new r_m :   0.0653 (alat units)  0.9250 (a.u.) for type    2
     new r_m :   0.0653 (alat units)  0.9250 (a.u.) for type    3
     new r_m :   0.0948 (alat units)  1.3440 (a.u.) for type    4

     Initial potential from superposition of free atoms

     starting charge     334.9897, renormalised to     335.0000

     negative rho (up, down):  3.046E-03 4.491E-04


     %%%%%%%%%%%%%%%%%%%%%%%%%%%%%%%%%%%%%%%%%%%%%%%%%%%%%%%%%%%%%%%%%%%%%%%%
     %                                                                      %
     % You are using vdW-DF, which was implemented by the Thonhauser group. %
     % Please cite the following two papers that made this development      %
     % possible and the two reviews that describe the various versions:     %
     %                                                                      %
     %   T. Thonhauser et al., PRL 115, 136402 (2015).                      %
     %   T. Thonhauser et al., PRB 76, 125112 (2007).                       %
     %   K. Berland et al., Rep. Prog. Phys. 78, 066501 (2015).             %
     %   D.C. Langreth et al., J. Phys.: Condens. Matter 21, 084203 (2009). %
     %                                                                      %
     % If you are calculating stress with vdW-DF, please also cite:         %
     %                                                                      %
     %   R. Sabatini et al., J. Phys.: Condens. Matter 24, 424209 (2012).   %
     %   C.M. Frostenson et al., Electr. Struct. 4, 014001 (2022).          %
     %                                                                      %
     %%%%%%%%%%%%%%%%%%%%%%%%%%%%%%%%%%%%%%%%%%%%%%%%%%%%%%%%%%%%%%%%%%%%%%%%

     %%%%%%%%%%%%%%%%%%%%%%%%%%%%%%%%%%%%%%%%%%%%%%%%%%%%%%%%%%%%%%%%%%%%%%%%
     %                                                                      %
     %  vdW-DF NEWS:                                                        %
     %                                                                      %
     %  * vdW-DF3 is now available. DOI: 10.1021/acs.jctc.0c00471           %
     %    use with input_dft = 'vdW-DF3-opt1' or 'vdW-DF3-opt2'             %
     %                                                                      %
     %  * Unscreened and range-separated hybrid vdW-DF-cx functionals       %
     %    DOI: 10.1063/1.4986522 and 10.1088/1361-648X/ac2ad2               %
     %    use with input_dft = 'vdW-DF-cx0'    and 'vdW-DF-ahcx'            %
     %  * Unscreened and range-separated hybrid vdW-DF2-b86r functionals    %
     %    DOI: 10.1063/1.4986522 and DOI: 10.1103/PhysRevX.12.041003        %
     %    use with input_dft = 'vdW-DF2-br0' and 'vdW-DF2-ahbr'             %
     %                                                                      %
     %%%%%%%%%%%%%%%%%%%%%%%%%%%%%%%%%%%%%%%%%%%%%%%%%%%%%%%%%%%%%%%%%%%%%%%%


     Starting wfcs are  333 randomized atomic wfcs
     Checking if some PAW data can be deallocated... 

     total cpu time spent up to now is       19.6 secs

     per-process dynamical memory:   212.0 Mb

     Self-consistent Calculation

     iteration #  1     ecut=    40.00 Ry     beta= 0.70
     Davidson diagonalization with overlap
     ethr =  1.00E-02,  avg # of iterations =  2.0

     negative rho (up, down):  6.899E-05 1.677E-06

     total cpu time spent up to now is       34.4 secs

     total energy              =   -6053.02524326 Ry
     estimated scf accuracy    <      39.09313540 Ry

     total magnetization       =    69.00 Bohr mag/cell
     absolute magnetization    =    81.24 Bohr mag/cell

     iteration #  2     ecut=    40.00 Ry     beta= 0.70
     Davidson diagonalization with overlap
     ethr =  1.00E-02,  avg # of iterations =  1.0

     negative rho (up, down):  2.683E-05 7.920E-07

     total cpu time spent up to now is       54.6 secs

     total energy              =   -6052.58825444 Ry
     estimated scf accuracy    <      24.26547846 Ry

     total magnetization       =    69.01 Bohr mag/cell
     absolute magnetization    =    76.81 Bohr mag/cell

     iteration #  3     ecut=    40.00 Ry     beta= 0.70
     Davidson diagonalization with overlap
     ethr =  7.24E-03,  avg # of iterations =  1.4

     negative rho (up, down):  1.332E-06 2.967E-06

     total cpu time spent up to now is       67.1 secs

     total energy              =   -6055.06258976 Ry
     estimated scf accuracy    <      85.84988714 Ry

     total magnetization       =    66.12 Bohr mag/cell
     absolute magnetization    =    73.63 Bohr mag/cell

     iteration #  4     ecut=    40.00 Ry     beta= 0.70
     Davidson diagonalization with overlap
     ethr =  7.24E-03,  avg # of iterations =  1.0

     negative rho (up, down):  1.564E-06 8.752E-07

     total cpu time spent up to now is       87.8 secs

     total energy              =   -6056.35085442 Ry
     estimated scf accuracy    <       5.01347183 Ry

     total magnetization       =    60.45 Bohr mag/cell
     absolute magnetization    =    70.32 Bohr mag/cell

     iteration #  5     ecut=    40.00 Ry     beta= 0.70
     Davidson diagonalization with overlap
     ethr =  1.50E-03,  avg # of iterations =  1.2

     negative rho (up, down):  1.726E-06 7.406E-07

     total cpu time spent up to now is      108.5 secs

     total energy              =   -6056.35284611 Ry
     estimated scf accuracy    <       1.74320337 Ry

     total magnetization       =    60.49 Bohr mag/cell
     absolute magnetization    =    69.83 Bohr mag/cell

     iteration #  6     ecut=    40.00 Ry     beta= 0.70
     Davidson diagonalization with overlap
     ethr =  5.20E-04,  avg # of iterations =  2.8

     negative rho (up, down):  1.598E-06 7.742E-07

     total cpu time spent up to now is      121.7 secs

     total energy              =   -6056.44659212 Ry
     estimated scf accuracy    <       0.87304175 Ry

     total magnetization       =    60.29 Bohr mag/cell
     absolute magnetization    =    69.24 Bohr mag/cell

     iteration #  7     ecut=    40.00 Ry     beta= 0.70
     Davidson diagonalization with overlap
     ethr =  2.61E-04,  avg # of iterations =  4.0

     negative rho (up, down):  1.703E-06 8.995E-07

     total cpu time spent up to now is      144.7 secs

     total energy              =   -6056.47251438 Ry
     estimated scf accuracy    <       0.57870853 Ry

     total magnetization       =    60.28 Bohr mag/cell
     absolute magnetization    =    68.94 Bohr mag/cell

     iteration #  8     ecut=    40.00 Ry     beta= 0.70
     Davidson diagonalization with overlap
     ethr =  1.73E-04,  avg # of iterations =  1.7

     negative rho (up, down):  1.164E-06 6.069E-07

     total cpu time spent up to now is      156.9 secs

     total energy              =   -6056.49655863 Ry
     estimated scf accuracy    <       0.14611179 Ry

     total magnetization       =    60.36 Bohr mag/cell
     absolute magnetization    =    68.86 Bohr mag/cell

     iteration #  9     ecut=    40.00 Ry     beta= 0.70
     Davidson diagonalization with overlap
     c_bands:  1 eigenvalues not converged
     ethr =  4.36E-05,  avg # of iterations =  9.0

     negative rho (up, down):  6.367E-07 3.731E-07

     total cpu time spent up to now is      187.0 secs

     total energy              =   -6056.50014139 Ry
     estimated scf accuracy    <       0.12241141 Ry

     total magnetization       =    60.57 Bohr mag/cell
     absolute magnetization    =    68.69 Bohr mag/cell

     iteration # 10     ecut=    40.00 Ry     beta= 0.70
     Davidson diagonalization with overlap
     ethr =  3.65E-05,  avg # of iterations =  3.4

     negative rho (up, down):  7.079E-07 4.149E-07

     total cpu time spent up to now is      209.8 secs

     total energy              =   -6056.50521471 Ry
     estimated scf accuracy    <       0.13476587 Ry

     total magnetization       =    60.86 Bohr mag/cell
     absolute magnetization    =    68.74 Bohr mag/cell

     iteration # 11     ecut=    40.00 Ry     beta= 0.70
     Davidson diagonalization with overlap
     ethr =  3.65E-05,  avg # of iterations =  1.4

     negative rho (up, down):  2.780E-07 1.898E-07

     total cpu time spent up to now is      230.4 secs

     total energy              =   -6056.50340947 Ry
     estimated scf accuracy    <       0.12185695 Ry

     total magnetization       =    60.87 Bohr mag/cell
     absolute magnetization    =    68.67 Bohr mag/cell

     iteration # 12     ecut=    40.00 Ry     beta= 0.70
     Davidson diagonalization with overlap
     ethr =  3.64E-05,  avg # of iterations =  1.6

     negative rho (up, down):  6.201E-06 5.518E-07

     total cpu time spent up to now is      243.4 secs

     total energy              =   -6056.50407108 Ry
     estimated scf accuracy    <       0.08011202 Ry

     total magnetization       =    60.83 Bohr mag/cell
     absolute magnetization    =    68.55 Bohr mag/cell

     iteration # 13     ecut=    40.00 Ry     beta= 0.70
     Davidson diagonalization with overlap
     ethr =  2.39E-05,  avg # of iterations =  1.5

     negative rho (up, down):  2.293E-07 1.618E-07

     total cpu time spent up to now is      264.1 secs

     total energy              =   -6056.50494441 Ry
     estimated scf accuracy    <       0.10362059 Ry

     total magnetization       =    60.87 Bohr mag/cell
     absolute magnetization    =    68.52 Bohr mag/cell

     iteration # 14     ecut=    40.00 Ry     beta= 0.70
     Davidson diagonalization with overlap
     ethr =  2.39E-05,  avg # of iterations =  1.3

     negative rho (up, down):  6.634E-03 4.757E-03

     total cpu time spent up to now is      275.7 secs

     total energy              =   -6056.50026532 Ry
     estimated scf accuracy    <       0.07608559 Ry

     total magnetization       =    60.87 Bohr mag/cell
     absolute magnetization    =    68.49 Bohr mag/cell

     iteration # 15     ecut=    40.00 Ry     beta= 0.70
     Davidson diagonalization with overlap
     ethr =  2.27E-05,  avg # of iterations =  1.3

     negative rho (up, down):  2.229E-02 2.019E-02

     total cpu time spent up to now is      296.9 secs

     total energy              =   -6056.49768751 Ry
     estimated scf accuracy    <       0.04845332 Ry

     total magnetization       =    60.85 Bohr mag/cell
     absolute magnetization    =    68.46 Bohr mag/cell

     iteration # 16     ecut=    40.00 Ry     beta= 0.70
     Davidson diagonalization with overlap
     c_bands:  1 eigenvalues not converged
     ethr =  1.45E-05,  avg # of iterations =  2.5

     negative rho (up, down):  2.467E-02 2.281E-02

     total cpu time spent up to now is      318.5 secs

     total energy              =   -6056.49736036 Ry
     estimated scf accuracy    <       0.04543264 Ry

     total magnetization       =    60.87 Bohr mag/cell
     absolute magnetization    =    68.44 Bohr mag/cell

     iteration # 17     ecut=    40.00 Ry     beta= 0.70
     Davidson diagonalization with overlap
     ethr =  1.36E-05,  avg # of iterations =  1.3

     negative rho (up, down):  2.791E-02 2.580E-02

     total cpu time spent up to now is      330.3 secs

     total energy              =   -6056.49846114 Ry
     estimated scf accuracy    <       0.01860189 Ry

     total magnetization       =    60.86 Bohr mag/cell
     absolute magnetization    =    68.44 Bohr mag/cell

     iteration # 18     ecut=    40.00 Ry     beta= 0.70
     Davidson diagonalization with overlap
     c_bands:  5 eigenvalues not converged
     c_bands:  1 eigenvalues not converged
     c_bands:  2 eigenvalues not converged
     c_bands:  1 eigenvalues not converged
     ethr =  5.55E-06,  avg # of iterations =  6.2

     negative rho (up, down):  1.307E-02 1.163E-02

     total cpu time spent up to now is      356.0 secs

     total energy              =   -6056.49903162 Ry
     estimated scf accuracy    <       0.01530318 Ry

     total magnetization       =    60.86 Bohr mag/cell
     absolute magnetization    =    68.40 Bohr mag/cell

     iteration # 19     ecut=    40.00 Ry     beta= 0.70
     Davidson diagonalization with overlap
     ethr =  4.57E-06,  avg # of iterations =  1.8

     negative rho (up, down):  1.612E-02 1.467E-02

     total cpu time spent up to now is      377.6 secs

     total energy              =   -6056.49886494 Ry
     estimated scf accuracy    <       0.00669574 Ry

     total magnetization       =    60.87 Bohr mag/cell
     absolute magnetization    =    68.42 Bohr mag/cell

     iteration # 20     ecut=    40.00 Ry     beta= 0.70
     Davidson diagonalization with overlap
     c_bands:  1 eigenvalues not converged
     c_bands:  3 eigenvalues not converged
     c_bands:  2 eigenvalues not converged
     ethr =  2.00E-06,  avg # of iterations =  6.9

     negative rho (up, down):  1.579E-02 1.477E-02

     total cpu time spent up to now is      394.8 secs

     total energy              =   -6056.49852568 Ry
     estimated scf accuracy    <       0.01095685 Ry

     total magnetization       =    60.87 Bohr mag/cell
     absolute magnetization    =    68.40 Bohr mag/cell

     iteration # 21     ecut=    40.00 Ry     beta= 0.70
     Davidson diagonalization with overlap
     ethr =  2.00E-06,  avg # of iterations =  2.4

     negative rho (up, down):  1.222E-02 1.161E-02

     total cpu time spent up to now is      416.6 secs

     total energy              =   -6056.49870686 Ry
     estimated scf accuracy    <       0.01003729 Ry

     total magnetization       =    60.87 Bohr mag/cell
     absolute magnetization    =    68.38 Bohr mag/cell

     iteration # 22     ecut=    40.00 Ry     beta= 0.70
     Davidson diagonalization with overlap
     ethr =  2.00E-06,  avg # of iterations =  1.5

     negative rho (up, down):  1.053E-02 9.944E-03

     total cpu time spent up to now is      438.4 secs

     total energy              =   -6056.49916623 Ry
     estimated scf accuracy    <       0.00171837 Ry

     total magnetization       =    60.87 Bohr mag/cell
     absolute magnetization    =    68.39 Bohr mag/cell

     iteration # 23     ecut=    40.00 Ry     beta= 0.70
     Davidson diagonalization with overlap
     c_bands:  1 eigenvalues not converged
     ethr =  5.13E-07,  avg # of iterations =  4.2

     negative rho (up, down):  9.106E-03 8.522E-03

     total cpu time spent up to now is      452.7 secs

     total energy              =   -6056.49922125 Ry
     estimated scf accuracy    <       0.00362145 Ry

     total magnetization       =    60.87 Bohr mag/cell
     absolute magnetization    =    68.39 Bohr mag/cell

     iteration # 24     ecut=    40.00 Ry     beta= 0.70
     Davidson diagonalization with overlap
     ethr =  5.13E-07,  avg # of iterations =  1.3

     negative rho (up, down):  7.120E-03 6.407E-03

     total cpu time spent up to now is      473.0 secs

     total energy              =   -6056.49892468 Ry
     estimated scf accuracy    <       0.00323895 Ry

     total magnetization       =    60.87 Bohr mag/cell
     absolute magnetization    =    68.39 Bohr mag/cell

     iteration # 25     ecut=    40.00 Ry     beta= 0.70
     Davidson diagonalization with overlap
     ethr =  5.13E-07,  avg # of iterations =  1.3

     negative rho (up, down):  6.511E-03 5.814E-03

     total cpu time spent up to now is      485.8 secs

     total energy              =   -6056.49927042 Ry
     estimated scf accuracy    <       0.00118659 Ry

     total magnetization       =    60.87 Bohr mag/cell
     absolute magnetization    =    68.39 Bohr mag/cell

     iteration # 26     ecut=    40.00 Ry     beta= 0.70
     Davidson diagonalization with overlap
     ethr =  3.54E-07,  avg # of iterations =  1.6

     negative rho (up, down):  4.260E-03 3.440E-03

     total cpu time spent up to now is      506.3 secs

     total energy              =   -6056.49932395 Ry
     estimated scf accuracy    <       0.00083499 Ry

     total magnetization       =    60.87 Bohr mag/cell
     absolute magnetization    =    68.39 Bohr mag/cell

     iteration # 27     ecut=    40.00 Ry     beta= 0.70
     Davidson diagonalization with overlap
     ethr =  2.49E-07,  avg # of iterations =  1.7

     negative rho (up, down):  3.798E-03 2.946E-03

     total cpu time spent up to now is      527.7 secs

     total energy              =   -6056.49931592 Ry
     estimated scf accuracy    <       0.00104660 Ry

     total magnetization       =    60.87 Bohr mag/cell
     absolute magnetization    =    68.39 Bohr mag/cell

     iteration # 28     ecut=    40.00 Ry     beta= 0.70
     Davidson diagonalization with overlap
     ethr =  2.49E-07,  avg # of iterations =  1.0

     negative rho (up, down):  2.679E-03 1.782E-03

     total cpu time spent up to now is      539.6 secs

     total energy              =   -6056.49930616 Ry
     estimated scf accuracy    <       0.00024644 Ry

     total magnetization       =    60.87 Bohr mag/cell
     absolute magnetization    =    68.39 Bohr mag/cell

     iteration # 29     ecut=    40.00 Ry     beta= 0.70
     Davidson diagonalization with overlap
     ethr =  7.36E-08,  avg # of iterations =  3.8

     negative rho (up, down):  2.706E-03 1.689E-03

     total cpu time spent up to now is      563.2 secs

     total energy              =   -6056.49938898 Ry
     estimated scf accuracy    <       0.00048488 Ry

     total magnetization       =    60.87 Bohr mag/cell
     absolute magnetization    =    68.39 Bohr mag/cell

     iteration # 30     ecut=    40.00 Ry     beta= 0.70
     Davidson diagonalization with overlap
     ethr =  7.36E-08,  avg # of iterations =  1.4

     negative rho (up, down):  2.693E-03 1.678E-03

     total cpu time spent up to now is      575.1 secs

     total energy              =   -6056.49940010 Ry
     estimated scf accuracy    <       0.00010787 Ry

     total magnetization       =    60.87 Bohr mag/cell
     absolute magnetization    =    68.39 Bohr mag/cell

     iteration # 31     ecut=    40.00 Ry     beta= 0.70
     Davidson diagonalization with overlap
     c_bands:  1 eigenvalues not converged
     ethr =  3.22E-08,  avg # of iterations =  3.0

     negative rho (up, down):  2.685E-03 1.603E-03

     total cpu time spent up to now is      596.9 secs

     total energy              =   -6056.49942810 Ry
     estimated scf accuracy    <       0.00004553 Ry

     total magnetization       =    60.87 Bohr mag/cell
     absolute magnetization    =    68.39 Bohr mag/cell

     iteration # 32     ecut=    40.00 Ry     beta= 0.70
     Davidson diagonalization with overlap
     ethr =  1.36E-08,  avg # of iterations =  4.0

     negative rho (up, down):  2.615E-03 1.517E-03

     total cpu time spent up to now is      620.5 secs

     total energy              =   -6056.49943254 Ry
     estimated scf accuracy    <       0.00001419 Ry

     total magnetization       =    60.87 Bohr mag/cell
     absolute magnetization    =    68.39 Bohr mag/cell

     iteration # 33     ecut=    40.00 Ry     beta= 0.70
     Davidson diagonalization with overlap
     ethr =  4.24E-09,  avg # of iterations =  5.7

     negative rho (up, down):  2.636E-03 1.516E-03

     total cpu time spent up to now is      637.0 secs

     total energy              =   -6056.49944489 Ry
     estimated scf accuracy    <       0.00003717 Ry

     total magnetization       =    60.87 Bohr mag/cell
     absolute magnetization    =    68.39 Bohr mag/cell

     iteration # 34     ecut=    40.00 Ry     beta= 0.70
     Davidson diagonalization with overlap
     ethr =  4.24E-09,  avg # of iterations =  2.2

     negative rho (up, down):  2.603E-03 1.479E-03

     total cpu time spent up to now is      659.0 secs

     total energy              =   -6056.49944484 Ry
     estimated scf accuracy    <       0.00002650 Ry

     total magnetization       =    60.87 Bohr mag/cell
     absolute magnetization    =    68.39 Bohr mag/cell

     iteration # 35     ecut=    40.00 Ry     beta= 0.70
     Davidson diagonalization with overlap
     ethr =  4.24E-09,  avg # of iterations =  1.2

     negative rho (up, down):  2.653E-03 1.550E-03

     total cpu time spent up to now is      680.1 secs

     total energy              =   -6056.49944803 Ry
     estimated scf accuracy    <       0.00000515 Ry

     total magnetization       =    60.87 Bohr mag/cell
     absolute magnetization    =    68.39 Bohr mag/cell

     iteration # 36     ecut=    40.00 Ry     beta= 0.70
     Davidson diagonalization with overlap
     ethr =  1.54E-09,  avg # of iterations =  4.4

     negative rho (up, down):  2.652E-03 1.558E-03

     total cpu time spent up to now is      694.8 secs

     total energy              =   -6056.49944852 Ry
     estimated scf accuracy    <       0.00000448 Ry

     total magnetization       =    60.87 Bohr mag/cell
     absolute magnetization    =    68.38 Bohr mag/cell

     iteration # 37     ecut=    40.00 Ry     beta= 0.70
     Davidson diagonalization with overlap
     ethr =  1.34E-09,  avg # of iterations =  1.4

     negative rho (up, down):  2.594E-03 1.495E-03

     total cpu time spent up to now is      715.2 secs

     total energy              =   -6056.49944852 Ry
     estimated scf accuracy    <       0.00000325 Ry

     total magnetization       =    60.87 Bohr mag/cell
     absolute magnetization    =    68.38 Bohr mag/cell

     iteration # 38     ecut=    40.00 Ry     beta= 0.70
     Davidson diagonalization with overlap
     ethr =  9.71E-10,  avg # of iterations =  2.3

     negative rho (up, down):  2.558E-03 1.468E-03

     total cpu time spent up to now is      737.4 secs

     total energy              =   -6056.49944878 Ry
     estimated scf accuracy    <       0.00000352 Ry

     total magnetization       =    60.87 Bohr mag/cell
     absolute magnetization    =    68.38 Bohr mag/cell

     iteration # 39     ecut=    40.00 Ry     beta= 0.70
     Davidson diagonalization with overlap
     ethr =  9.71E-10,  avg # of iterations =  1.7

     negative rho (up, down):  2.567E-03 1.476E-03

     total cpu time spent up to now is      749.7 secs

     total energy              =   -6056.49944876 Ry
     estimated scf accuracy    <       0.00000493 Ry

     total magnetization       =    60.87 Bohr mag/cell
     absolute magnetization    =    68.38 Bohr mag/cell

     iteration # 40     ecut=    40.00 Ry     beta= 0.70
     Davidson diagonalization with overlap
     ethr =  9.71E-10,  avg # of iterations =  1.1

     negative rho (up, down):  2.566E-03 1.482E-03

     total cpu time spent up to now is      770.1 secs

     total energy              =   -6056.49944883 Ry
     estimated scf accuracy    <       0.00000315 Ry

     total magnetization       =    60.87 Bohr mag/cell
     absolute magnetization    =    68.38 Bohr mag/cell

     iteration # 41     ecut=    40.00 Ry     beta= 0.70
     Davidson diagonalization with overlap
     ethr =  9.41E-10,  avg # of iterations =  1.3

     negative rho (up, down):  2.576E-03 1.496E-03

     total cpu time spent up to now is      782.2 secs

     total energy              =   -6056.49944877 Ry
     estimated scf accuracy    <       0.00000550 Ry

     total magnetization       =    60.87 Bohr mag/cell
     absolute magnetization    =    68.38 Bohr mag/cell

     iteration # 42     ecut=    40.00 Ry     beta= 0.70
     Davidson diagonalization with overlap
     ethr =  9.41E-10,  avg # of iterations =  1.0

     negative rho (up, down):  2.552E-03 1.480E-03

     total cpu time spent up to now is      802.9 secs

     total energy              =   -6056.49944874 Ry
     estimated scf accuracy    <       0.00000154 Ry

     total magnetization       =    60.87 Bohr mag/cell
     absolute magnetization    =    68.38 Bohr mag/cell

     iteration # 43     ecut=    40.00 Ry     beta= 0.70
     Davidson diagonalization with overlap
     ethr =  4.60E-10,  avg # of iterations =  1.7

     negative rho (up, down):  2.492E-03 1.411E-03

     total cpu time spent up to now is      815.2 secs

     total energy              =   -6056.49944864 Ry
     estimated scf accuracy    <       0.00000181 Ry

     total magnetization       =    60.87 Bohr mag/cell
     absolute magnetization    =    68.38 Bohr mag/cell

     iteration # 44     ecut=    40.00 Ry     beta= 0.70
     Davidson diagonalization with overlap
     ethr =  4.60E-10,  avg # of iterations =  2.3

     negative rho (up, down):  2.516E-03 1.438E-03

     total cpu time spent up to now is      836.7 secs

     total energy              =   -6056.49944858 Ry
     estimated scf accuracy    <       0.00000369 Ry

     total magnetization       =    60.87 Bohr mag/cell
     absolute magnetization    =    68.38 Bohr mag/cell

     iteration # 45     ecut=    40.00 Ry     beta= 0.70
     Davidson diagonalization with overlap
     ethr =  4.60E-10,  avg # of iterations =  1.1

     negative rho (up, down):  2.460E-03 1.387E-03

     total cpu time spent up to now is      858.0 secs

     total energy              =   -6056.49944851 Ry
     estimated scf accuracy    <       0.00000122 Ry

     total magnetization       =    60.87 Bohr mag/cell
     absolute magnetization    =    68.38 Bohr mag/cell

     iteration # 46     ecut=    40.00 Ry     beta= 0.70
     Davidson diagonalization with overlap
     ethr =  3.63E-10,  avg # of iterations =  1.6

     negative rho (up, down):  2.244E-03 1.153E-03

     Magnetic moment per site  (integrated on atomic sphere of radius R)
     atom   1 (R=0.095)  charge=  5.8802  magn=  1.7003
     atom   2 (R=0.095)  charge=  5.8806  magn=  1.6954
     atom   3 (R=0.095)  charge=  5.8800  magn=  1.7047
     atom   4 (R=0.095)  charge=  5.8801  magn=  1.7095
     atom   5 (R=0.095)  charge=  5.8804  magn=  1.7040
     atom   6 (R=0.095)  charge=  5.8803  magn=  1.7032
     atom   7 (R=0.095)  charge=  5.8799  magn=  1.7014
     atom   8 (R=0.095)  charge=  5.8806  magn=  1.6982
     atom   9 (R=0.095)  charge=  5.8803  magn=  1.7003
     atom  10 (R=0.095)  charge=  5.8781  magn=  1.6335
     atom  11 (R=0.095)  charge=  5.8792  magn=  1.6362
     atom  12 (R=0.095)  charge=  5.8790  magn=  1.6406
     atom  13 (R=0.095)  charge=  5.8784  magn=  1.6429
     atom  14 (R=0.095)  charge=  5.8798  magn=  1.6356
     atom  15 (R=0.095)  charge=  5.8791  magn=  1.6405
     atom  16 (R=0.095)  charge=  5.8788  magn=  1.6332
     atom  17 (R=0.095)  charge=  5.8790  magn=  1.6410
     atom  18 (R=0.095)  charge=  5.8796  magn=  1.6330
     atom  19 (R=0.095)  charge=  5.8778  magn=  1.6269
     atom  20 (R=0.095)  charge=  5.8789  magn=  1.6431
     atom  21 (R=0.095)  charge=  5.8777  magn=  1.6589
     atom  22 (R=0.095)  charge=  5.8788  magn=  1.6312
     atom  23 (R=0.095)  charge=  5.8785  magn=  1.6107
     atom  24 (R=0.095)  charge=  5.8794  magn=  1.6249
     atom  25 (R=0.095)  charge=  5.8769  magn=  1.5924
     atom  26 (R=0.095)  charge=  5.8759  magn=  1.6598
     atom  27 (R=0.095)  charge=  5.8790  magn=  1.6345
     atom  28 (R=0.095)  charge=  5.8937  magn=  1.2976
     atom  29 (R=0.095)  charge=  5.8992  magn=  1.1693
     atom  30 (R=0.095)  charge=  5.8798  magn=  1.6023
     atom  31 (R=0.095)  charge=  5.8829  magn=  1.7258
     atom  32 (R=0.095)  charge=  5.8810  magn=  1.6284
     atom  33 (R=0.095)  charge=  5.8782  magn=  1.7388
     atom  34 (R=0.095)  charge=  5.8768  magn=  1.7364
     atom  35 (R=0.095)  charge=  5.8827  magn=  1.6901
     atom  36 (R=0.095)  charge=  5.8777  magn=  1.7473
     atom  37 (R=0.065)  charge=  1.0387  magn= -0.0194
     atom  38 (R=0.065)  charge=  2.9056  magn= -0.0436
     atom  39 (R=0.095)  charge=  0.9413  magn= -0.0151

     total cpu time spent up to now is      870.0 secs

     End of self-consistent calculation

 ------ SPIN UP ------------


          k = 0.0000 0.0000 0.0000 ( 36693 PWs)   bands (ev):

   -22.0179  -9.0936  -7.6823  -6.5848  -5.8208  -5.7012  -5.3440  -5.2181
    -4.8450  -4.8354  -4.8326  -4.8188  -4.8055  -4.7919  -4.6503  -4.3961
    -4.3019  -4.2987  -4.2774  -4.2654  -4.2403  -4.1048  -3.7832  -3.7797
    -3.7712  -3.7561  -3.7324  -3.6973  -3.6452  -3.6431  -3.6390  -3.6298
    -3.6143  -3.5675  -3.5651  -3.4888  -3.2629  -3.2554  -3.2539  -3.2507
    -3.1950  -3.1910  -3.1888  -3.1856  -3.1809  -3.1741  -3.1576  -3.1048
    -3.0271  -3.0246  -2.9578  -2.9520  -2.9478  -2.9437  -2.9234  -2.9173
    -2.9159  -2.9151  -2.8860  -2.8664  -2.8171  -2.8126  -2.8085  -2.8013
    -2.7466  -2.6161  -2.3172  -2.2825  -2.2799  -2.2778  -2.2723  -2.1666
    -2.1524  -2.1357  -2.1317  -2.1232  -2.1117  -2.1090  -2.0901  -2.0866
    -2.0573  -2.0435  -2.0428  -2.0137  -1.9949  -1.9882  -1.9758  -1.9662
    -1.9617  -1.9573  -1.9506  -1.9419  -1.9320  -1.9224  -1.9169  -1.9053
    -1.9042  -1.9015  -1.8989  -1.8979  -1.8953  -1.8948  -1.8904  -1.8809
    -1.8723  -1.8584  -1.8403  -1.8307  -1.8264  -1.7462  -1.7432  -1.6458
    -1.5622  -1.4563  -1.4527  -1.4511  -1.4485  -1.4395  -1.4233  -1.4088
    -1.4056  -1.4041  -1.3903  -1.3650  -1.3626  -1.2323  -1.2296  -1.2101
    -1.2058  -1.1410  -1.0872  -1.0614  -1.0440  -1.0310  -1.0029  -0.9819
    -0.9711  -0.9628  -0.9555  -0.9441  -0.9113  -0.8879  -0.8515  -0.8302
    -0.7699  -0.7122  -0.7082  -0.7074  -0.6915  -0.6630  -0.6517  -0.6453
    -0.6435  -0.6384  -0.6369  -0.6294  -0.6279  -0.6235  -0.6198  -0.6093
    -0.6061  -0.5974  -0.5838  -0.5771  -0.5697  -0.5642  -0.5535  -0.5493
    -0.5390  -0.5333  -0.5261  -0.5165  -0.5121  -0.5056  -0.4966  -0.4916
    -0.4889  -0.4836  -0.4705  -0.4526  -0.4342  -0.4125  -0.4084  -0.4019
    -0.3970  -0.3925  -0.3878  -0.3793  -0.3775  -0.3379  -0.3193  -0.3120
    -0.3086  -0.3068  -0.2504  -0.2463  -0.2417  -0.2342  -0.2225  -0.2040
     0.5046   0.6904

          k = 0.0000 0.2309 0.0000 ( 36641 PWs)   bands (ev):

   -22.0179  -9.0831  -7.5418  -6.4925  -5.8476  -5.7133  -5.5313  -5.3358
    -5.2072  -5.0543  -5.0291  -4.6605  -4.5075  -4.4883  -4.4750  -4.4200
    -4.3316  -4.3074  -4.2425  -4.1754  -4.1600  -4.0947  -3.8861  -3.7846
    -3.7771  -3.7073  -3.6659  -3.6498  -3.6470  -3.6342  -3.6288  -3.6146
    -3.5926  -3.5365  -3.5217  -3.5049  -3.4980  -3.4480  -3.2764  -3.2721
    -3.2584  -3.2177  -3.2153  -3.2053  -3.1734  -3.1068  -3.0836  -3.0637
    -3.0500  -3.0462  -3.0264  -3.0017  -2.9615  -2.9097  -2.9004  -2.8751
    -2.8440  -2.8352  -2.8041  -2.7991  -2.7789  -2.7445  -2.7328  -2.7211
    -2.6989  -2.6122  -2.3993  -2.3894  -2.3698  -2.3454  -2.3360  -2.2469
    -2.2403  -2.2249  -2.2226  -2.2102  -2.2053  -2.1928  -2.1670  -2.1145
    -2.1046  -2.0919  -2.0745  -2.0450  -2.0335  -2.0263  -2.0211  -2.0102
    -1.9960  -1.9916  -1.9871  -1.9819  -1.9776  -1.9710  -1.9593  -1.8964
    -1.8821  -1.8691  -1.8142  -1.8091  -1.7995  -1.7933  -1.7852  -1.7827
    -1.7717  -1.7593  -1.7570  -1.7497  -1.7453  -1.7226  -1.7126  -1.6905
    -1.6861  -1.6793  -1.6325  -1.5875  -1.5783  -1.4908  -1.4769  -1.4748
    -1.4686  -1.4474  -1.4407  -1.4324  -1.4124  -1.4088  -1.3664  -1.2817
    -1.2574  -1.2057  -1.1921  -1.1668  -1.1611  -1.1041  -1.0900  -1.0836
    -1.0594  -0.9895  -0.9783  -0.9592  -0.9499  -0.9355  -0.9074  -0.8963
    -0.8821  -0.8640  -0.8617  -0.8389  -0.8170  -0.7976  -0.7925  -0.7882
    -0.7359  -0.7132  -0.7069  -0.7032  -0.6918  -0.6598  -0.6466  -0.6336
    -0.6303  -0.6246  -0.6204  -0.6071  -0.5991  -0.5846  -0.5739  -0.5579
    -0.5216  -0.5086  -0.4986  -0.4731  -0.4480  -0.4374  -0.4134  -0.3863
    -0.3827  -0.3678  -0.3644  -0.3520  -0.3333  -0.3267  -0.3206  -0.2895
    -0.2570  -0.2490  -0.2315  -0.2143  -0.2061  -0.1952  -0.1834  -0.1699
    -0.1157  -0.0459   0.1110   0.1402   0.1969   0.2713   0.3868   0.4082
     0.4514   0.7311

          k = 0.0000 0.4619 0.0000 ( 36606 PWs)   bands (ev):

   -22.0178  -9.0667  -7.1276  -6.5024  -6.2099  -5.8206  -5.6111  -5.3549
    -5.2582  -5.1509  -5.1326  -4.9327  -4.3362  -4.3139  -4.3076  -4.2481
    -4.2156  -4.1281  -4.1252  -4.0531  -3.9919  -3.9852  -3.9800  -3.8286
    -3.8090  -3.8065  -3.7978  -3.7955  -3.7342  -3.6923  -3.6904  -3.5655
    -3.5222  -3.5156  -3.4952  -3.4814  -3.4742  -3.4536  -3.3685  -3.3618
    -3.3478  -3.3417  -3.2723  -3.2042  -3.1441  -3.0988  -3.0528  -3.0327
    -3.0057  -2.9801  -2.9635  -2.9470  -2.9392  -2.9254  -2.9169  -2.8608
    -2.8511  -2.8277  -2.8021  -2.7752  -2.6586  -2.6480  -2.6338  -2.6148
    -2.5598  -2.5340  -2.5098  -2.4979  -2.4878  -2.4172  -2.3662  -2.3637
    -2.3594  -2.3514  -2.3432  -2.3217  -2.3145  -2.2896  -2.2816  -2.2591
    -2.2352  -2.2038  -2.1840  -2.1560  -2.1406  -2.1032  -2.0688  -2.0486
    -2.0309  -2.0161  -2.0018  -1.9871  -1.9682  -1.9357  -1.9258  -1.9170
    -1.9058  -1.8937  -1.8769  -1.8540  -1.8498  -1.8394  -1.8370  -1.8175
    -1.7959  -1.7623  -1.7564  -1.7315  -1.6667  -1.6482  -1.6339  -1.6240
    -1.6089  -1.5751  -1.5458  -1.5238  -1.5190  -1.4975  -1.4937  -1.4871
    -1.4817  -1.4743  -1.4655  -1.4555  -1.4480  -1.4368  -1.4286  -1.4191
    -1.4154  -1.3562  -1.2988  -1.2917  -1.2687  -1.2565  -1.2305  -1.2236
    -1.1919  -1.1341  -1.1235  -1.1160  -1.0728  -1.0509  -1.0203  -0.9862
    -0.9695  -0.9631  -0.9319  -0.9182  -0.9025  -0.8923  -0.8674  -0.7828
    -0.7601  -0.7437  -0.7247  -0.7087  -0.7038  -0.6961  -0.6911  -0.6789
    -0.6747  -0.6446  -0.5702  -0.5583  -0.5469  -0.5352  -0.5250  -0.5229
    -0.5137  -0.4952  -0.4741  -0.4656  -0.4605  -0.4329  -0.3785  -0.3604
    -0.3544  -0.3338  -0.3212  -0.2608  -0.2541  -0.2295  -0.2207  -0.1772
    -0.1576  -0.1402  -0.1356  -0.1230  -0.1101  -0.1033  -0.1022  -0.0650
    -0.0081   0.0059   0.4712   0.5749   0.8753   1.0996   1.1263   1.3108
     1.4401   1.4855

          k = 0.2000-0.1155 0.0000 ( 36641 PWs)   bands (ev):

   -22.0179  -9.0810  -7.5435  -6.4949  -5.8834  -5.7048  -5.5182  -5.3223
    -5.1861  -5.0708  -5.0331  -4.6247  -4.5300  -4.4880  -4.4788  -4.4188
    -4.3539  -4.2985  -4.2285  -4.1996  -4.1538  -4.0734  -3.8950  -3.7834
    -3.7736  -3.7025  -3.6700  -3.6521  -3.6469  -3.6413  -3.6282  -3.6095
    -3.5891  -3.5453  -3.5219  -3.5050  -3.4976  -3.4482  -3.2842  -3.2740
    -3.2645  -3.2202  -3.2149  -3.1967  -3.1747  -3.1139  -3.0805  -3.0645
    -3.0490  -3.0432  -3.0337  -2.9959  -2.9564  -2.9109  -2.8998  -2.8792
    -2.8391  -2.8328  -2.8024  -2.7990  -2.7754  -2.7407  -2.7344  -2.7279
    -2.6873  -2.6150  -2.4018  -2.3875  -2.3621  -2.3462  -2.3366  -2.2468
    -2.2435  -2.2291  -2.2248  -2.2101  -2.2016  -2.1867  -2.1636  -2.1128
    -2.1088  -2.0896  -2.0757  -2.0467  -2.0391  -2.0263  -2.0155  -2.0100
    -1.9982  -1.9944  -1.9915  -1.9877  -1.9762  -1.9714  -1.9385  -1.8958
    -1.8790  -1.8646  -1.8168  -1.8130  -1.8018  -1.7919  -1.7863  -1.7812
    -1.7764  -1.7690  -1.7641  -1.7484  -1.7477  -1.7256  -1.7109  -1.6937
    -1.6836  -1.6701  -1.6419  -1.5987  -1.5766  -1.5048  -1.4742  -1.4726
    -1.4580  -1.4538  -1.4413  -1.4353  -1.4246  -1.3954  -1.3236  -1.2882
    -1.2516  -1.2095  -1.1945  -1.1679  -1.1498  -1.1238  -1.0968  -1.0840
    -1.0363  -1.0053  -0.9941  -0.9675  -0.9501  -0.9405  -0.9120  -0.9009
    -0.8811  -0.8626  -0.8469  -0.8273  -0.8174  -0.8032  -0.7948  -0.7825
    -0.7230  -0.7155  -0.7047  -0.7027  -0.6857  -0.6528  -0.6425  -0.6399
    -0.6334  -0.6254  -0.6205  -0.6102  -0.6019  -0.5816  -0.5736  -0.5518
    -0.5139  -0.5009  -0.4930  -0.4717  -0.4519  -0.4444  -0.4069  -0.3866
    -0.3811  -0.3732  -0.3590  -0.3567  -0.3348  -0.3263  -0.3202  -0.2844
    -0.2602  -0.2452  -0.2328  -0.2126  -0.2059  -0.1942  -0.1817  -0.1652
    -0.1168  -0.0524   0.0937   0.1392   0.1738   0.2587   0.3737   0.4097
     0.4425   0.7996

          k = 0.2000 0.1155 0.0000 ( 36641 PWs)   bands (ev):

   -22.0179  -9.0803  -7.5445  -6.4972  -5.9087  -5.6859  -5.4875  -5.3500
    -5.1744  -5.0632  -5.0513  -4.6048  -4.5246  -4.4867  -4.4816  -4.4170
    -4.3518  -4.3198  -4.2314  -4.1954  -4.1600  -4.0627  -3.8952  -3.7893
    -3.7661  -3.6937  -3.6659  -3.6534  -3.6470  -3.6447  -3.6370  -3.6162
    -3.5683  -3.5537  -3.5282  -3.5035  -3.4994  -3.4501  -3.2887  -3.2712
    -3.2676  -3.2185  -3.2172  -3.2007  -3.1677  -3.1129  -3.0848  -3.0603
    -3.0477  -3.0444  -3.0368  -3.0033  -2.9519  -2.9092  -2.8987  -2.8806
    -2.8448  -2.8227  -2.8036  -2.7985  -2.7849  -2.7378  -2.7350  -2.7241
    -2.6768  -2.6207  -2.3986  -2.3868  -2.3605  -2.3476  -2.3365  -2.2472
    -2.2409  -2.2348  -2.2235  -2.2157  -2.1997  -2.1885  -2.1491  -2.1119
    -2.1072  -2.0913  -2.0741  -2.0418  -2.0393  -2.0317  -2.0248  -2.0068
    -1.9997  -1.9943  -1.9907  -1.9882  -1.9805  -1.9676  -1.9414  -1.9031
    -1.8738  -1.8646  -1.8188  -1.8114  -1.8048  -1.7947  -1.7864  -1.7797
    -1.7774  -1.7678  -1.7638  -1.7482  -1.7476  -1.7397  -1.7035  -1.6960
    -1.6824  -1.6744  -1.6422  -1.5999  -1.5840  -1.5090  -1.4794  -1.4729
    -1.4594  -1.4482  -1.4430  -1.4355  -1.4247  -1.3844  -1.3099  -1.2859
    -1.2522  -1.2097  -1.1923  -1.1711  -1.1445  -1.1331  -1.0935  -1.0841
    -1.0388  -1.0013  -0.9900  -0.9683  -0.9499  -0.9415  -0.9139  -0.9027
    -0.8786  -0.8624  -0.8502  -0.8297  -0.8194  -0.8029  -0.7963  -0.7820
    -0.7235  -0.7116  -0.7056  -0.7034  -0.6917  -0.6562  -0.6465  -0.6373
    -0.6330  -0.6250  -0.6191  -0.6018  -0.5977  -0.5821  -0.5750  -0.5596
    -0.5149  -0.4942  -0.4887  -0.4738  -0.4565  -0.4432  -0.4068  -0.3873
    -0.3809  -0.3744  -0.3598  -0.3552  -0.3345  -0.3250  -0.3213  -0.2856
    -0.2551  -0.2462  -0.2320  -0.2124  -0.2067  -0.1914  -0.1674  -0.1622
    -0.1141  -0.0749   0.1077   0.1386   0.1714   0.2534   0.3801   0.4047
     0.4446   0.7408

          k = 0.2000 0.3464 0.0000 ( 36608 PWs)   bands (ev):

   -22.0179  -9.0668  -7.2677  -6.3664  -6.0494  -5.9347  -5.6980  -5.5089
    -5.3277  -5.1586  -4.7549  -4.6595  -4.4990  -4.4818  -4.3403  -4.2719
    -4.2682  -4.1718  -4.1615  -4.0787  -4.0397  -4.0035  -3.8961  -3.8803
    -3.8241  -3.7805  -3.6863  -3.6749  -3.6463  -3.6421  -3.6332  -3.6167
    -3.5911  -3.5797  -3.5434  -3.5181  -3.4811  -3.4452  -3.4318  -3.4029
    -3.2926  -3.2411  -3.2134  -3.1946  -3.1681  -3.1487  -3.0966  -3.0528
    -3.0115  -2.9858  -2.9754  -2.9581  -2.9442  -2.9153  -2.9023  -2.8880
    -2.8741  -2.8545  -2.7533  -2.7230  -2.6878  -2.6694  -2.6566  -2.6336
    -2.6094  -2.5761  -2.5001  -2.4327  -2.4197  -2.3887  -2.3784  -2.3438
    -2.3318  -2.3222  -2.3129  -2.2898  -2.2809  -2.2632  -2.2555  -2.2499
    -2.2353  -2.1826  -2.1572  -2.1260  -2.0669  -2.0642  -2.0404  -2.0323
    -2.0222  -1.9961  -1.9663  -1.9609  -1.9477  -1.9280  -1.9079  -1.9036
    -1.8980  -1.8881  -1.8840  -1.8682  -1.8541  -1.8436  -1.8352  -1.8196
    -1.8035  -1.7960  -1.7662  -1.7239  -1.7152  -1.6800  -1.6738  -1.6676
    -1.6555  -1.6475  -1.6155  -1.5808  -1.5665  -1.5550  -1.5372  -1.5040
    -1.5015  -1.4914  -1.4784  -1.4631  -1.4478  -1.4270  -1.4226  -1.3707
    -1.3609  -1.3285  -1.3128  -1.2519  -1.2180  -1.1919  -1.1697  -1.1000
    -1.0817  -1.0607  -1.0507  -1.0418  -1.0339  -1.0286  -1.0011  -0.9883
    -0.9742  -0.9581  -0.9401  -0.9035  -0.8946  -0.8693  -0.8606  -0.8450
    -0.8213  -0.8035  -0.7913  -0.7759  -0.7692  -0.7474  -0.6349  -0.6107
    -0.6010  -0.5883  -0.5678  -0.5598  -0.5434  -0.5362  -0.5176  -0.5112
    -0.4958  -0.4694  -0.4445  -0.4312  -0.4077  -0.3997  -0.3618  -0.3405
    -0.3298  -0.3281  -0.3222  -0.2996  -0.2940  -0.2874  -0.2762  -0.2650
    -0.2496  -0.1747  -0.1634  -0.1577  -0.1180  -0.1079  -0.0989   0.0363
     0.1359   0.2352   0.2490   0.4185   0.5136   0.6330   1.0044   1.1171
     1.2213   1.4006

          k = 0.2000-0.5774 0.0000 ( 36660 PWs)   bands (ev):

   -22.0179  -9.0595  -6.7750  -6.6940  -6.2076  -6.0432  -5.7432  -5.5274
    -5.2613  -5.2025  -4.9727  -4.7122  -4.4784  -4.2363  -4.1862  -4.0846
    -4.0576  -4.0473  -4.0225  -4.0198  -3.9702  -3.9543  -3.9456  -3.9442
    -3.9196  -3.8555  -3.7960  -3.7892  -3.7661  -3.7617  -3.7224  -3.6248
    -3.6109  -3.6053  -3.5770  -3.5377  -3.4753  -3.4517  -3.3902  -3.3141
    -3.3074  -3.2561  -3.2281  -3.2051  -3.1808  -3.1226  -3.0955  -3.0830
    -3.0511  -3.0260  -2.9942  -2.9335  -2.9067  -2.8741  -2.8601  -2.8248
    -2.8105  -2.7355  -2.7317  -2.7154  -2.7084  -2.6969  -2.6718  -2.6377
    -2.5730  -2.5195  -2.5055  -2.4954  -2.4676  -2.4365  -2.4129  -2.3704
    -2.3643  -2.3289  -2.3168  -2.3135  -2.3049  -2.2859  -2.2598  -2.2565
    -2.2386  -2.2280  -2.2135  -2.1847  -2.1799  -2.1499  -2.1040  -2.0860
    -2.0682  -2.0361  -2.0191  -1.9932  -1.9701  -1.9422  -1.9294  -1.9192
    -1.8996  -1.8981  -1.8920  -1.8780  -1.8694  -1.8418  -1.8384  -1.7912
    -1.7674  -1.7485  -1.7395  -1.7292  -1.7118  -1.7074  -1.7014  -1.6917
    -1.6825  -1.6706  -1.6574  -1.6294  -1.5981  -1.5809  -1.5584  -1.5458
    -1.4902  -1.4819  -1.4641  -1.4396  -1.4296  -1.4124  -1.3989  -1.3871
    -1.3430  -1.3299  -1.3182  -1.2709  -1.2162  -1.1889  -1.1812  -1.1689
    -1.1478  -1.1352  -1.1261  -1.0931  -1.0800  -1.0653  -1.0458  -1.0341
    -0.9860  -0.9734  -0.9568  -0.9495  -0.9319  -0.8852  -0.8760  -0.8611
    -0.8519  -0.8414  -0.8296  -0.8104  -0.7892  -0.7610  -0.7412  -0.5997
    -0.5816  -0.5704  -0.5574  -0.5462  -0.5355  -0.5288  -0.5189  -0.4887
    -0.4748  -0.4607  -0.4559  -0.4458  -0.4009  -0.3442  -0.3345  -0.3274
    -0.3187  -0.2986  -0.2872  -0.2753  -0.2347  -0.2311  -0.2220  -0.2137
    -0.2114  -0.1461  -0.1308  -0.1253  -0.1124  -0.1034  -0.0816  -0.0566
     0.1092   0.2510   0.4794   0.8675   1.0658   1.1749   1.2754   1.5141
     1.6697   1.7061

          k = 0.2000-0.3464 0.0000 ( 36608 PWs)   bands (ev):

   -22.0179  -9.0679  -7.2647  -6.3653  -6.0213  -5.9441  -5.6979  -5.5511
    -5.3156  -5.1453  -4.7298  -4.7085  -4.4915  -4.4837  -4.3363  -4.2734
    -4.2676  -4.1711  -4.1653  -4.0728  -4.0297  -4.0182  -3.9011  -3.8786
    -3.8241  -3.7820  -3.6857  -3.6730  -3.6622  -3.6423  -3.6294  -3.6024
    -3.5917  -3.5834  -3.5420  -3.5194  -3.4841  -3.4377  -3.4266  -3.4089
    -3.2935  -3.2394  -3.2138  -3.1912  -3.1715  -3.1432  -3.0808  -3.0523
    -3.0088  -2.9875  -2.9681  -2.9630  -2.9511  -2.9198  -2.8953  -2.8889
    -2.8690  -2.8606  -2.7574  -2.7266  -2.6916  -2.6746  -2.6510  -2.6295
    -2.6155  -2.5753  -2.4994  -2.4342  -2.4084  -2.3893  -2.3785  -2.3450
    -2.3379  -2.3211  -2.3135  -2.2880  -2.2809  -2.2621  -2.2520  -2.2480
    -2.2343  -2.1924  -2.1559  -2.1348  -2.0693  -2.0642  -2.0381  -2.0294
    -2.0200  -1.9946  -1.9716  -1.9594  -1.9439  -1.9249  -1.9117  -1.9015
    -1.8967  -1.8908  -1.8812  -1.8657  -1.8534  -1.8470  -1.8282  -1.8118
    -1.8079  -1.8001  -1.7743  -1.7214  -1.7173  -1.6826  -1.6716  -1.6652
    -1.6605  -1.6467  -1.6062  -1.5873  -1.5664  -1.5404  -1.5291  -1.5082
    -1.5008  -1.4916  -1.4873  -1.4603  -1.4446  -1.4310  -1.4241  -1.3708
    -1.3616  -1.3258  -1.3098  -1.2592  -1.2155  -1.1862  -1.1605  -1.1072
    -1.0827  -1.0573  -1.0497  -1.0458  -1.0402  -1.0296  -1.0005  -0.9867
    -0.9714  -0.9605  -0.9452  -0.9068  -0.8924  -0.8732  -0.8596  -0.8414
    -0.8204  -0.8124  -0.7861  -0.7730  -0.7665  -0.7475  -0.6329  -0.6178
    -0.5979  -0.5832  -0.5657  -0.5571  -0.5519  -0.5303  -0.5251  -0.5061
    -0.4989  -0.4748  -0.4397  -0.4293  -0.4080  -0.4016  -0.3624  -0.3401
    -0.3311  -0.3255  -0.3232  -0.2999  -0.2948  -0.2857  -0.2757  -0.2636
    -0.2511  -0.1743  -0.1645  -0.1599  -0.1140  -0.1095  -0.1081   0.0457
     0.1162   0.2356   0.2447   0.4461   0.5140   0.6221   1.0137   1.1137
     1.2253   1.3547

          k = 0.4000-0.2309 0.0000 ( 36606 PWs)   bands (ev):

   -22.0178  -9.0610  -7.1355  -6.5110  -6.2173  -5.8857  -5.5414  -5.3593
    -5.2123  -5.1660  -5.1251  -4.9437  -4.3598  -4.3210  -4.2875  -4.2467
    -4.2087  -4.1300  -4.1263  -4.0316  -3.9970  -3.9851  -3.9623  -3.8329
    -3.8089  -3.8018  -3.7987  -3.7963  -3.7232  -3.6971  -3.6875  -3.6187
    -3.5258  -3.5151  -3.5001  -3.4812  -3.4762  -3.4346  -3.3692  -3.3625
    -3.3503  -3.3403  -3.3043  -3.2151  -3.1327  -3.1055  -3.0414  -3.0284
    -3.0016  -2.9850  -2.9634  -2.9485  -2.9380  -2.9288  -2.9143  -2.8659
    -2.8495  -2.8290  -2.7891  -2.7681  -2.6579  -2.6448  -2.6208  -2.6044
    -2.5694  -2.5319  -2.5166  -2.4971  -2.4887  -2.4213  -2.3666  -2.3620
    -2.3600  -2.3496  -2.3412  -2.3215  -2.3092  -2.2994  -2.2714  -2.2491
    -2.2359  -2.2045  -2.1852  -2.1596  -2.1351  -2.1194  -2.0622  -2.0513
    -2.0304  -2.0174  -2.0031  -1.9798  -1.9729  -1.9302  -1.9243  -1.9126
    -1.9051  -1.8923  -1.8790  -1.8629  -1.8497  -1.8439  -1.8372  -1.8112
    -1.7989  -1.7656  -1.7531  -1.7310  -1.6637  -1.6541  -1.6245  -1.6197
    -1.6037  -1.5781  -1.5585  -1.5208  -1.5126  -1.5025  -1.4965  -1.4881
    -1.4820  -1.4719  -1.4661  -1.4612  -1.4527  -1.4380  -1.4241  -1.4117
    -1.3838  -1.3727  -1.3134  -1.2845  -1.2668  -1.2575  -1.2375  -1.2132
    -1.1936  -1.1463  -1.1198  -1.1119  -1.0885  -1.0661  -1.0305  -1.0063
    -0.9867  -0.9583  -0.9341  -0.9263  -0.8981  -0.8764  -0.8457  -0.7960
    -0.7501  -0.7297  -0.7200  -0.7059  -0.7019  -0.6958  -0.6883  -0.6787
    -0.6635  -0.6451  -0.5631  -0.5566  -0.5458  -0.5368  -0.5256  -0.5113
    -0.5042  -0.4870  -0.4763  -0.4707  -0.4597  -0.4375  -0.3690  -0.3547
    -0.3479  -0.3414  -0.3138  -0.2621  -0.2556  -0.2254  -0.2190  -0.1789
    -0.1569  -0.1396  -0.1335  -0.1129  -0.1092  -0.1073  -0.0997  -0.0676
    -0.0089   0.0049   0.3813   0.6062   0.9137   1.0795   1.1185   1.2540
     1.4428   1.4947

          k = 0.4000 0.0000 0.0000 ( 36608 PWs)   bands (ev):

   -22.0179  -9.0633  -7.2723  -6.3672  -6.0841  -5.9298  -5.6981  -5.4806
    -5.3381  -5.1346  -4.7795  -4.6232  -4.4994  -4.4947  -4.3419  -4.2745
    -4.2640  -4.1694  -4.1625  -4.0984  -4.0440  -3.9637  -3.8994  -3.8797
    -3.8211  -3.7834  -3.6879  -3.6829  -3.6530  -3.6419  -3.6345  -3.6113
    -3.5902  -3.5787  -3.5558  -3.5220  -3.4805  -3.4512  -3.4375  -3.3978
    -3.3071  -3.2446  -3.2141  -3.1904  -3.1628  -3.1528  -3.0822  -3.0472
    -3.0204  -2.9814  -2.9728  -2.9646  -2.9434  -2.9129  -2.9022  -2.8876
    -2.8766  -2.8597  -2.7663  -2.7009  -2.6904  -2.6713  -2.6426  -2.6267
    -2.6134  -2.5724  -2.5030  -2.4314  -2.4125  -2.3879  -2.3807  -2.3438
    -2.3386  -2.3240  -2.3148  -2.2966  -2.2768  -2.2666  -2.2582  -2.2484
    -2.2178  -2.1897  -2.1642  -2.1150  -2.0678  -2.0627  -2.0465  -2.0303
    -2.0136  -1.9995  -1.9766  -1.9554  -1.9476  -1.9279  -1.9024  -1.8992
    -1.8962  -1.8932  -1.8867  -1.8692  -1.8595  -1.8435  -1.8259  -1.8179
    -1.8045  -1.7795  -1.7459  -1.7231  -1.7167  -1.6916  -1.6721  -1.6647
    -1.6550  -1.6454  -1.6253  -1.5877  -1.5663  -1.5548  -1.5337  -1.5236
    -1.5043  -1.4936  -1.4848  -1.4747  -1.4530  -1.4352  -1.4192  -1.3670
    -1.3574  -1.3319  -1.3193  -1.2353  -1.2143  -1.1976  -1.1767  -1.0972
    -1.0765  -1.0610  -1.0586  -1.0416  -1.0364  -1.0257  -1.0013  -0.9959
    -0.9810  -0.9537  -0.9381  -0.8965  -0.8813  -0.8673  -0.8643  -0.8476
    -0.8151  -0.8064  -0.7951  -0.7743  -0.7687  -0.7476  -0.6277  -0.6100
    -0.5918  -0.5788  -0.5698  -0.5581  -0.5522  -0.5284  -0.5225  -0.5144
    -0.4948  -0.4768  -0.4461  -0.4319  -0.4107  -0.3938  -0.3548  -0.3377
    -0.3315  -0.3279  -0.3206  -0.3000  -0.2936  -0.2830  -0.2796  -0.2623
    -0.2505  -0.1730  -0.1655  -0.1591  -0.1204  -0.1144  -0.0878   0.0358
     0.1982   0.2303   0.2643   0.3512   0.5269   0.6114   0.9312   1.1195
     1.2069   1.4657

          k = 0.4000 0.2309 0.0000 ( 36606 PWs)   bands (ev):

   -22.0178  -9.0592  -7.1405  -6.5176  -6.2241  -5.9059  -5.4657  -5.3797
    -5.2327  -5.1600  -5.1236  -4.9394  -4.3580  -4.3210  -4.3068  -4.2410
    -4.2038  -4.1299  -4.1276  -4.0157  -3.9942  -3.9870  -3.9391  -3.8408
    -3.8086  -3.8029  -3.7970  -3.7954  -3.7124  -3.6953  -3.6798  -3.6523
    -3.5287  -3.5239  -3.5077  -3.4820  -3.4793  -3.4296  -3.3685  -3.3612
    -3.3461  -3.3375  -3.3088  -3.2176  -3.1370  -3.0972  -3.0450  -3.0263
    -3.0087  -2.9768  -2.9633  -2.9568  -2.9433  -2.9244  -2.9030  -2.8664
    -2.8536  -2.8295  -2.7980  -2.7552  -2.6525  -2.6463  -2.6282  -2.6059
    -2.5701  -2.5307  -2.5099  -2.5043  -2.4907  -2.4201  -2.3664  -2.3631
    -2.3567  -2.3529  -2.3397  -2.3215  -2.3095  -2.3004  -2.2736  -2.2393
    -2.2318  -2.2045  -2.1877  -2.1670  -2.1364  -2.1109  -2.0608  -2.0495
    -2.0305  -2.0217  -2.0018  -1.9951  -1.9679  -1.9313  -1.9247  -1.9152
    -1.9063  -1.8950  -1.8765  -1.8680  -1.8504  -1.8436  -1.8383  -1.8104
    -1.7963  -1.7834  -1.7463  -1.7313  -1.6670  -1.6553  -1.6275  -1.6172
    -1.6029  -1.5782  -1.5534  -1.5192  -1.5143  -1.5047  -1.4987  -1.4909
    -1.4855  -1.4722  -1.4653  -1.4582  -1.4544  -1.4356  -1.4154  -1.4027
    -1.3885  -1.3732  -1.3232  -1.2844  -1.2651  -1.2497  -1.2311  -1.2154
    -1.1963  -1.1453  -1.1205  -1.1103  -1.0827  -1.0684  -1.0364  -0.9996
    -0.9865  -0.9622  -0.9321  -0.9250  -0.8957  -0.8764  -0.8485  -0.8155
    -0.7401  -0.7247  -0.7137  -0.7064  -0.7021  -0.6928  -0.6864  -0.6760
    -0.6687  -0.6615  -0.5642  -0.5548  -0.5483  -0.5351  -0.5265  -0.5104
    -0.4983  -0.4924  -0.4802  -0.4658  -0.4498  -0.4407  -0.3692  -0.3550
    -0.3481  -0.3420  -0.3131  -0.2607  -0.2557  -0.2224  -0.2202  -0.1785
    -0.1642  -0.1367  -0.1334  -0.1137  -0.1109  -0.1018  -0.0880  -0.0735
    -0.0079   0.0069   0.3909   0.6454   0.8675   1.0351   1.1237   1.2007
     1.4596   1.5392

          k = 0.4000-0.6928 0.0000 ( 36660 PWs)   bands (ev):

   -22.0179  -9.0548  -6.8090  -6.6818  -6.2134  -5.9622  -5.9127  -5.3901
    -5.2180  -5.2039  -5.0446  -4.7100  -4.4798  -4.2358  -4.1822  -4.0610
    -4.0559  -4.0324  -4.0227  -4.0017  -3.9716  -3.9521  -3.9474  -3.9434
    -3.9272  -3.8218  -3.8016  -3.7924  -3.7750  -3.7590  -3.7473  -3.6318
    -3.6107  -3.6062  -3.5879  -3.5638  -3.5050  -3.4452  -3.3542  -3.3123
    -3.3100  -3.2946  -3.2154  -3.2022  -3.1774  -3.1320  -3.0943  -3.0920
    -3.0549  -3.0139  -2.9929  -2.9311  -2.9090  -2.8769  -2.8633  -2.8160
    -2.8010  -2.7374  -2.7283  -2.7235  -2.7098  -2.7012  -2.6511  -2.6407
    -2.5693  -2.5134  -2.5067  -2.4922  -2.4825  -2.4422  -2.4200  -2.3680
    -2.3558  -2.3284  -2.3232  -2.3111  -2.2993  -2.2744  -2.2603  -2.2533
    -2.2335  -2.2209  -2.2005  -2.1885  -2.1791  -2.1487  -2.1170  -2.0989
    -2.0831  -2.0487  -2.0188  -1.9817  -1.9639  -1.9427  -1.9286  -1.9192
    -1.9064  -1.8975  -1.8907  -1.8734  -1.8590  -1.8482  -1.8403  -1.7752
    -1.7621  -1.7477  -1.7399  -1.7282  -1.7121  -1.7054  -1.6994  -1.6935
    -1.6881  -1.6695  -1.6568  -1.6465  -1.6001  -1.5769  -1.5693  -1.5369
    -1.5163  -1.4923  -1.4630  -1.4360  -1.4219  -1.4128  -1.3993  -1.3840
    -1.3366  -1.3315  -1.3050  -1.2601  -1.2205  -1.1997  -1.1805  -1.1692
    -1.1450  -1.1268  -1.1244  -1.1033  -1.0898  -1.0709  -1.0532  -1.0260
    -0.9867  -0.9814  -0.9617  -0.9389  -0.9285  -0.8890  -0.8795  -0.8691
    -0.8503  -0.8407  -0.8231  -0.8081  -0.7774  -0.7682  -0.7417  -0.5860
    -0.5779  -0.5640  -0.5591  -0.5487  -0.5424  -0.5266  -0.5216  -0.4830
    -0.4768  -0.4649  -0.4589  -0.4376  -0.3963  -0.3426  -0.3321  -0.3266
    -0.3088  -0.2997  -0.2833  -0.2483  -0.2415  -0.2319  -0.2234  -0.2168
    -0.2063  -0.1980  -0.1309  -0.1260  -0.1118  -0.1051  -0.0793  -0.0537
     0.1424   0.2657   0.5501   0.7420   1.0360   1.1814   1.2172   1.5718
     1.6778   1.7114

          k = 0.4000-0.4619 0.0000 ( 36660 PWs)   bands (ev):

   -22.0179  -9.0559  -6.7969  -6.6847  -6.2141  -6.0130  -5.8326  -5.4452
    -5.2475  -5.1932  -5.0076  -4.7084  -4.4787  -4.2339  -4.1862  -4.0649
    -4.0559  -4.0448  -4.0228  -4.0175  -3.9733  -3.9503  -3.9470  -3.9427
    -3.9244  -3.8432  -3.7958  -3.7937  -3.7708  -3.7626  -3.7238  -3.6289
    -3.6097  -3.6039  -3.5818  -3.5540  -3.5044  -3.4489  -3.3638  -3.3126
    -3.3076  -3.2932  -3.2195  -3.2021  -3.1789  -3.1263  -3.0955  -3.0880
    -3.0438  -3.0202  -2.9947  -2.9299  -2.9093  -2.8794  -2.8614  -2.8208
    -2.7993  -2.7366  -2.7307  -2.7199  -2.7097  -2.6990  -2.6639  -2.6272
    -2.5701  -2.5136  -2.5053  -2.4959  -2.4773  -2.4326  -2.4276  -2.3708
    -2.3581  -2.3292  -2.3201  -2.3070  -2.3036  -2.2804  -2.2583  -2.2543
    -2.2359  -2.2268  -2.2075  -2.1855  -2.1780  -2.1384  -2.1032  -2.1007
    -2.0827  -2.0579  -2.0145  -1.9836  -1.9654  -1.9390  -1.9277  -1.9230
    -1.9027  -1.8969  -1.8894  -1.8789  -1.8622  -1.8418  -1.8372  -1.7772
    -1.7667  -1.7433  -1.7376  -1.7333  -1.7148  -1.7088  -1.7031  -1.6907
    -1.6859  -1.6765  -1.6546  -1.6392  -1.5990  -1.5776  -1.5690  -1.5336
    -1.4992  -1.4921  -1.4743  -1.4359  -1.4203  -1.4102  -1.4009  -1.3836
    -1.3367  -1.3346  -1.3111  -1.2593  -1.2189  -1.2009  -1.1751  -1.1685
    -1.1459  -1.1304  -1.1194  -1.1158  -1.0824  -1.0677  -1.0544  -1.0290
    -0.9887  -0.9830  -0.9609  -0.9418  -0.9251  -0.8905  -0.8770  -0.8617
    -0.8501  -0.8405  -0.8330  -0.8039  -0.7784  -0.7632  -0.7458  -0.5939
    -0.5751  -0.5615  -0.5557  -0.5478  -0.5351  -0.5305  -0.5191  -0.4825
    -0.4778  -0.4699  -0.4549  -0.4412  -0.3961  -0.3421  -0.3336  -0.3273
    -0.3023  -0.2986  -0.2914  -0.2709  -0.2436  -0.2302  -0.2223  -0.2089
    -0.2042  -0.1804  -0.1292  -0.1274  -0.1125  -0.1040  -0.0800  -0.0558
     0.1267   0.2604   0.5056   0.8506   1.0026   1.1808   1.2291   1.5309
     1.6518   1.7217

 ------ SPIN DOWN ----------


          k = 0.0000 0.0000 0.0000 ( 36693 PWs)   bands (ev):

   -22.1119  -9.1759  -7.8054  -6.6395  -5.8073  -5.6787  -5.3921  -5.1476
    -4.6439  -4.6312  -4.6285  -4.6128  -4.5996  -4.5674  -4.2491  -3.7616
    -3.7566  -3.7410  -3.7351  -3.7199  -3.6448  -3.3421  -2.8190  -2.8113
    -2.7992  -2.7972  -2.7132  -2.6008  -2.3542  -2.3446  -2.3362  -2.3326
    -2.3100  -2.2295  -2.1392  -2.1354  -2.0666  -2.0579  -2.0414  -2.0400
    -1.9570  -1.9536  -1.9062  -1.9024  -1.8433  -1.8196  -1.8013  -1.7915
    -1.7577  -1.7153  -1.5576  -1.5513  -1.5324  -1.5249  -1.5210  -1.5187
    -1.5042  -1.5030  -1.4726  -1.4571  -1.4326  -1.4303  -1.4259  -1.4250
    -1.3472  -1.2609  -0.9093  -0.8792  -0.8438  -0.8420  -0.7773  -0.7214
    -0.6492  -0.6067  -0.5430  -0.5377  -0.5247  -0.5178  -0.5064  -0.4877
    -0.4728  -0.4590  -0.4458  -0.4305  -0.4275  -0.4261  -0.4063  -0.3896
    -0.3679  -0.3233  -0.3159  -0.2988  -0.2923  -0.2824  -0.2692  -0.2671
    -0.2604  -0.2416  -0.2377  -0.2358  -0.2348  -0.2333  -0.2118  -0.1444
    -0.1280  -0.1182  -0.1079  -0.0606  -0.0323  -0.0228  -0.0097  -0.0056
    -0.0033   0.0004   0.0044   0.0704   0.0706   0.0751   0.1208   0.1412
     0.1496   0.1639   0.1695   0.2087   0.2624   0.3844   0.3900   0.4480
     0.4600   0.4630   0.4727   0.4790   0.6314   0.6740   0.7757   0.7927
     0.8223   0.8452   1.0050   1.0159   1.0256   1.0406   1.0448   1.0499
     1.0700   1.1713   1.1885   1.2021   1.2184   1.2200   1.2338   1.2553
     1.2580   1.2727   1.2843   1.2963   1.3140   1.3220   1.3296   1.3548
     1.3641   1.3689   1.3746   1.3928   1.4180   1.4264   1.4358   1.4470
     1.4528   1.4625   1.4769   1.4862   1.4891   1.5017   1.5040   1.5391
     1.5492   1.5658   1.5664   1.5750   1.5795   1.5854   1.5915   1.6298
     1.6363   1.6373   1.6397   1.6454   1.6462   1.6595   1.6621   1.6728
     1.6764   1.7228   1.7239   1.8629   1.8719   1.8755   1.8783   1.8808
     1.8819   2.0545

          k = 0.0000 0.2309 0.0000 ( 36641 PWs)   bands (ev):

   -22.1119  -9.1654  -7.6639  -6.5395  -5.8583  -5.7048  -5.5455  -5.3722
    -5.1489  -4.9895  -4.9172  -4.4687  -4.1328  -4.0812  -4.0585  -3.9628
    -3.8483  -3.7766  -3.4592  -3.4078  -3.3625  -3.2629  -2.9356  -2.8126
    -2.7680  -2.7218  -2.6801  -2.6160  -2.4415  -2.3739  -2.3695  -2.3535
    -2.3343  -2.2869  -2.2824  -2.2797  -2.2391  -2.2013  -2.1046  -2.0987
    -2.0165  -2.0121  -1.9432  -1.8722  -1.8312  -1.8205  -1.8044  -1.7008
    -1.6791  -1.6490  -1.6067  -1.5758  -1.5532  -1.5359  -1.5272  -1.5200
    -1.5110  -1.4987  -1.4114  -1.4002  -1.3846  -1.3656  -1.3289  -1.2832
    -1.2453  -1.1565  -0.9607  -0.9164  -0.8934  -0.8895  -0.8284  -0.7909
    -0.7316  -0.7060  -0.6814  -0.6455  -0.5997  -0.5751  -0.5601  -0.5477
    -0.5062  -0.4954  -0.4863  -0.4783  -0.4700  -0.4450  -0.4069  -0.3904
    -0.3742  -0.3166  -0.3150  -0.3025  -0.2837  -0.2694  -0.2504  -0.2443
    -0.2388  -0.2319  -0.2255  -0.2170  -0.2136  -0.2117  -0.1733  -0.1603
    -0.1479  -0.1327  -0.1169  -0.1075  -0.0814  -0.0729  -0.0548  -0.0301
    -0.0260   0.0021   0.0229   0.0646   0.0976   0.1049   0.1332   0.1377
     0.2178   0.2588   0.2930   0.3477   0.3540   0.3622   0.4228   0.4300
     0.4377   0.4440   0.4507   0.4574   0.5878   0.7065   0.7736   0.7830
     0.7942   0.8021   0.8131   0.8255   0.8701   0.8870   0.9445   0.9630
     1.0009   1.0341   1.0627   1.0720   1.0961   1.1183   1.1410   1.1906
     1.2202   1.2370   1.2495   1.2519   1.2789   1.2857   1.3261   1.3343
     1.3518   1.3730   1.4196   1.4256   1.4412   1.4450   1.4701   1.4808
     1.5189   1.5259   1.5307   1.5353   1.5618   1.6147   1.6191   1.6293
     1.6329   1.6601   1.6626   1.6877   1.6973   1.7023   1.7110   1.7180
     1.7396   1.7778   1.7850   1.7974   1.8008   1.8107   1.8228   1.8408
     1.8639   1.8661   1.8696   1.9057   1.9613   1.9714   1.9742   2.0257
     2.0534   2.1115

          k = 0.0000 0.4619 0.0000 ( 36606 PWs)   bands (ev):

   -22.1119  -9.1490  -7.2434  -6.5851  -6.2490  -5.8150  -5.6514  -5.3940
    -5.2697  -5.1604  -5.1035  -4.8014  -4.1150  -4.0285  -3.8599  -3.4628
    -3.4610  -3.4002  -3.3339  -3.1642  -3.0596  -3.0180  -2.9897  -2.8604
    -2.8568  -2.7987  -2.7468  -2.6955  -2.6416  -2.6184  -2.6040  -2.5561
    -2.5391  -2.4056  -2.3318  -2.3196  -2.2515  -2.2252  -2.1321  -2.1184
    -2.1043  -2.0945  -2.0247  -1.8471  -1.8210  -1.7949  -1.7760  -1.7245
    -1.6032  -1.5975  -1.5850  -1.5746  -1.5574  -1.5373  -1.5286  -1.5074
    -1.4796  -1.4195  -1.4062  -1.3922  -1.3680  -1.3548  -1.2132  -1.1777
    -1.0744  -1.0448  -0.9446  -0.9214  -0.9018  -0.8695  -0.8606  -0.8480
    -0.8319  -0.8117  -0.7845  -0.7752  -0.7078  -0.6903  -0.6668  -0.6407
    -0.6184  -0.5979  -0.5783  -0.5707  -0.5376  -0.5015  -0.4580  -0.4193
    -0.3978  -0.3668  -0.3497  -0.3423  -0.2978  -0.2768  -0.2586  -0.2266
    -0.2112  -0.1979  -0.1848  -0.1766  -0.1668  -0.1620  -0.1147  -0.1041
    -0.1023  -0.0756  -0.0670  -0.0597  -0.0514  -0.0354  -0.0245   0.0017
     0.0097   0.0209   0.0581   0.0976   0.1483   0.1528   0.1706   0.2045
     0.2133   0.2217   0.2498   0.2668   0.3160   0.3226   0.3350   0.3581
     0.3871   0.4056   0.4165   0.4271   0.4636   0.5207   0.5866   0.5964
     0.6658   0.6848   0.7641   0.7813   0.8347   0.8531   0.8766   0.8873
     0.9096   0.9194   0.9434   0.9917   0.9928   1.0498   1.1728   1.1849
     1.1910   1.2251   1.2367   1.2427   1.2864   1.3055   1.3429   1.3441
     1.3739   1.3888   1.4023   1.4698   1.4805   1.4886   1.5417   1.5460
     1.5528   1.5550   1.5806   1.5916   1.6156   1.6305   1.6418   1.6647
     1.6720   1.7094   1.7355   1.7787   1.7898   1.8028   1.8139   1.8238
     1.8314   1.8653   1.8675   1.8816   1.8930   1.9028   1.9124   1.9141
     1.9601   2.0191   2.0501   2.1129   2.1235   2.1982   2.5497   2.6289
     2.6566   2.7102

          k = 0.2000-0.1155 0.0000 ( 36641 PWs)   bands (ev):

   -22.1119  -9.1635  -7.6654  -6.5419  -5.8962  -5.6919  -5.5249  -5.3689
    -5.1315  -4.9956  -4.9320  -4.4165  -4.2078  -4.0763  -4.0637  -3.9286
    -3.8489  -3.7790  -3.4743  -3.3947  -3.3329  -3.2652  -2.9753  -2.7866
    -2.7803  -2.7363  -2.6778  -2.5967  -2.4542  -2.3710  -2.3695  -2.3585
    -2.3253  -2.2993  -2.2838  -2.2809  -2.2358  -2.1933  -2.1026  -2.0981
    -2.0178  -2.0118  -1.9605  -1.8472  -1.8295  -1.8206  -1.8020  -1.7059
    -1.6738  -1.6478  -1.6109  -1.5693  -1.5566  -1.5342  -1.5264  -1.5243
    -1.5051  -1.4953  -1.4158  -1.3993  -1.3813  -1.3629  -1.3328  -1.2930
    -1.2355  -1.1652  -0.9568  -0.9101  -0.8994  -0.8876  -0.8292  -0.7832
    -0.7573  -0.7168  -0.6798  -0.6463  -0.6025  -0.5765  -0.5541  -0.5431
    -0.5097  -0.5000  -0.4826  -0.4722  -0.4603  -0.4549  -0.4168  -0.4006
    -0.3571  -0.3223  -0.3158  -0.3121  -0.2950  -0.2631  -0.2551  -0.2451
    -0.2378  -0.2302  -0.2233  -0.2174  -0.2122  -0.2088  -0.1759  -0.1611
    -0.1378  -0.1338  -0.1134  -0.1045  -0.0981  -0.0787  -0.0598  -0.0318
    -0.0192  -0.0071   0.0333   0.0726   0.0951   0.1106   0.1204   0.1388
     0.2366   0.2625   0.3004   0.3464   0.3547   0.3727   0.4108   0.4324
     0.4380   0.4473   0.4525   0.4581   0.5945   0.7075   0.7746   0.7841
     0.7938   0.8043   0.8159   0.8322   0.8676   0.8760   0.9479   0.9724
     0.9995   1.0453   1.0712   1.0822   1.1048   1.1200   1.1373   1.1487
     1.2166   1.2398   1.2537   1.2594   1.2774   1.2887   1.3243   1.3335
     1.3470   1.3642   1.4133   1.4264   1.4380   1.4478   1.4660   1.5044
     1.5213   1.5258   1.5321   1.5368   1.5563   1.6062   1.6168   1.6238
     1.6295   1.6545   1.6642   1.6905   1.7000   1.7036   1.7115   1.7234
     1.7384   1.7809   1.7847   1.8002   1.8025   1.8118   1.8191   1.8420
     1.8552   1.8654   1.8693   1.8894   1.9636   1.9695   1.9768   2.0326
     2.0495   2.1079

          k = 0.2000 0.1155 0.0000 ( 36641 PWs)   bands (ev):

   -22.1119  -9.1629  -7.6663  -6.5439  -5.9208  -5.6740  -5.4942  -5.3923
    -5.1173  -4.9931  -4.9537  -4.3706  -4.2222  -4.0822  -4.0631  -3.9691
    -3.8326  -3.7772  -3.4751  -3.4077  -3.3143  -3.2492  -2.9822  -2.8200
    -2.7691  -2.7239  -2.6935  -2.5761  -2.4599  -2.3744  -2.3679  -2.3534
    -2.3311  -2.3005  -2.2846  -2.2816  -2.2447  -2.1787  -2.1008  -2.0983
    -2.0156  -2.0126  -1.9636  -1.8606  -1.8244  -1.8175  -1.7910  -1.6996
    -1.6827  -1.6570  -1.5976  -1.5855  -1.5487  -1.5385  -1.5253  -1.5170
    -1.5161  -1.4722  -1.4344  -1.3959  -1.3822  -1.3627  -1.3335  -1.2927
    -1.2367  -1.1654  -0.9552  -0.9125  -0.8981  -0.8857  -0.8267  -0.8149
    -0.7735  -0.6942  -0.6651  -0.6406  -0.6124  -0.5730  -0.5629  -0.5320
    -0.5147  -0.5051  -0.4806  -0.4686  -0.4654  -0.4459  -0.4375  -0.3783
    -0.3514  -0.3185  -0.3142  -0.3087  -0.2979  -0.2635  -0.2521  -0.2456
    -0.2399  -0.2306  -0.2219  -0.2159  -0.2131  -0.2095  -0.1786  -0.1611
    -0.1456  -0.1320  -0.1151  -0.1051  -0.1025  -0.0829  -0.0521  -0.0380
    -0.0179   0.0057   0.0392   0.0672   0.0940   0.1104   0.1264   0.1385
     0.2038   0.2720   0.2985   0.3420   0.3532   0.3833   0.4127   0.4289
     0.4395   0.4477   0.4529   0.4585   0.6105   0.6968   0.7725   0.7875
     0.7963   0.8089   0.8142   0.8283   0.8577   0.8856   0.9521   0.9682
     0.9956   1.0519   1.0706   1.0836   1.1044   1.1277   1.1374   1.1517
     1.2098   1.2359   1.2527   1.2631   1.2804   1.2896   1.3190   1.3321
     1.3443   1.3686   1.4174   1.4236   1.4394   1.4466   1.4639   1.5046
     1.5205   1.5274   1.5328   1.5444   1.5497   1.5993   1.6154   1.6230
     1.6322   1.6572   1.6615   1.6898   1.6980   1.7068   1.7101   1.7236
     1.7402   1.7821   1.7848   1.7988   1.8036   1.8115   1.8242   1.8412
     1.8539   1.8637   1.8696   1.8821   1.9627   1.9700   1.9799   2.0297
     2.0538   2.1051

          k = 0.2000 0.3464 0.0000 ( 36608 PWs)   bands (ev):

   -22.1119  -9.1495  -7.3858  -6.3959  -6.1056  -6.0069  -5.6977  -5.5294
    -5.3711  -5.1043  -4.6717  -4.5141  -4.2707  -4.2481  -3.9222  -3.4428
    -3.4286  -3.4237  -3.4141  -3.2882  -3.1622  -3.1282  -3.1034  -2.9097
    -2.7597  -2.6845  -2.6725  -2.6497  -2.5827  -2.5668  -2.5579  -2.4749
    -2.4672  -2.4600  -2.4251  -2.3136  -2.3003  -2.2473  -2.0920  -2.0833
    -2.0618  -1.9966  -1.9592  -1.9455  -1.9088  -1.7939  -1.7364  -1.7329
    -1.6335  -1.6043  -1.5656  -1.5632  -1.5520  -1.5418  -1.5194  -1.5034
    -1.4934  -1.4767  -1.4220  -1.3744  -1.3461  -1.2974  -1.1922  -1.1636
    -1.1023  -1.0759  -0.9880  -0.9296  -0.8920  -0.8646  -0.8354  -0.8201
    -0.8040  -0.7736  -0.7419  -0.7204  -0.7032  -0.6772  -0.6543  -0.6432
    -0.6332  -0.6174  -0.5966  -0.5667  -0.5352  -0.4468  -0.4320  -0.4177
    -0.4062  -0.3776  -0.3474  -0.3286  -0.3134  -0.2972  -0.2835  -0.2767
    -0.2602  -0.2390  -0.2251  -0.2112  -0.1928  -0.1786  -0.1629  -0.1286
    -0.1126  -0.1084  -0.1003  -0.0848  -0.0668  -0.0617  -0.0480  -0.0388
     0.0458   0.0521   0.0569   0.0784   0.1332   0.1738   0.2093   0.2283
     0.2520   0.2666   0.3026   0.3261   0.3533   0.3629   0.3777   0.3861
     0.3914   0.4191   0.4353   0.4809   0.5234   0.6059   0.6806   0.7018
     0.7482   0.7763   0.8032   0.8309   0.8478   0.8528   0.8670   0.8879
     0.8998   0.9080   0.9313   0.9449   0.9849   1.0324   1.0887   1.0963
     1.1217   1.1513   1.1541   1.1831   1.2065   1.2549   1.2715   1.3183
     1.3361   1.3795   1.4677   1.4929   1.5088   1.5202   1.5366   1.5470
     1.5719   1.5801   1.5958   1.6019   1.6624   1.6697   1.6819   1.6873
     1.7001   1.7248   1.7397   1.7507   1.7624   1.7770   1.7811   1.8042
     1.8221   1.8234   1.8340   1.8490   1.8571   1.8685   1.9119   1.9403
     1.9497   1.9953   2.0530   2.0800   2.1839   2.2159   2.3535   2.4686
     2.5332   2.5513

          k = 0.2000-0.5774 0.0000 ( 36660 PWs)   bands (ev):

   -22.1119  -9.1421  -6.8694  -6.8059  -6.2546  -6.0844  -5.7454  -5.5763
    -5.2996  -5.2417  -4.8912  -4.5729  -4.3106  -3.7856  -3.4843  -3.4613
    -3.4568  -3.3816  -3.2086  -3.1365  -3.0480  -3.0386  -3.0333  -2.9055
    -2.9035  -2.8885  -2.8640  -2.8625  -2.7414  -2.6211  -2.5207  -2.5104
    -2.4892  -2.4604  -2.4361  -2.4197  -2.3643  -2.3103  -2.2413  -2.0367
    -1.9749  -1.9646  -1.9576  -1.9118  -1.8761  -1.7929  -1.7311  -1.7193
    -1.6813  -1.6692  -1.6596  -1.5585  -1.5421  -1.5043  -1.4948  -1.4736
    -1.4396  -1.3863  -1.3369  -1.3274  -1.2847  -1.2646  -1.2405  -1.1395
    -1.0926  -0.9889  -0.9524  -0.9432  -0.9277  -0.8700  -0.8658  -0.8211
    -0.8095  -0.7949  -0.7663  -0.7441  -0.7244  -0.6862  -0.6685  -0.6667
    -0.6366  -0.6252  -0.6042  -0.5888  -0.5858  -0.5705  -0.5355  -0.5164
    -0.5055  -0.4686  -0.4413  -0.4251  -0.3677  -0.3514  -0.3286  -0.2813
    -0.2487  -0.2258  -0.2115  -0.1942  -0.1797  -0.1650  -0.1573  -0.1309
    -0.0972  -0.0775  -0.0558  -0.0394  -0.0098  -0.0064   0.0397   0.0792
     0.1015   0.1181   0.1326   0.1358   0.1559   0.1776   0.2329   0.2432
     0.2543   0.2682   0.3021   0.3142   0.3244   0.3478   0.3822   0.4075
     0.4163   0.4349   0.4470   0.4746   0.4829   0.5032   0.5234   0.5584
     0.6057   0.6693   0.7152   0.7696   0.7938   0.8177   0.8209   0.8358
     0.8623   0.8792   0.8925   0.9332   1.0140   1.0253   1.0403   1.0783
     1.0969   1.1049   1.1535   1.1844   1.1992   1.2127   1.2598   1.3161
     1.3619   1.4022   1.4533   1.4620   1.5324   1.5505   1.5848   1.5923
     1.5979   1.6107   1.6201   1.6388   1.6671   1.6817   1.6902   1.7019
     1.7287   1.7646   1.7695   1.7830   1.7915   1.7960   1.7989   1.8050
     1.8219   1.8504   1.8640   1.8945   1.9007   1.9150   1.9229   1.9421
     2.0047   2.0790   2.2130   2.3373   2.5179   2.6476   2.7157   2.7810
     2.7993   2.8538

          k = 0.2000-0.3464 0.0000 ( 36608 PWs)   bands (ev):

   -22.1119  -9.1505  -7.3833  -6.3953  -6.0777  -6.0192  -5.6870  -5.5733
    -5.3644  -5.0965  -4.6349  -4.5775  -4.2596  -4.2440  -3.9182  -3.4365
    -3.4320  -3.4248  -3.4084  -3.2997  -3.1561  -3.1356  -3.0997  -2.9014
    -2.7594  -2.6901  -2.6747  -2.6292  -2.5962  -2.5654  -2.5539  -2.4755
    -2.4702  -2.4609  -2.4225  -2.3183  -2.2947  -2.2489  -2.0985  -2.0835
    -2.0574  -1.9992  -1.9513  -1.9414  -1.9095  -1.7926  -1.7366  -1.7213
    -1.6707  -1.5917  -1.5686  -1.5623  -1.5460  -1.5434  -1.5273  -1.5063
    -1.4902  -1.4758  -1.4238  -1.3826  -1.3400  -1.2868  -1.1948  -1.1552
    -1.0938  -1.0811  -0.9862  -0.9148  -0.8927  -0.8642  -0.8336  -0.8191
    -0.7968  -0.7781  -0.7376  -0.7117  -0.7032  -0.6903  -0.6603  -0.6428
    -0.6341  -0.6260  -0.6036  -0.5840  -0.5032  -0.4600  -0.4294  -0.4172
    -0.4056  -0.3864  -0.3578  -0.3280  -0.3180  -0.2986  -0.2889  -0.2701
    -0.2562  -0.2453  -0.2217  -0.2029  -0.1962  -0.1742  -0.1512  -0.1322
    -0.1170  -0.1122  -0.1066  -0.0793  -0.0634  -0.0596  -0.0503  -0.0371
     0.0411   0.0510   0.0567   0.0836   0.1414   0.1714   0.2101   0.2295
     0.2529   0.2721   0.3034   0.3336   0.3600   0.3690   0.3737   0.3836
     0.3898   0.4108   0.4476   0.4808   0.4983   0.5993   0.6873   0.7024
     0.7455   0.7776   0.8127   0.8259   0.8417   0.8563   0.8734   0.8843
[...]
     atom    8 type  1   force =     0.00466915   -0.00180246   -0.09979244
     atom    9 type  1   force =    -0.00052085   -0.00200896   -0.10390448
     atom   10 type  1   force =    -0.00056167    0.00150549   -0.01223690
     atom   11 type  1   force =     0.00066332    0.00073954   -0.00762696
     atom   12 type  1   force =     0.00024241    0.00051667   -0.01001920
     atom   13 type  1   force =     0.00206554   -0.00157282   -0.01208171
     atom   14 type  1   force =    -0.00182208   -0.00067612   -0.01051941
     atom   15 type  1   force =    -0.00056533   -0.00074034   -0.01392126
     atom   16 type  1   force =    -0.00108092   -0.00040018   -0.01740612
     atom   17 type  1   force =     0.00228358   -0.00074883   -0.01123142
     atom   18 type  1   force =    -0.00163218    0.00214049   -0.01570305
     atom   19 type  1   force =     0.00148462    0.00718551    0.00870957
     atom   20 type  1   force =    -0.00381607    0.00880502    0.00083897
     atom   21 type  1   force =     0.00223409    0.00136444    0.01472799
     atom   22 type  1   force =     0.00127313   -0.00018739    0.02088786
     atom   23 type  1   force =    -0.00007004    0.00124688    0.00887845
     atom   24 type  1   force =    -0.00128608    0.00123867    0.01633641
     atom   25 type  1   force =    -0.00321304   -0.00495082   -0.00263510
     atom   26 type  1   force =     0.00114066   -0.00657040    0.00106761
     atom   27 type  1   force =     0.00266016   -0.00579867    0.00292518
     atom   28 type  1   force =     0.05805482   -0.00140451    0.07263426
     atom   29 type  1   force =    -0.05244629    0.00023913    0.06855492
     atom   30 type  1   force =    -0.00135775    0.00511231    0.08200498
     atom   31 type  1   force =     0.00665441   -0.03825133    0.14368656
     atom   32 type  1   force =    -0.00144780   -0.00374665    0.08679306
     atom   33 type  1   force =    -0.00479750   -0.00119313    0.11321878
     atom   34 type  1   force =    -0.00117195   -0.00484543    0.11271550
     atom   35 type  1   force =     0.00385034    0.04522320    0.14184441
     atom   36 type  1   force =    -0.00192355    0.00384233    0.11349922
     atom   37 type  2   force =     0.03042717   -0.00907832    0.45092858
     atom   38 type  3   force =    -0.04516529   -0.00060678   -2.72440173
     atom   39 type  4   force =     0.00011411   -0.00042628   -0.02191013
     The ionic contribution  to forces
     atom    1 type  1   force =    -0.00586189    0.00743098 -111.12450943
     atom    2 type  1   force =     0.00396393    0.00810545 -111.12827123
     atom    3 type  1   force =     0.00189795    0.00288242 -111.11663341
     atom    4 type  1   force =    -0.00036355    0.00281994 -111.11301450
     atom    5 type  1   force =    -0.00156645   -0.00285745 -111.11682539
     atom    6 type  1   force =     0.00193000   -0.00479561 -111.11608028
     atom    7 type  1   force =    -0.00590893   -0.00324504 -111.11995782
     atom    8 type  1   force =    -0.00149539   -0.00576898 -111.13485946
     atom    9 type  1   force =     0.00740433   -0.00457173 -111.12297794
     atom   10 type  1   force =    -0.05684440    0.00000723  -40.15424534
     atom   11 type  1   force =     0.04310986   -0.00559454  -40.18049620
     atom   12 type  1   force =     0.01373226   -0.00718602  -40.06891842
     atom   13 type  1   force =    -0.01059116    0.07035715  -40.09760021
     atom   14 type  1   force =     0.02555162    0.03117564  -40.06776307
     atom   15 type  1   force =    -0.01495956    0.02146873  -40.04573776
     atom   16 type  1   force =    -0.02610577   -0.01638246  -40.04273023
     atom   17 type  1   force =    -0.00198587   -0.06405323  -40.09976200
     atom   18 type  1   force =     0.02809228   -0.02979230  -40.04709241
     atom   19 type  1   force =    -0.30292466    0.37939225   31.24365912
     atom   20 type  1   force =     0.19174040    0.42721706   31.06378100
     atom   21 type  1   force =     0.11092091    0.13829077   31.59428783
     atom   22 type  1   force =    -0.01292281    0.12466624   31.76939782
     atom   23 type  1   force =    -0.07709150   -0.13894128   31.62062743
     atom   24 type  1   force =     0.08999986   -0.22128233   31.65032329
     atom   25 type  1   force =    -0.29504402   -0.14929229   31.47672635
     atom   26 type  1   force =    -0.06336846   -0.32399657   30.65030179
     atom   27 type  1   force =     0.35876520   -0.23969767   31.32352846
     atom   28 type  1   force =    -4.46074472    0.16357884   99.11216624
     atom   29 type  1   force =     3.26941824   -0.44292771   98.51932651
     atom   30 type  1   force =     1.09420828   -0.59787894  103.61936745
     atom   31 type  1   force =    -0.25878373    3.02164194  102.84238246
     atom   32 type  1   force =     0.77304238    1.74628022  103.62271712
     atom   33 type  1   force =    -0.50675750    0.67664412  104.31558720
     atom   34 type  1   force =    -0.83873230   -0.57872970  104.32565120
     atom   35 type  1   force =    -0.01750616   -3.05754141  102.61456891
     atom   36 type  1   force =     0.86047271   -0.90352588  104.28405147
     atom   37 type  2   force =    -0.30523212   -0.11601910   50.95209230
     atom   38 type  3   force =    -0.02212185   -0.05951564   89.32673193
     atom   39 type  4   force =     0.41266257    0.15163691   14.97019922
     The local contribution  to forces
     atom    1 type  1   force =     0.00518168   -0.00827304  111.22853179
     atom    2 type  1   force =    -0.00098744   -0.01044873  111.23564166
     atom    3 type  1   force =    -0.00402899   -0.00324824  111.21771551
     atom    4 type  1   force =    -0.00182476   -0.00239170  111.21695308
     atom    5 type  1   force =     0.00064290    0.00351289  111.22102154
     atom    6 type  1   force =     0.00065611    0.00190021  111.22210316
     atom    7 type  1   force =     0.00985602    0.00323598  111.22477764
     atom    8 type  1   force =    -0.00353212    0.00834114  111.23874570
     atom    9 type  1   force =    -0.00659765    0.00760413  111.22990246
     atom   10 type  1   force =     0.05622530   -0.00319466   40.14534305
     atom   11 type  1   force =    -0.04237817    0.00469862   40.16650108
     atom   12 type  1   force =    -0.01374673    0.00656369   40.05867395
     atom   13 type  1   force =     0.00771105   -0.06751873   40.09192199
     atom   14 type  1   force =    -0.02407474   -0.02943904   40.05764271
     atom   15 type  1   force =     0.01649240   -0.01940211   40.03760917
     atom   16 type  1   force =     0.02708004    0.01792654   40.03949174
     atom   17 type  1   force =    -0.00111593    0.06365295   40.09309174
     atom   18 type  1   force =    -0.02589375    0.02746284   40.04219781
     atom   19 type  1   force =     0.30226071   -0.38375697  -31.23566848
     atom   20 type  1   force =    -0.19007195   -0.43345142  -31.05036430
     atom   21 type  1   force =    -0.11207204   -0.13978445  -31.58828964
     atom   22 type  1   force =     0.01035437   -0.12621373  -31.76524904
     atom   23 type  1   force =     0.07631417    0.13662347  -31.60777924
     atom   24 type  1   force =    -0.08688418    0.21950729  -31.64594908
     atom   25 type  1   force =     0.29782646    0.15392181  -31.45983013
     atom   26 type  1   force =     0.06278215    0.33096784  -30.63468497
     atom   27 type  1   force =    -0.36213226    0.24300653  -31.31357624
     atom   28 type  1   force =     4.38426546   -0.16271524  -99.18258398
     atom   29 type  1   force =    -3.21273185    0.43854081  -98.57501042
     atom   30 type  1   force =    -1.07923528    0.58709363 -103.70821144
     atom   31 type  1   force =     0.24749922   -2.97134149 -102.99471956
     atom   32 type  1   force =    -0.76830394   -1.72668933 -103.71807547
     atom   33 type  1   force =     0.51305240   -0.67266887 -104.43868668
     atom   34 type  1   force =     0.83860303    0.58284506 -104.44573516
     atom   35 type  1   force =     0.01324882    3.00301328 -102.76183726
     atom   36 type  1   force =    -0.85604150    0.89351267 -104.40643768
     atom   37 type  2   force =     0.27533568    0.12210521  -51.39722630
     atom   38 type  3   force =     0.06646740    0.05937994  -86.62261820
     atom   39 type  4   force =    -0.41183250   -0.15288339  -14.94908098
     The core correction contribution to forces
     atom    1 type  1   force =    -0.00015639   -0.00018708    0.00990466
     atom    2 type  1   force =     0.00005387   -0.00038741    0.01007188
     atom    3 type  1   force =     0.00010967    0.00002141    0.01004005
     atom    4 type  1   force =     0.00005132   -0.00001781    0.01014851
     atom    5 type  1   force =     0.00011766    0.00009476    0.01018531
     atom    6 type  1   force =    -0.00009303   -0.00008248    0.00997988
     atom    7 type  1   force =     0.00012258    0.00010524    0.01023763
     atom    8 type  1   force =    -0.00016049    0.00043090    0.00995889
     atom    9 type  1   force =    -0.00010507    0.00010049    0.01029430
     atom   10 type  1   force =     0.00012385    0.00000200   -0.00190783
     atom   11 type  1   force =     0.00003574    0.00018761   -0.00164293
     atom   12 type  1   force =    -0.00014205    0.00019199   -0.00174886
     atom   13 type  1   force =    -0.00039417    0.00016253   -0.00167365
     atom   14 type  1   force =     0.00018029   -0.00010827   -0.00198773
     atom   15 type  1   force =     0.00025383    0.00008154   -0.00166766
     atom   16 type  1   force =     0.00003596   -0.00001772   -0.00178326
     atom   17 type  1   force =    -0.00018555    0.00008520   -0.00200528
     atom   18 type  1   force =     0.00007304   -0.00038169   -0.00167616
     atom   19 type  1   force =    -0.00016218    0.00064814    0.00071329
     atom   20 type  1   force =    -0.00009306    0.00067535    0.00035584
     atom   21 type  1   force =     0.00041467    0.00010693    0.00190430
     atom   22 type  1   force =    -0.00017403    0.00014709    0.00211221
     atom   23 type  1   force =    -0.00030720    0.00063578    0.00135086
     atom   24 type  1   force =     0.00040292   -0.00043239    0.00138102
     atom   25 type  1   force =     0.00021275   -0.00044174    0.00137207
     atom   26 type  1   force =    -0.00103732   -0.00124562    0.00091238
     atom   27 type  1   force =     0.00053276   -0.00037529    0.00135014
     atom   28 type  1   force =     0.01168200   -0.00089749   -0.00521995
     atom   29 type  1   force =    -0.00197339    0.00584224   -0.00029327
     atom   30 type  1   force =    -0.00922940    0.00506256   -0.00609382
     atom   31 type  1   force =     0.00069888   -0.00645145   -0.00679943
     atom   32 type  1   force =    -0.00009462   -0.01106483   -0.00540972
     atom   33 type  1   force =    -0.00040501   -0.00187123   -0.00971273
     atom   34 type  1   force =     0.00087895    0.00120356   -0.00966259
     atom   35 type  1   force =    -0.00050505    0.00644942   -0.00701405
     atom   36 type  1   force =    -0.00060180    0.00252982   -0.00884044
     atom   37 type  2   force =    -0.00056371    0.00010267   -0.00261109
     atom   38 type  3   force =     0.00032480    0.00000196    0.01971772
     atom   39 type  4   force =     0.00000000    0.00000000    0.00000000
     The Hubbard contrib.    to forces
     atom    1 type  1   force =     0.00000000    0.00000000    0.00000000
     atom    2 type  1   force =     0.00000000    0.00000000    0.00000000
     atom    3 type  1   force =     0.00000000    0.00000000    0.00000000
     atom    4 type  1   force =     0.00000000    0.00000000    0.00000000
     atom    5 type  1   force =     0.00000000    0.00000000    0.00000000
     atom    6 type  1   force =     0.00000000    0.00000000    0.00000000
     atom    7 type  1   force =     0.00000000    0.00000000    0.00000000
     atom    8 type  1   force =     0.00000000    0.00000000    0.00000000
     atom    9 type  1   force =     0.00000000    0.00000000    0.00000000
     atom   10 type  1   force =     0.00000000    0.00000000    0.00000000
     atom   11 type  1   force =     0.00000000    0.00000000    0.00000000
     atom   12 type  1   force =     0.00000000    0.00000000    0.00000000
     atom   13 type  1   force =     0.00000000    0.00000000    0.00000000
     atom   14 type  1   force =     0.00000000    0.00000000    0.00000000
     atom   15 type  1   force =     0.00000000    0.00000000    0.00000000
     atom   16 type  1   force =     0.00000000    0.00000000    0.00000000
     atom   17 type  1   force =     0.00000000    0.00000000    0.00000000
     atom   18 type  1   force =     0.00000000    0.00000000    0.00000000
     atom   19 type  1   force =     0.00000000    0.00000000    0.00000000
     atom   20 type  1   force =     0.00000000    0.00000000    0.00000000
     atom   21 type  1   force =     0.00000000    0.00000000    0.00000000
     atom   22 type  1   force =     0.00000000    0.00000000    0.00000000
     atom   23 type  1   force =     0.00000000    0.00000000    0.00000000
     atom   24 type  1   force =     0.00000000    0.00000000    0.00000000
     atom   25 type  1   force =     0.00000000    0.00000000    0.00000000
     atom   26 type  1   force =     0.00000000    0.00000000    0.00000000
     atom   27 type  1   force =     0.00000000    0.00000000    0.00000000
     atom   28 type  1   force =     0.00000000    0.00000000    0.00000000
     atom   29 type  1   force =     0.00000000    0.00000000    0.00000000
     atom   30 type  1   force =     0.00000000    0.00000000    0.00000000
     atom   31 type  1   force =     0.00000000    0.00000000    0.00000000
     atom   32 type  1   force =     0.00000000    0.00000000    0.00000000
     atom   33 type  1   force =     0.00000000    0.00000000    0.00000000
     atom   34 type  1   force =     0.00000000    0.00000000    0.00000000
     atom   35 type  1   force =     0.00000000    0.00000000    0.00000000
     atom   36 type  1   force =     0.00000000    0.00000000    0.00000000
     atom   37 type  2   force =     0.00000000    0.00000000    0.00000000
     atom   38 type  3   force =     0.00000000    0.00000000    0.00000000
     atom   39 type  4   force =     0.00000000    0.00000000    0.00000000
     The SCF correction term to forces
     atom    1 type  1   force =     0.00000000    0.00000000    0.00000000
     atom    2 type  1   force =     0.00000000   -0.00000000    0.00000000
     atom    3 type  1   force =    -0.00000000   -0.00000000    0.00000000
     atom    4 type  1   force =    -0.00000000    0.00000000    0.00000000
     atom    5 type  1   force =    -0.00000000    0.00000000   -0.00000000
     atom    6 type  1   force =     0.00000000    0.00000000    0.00000000
     atom    7 type  1   force =    -0.00000000   -0.00000000    0.00000000
     atom    8 type  1   force =     0.00000000    0.00000000    0.00000000
     atom    9 type  1   force =     0.00000000   -0.00000000    0.00000000
     atom   10 type  1   force =    -0.00000000   -0.00000000    0.00000000
     atom   11 type  1   force =     0.00000000    0.00000000   -0.00000000
     atom   12 type  1   force =    -0.00000000   -0.00000000    0.00000000
     atom   13 type  1   force =     0.00000000   -0.00000000    0.00000000
     atom   14 type  1   force =    -0.00000000   -0.00000000    0.00000000
     atom   15 type  1   force =    -0.00000000   -0.00000000    0.00000000
     atom   16 type  1   force =    -0.00000000    0.00000000    0.00000000
     atom   17 type  1   force =     0.00000000    0.00000000    0.00000000
     atom   18 type  1   force =     0.00000000    0.00000000   -0.00000000
     atom   19 type  1   force =    -0.00000000   -0.00000000    0.00000000
     atom   20 type  1   force =    -0.00000000   -0.00000000    0.00000000
     atom   21 type  1   force =     0.00000000   -0.00000000    0.00000000
     atom   22 type  1   force =     0.00000000    0.00000000    0.00000000
     atom   23 type  1   force =    -0.00000000    0.00000000    0.00000000
     atom   24 type  1   force =    -0.00000000    0.00000000    0.00000000
     atom   25 type  1   force =     0.00000000    0.00000000    0.00000000
     atom   26 type  1   force =    -0.00000000    0.00000000    0.00000000
     atom   27 type  1   force =     0.00000000    0.00000000    0.00000000
     atom   28 type  1   force =     0.00000000   -0.00000000    0.00000000
     atom   29 type  1   force =    -0.00000000   -0.00000000    0.00000000
     atom   30 type  1   force =     0.00000000   -0.00000000    0.00000000
     atom   31 type  1   force =    -0.00000000   -0.00000000    0.00000000
     atom   32 type  1   force =    -0.00000000   -0.00000000    0.00000000
     atom   33 type  1   force =     0.00000000   -0.00000000    0.00000000
     atom   34 type  1   force =     0.00000000    0.00000000    0.00000000
     atom   35 type  1   force =    -0.00000000    0.00000000    0.00000000
     atom   36 type  1   force =    -0.00000000    0.00000000    0.00000000
     atom   37 type  2   force =    -0.00001363    0.00001245   -0.00014587
     atom   38 type  3   force =    -0.00000680    0.00000462   -0.00016815
     atom   39 type  4   force =    -0.00004063   -0.00001607    0.00000482

     Total force =     0.004775     Total SCF correction =     0.000228

     Writing all to output data dir ./pwscf.save/

     init_run     :     18.76s CPU     19.32s WALL (       1 calls)
     electrons    :    831.77s CPU    850.50s WALL (       1 calls)
     forces       :      2.96s CPU      3.03s WALL (       1 calls)

     Called by init_run:
     wfcinit      :     15.51s CPU     15.94s WALL (       1 calls)
     potinit      :      2.15s CPU      2.25s WALL (       1 calls)
     hinit0       :      0.85s CPU      0.87s WALL (       1 calls)

     Called by electrons:
     c_bands      :    683.45s CPU    694.18s WALL (      46 calls)
     sum_band     :    113.02s CPU    117.49s WALL (      46 calls)
     v_of_rho     :      8.13s CPU      8.56s WALL (      47 calls)
     newd         :      2.55s CPU      2.61s WALL (      47 calls)
     PAW_pot      :     11.77s CPU     11.94s WALL (      47 calls)
     mix_rho      :     14.20s CPU     16.95s WALL (      46 calls)
     vdW_kernel   :      1.10s CPU      1.11s WALL (       1 calls)

     Called by c_bands:
     init_us_2    :      5.97s CPU      6.31s WALL (    2444 calls)
     init_us_2:cp :      5.96s CPU      6.30s WALL (    2444 calls)
     cegterg      :    661.88s CPU    672.01s WALL (    1196 calls)

     Called by *egterg:
     cdiaghg      :    186.41s CPU    190.14s WALL (    4042 calls)
     h_psi        :    342.29s CPU    347.53s WALL (    4068 calls)
     s_psi        :     25.84s CPU     26.15s WALL (    4068 calls)
     g_psi        :      0.52s CPU      0.53s WALL (    2846 calls)

     Called by h_psi:
     h_psi:calbec :     48.59s CPU     49.90s WALL (    4068 calls)
     vloc_psi     :    265.28s CPU    268.84s WALL (    4068 calls)
     add_vuspsi   :     27.08s CPU     27.42s WALL (    4068 calls)

     General routines
     calbec       :     75.44s CPU     77.61s WALL (    5368 calls)
     fft          :      7.10s CPU      7.53s WALL (    4260 calls)
     ffts         :      8.68s CPU     10.77s WALL (   16381 calls)
     fftw         :    323.78s CPU    330.08s WALL ( 1241586 calls)
     interpolate  :      0.52s CPU      0.53s WALL (      94 calls)

     Parallel routines

     PWSCF        :  14m26.52s CPU  14m50.39s WALL


   This run was terminated on:  14:17:21   6Dec2025            

=------------------------------------------------------------------------------=
   JOB DONE.
=------------------------------------------------------------------------------=
