
     Program PWSCF v.7.1 starts on  7Apr2026 at  4: 8:27 

     This program is part of the open-source Quantum ESPRESSO suite
     for quantum simulation of materials; please cite
         "P. Giannozzi et al., J. Phys.:Condens. Matter 21 395502 (2009);
         "P. Giannozzi et al., J. Phys.:Condens. Matter 29 465901 (2017);
         "P. Giannozzi et al., J. Chem. Phys. 152 154105 (2020);
          URL http://www.quantum-espresso.org", 
     in publications or presentations arising from this work. More details at
     http://www.quantum-espresso.org/quote

     Parallel version (MPI), running on   128 processors

     MPI processes distributed on     4 nodes
     54265 MiB available memory on the printing compute node when the environment starts

     Reading input from espresso.pwi
Warning: card &CELL ignored
Warning: card / ignored
Warning: card &FCP ignored
Warning: card / ignored
Warning: card &RISM ignored
Warning: card / ignored

     Current dimensions of program PWSCF are:
     Max number of different atomic species (ntypx) = 10
     Max number of k-points (npk) =  40000
     Max angular momentum in pseudopotentials (lmaxx) =  4
     file Pt.pbe-n-kjpaw_psl.1.0.0.UPF: wavefunction(s)  6S 5D renormalized
     file C.pbe-n-kjpaw_psl.1.0.0.UPF: wavefunction(s)  2S 2P renormalized
     file H.pbe-kjpaw_psl.1.0.0.UPF: wavefunction(s)  1S renormalized
     file N.pbe-n-kjpaw_psl.1.0.0.UPF: wavefunction(s)  2S renormalized
     file O.pbe-nl-kjpaw_psl.1.0.0.UPF: wavefunction(s)  2S 2P renormalized

     **************************************************************************
     Initializing libbeef V0.1.2 with the BEEF-vdW functional.
     Citation: Wellendorff et al., PRB 85, 235149 (2012).
     **************************************************************************


     IMPORTANT: XC functional enforced from input :
     Exchange-correlation= BEEF-VDW
                           (   1   4  43  14   2   0   0)
     Any further DFT definition will be discarded
     Please, verify this is what you really want


     K-points division:     npool     =       2
     R & G space division:  proc/nbgrp/npool/nimage =      64
     Subspace diagonalization in iterative solution of the eigenvalue problem:
     one sub-group per band group will be used
     scalapack distributed-memory algorithm (size of sub-group:  2*  2 procs)


     Parallelization info
     --------------------
     sticks:   dense  smooth     PW     G-vecs:    dense   smooth      PW
     Min         113      55     14                22051     7511    1052
     Max         114      56     15                22070     7520    1075
     Sum        7267    3559    955              1411785   481013   68429

     Using Slab Decomposition



     bravais-lattice index     =            0
     lattice parameter (alat)  =      16.0349  a.u.
     unit-cell volume          =   10068.6169 (a.u.)^3
     number of atoms/cell      =           40
     number of atomic types    =            5
     number of electrons       =       376.00
     number of Kohn-Sham states=          226
     kinetic-energy cutoff     =      50.0000  Ry
     charge density cutoff     =     410.0000  Ry
     scf convergence threshold =      1.0E-08
     mixing beta               =       0.7000
     number of iterations used =            8  local-TF  mixing
     Exchange-correlation= BEEF-VDW
                           (   1   4  43  14   2   0   0)

     celldm(1)=  16.034858  celldm(2)=   0.000000  celldm(3)=   0.000000
     celldm(4)=   0.000000  celldm(5)=   0.000000  celldm(6)=   0.000000

     crystal axes: (cart. coord. in units of alat)
               a(1) = (   1.000000   0.000000   0.000000 )  
               a(2) = (   0.500000   0.866025   0.000000 )  
               a(3) = (   0.000000   0.000000   2.819966 )  

     reciprocal axes: (cart. coord. in units 2 pi/alat)
               b(1) = (  1.000000 -0.577350  0.000000 )  
               b(2) = (  0.000000  1.154701  0.000000 )  
               b(3) = (  0.000000  0.000000  0.354614 )  


     PseudoPot. # 1 for Pt read from file:
     /users/kbadger1/espresso/pseudo/pslibrary.1.0.0/pbe/PSEUDOPOTENTIALS/Pt.pbe-n-kjpaw_psl.1.0.0.UPF
     MD5 check sum: 2e24a0b5bf98a4ed1a57fa81bca8c143
     Pseudo is Projector augmented-wave + core cor, Zval = 10.0
     Generated using 'atomic' code by A. Dal Corso  v.7.0
     Shape of augmentation charge: PSQ
     Using radial grid of 1277 points,  6 beta functions with: 
                l(1) =   0
                l(2) =   0
                l(3) =   1
                l(4) =   1
                l(5) =   2
                l(6) =   2
     Q(r) pseudized with 0 coefficients 


     PseudoPot. # 2 for C  read from file:
     /users/kbadger1/espresso/pseudo/pslibrary.1.0.0/pbe/PSEUDOPOTENTIALS/C.pbe-n-kjpaw_psl.1.0.0.UPF
     MD5 check sum: 6408e75cdba28732cea38a4db8498ce4
     Pseudo is Projector augmented-wave + core cor, Zval =  4.0
     Generated using 'atomic' code by A. Dal Corso  v.7.0
     Shape of augmentation charge: PSQ
     Using radial grid of 1073 points,  4 beta functions with: 
                l(1) =   0
                l(2) =   0
                l(3) =   1
                l(4) =   1
     Q(r) pseudized with 0 coefficients 


     PseudoPot. # 3 for H  read from file:
     /users/kbadger1/espresso/pseudo/pslibrary.1.0.0/pbe/PSEUDOPOTENTIALS/H.pbe-kjpaw_psl.1.0.0.UPF
     MD5 check sum: fe4c6fa958fa6d3815bf5d2419cbf1df
     Pseudo is Projector augmented-wave, Zval =  1.0
     Generated using 'atomic' code by A. Dal Corso  v.7.0
     Shape of augmentation charge: PSQ
     Using radial grid of  929 points,  2 beta functions with: 
                l(1) =   0
                l(2) =   0
     Q(r) pseudized with 0 coefficients 


     PseudoPot. # 4 for N  read from file:
     /users/kbadger1/espresso/pseudo/pslibrary.1.0.0/pbe/PSEUDOPOTENTIALS/N.pbe-n-kjpaw_psl.1.0.0.UPF
     MD5 check sum: 09db68e9dc97ca570990b9c73992d799
     Pseudo is Projector augmented-wave + core cor, Zval =  5.0
     Generated using 'atomic' code by A. Dal Corso  v.7.0
     Shape of augmentation charge: PSQ
     Using radial grid of 1085 points,  4 beta functions with: 
                l(1) =   0
                l(2) =   0
                l(3) =   1
                l(4) =   1
     Q(r) pseudized with 0 coefficients 


     PseudoPot. # 5 for O  read from file:
     /users/kbadger1/espresso/pseudo/pslibrary.1.0.0/pbe/PSEUDOPOTENTIALS/O.pbe-nl-kjpaw_psl.1.0.0.UPF
     MD5 check sum: f0439fab3598ca4e468f064226030408
     Pseudo is Projector augmented-wave + core cor, Zval =  6.0
     Generated using 'atomic' code by A. Dal Corso  v.7.0
     Shape of augmentation charge: PSQ
     Using radial grid of 1095 points,  4 beta functions with: 
                l(1) =   0
                l(2) =   0
                l(3) =   1
                l(4) =   1
     Q(r) pseudized with 0 coefficients 


     atomic species   valence    mass     pseudopotential
        Pt            10.00   195.08400     Pt( 1.00)
        C              4.00    12.01100     C ( 1.00)
        H              1.00     1.00800     H ( 1.00)
        N              5.00    14.00700     N ( 1.00)
        O              6.00    15.99900     O ( 1.00)

     No symmetry found



   Cartesian axes

     site n.     atom                  positions (alat units)
         1           Pt  tau(   1) = (   0.0000000   0.0000000   1.0017346  )
         2           Pt  tau(   2) = (   0.3333333   0.0000000   1.0017346  )
         3           Pt  tau(   3) = (   0.6666667   0.0000000   1.0017346  )
         4           Pt  tau(   4) = (   0.1666667   0.2886751   1.0017346  )
         5           Pt  tau(   5) = (   0.5000000   0.2886751   1.0017346  )
         6           Pt  tau(   6) = (   0.8333333   0.2886751   1.0017346  )
         7           Pt  tau(   7) = (   0.3333333   0.5773503   1.0017346  )
         8           Pt  tau(   8) = (   0.6666667   0.5773503   1.0017346  )
         9           Pt  tau(   9) = (   1.0000000   0.5773503   1.0017346  )
        10           Pt  tau(  10) = (   0.1666667   0.0962250   1.2739001  )
        11           Pt  tau(  11) = (   0.5000000   0.0962250   1.2739001  )
        12           Pt  tau(  12) = (   0.8333333   0.0962250   1.2739001  )
        13           Pt  tau(  13) = (   0.3333333   0.3849002   1.2739001  )
        14           Pt  tau(  14) = (   0.6666667   0.3849002   1.2739001  )
        15           Pt  tau(  15) = (   1.0000000   0.3849002   1.2739001  )
        16           Pt  tau(  16) = (   0.5000000   0.6735753   1.2739001  )
        17           Pt  tau(  17) = (   0.8333333   0.6735753   1.2739001  )
        18           Pt  tau(  18) = (   1.1666667   0.6735753   1.2739001  )
        19           Pt  tau(  19) = (   0.0012228   0.1906169   1.5476156  )
        20           Pt  tau(  20) = (   0.3341083   0.1926157   1.5432372  )
        21           Pt  tau(  21) = (   0.6666417   0.1904364   1.5468572  )
        22           Pt  tau(  22) = (   0.1677594   0.4792002   1.5448128  )
        23           Pt  tau(  23) = (   0.4993189   0.4782037   1.5451683  )
        24           Pt  tau(  24) = (   0.8341625   0.4797387   1.5408190  )
        25           Pt  tau(  25) = (   0.3334334   0.7741160   1.5545802  )
        26           Pt  tau(  26) = (   0.6654919   0.7692895   1.5454530  )
        27           Pt  tau(  27) = (   1.0031987   0.7695645   1.5440741  )
        28           Pt  tau(  28) = (   0.0000527  -0.0017109   1.8498604  )
        29           Pt  tau(  29) = (   0.3292989  -0.0100254   1.8141504  )
        30           Pt  tau(  30) = (   0.6775299  -0.0080967   1.8456287  )
        31           Pt  tau(  31) = (   0.1671888   0.2924554   1.8325627  )
        32           Pt  tau(  32) = (   0.5023895   0.2979917   1.8291803  )
        33           Pt  tau(  33) = (   0.8333165   0.2900871   1.8162571  )
        34           Pt  tau(  34) = (   0.3350800   0.5788368   1.8181061  )
        35           Pt  tau(  35) = (   0.6671816   0.5714749   1.8138117  )
        36           Pt  tau(  36) = (   1.0014352   0.5725440   1.8143280  )
        37           C   tau(  37) = (   0.1730470   0.1028044   1.9656559  )
        38           H   tau(  38) = (   0.3040550   0.1085515   2.0881226  )
        39           N   tau(  39) = (   0.4940184   0.0999519   1.9633024  )
        40           O   tau(  40) = (   0.4415282   0.1044618   2.1097606  )

     number of k points=    13  Marzari-Vanderbilt smearing, width (Ry)=  0.0200
                       cart. coord. in units 2pi/alat
        k(    1) = (   0.0000000   0.0000000   0.0000000), wk =   0.0800000
        k(    2) = (   0.0000000   0.2309401   0.0000000), wk =   0.1600000
        k(    3) = (   0.0000000   0.4618802   0.0000000), wk =   0.1600000
        k(    4) = (   0.2000000  -0.1154701   0.0000000), wk =   0.1600000
        k(    5) = (   0.2000000   0.1154701   0.0000000), wk =   0.1600000
        k(    6) = (   0.2000000   0.3464102   0.0000000), wk =   0.1600000
        k(    7) = (   0.2000000  -0.5773503   0.0000000), wk =   0.1600000
        k(    8) = (   0.2000000  -0.3464102   0.0000000), wk =   0.1600000
        k(    9) = (   0.4000000  -0.2309401   0.0000000), wk =   0.1600000
        k(   10) = (   0.4000000  -0.0000000   0.0000000), wk =   0.1600000
        k(   11) = (   0.4000000   0.2309401   0.0000000), wk =   0.1600000
        k(   12) = (   0.4000000  -0.6928203   0.0000000), wk =   0.1600000
        k(   13) = (   0.4000000  -0.4618802   0.0000000), wk =   0.1600000

     Dense  grid:  1411785 G-vectors     FFT dimensions: ( 108, 108, 300)

     Smooth grid:   481013 G-vectors     FFT dimensions: (  75,  75, 216)

     Estimated max dynamical RAM per process >     108.91 MB

     Estimated total dynamical RAM >      13.28 GB

     Initial potential from superposition of free atoms

     starting charge     375.9938, renormalised to     376.0000

     negative rho (up, down):  3.143E-03 0.000E+00


     %%%%%%%%%%%%%%%%%%%%%%%%%%%%%%%%%%%%%%%%%%%%%%%%%%%%%%%%%%%%%%%%%%%%%%%%
     %                                                                      %
     % You are using vdW-DF, which was implemented by the Thonhauser group. %
     % Please cite the following two papers that made this development      %
     % possible and the two reviews that describe the various versions:     %
     %                                                                      %
     %   T. Thonhauser et al., PRL 115, 136402 (2015).                      %
     %   T. Thonhauser et al., PRB 76, 125112 (2007).                       %
     %   K. Berland et al., Rep. Prog. Phys. 78, 066501 (2015).             %
     %   D.C. Langreth et al., J. Phys.: Condens. Matter 21, 084203 (2009). %
     %                                                                      %
     % If you are calculating stress with vdW-DF, please also cite:         %
     %                                                                      %
     %   R. Sabatini et al., J. Phys.: Condens. Matter 24, 424209 (2012).   %
     %                                                                      %
     %%%%%%%%%%%%%%%%%%%%%%%%%%%%%%%%%%%%%%%%%%%%%%%%%%%%%%%%%%%%%%%%%%%%%%%%

     %%%%%%%%%%%%%%%%%%%%%%%%%%%%%%%%%%%%%%%%%%%%%%%%%%%%%%%%%%%%%%%%%%%%%%%%
     %                                                                      %
     %  vdW-DF NEWS:                                                        %
     %                                                                      %
     %  * vdW-DF3 is now available. DOI: 10.1021/acs.jctc.0c00471           %
     %    use with input_dft = 'vdW-DF3-opt1' or 'vdW-DF3-opt2'             %
     %                                                                      %
     %  * Unscreened and range-separated vdW-DF hybrid functionals          %
     %    DOI: 10.1063/1.4986522 and 10.1088/1361-648X/ac2ad2               %
     %    use with input_dft = 'vdW-DF-cx0' (etc) and 'vdW-DF-ahcx'         %
     %                                                                      %
     %%%%%%%%%%%%%%%%%%%%%%%%%%%%%%%%%%%%%%%%%%%%%%%%%%%%%%%%%%%%%%%%%%%%%%%%


     Starting wfcs are  337 randomized atomic wfcs
     Checking if some PAW data can be deallocated... 

     total cpu time spent up to now is        9.3 secs

     per-process dynamical memory:   148.0 Mb

     Self-consistent Calculation

     iteration #  1     ecut=    50.00 Ry     beta= 0.70
     Davidson diagonalization with overlap
     ethr =  1.00E-02,  avg # of iterations =  2.0

     Threshold (ethr) on eigenvalues was too large:
     Diagonalizing with lowered threshold

     Davidson diagonalization with overlap
     ethr =  7.94E-04,  avg # of iterations =  2.8

     negative rho (up, down):  1.344E-02 0.000E+00

     total cpu time spent up to now is       30.1 secs

     total energy              =  -27845.14250402 Ry
     estimated scf accuracy    <       3.19311093 Ry

     iteration #  2     ecut=    50.00 Ry     beta= 0.70
     Davidson diagonalization with overlap
     ethr =  8.49E-04,  avg # of iterations =  2.0

     negative rho (up, down):  1.208E-02 0.000E+00

     total cpu time spent up to now is       39.8 secs

     total energy              =  -27845.48731405 Ry
     estimated scf accuracy    <       1.56235344 Ry

     iteration #  3     ecut=    50.00 Ry     beta= 0.70
     Davidson diagonalization with overlap
     ethr =  4.16E-04,  avg # of iterations =  1.3

     negative rho (up, down):  1.069E-02 0.000E+00

     total cpu time spent up to now is       48.9 secs

     total energy              =  -27845.57177662 Ry
     estimated scf accuracy    <       0.76673179 Ry

     iteration #  4     ecut=    50.00 Ry     beta= 0.70
     Davidson diagonalization with overlap
     ethr =  2.04E-04,  avg # of iterations =  2.4

     negative rho (up, down):  7.850E-03 0.000E+00

     total cpu time spent up to now is       58.6 secs

     total energy              =  -27845.60378870 Ry
     estimated scf accuracy    <       0.04282211 Ry

     iteration #  5     ecut=    50.00 Ry     beta= 0.70
     Davidson diagonalization with overlap
     c_bands:  1 eigenvalues not converged
     c_bands:  2 eigenvalues not converged
     c_bands:  3 eigenvalues not converged
     ethr =  1.14E-05,  avg # of iterations = 17.2

     negative rho (up, down):  5.621E-03 0.000E+00

     total cpu time spent up to now is       85.2 secs

     total energy              =  -27845.64008306 Ry
     estimated scf accuracy    <       0.06499634 Ry

     iteration #  6     ecut=    50.00 Ry     beta= 0.70
     Davidson diagonalization with overlap
     ethr =  1.14E-05,  avg # of iterations =  1.8

     negative rho (up, down):  3.430E-03 0.000E+00

     total cpu time spent up to now is       94.5 secs

     total energy              =  -27845.64139464 Ry
     estimated scf accuracy    <       0.00611727 Ry

     iteration #  7     ecut=    50.00 Ry     beta= 0.70
     Davidson diagonalization with overlap
     c_bands:  1 eigenvalues not converged
     ethr =  1.63E-06,  avg # of iterations =  9.4

     negative rho (up, down):  2.005E-03 0.000E+00

     total cpu time spent up to now is      107.5 secs

     total energy              =  -27845.64181321 Ry
     estimated scf accuracy    <       0.00309736 Ry

     iteration #  8     ecut=    50.00 Ry     beta= 0.70
     Davidson diagonalization with overlap
     ethr =  8.24E-07,  avg # of iterations =  2.0

     negative rho (up, down):  1.614E-03 0.000E+00

     total cpu time spent up to now is      116.5 secs

     total energy              =  -27845.64209997 Ry
     estimated scf accuracy    <       0.00042500 Ry

     iteration #  9     ecut=    50.00 Ry     beta= 0.70
     Davidson diagonalization with overlap
     ethr =  1.13E-07,  avg # of iterations =  5.2

     negative rho (up, down):  1.548E-03 0.000E+00

     total cpu time spent up to now is      132.4 secs

     total energy              =  -27845.64228674 Ry
     estimated scf accuracy    <       0.00014597 Ry

     iteration # 10     ecut=    50.00 Ry     beta= 0.70
     Davidson diagonalization with overlap
     ethr =  3.88E-08,  avg # of iterations =  2.9

     negative rho (up, down):  1.480E-03 0.000E+00

     total cpu time spent up to now is      144.1 secs

     total energy              =  -27845.64231418 Ry
     estimated scf accuracy    <       0.00006688 Ry

     iteration # 11     ecut=    50.00 Ry     beta= 0.70
     Davidson diagonalization with overlap
     ethr =  1.78E-08,  avg # of iterations =  4.0

     negative rho (up, down):  1.465E-03 0.000E+00

     total cpu time spent up to now is      157.5 secs

     total energy              =  -27845.64233095 Ry
     estimated scf accuracy    <       0.00005653 Ry

     iteration # 12     ecut=    50.00 Ry     beta= 0.70
     Davidson diagonalization with overlap
     ethr =  1.50E-08,  avg # of iterations =  1.1

     negative rho (up, down):  1.517E-03 0.000E+00

     total cpu time spent up to now is      165.7 secs

     total energy              =  -27845.64233065 Ry
     estimated scf accuracy    <       0.00004557 Ry

     iteration # 13     ecut=    50.00 Ry     beta= 0.70
     Davidson diagonalization with overlap
     ethr =  1.21E-08,  avg # of iterations =  1.1

     negative rho (up, down):  1.731E-03 0.000E+00

     total cpu time spent up to now is      174.0 secs

     total energy              =  -27845.64233070 Ry
     estimated scf accuracy    <       0.00001852 Ry

     iteration # 14     ecut=    50.00 Ry     beta= 0.70
     Davidson diagonalization with overlap
     ethr =  4.93E-09,  avg # of iterations =  2.0

     negative rho (up, down):  1.928E-03 0.000E+00

     total cpu time spent up to now is      183.7 secs

     total energy              =  -27845.64233258 Ry
     estimated scf accuracy    <       0.00000569 Ry

     iteration # 15     ecut=    50.00 Ry     beta= 0.70
     Davidson diagonalization with overlap
     ethr =  1.51E-09,  avg # of iterations =  3.1

     negative rho (up, down):  2.082E-03 0.000E+00

     total cpu time spent up to now is      193.8 secs

     total energy              =  -27845.64233271 Ry
     estimated scf accuracy    <       0.00000376 Ry

     iteration # 16     ecut=    50.00 Ry     beta= 0.70
     Davidson diagonalization with overlap
     ethr =  1.00E-09,  avg # of iterations =  1.8

     negative rho (up, down):  2.695E-03 0.000E+00

     total cpu time spent up to now is      202.8 secs

     total energy              =  -27845.64232965 Ry
     estimated scf accuracy    <       0.00000217 Ry

     iteration # 17     ecut=    50.00 Ry     beta= 0.70
     Davidson diagonalization with overlap
     ethr =  5.78E-10,  avg # of iterations =  2.0

     negative rho (up, down):  2.831E-03 0.000E+00

     total cpu time spent up to now is      213.0 secs

     total energy              =  -27845.64232911 Ry
     estimated scf accuracy    <       0.00000056 Ry

     iteration # 18     ecut=    50.00 Ry     beta= 0.70
     Davidson diagonalization with overlap
     ethr =  1.48E-10,  avg # of iterations =  4.5

     negative rho (up, down):  2.886E-03 0.000E+00

     total cpu time spent up to now is      227.2 secs

     total energy              =  -27845.64232897 Ry
     estimated scf accuracy    <       0.00000018 Ry

     iteration # 19     ecut=    50.00 Ry     beta= 0.70
     Davidson diagonalization with overlap
     ethr =  4.69E-11,  avg # of iterations =  2.7

     negative rho (up, down):  2.909E-03 0.000E+00

     total cpu time spent up to now is      239.1 secs

     total energy              =  -27845.64232889 Ry
     estimated scf accuracy    <       0.00000016 Ry

     iteration # 20     ecut=    50.00 Ry     beta= 0.70
     Davidson diagonalization with overlap
     ethr =  4.33E-11,  avg # of iterations =  1.1

     negative rho (up, down):  2.977E-03 0.000E+00

     total cpu time spent up to now is      247.5 secs

     total energy              =  -27845.64232853 Ry
     estimated scf accuracy    <       0.00000010 Ry

     iteration # 21     ecut=    50.00 Ry     beta= 0.70
     Davidson diagonalization with overlap
     ethr =  2.70E-11,  avg # of iterations =  2.2

     negative rho (up, down):  3.010E-03 0.000E+00

     total cpu time spent up to now is      256.6 secs

     total energy              =  -27845.64232836 Ry
     estimated scf accuracy    <       0.00000006 Ry

     iteration # 22     ecut=    50.00 Ry     beta= 0.70
     Davidson diagonalization with overlap
     ethr =  1.47E-11,  avg # of iterations =  1.3

     negative rho (up, down):  3.022E-03 0.000E+00

     total cpu time spent up to now is      265.2 secs

     total energy              =  -27845.64232829 Ry
     estimated scf accuracy    <       0.00000001 Ry

     iteration # 23     ecut=    50.00 Ry     beta= 0.70
     Davidson diagonalization with overlap
     ethr =  3.68E-12,  avg # of iterations =  4.2

     negative rho (up, down):  3.020E-03 0.000E+00

     total cpu time spent up to now is      278.4 secs

     End of self-consistent calculation

          k = 0.0000 0.0000 0.0000 ( 59993 PWs)   bands (ev):

   -20.7712 -11.7146  -9.3144  -6.3958  -5.9898  -5.1469  -4.7511  -4.6272
    -3.6920  -3.6541  -3.6494  -3.6370  -3.6187  -3.5902  -3.5526  -3.4862
    -3.2432  -3.2106  -3.1188  -3.0824  -3.0442  -3.0240  -2.8894  -2.8720
    -2.8191  -2.6650  -2.5863  -2.5639  -2.4552  -2.4433  -2.4271  -2.4130
    -2.3948  -2.3725  -2.2992  -2.2732  -2.2703  -2.2440  -2.2376  -2.1787
    -2.1464  -2.1167  -2.0919  -2.0750  -2.0573  -2.0371  -1.8154  -1.6719
    -1.6518  -1.6024  -1.5958  -1.5635  -1.5325  -1.5155  -1.4993  -1.4685
    -1.4457  -1.3511  -1.3461  -1.2976  -1.2820  -1.1679  -1.0902  -0.9213
    -0.8614  -0.8394  -0.7979  -0.7926  -0.7525  -0.7244  -0.6634  -0.6576
    -0.6313  -0.5913  -0.5556  -0.5503  -0.5365  -0.5234  -0.5061  -0.4925
    -0.4857  -0.4731  -0.4567  -0.4333  -0.4294  -0.4190  -0.4091  -0.4000
    -0.3656  -0.3552  -0.3344  -0.2918  -0.1858  -0.1614  -0.1225  -0.1206
    -0.1121  -0.0803  -0.0342  -0.0330  -0.0247   0.0252   0.0395   0.0793
     0.0895   0.1266   0.1296   0.1652   0.2080   0.2329   0.2409   0.2747
     0.3066   0.3304   0.3509   0.3768   0.4930   0.5725   0.6033   0.6635
     0.7059   0.7526   0.7717   0.8393   0.8994   0.9146   0.9468   0.9733
     0.9785   0.9911   0.9938   1.0075   1.0298   1.0378   1.0971   1.2096
     1.2241   1.2639   1.2734   1.2934   1.3086   1.4062   1.4280   1.4704
     1.4898   1.5201   1.5442   1.5604   1.5698   1.5970   1.6269   1.6376
     1.7017   1.7449   1.7523   1.7892   1.8234   1.8455   1.8697   1.8785
     1.9007   1.9292   1.9375   1.9481   1.9830   1.9895   2.0075   2.0099
     2.0258   2.0263   2.0412   2.0531   2.0714   2.1015   2.1457   2.1755
     2.1843   2.2055   2.2156   2.2697   2.2922   2.3048   2.3066   2.3284
     2.3368   2.3663   2.3806   2.3963   2.4145   2.4367   2.4918   2.4940
     2.5765   2.5991   2.6238   2.6662   2.6806   2.7213   2.7329   2.7633
     2.7942   2.9468   3.0320   3.2201   3.3885   3.4822   3.6222   3.6558
     4.1227   4.2573   4.6450   4.8520   5.3999   5.8689   5.9122   6.0820
     6.1255   6.6693   6.8791   7.3814   7.6167   7.6433   7.6632   7.6812
     7.7511   7.7590

          k = 0.0000 0.2309 0.0000 ( 60077 PWs)   bands (ev):

   -20.7712 -11.7136  -9.3087  -6.3906  -5.8528  -5.1236  -4.7914  -4.4834
    -4.0908  -3.7355  -3.7269  -3.5363  -3.4963  -3.4200  -3.3849  -3.3565
    -3.2270  -3.1714  -3.1366  -3.0670  -3.0337  -2.9755  -2.8576  -2.7870
    -2.7609  -2.6668  -2.6200  -2.5350  -2.5288  -2.4883  -2.4495  -2.4386
    -2.3749  -2.3607  -2.3066  -2.3004  -2.2720  -2.2598  -2.2353  -2.2066
    -2.1491  -2.0727  -2.0536  -1.9553  -1.9464  -1.9070  -1.8284  -1.7327
    -1.6862  -1.6815  -1.6524  -1.6248  -1.5885  -1.5626  -1.5258  -1.4299
    -1.4117  -1.3675  -1.3537  -1.3169  -1.2362  -1.1905  -1.1391  -0.9920
    -0.9757  -0.9356  -0.9053  -0.8978  -0.8761  -0.8350  -0.8054  -0.7872
    -0.7463  -0.7023  -0.6824  -0.6451  -0.6091  -0.6014  -0.5638  -0.5546
    -0.5354  -0.4926  -0.4530  -0.4287  -0.4239  -0.3894  -0.3558  -0.3456
    -0.3377  -0.3071  -0.2836  -0.2181  -0.1963  -0.1845  -0.1581  -0.1308
    -0.1198  -0.0875  -0.0591  -0.0527  -0.0192   0.0010   0.0058   0.0195
     0.0327   0.0716   0.0883   0.1338   0.1567   0.2106   0.2286   0.2528
     0.2936   0.3060   0.3437   0.3647   0.3728   0.3870   0.4475   0.5108
     0.5649   0.6530   0.6848   0.7057   0.7427   0.7619   0.7922   0.8320
     0.9486   0.9881   1.0229   1.0431   1.0517   1.0807   1.1080   1.1240
     1.1590   1.1866   1.2054   1.2243   1.2452   1.3125   1.3521   1.4015
     1.4099   1.4265   1.4588   1.5070   1.5230   1.5380   1.5919   1.6131
     1.6503   1.6880   1.7246   1.7518   1.7761   1.7895   1.8338   1.8753
     1.8953   1.9209   1.9425   1.9631   1.9871   1.9963   2.0344   2.0773
     2.0844   2.1502   2.1878   2.2037   2.2397   2.2800   2.2844   2.3080
     2.3175   2.3318   2.3525   2.3886   2.4071   2.4472   2.4688   2.4856
     2.5462   2.5599   2.5725   2.6160   2.6377   2.6713   2.6951   2.7101
     2.7161   2.7405   2.7543   2.7963   2.8513   2.8932   2.9319   2.9876
     3.0192   3.1415   3.1672   3.2649   3.5956   3.6839   3.8924   4.1265
     4.2433   4.3932   4.6419   4.9447   5.5280   5.6354   5.8599   6.1026
     6.3544   6.5044   6.5932   6.7783   7.1495   7.4240   7.6042   7.7323
     7.8470   7.8601

          k = 0.0000 0.4619 0.0000 ( 60136 PWs)   bands (ev):

   -20.7712 -11.7119  -9.2994  -6.3827  -5.4682  -5.0964  -4.9176  -4.6324
    -4.1277  -3.7741  -3.7602  -3.6238  -3.3884  -3.2652  -3.1918  -3.1247
    -3.1003  -3.0718  -2.9956  -2.9437  -2.9068  -2.8531  -2.8064  -2.7870
    -2.7381  -2.6873  -2.6480  -2.6265  -2.6062  -2.5734  -2.5304  -2.5117
    -2.4884  -2.4396  -2.4136  -2.2770  -2.2403  -2.1932  -2.1750  -2.1149
    -2.0841  -2.0243  -1.9962  -1.9690  -1.9405  -1.8733  -1.8002  -1.7576
    -1.7278  -1.6856  -1.6596  -1.6001  -1.5717  -1.5469  -1.5259  -1.5039
    -1.4748  -1.4341  -1.4014  -1.3214  -1.3027  -1.2848  -1.2603  -1.1950
    -1.1381  -1.0959  -1.0678  -1.0415  -1.0109  -0.9636  -0.9394  -0.8794
    -0.8619  -0.8114  -0.7721  -0.7319  -0.7094  -0.6801  -0.6413  -0.6003
    -0.5686  -0.5454  -0.5252  -0.4905  -0.4685  -0.4376  -0.4153  -0.3855
    -0.3703  -0.3491  -0.3387  -0.3195  -0.3032  -0.2708  -0.2386  -0.2178
    -0.1655  -0.1430  -0.1239  -0.1097  -0.0766  -0.0503  -0.0164  -0.0031
     0.0479   0.0788   0.0845   0.1196   0.1388   0.1678   0.2069   0.2597
     0.2892   0.3094   0.3339   0.3884   0.4103   0.4265   0.4549   0.5437
     0.5866   0.6136   0.6407   0.6549   0.6847   0.7065   0.7319   0.7842
     0.7954   0.8137   0.8275   0.8488   0.8634   0.9679   0.9908   1.0081
     1.0345   1.0607   1.0917   1.1139   1.2153   1.2420   1.3088   1.3265
     1.3579   1.3752   1.4427   1.4773   1.5170   1.5568   1.5789   1.6070
     1.6483   1.6644   1.6800   1.6964   1.7259   1.7632   1.7775   1.8391
     1.8721   1.8899   1.9355   1.9495   1.9833   2.0053   2.0973   2.1163
     2.1524   2.2026   2.2439   2.2927   2.3120   2.3307   2.3347   2.3478
     2.3753   2.4338   2.4623   2.5030   2.5267   2.5862   2.6003   2.6081
     2.6342   2.6594   2.7172   2.7536   2.7939   2.8126   2.8576   2.9047
     2.9183   2.9455   2.9883   3.1026   3.1638   3.2076   3.3824   3.5254
     3.7516   3.8527   4.0314   4.0494   4.1721   4.3111   4.4654   4.6181
     4.7880   4.9536   5.0171   5.2257   5.2885   5.4438   5.6147   5.6289
     5.7283   5.9775   6.2457   6.3778   6.6140   6.7415   7.1504   7.3857
     7.6493   7.8382

          k = 0.2000-0.1155 0.0000 ( 60077 PWs)   bands (ev):

   -20.7712 -11.7142  -9.3079  -6.4128  -5.8457  -5.0911  -4.7429  -4.5079
    -4.1228  -3.7521  -3.7110  -3.5285  -3.4903  -3.4232  -3.3739  -3.3520
    -3.3040  -3.1957  -3.1341  -3.0443  -3.0094  -2.9673  -2.8572  -2.7947
    -2.7729  -2.6610  -2.5800  -2.5584  -2.5253  -2.4975  -2.4462  -2.4150
    -2.3842  -2.3664  -2.3250  -2.2900  -2.2768  -2.2550  -2.2282  -2.1893
    -2.1522  -2.0891  -2.0451  -1.9852  -1.9271  -1.8804  -1.8214  -1.7384
    -1.7196  -1.6734  -1.6491  -1.6288  -1.5986  -1.5767  -1.4903  -1.4446
    -1.4108  -1.3586  -1.3060  -1.2885  -1.2472  -1.2256  -1.1163  -1.0107
    -0.9791  -0.9412  -0.9118  -0.8985  -0.8799  -0.8213  -0.8054  -0.7927
    -0.7407  -0.7001  -0.6793  -0.6400  -0.6196  -0.6007  -0.5677  -0.5454
    -0.5048  -0.4728  -0.4608  -0.4447  -0.3951  -0.3635  -0.3478  -0.3407
    -0.3301  -0.3184  -0.2698  -0.2456  -0.2079  -0.1760  -0.1559  -0.1464
    -0.1252  -0.0911  -0.0763  -0.0545  -0.0312  -0.0007   0.0061   0.0344
     0.0552   0.0598   0.0788   0.1120   0.1335   0.1770   0.2256   0.2775
     0.3092   0.3193   0.3541   0.3672   0.3748   0.4104   0.4342   0.5002
     0.5391   0.5962   0.6570   0.7173   0.7470   0.7771   0.8020   0.8344
     0.9124   0.9840   1.0263   1.0390   1.0638   1.0801   1.1051   1.1295
     1.1517   1.1752   1.1866   1.1992   1.2563   1.3071   1.3784   1.3877
     1.4115   1.4319   1.4359   1.4999   1.5335   1.5568   1.5773   1.5866
     1.6341   1.6546   1.6933   1.7347   1.7735   1.7819   1.8256   1.8664
     1.8880   1.9233   1.9356   1.9614   1.9735   2.0102   2.0252   2.0520
     2.0919   2.1345   2.2140   2.2404   2.2546   2.2777   2.2928   2.3193
     2.3387   2.3509   2.3724   2.4003   2.4365   2.4421   2.4705   2.4829
     2.5375   2.5517   2.5857   2.6078   2.6458   2.6660   2.6873   2.7070
     2.7344   2.7458   2.7765   2.8159   2.8686   2.9019   2.9337   3.0266
     3.0521   3.0736   3.1775   3.3253   3.4867   3.7089   3.9257   4.1505
     4.1996   4.4303   4.7540   4.8724   5.4976   5.6114   5.9023   6.1385
     6.3746   6.5321   6.6323   6.8387   7.0587   7.4603   7.5701   7.6390
     7.8325   7.8650

          k = 0.2000 0.1155 0.0000 ( 60077 PWs)   bands (ev):

   -20.7712 -11.7143  -9.3076  -6.4095  -5.8468  -5.0987  -4.7552  -4.4947
    -4.1114  -3.7433  -3.7216  -3.5311  -3.4959  -3.4163  -3.4013  -3.3376
    -3.3008  -3.1852  -3.1289  -3.0539  -3.0051  -2.9744  -2.8729  -2.8112
    -2.7419  -2.6692  -2.5811  -2.5451  -2.5177  -2.4899  -2.4578  -2.4141
    -2.3776  -2.3682  -2.3184  -2.3096  -2.2516  -2.2360  -2.2269  -2.1918
    -2.1694  -2.0748  -2.0473  -1.9949  -1.9450  -1.9099  -1.8105  -1.7254
    -1.7041  -1.6815  -1.6413  -1.6283  -1.5906  -1.5482  -1.5201  -1.4610
    -1.4146  -1.3845  -1.3420  -1.2942  -1.2253  -1.1785  -1.1271  -1.0090
    -0.9690  -0.9315  -0.9188  -0.8929  -0.8601  -0.8478  -0.8084  -0.7842
    -0.7387  -0.7112  -0.6583  -0.6427  -0.6218  -0.6131  -0.5673  -0.5396
    -0.5170  -0.4958  -0.4453  -0.4363  -0.4044  -0.3736  -0.3586  -0.3318
    -0.3228  -0.3174  -0.2839  -0.2452  -0.2184  -0.1723  -0.1540  -0.1333
    -0.1174  -0.0995  -0.0745  -0.0600  -0.0171  -0.0009   0.0228   0.0332
     0.0514   0.0657   0.0777   0.1151   0.1374   0.1645   0.2187   0.2719
     0.2978   0.3254   0.3393   0.3664   0.3738   0.3853   0.4280   0.5284
     0.5610   0.5922   0.6319   0.7080   0.7403   0.7763   0.8017   0.8259
     0.9294   0.9991   1.0284   1.0414   1.0699   1.0946   1.1181   1.1357
     1.1571   1.1724   1.1851   1.2035   1.2456   1.2975   1.3577   1.3897
     1.4045   1.4230   1.4552   1.5096   1.5266   1.5514   1.5699   1.6050
     1.6208   1.6651   1.7025   1.7552   1.7825   1.7883   1.8503   1.8591
     1.8741   1.9078   1.9510   1.9654   1.9880   2.0022   2.0158   2.0481
     2.1067   2.1514   2.1929   2.2290   2.2464   2.2815   2.2984   2.3090
     2.3243   2.3421   2.3794   2.3965   2.4354   2.4405   2.4684   2.4846
     2.5294   2.5567   2.5916   2.6056   2.6450   2.6754   2.6891   2.7065
     2.7292   2.7488   2.7835   2.8213   2.8516   2.8945   2.9252   3.0043
     3.0663   3.1133   3.2186   3.3084   3.4233   3.7692   3.9189   4.1584
     4.2234   4.4122   4.6713   4.9172   5.3922   5.6901   5.9661   6.0937
     6.3652   6.5189   6.6556   6.8222   7.0459   7.4373   7.5622   7.6732
     7.8035   7.8745

          k = 0.2000 0.3464 0.0000 ( 60116 PWs)   bands (ev):

   -20.7712 -11.7131  -9.3000  -6.4016  -5.5847  -5.0681  -4.8044  -4.3643
    -4.3085  -4.2225  -3.4480  -3.3837  -3.3188  -3.3054  -3.2493  -3.2446
    -3.2116  -3.1910  -3.1157  -3.0766  -2.9416  -2.8618  -2.7839  -2.7359
    -2.7077  -2.6792  -2.6411  -2.6057  -2.5681  -2.5241  -2.4541  -2.4349
    -2.4029  -2.3944  -2.3467  -2.3303  -2.2971  -2.2518  -2.2422  -2.1919
    -2.1668  -2.0941  -2.0143  -1.9441  -1.8877  -1.8547  -1.7757  -1.7218
    -1.7119  -1.6877  -1.6730  -1.6343  -1.5866  -1.5389  -1.5014  -1.4761
    -1.4166  -1.3951  -1.3390  -1.3147  -1.2817  -1.2430  -1.2053  -1.1706
    -1.1374  -1.0470  -1.0281  -1.0047  -0.9581  -0.9242  -0.8950  -0.8818
    -0.8444  -0.8134  -0.7891  -0.7189  -0.6923  -0.6682  -0.6367  -0.6283
    -0.5965  -0.5742  -0.5340  -0.4571  -0.4459  -0.4320  -0.4011  -0.3804
    -0.3479  -0.3310  -0.2936  -0.2717  -0.2459  -0.2153  -0.2056  -0.1799
    -0.1719  -0.1545  -0.1100  -0.0884  -0.0579  -0.0325  -0.0005   0.0211
     0.0389   0.0612   0.0899   0.0982   0.1149   0.1306   0.1602   0.1764
     0.2299   0.2604   0.2751   0.3025   0.3848   0.4016   0.4518   0.4987
     0.5259   0.6157   0.6431   0.6635   0.6896   0.7121   0.7559   0.7884
     0.8314   0.8528   0.9174   0.9250   0.9445   0.9812   1.0069   1.0309
     1.0862   1.1049   1.1428   1.1895   1.2174   1.2916   1.3225   1.3304
     1.3507   1.3778   1.4021   1.4138   1.4613   1.4911   1.5241   1.5544
     1.6243   1.6497   1.7005   1.7102   1.7268   1.7634   1.7824   1.8142
     1.8363   1.8706   1.9171   1.9476   2.0202   2.0465   2.0708   2.1611
     2.2296   2.2449   2.2722   2.2958   2.3498   2.3713   2.4128   2.4233
     2.4524   2.4718   2.4912   2.5180   2.5446   2.5575   2.5791   2.6059
     2.6234   2.6501   2.6743   2.6917   2.7604   2.7800   2.8420   2.9025
     2.9113   2.9398   2.9542   3.0133   3.0482   3.1300   3.1874   3.4158
     3.5768   3.6672   3.7970   3.8577   4.0175   4.0622   4.2510   4.5789
     4.6410   4.7952   4.9723   5.1489   5.2182   5.4134   5.5566   5.9528
     6.2330   6.3733   6.4722   6.7081   6.8523   6.9448   7.1757   7.2759
     7.4306   7.5785

          k = 0.2000-0.5774 0.0000 ( 60148 PWs)   bands (ev):

   -20.7712 -11.7122  -9.2956  -6.4002  -5.1765  -5.0994  -4.9506  -4.6799
    -4.4287  -3.8858  -3.7182  -3.3871  -3.3051  -3.2256  -3.1473  -3.0590
    -3.0197  -2.9893  -2.9697  -2.9298  -2.8887  -2.8060  -2.7988  -2.7928
    -2.7514  -2.7118  -2.6950  -2.6476  -2.6164  -2.5680  -2.5571  -2.5332
    -2.5026  -2.4550  -2.4123  -2.3158  -2.3057  -2.2331  -2.1983  -2.1579
    -2.1269  -2.0954  -1.9972  -1.9640  -1.9162  -1.8518  -1.7757  -1.7482
    -1.7036  -1.6757  -1.6560  -1.6140  -1.5527  -1.4797  -1.4597  -1.4482
    -1.3970  -1.3660  -1.3124  -1.3019  -1.2825  -1.2499  -1.2275  -1.1912
    -1.1542  -1.1448  -1.1075  -1.0703  -1.0518  -1.0241  -0.9968  -0.9568
    -0.9218  -0.8835  -0.8543  -0.8114  -0.7460  -0.7247  -0.7008  -0.6741
    -0.6588  -0.6322  -0.5981  -0.5734  -0.5399  -0.5139  -0.4967  -0.4484
    -0.4419  -0.3572  -0.3140  -0.2964  -0.2784  -0.2397  -0.2227  -0.1991
    -0.1256  -0.1178  -0.0898  -0.0662  -0.0516  -0.0096  -0.0037   0.0116
     0.0395   0.0591   0.0949   0.1054   0.1309   0.1597   0.1730   0.1833
     0.1942   0.2329   0.2448   0.3068   0.3536   0.3944   0.4184   0.4760
     0.5275   0.5954   0.6046   0.6329   0.6731   0.7009   0.7294   0.7440
     0.7912   0.7987   0.8242   0.8440   0.9218   0.9580   0.9976   1.0206
     1.0312   1.0709   1.0916   1.1744   1.1864   1.2477   1.2820   1.3226
     1.3534   1.3640   1.3972   1.4089   1.4267   1.4613   1.5038   1.5420
     1.5675   1.5954   1.6229   1.6575   1.7008   1.7148   1.7578   1.7942
     1.8703   1.9354   1.9944   2.0126   2.0541   2.1092   2.1304   2.1679
     2.1984   2.2469   2.2733   2.3464   2.3678   2.3802   2.4216   2.4448
     2.4695   2.4966   2.5221   2.5625   2.5782   2.6062   2.6423   2.6516
     2.6922   2.7094   2.7474   2.7904   2.8115   2.8406   2.9018   2.9204
     2.9733   2.9915   3.0269   3.1429   3.2616   3.3743   3.4859   3.7484
     3.8895   4.1022   4.1402   4.3322   4.3925   4.5017   4.6647   4.7645
     4.8606   5.0483   5.1680   5.2440   5.3188   5.6550   5.7098   5.8531
     5.9705   5.9986   6.0924   6.2237   6.4622   6.5367   6.8474   7.0075
     7.1615   7.3165

          k = 0.2000-0.3464 0.0000 ( 60116 PWs)   bands (ev):

   -20.7712 -11.7129  -9.3005  -6.4069  -5.5804  -5.0569  -4.7971  -4.3798
    -4.3002  -4.2374  -3.4394  -3.4018  -3.3032  -3.2974  -3.2669  -3.2476
    -3.2037  -3.1686  -3.1200  -3.0960  -2.9295  -2.8563  -2.7776  -2.7297
    -2.6968  -2.6786  -2.6627  -2.5983  -2.5595  -2.5359  -2.4610  -2.4477
    -2.4018  -2.3940  -2.3488  -2.3405  -2.3047  -2.2641  -2.2344  -2.1975
    -2.1529  -2.0877  -2.0641  -1.9619  -1.8862  -1.8165  -1.7739  -1.7279
    -1.6993  -1.6871  -1.6544  -1.6319  -1.5854  -1.5364  -1.4963  -1.4756
    -1.4453  -1.3599  -1.3387  -1.3170  -1.2807  -1.2602  -1.2080  -1.1556
    -1.1258  -1.0545  -1.0408  -1.0086  -0.9621  -0.9188  -0.8853  -0.8573
    -0.8375  -0.8052  -0.7952  -0.7459  -0.7157  -0.6724  -0.6368  -0.6143
    -0.5716  -0.5591  -0.5047  -0.4672  -0.4445  -0.4234  -0.4095  -0.3672
    -0.3495  -0.3375  -0.3114  -0.2723  -0.2664  -0.2271  -0.2127  -0.1919
    -0.1737  -0.1550  -0.0975  -0.0704  -0.0632  -0.0349  -0.0067   0.0106
     0.0348   0.0702   0.0774   0.0994   0.1139   0.1432   0.1584   0.1657
     0.2218   0.2653   0.2907   0.3155   0.3755   0.4040   0.4454   0.5093
     0.5685   0.6129   0.6301   0.6749   0.6986   0.7247   0.7684   0.7825
     0.8175   0.8626   0.8994   0.9249   0.9399   0.9775   1.0114   1.0256
     1.0822   1.1098   1.1578   1.1815   1.2203   1.2495   1.3063   1.3453
     1.3696   1.3772   1.3966   1.4084   1.4541   1.4765   1.4986   1.5640
     1.6246   1.6635   1.6956   1.7113   1.7323   1.7588   1.7870   1.8068
     1.8239   1.8720   1.9232   1.9866   2.0055   2.0219   2.0584   2.1749
     2.2009   2.2482   2.2816   2.2939   2.3493   2.3878   2.4131   2.4356
     2.4557   2.4739   2.5011   2.5137   2.5409   2.5515   2.5801   2.5911
     2.6393   2.6578   2.6789   2.7087   2.7439   2.7858   2.8249   2.8764
     2.9119   2.9388   2.9512   3.0045   3.0625   3.1397   3.1692   3.3468
     3.5914   3.7036   3.7728   3.8495   4.0047   4.1154   4.3039   4.5118
     4.6189   4.8496   5.0022   5.1289   5.2281   5.4683   5.5391   6.0299
     6.1779   6.3966   6.4247   6.6697   6.8292   7.0200   7.1296   7.2642
     7.4617   7.5567

          k = 0.4000-0.2309 0.0000 ( 60136 PWs)   bands (ev):

   -20.7712 -11.7137  -9.2974  -6.4381  -5.4347  -4.9950  -4.8379  -4.6999
    -4.1623  -3.8107  -3.7414  -3.6518  -3.3802  -3.2918  -3.2339  -3.1774
    -3.1260  -3.0398  -2.9957  -2.9783  -2.8643  -2.8252  -2.7994  -2.7773
    -2.7315  -2.6714  -2.6498  -2.6314  -2.6170  -2.5788  -2.5282  -2.5112
    -2.4553  -2.4213  -2.3728  -2.2849  -2.2353  -2.1918  -2.1711  -2.0863
    -2.0691  -2.0334  -1.9891  -1.9645  -1.9565  -1.8670  -1.8139  -1.8082
    -1.7578  -1.6996  -1.6505  -1.6249  -1.5896  -1.5207  -1.5043  -1.4830
    -1.4750  -1.4358  -1.3905  -1.3277  -1.3023  -1.2850  -1.2012  -1.1638
    -1.1350  -1.1035  -1.0828  -1.0433  -1.0008  -0.9734  -0.9131  -0.8868
    -0.8480  -0.8118  -0.7654  -0.7547  -0.7286  -0.6649  -0.6243  -0.6060
    -0.5608  -0.5379  -0.5156  -0.4945  -0.4603  -0.4264  -0.4107  -0.3989
    -0.3670  -0.3502  -0.3374  -0.3056  -0.2815  -0.2642  -0.2413  -0.2255
    -0.1699  -0.1433  -0.1203  -0.1045  -0.0767  -0.0504  -0.0357   0.0007
     0.0309   0.0573   0.0834   0.1256   0.1476   0.1942   0.2009   0.2123
     0.2775   0.2994   0.3239   0.3539   0.3762   0.4333   0.4909   0.5091
     0.5656   0.6003   0.6290   0.6539   0.6714   0.6989   0.7361   0.7459
     0.7986   0.8160   0.8355   0.8553   0.8792   0.9605   0.9889   0.9909
     1.0272   1.0650   1.1151   1.1281   1.1587   1.2470   1.2836   1.3169
     1.3561   1.3813   1.4049   1.4658   1.4862   1.5307   1.5766   1.5902
     1.6182   1.6359   1.6682   1.6867   1.7231   1.7388   1.7787   1.7988
     1.8539   1.8770   1.9046   1.9319   2.0033   2.0520   2.0630   2.0986
     2.1566   2.1751   2.2600   2.2978   2.3204   2.3354   2.3592   2.3794
     2.3983   2.4489   2.4705   2.4881   2.5349   2.5734   2.5983   2.6275
     2.6420   2.6604   2.6777   2.7456   2.7830   2.8391   2.8923   2.9123
     2.9201   2.9576   2.9827   3.1598   3.1831   3.2881   3.3493   3.6038
     3.7480   3.8810   4.0008   4.0888   4.2365   4.3907   4.4875   4.6629
     4.8069   4.9257   5.0715   5.2428   5.3352   5.3762   5.4885   5.7563
     5.8825   6.0007   6.2219   6.3869   6.5754   6.8959   7.0002   7.3826
     7.6606   7.7497

          k = 0.4000-0.0000 0.0000 ( 60116 PWs)   bands (ev):

   -20.7712 -11.7141  -9.2988  -6.4355  -5.5650  -5.0197  -4.7495  -4.3621
    -4.3318  -4.2625  -3.5084  -3.3594  -3.3181  -3.3070  -3.2615  -3.2416
    -3.2275  -3.1909  -3.1089  -3.0922  -2.9730  -2.8431  -2.7517  -2.7330
    -2.7024  -2.6771  -2.6364  -2.6126  -2.5794  -2.4910  -2.4594  -2.4354
    -2.3935  -2.3735  -2.3686  -2.3331  -2.3113  -2.2548  -2.2243  -2.1839
    -2.1599  -2.0631  -2.0049  -1.9544  -1.8613  -1.8458  -1.8034  -1.7425
    -1.7109  -1.6866  -1.6702  -1.6275  -1.5841  -1.5476  -1.5125  -1.4894
    -1.4068  -1.3856  -1.3479  -1.3087  -1.2805  -1.2492  -1.1909  -1.1585
    -1.1283  -1.0851  -1.0450  -1.0225  -0.9778  -0.9189  -0.8924  -0.8680
    -0.8275  -0.8015  -0.7635  -0.7288  -0.6974  -0.6657  -0.6428  -0.6280
    -0.5829  -0.5624  -0.5182  -0.4706  -0.4373  -0.4200  -0.3956  -0.3744
    -0.3674  -0.3344  -0.2934  -0.2691  -0.2542  -0.2274  -0.2018  -0.1772
    -0.1642  -0.1369  -0.1044  -0.0730  -0.0323  -0.0204   0.0013   0.0225
     0.0335   0.0465   0.0687   0.0922   0.1120   0.1201   0.1566   0.1622
     0.2165   0.2607   0.2852   0.3165   0.3763   0.4075   0.4593   0.4890
     0.5376   0.5753   0.6336   0.6589   0.6946   0.7229   0.7418   0.7950
     0.8241   0.8422   0.8820   0.9271   0.9345   0.9705   0.9976   1.0136
     1.0881   1.1174   1.1431   1.1853   1.2037   1.2465   1.2770   1.3204
     1.3544   1.3637   1.3712   1.4068   1.4793   1.5136   1.5676   1.5846
     1.6019   1.6254   1.6702   1.6985   1.7145   1.7503   1.7663   1.7745
     1.8114   1.9055   1.9414   1.9574   2.0153   2.0346   2.1015   2.1618
     2.2009   2.2538   2.2663   2.2889   2.3342   2.3756   2.4089   2.4219
     2.4451   2.4892   2.5086   2.5220   2.5342   2.5512   2.5766   2.6219
     2.6360   2.6428   2.7082   2.7239   2.7570   2.7708   2.8441   2.8665
     2.8912   2.9544   2.9684   3.0361   3.0703   3.1564   3.1748   3.4639
     3.5269   3.7027   3.7918   3.9136   4.0270   4.1313   4.2699   4.4798
     4.6630   4.8679   5.0155   5.2093   5.2863   5.3440   5.6494   5.9964
     6.0983   6.3879   6.5466   6.7061   6.8073   7.0477   7.1666   7.2572
     7.3429   7.4480

          k = 0.4000 0.2309 0.0000 ( 60136 PWs)   bands (ev):

   -20.7712 -11.7140  -9.2966  -6.4295  -5.4436  -5.0364  -4.8323  -4.6737
    -4.1412  -3.8117  -3.7516  -3.6437  -3.3834  -3.3166  -3.2144  -3.1356
    -3.1188  -3.0712  -3.0105  -2.9843  -2.8866  -2.8308  -2.8162  -2.7890
    -2.7058  -2.6649  -2.6501  -2.6196  -2.6069  -2.5494  -2.5260  -2.4963
    -2.4649  -2.4311  -2.3935  -2.2665  -2.2359  -2.2034  -2.1710  -2.0961
    -2.0785  -2.0142  -1.9791  -1.9591  -1.9381  -1.8943  -1.8279  -1.7750
    -1.7345  -1.7077  -1.6406  -1.6210  -1.5938  -1.5423  -1.5177  -1.4920
    -1.4628  -1.4340  -1.3965  -1.3525  -1.3028  -1.2692  -1.2526  -1.1876
    -1.1284  -1.1004  -1.0747  -1.0498  -0.9974  -0.9263  -0.9029  -0.8717
    -0.8544  -0.8167  -0.7625  -0.7413  -0.7130  -0.6867  -0.6371  -0.6065
    -0.5715  -0.5448  -0.5314  -0.4937  -0.4614  -0.4442  -0.4221  -0.3957
    -0.3736  -0.3486  -0.3327  -0.3034  -0.2839  -0.2567  -0.2158  -0.2016
    -0.1749  -0.1525  -0.1250  -0.0900  -0.0794  -0.0466  -0.0222  -0.0098
     0.0412   0.0538   0.0842   0.1185   0.1408   0.1721   0.2070   0.2323
     0.2616   0.2857   0.3289   0.3481   0.3825   0.4338   0.4558   0.4938
     0.5680   0.5727   0.6254   0.6547   0.6723   0.7118   0.7484   0.7692
     0.7896   0.8127   0.8385   0.8666   0.8783   0.9446   0.9761   0.9978
     1.0283   1.0715   1.1231   1.1390   1.1695   1.2333   1.2694   1.3225
     1.3373   1.3690   1.4344   1.4648   1.4857   1.5432   1.5903   1.6040
     1.6119   1.6371   1.6611   1.6975   1.7236   1.7457   1.7662   1.8260
     1.8667   1.8837   1.9009   1.9225   2.0153   2.0401   2.0656   2.0939
     2.1367   2.2195   2.2634   2.2881   2.3200   2.3433   2.3505   2.3743
     2.4030   2.4482   2.4589   2.4832   2.5497   2.5845   2.5978   2.6164
     2.6451   2.6620   2.6818   2.7464   2.7856   2.8421   2.8938   2.9098
     2.9258   2.9554   3.0305   3.1574   3.1713   3.2765   3.3078   3.6530
     3.7788   3.8956   4.0573   4.0848   4.1807   4.3535   4.4766   4.6374
     4.8311   4.8653   5.0471   5.2312   5.3097   5.4071   5.4676   5.7516
     5.9025   6.0759   6.2322   6.3192   6.5236   6.8224   7.0283   7.3608
     7.6425   7.8235

          k = 0.4000-0.6928 0.0000 ( 60148 PWs)   bands (ev):

   -20.7712 -11.7134  -9.2939  -6.4285  -5.1341  -5.0580  -4.9385  -4.7201
    -4.4044  -3.8402  -3.8133  -3.4052  -3.2815  -3.2374  -3.1896  -3.0761
    -3.0167  -2.9853  -2.9666  -2.9241  -2.8944  -2.8343  -2.7910  -2.7828
    -2.7653  -2.7107  -2.6855  -2.6651  -2.5876  -2.5704  -2.5540  -2.5120
    -2.4575  -2.4222  -2.3548  -2.3247  -2.3133  -2.2490  -2.1967  -2.1654
    -2.1202  -2.1079  -2.0038  -1.9693  -1.9059  -1.8581  -1.7759  -1.7519
    -1.7308  -1.6878  -1.6406  -1.5822  -1.5630  -1.5097  -1.4567  -1.4483
    -1.4215  -1.3630  -1.2953  -1.2797  -1.2615  -1.2349  -1.2193  -1.1909
    -1.1706  -1.1546  -1.1012  -1.0736  -1.0476  -1.0072  -0.9985  -0.9494
    -0.9299  -0.8773  -0.8616  -0.8216  -0.7806  -0.7405  -0.7211  -0.6782
    -0.6557  -0.6054  -0.5914  -0.5593  -0.5320  -0.5178  -0.4779  -0.4507
    -0.4347  -0.3510  -0.3288  -0.3016  -0.2841  -0.2498  -0.2049  -0.1758
    -0.1589  -0.1351  -0.0829  -0.0693  -0.0275  -0.0089   0.0078   0.0150
     0.0309   0.0707   0.0858   0.1134   0.1314   0.1523   0.1764   0.1866
     0.1944   0.2084   0.2432   0.2716   0.3555   0.3881   0.4590   0.4960
     0.5280   0.5837   0.5935   0.6418   0.6632   0.6899   0.7202   0.7409
     0.7567   0.7938   0.8332   0.8632   0.8743   0.9363   0.9646   1.0114
     1.0211   1.0434   1.1075   1.1487   1.1817   1.2514   1.2945   1.3094
     1.3518   1.3823   1.4051   1.4253   1.4577   1.4672   1.5005   1.5319
     1.5566   1.5809   1.6076   1.6353   1.6596   1.7131   1.7329   1.7955
     1.8721   1.9090   1.9766   2.0317   2.1016   2.1151   2.1311   2.1491
     2.1945   2.2234   2.2732   2.3365   2.3476   2.3767   2.4190   2.4417
     2.4763   2.5047   2.5479   2.5671   2.5846   2.6141   2.6291   2.6628
     2.6926   2.7250   2.7584   2.7946   2.8297   2.8457   2.9051   2.9238
     2.9602   2.9802   2.9998   3.1665   3.2742   3.4081   3.6068   3.8138
     3.9525   4.0530   4.1332   4.2359   4.3804   4.5091   4.6857   4.7775
     4.9033   5.0997   5.1852   5.2835   5.5037   5.5834   5.7311   5.8288
     5.9197   5.9927   6.0681   6.2822   6.4222   6.5324   6.7241   7.1026
     7.1546   7.2622

          k = 0.4000-0.4619 0.0000 ( 60148 PWs)   bands (ev):

   -20.7712 -11.7132  -9.2944  -6.4338  -5.0832  -5.0586  -4.9683  -4.7408
    -4.3879  -3.8637  -3.8162  -3.4067  -3.2723  -3.2165  -3.1622  -3.1008
    -3.0363  -2.9996  -2.9727  -2.9228  -2.8693  -2.8308  -2.7910  -2.7803
    -2.7564  -2.7325  -2.6830  -2.6434  -2.5848  -2.5700  -2.5405  -2.5108
    -2.4890  -2.4334  -2.3815  -2.3281  -2.2887  -2.2609  -2.1841  -2.1511
    -2.1319  -2.0952  -2.0270  -1.9492  -1.9186  -1.8649  -1.7869  -1.7590
    -1.7448  -1.6637  -1.6411  -1.5910  -1.5682  -1.5140  -1.4540  -1.4335
    -1.3883  -1.3409  -1.3140  -1.2951  -1.2491  -1.2255  -1.2157  -1.2015
    -1.1626  -1.1405  -1.1015  -1.0783  -1.0631  -1.0352  -0.9830  -0.9729
    -0.9138  -0.8861  -0.8437  -0.8111  -0.7670  -0.7427  -0.7038  -0.6831
    -0.6503  -0.6197  -0.6005  -0.5615  -0.5398  -0.5069  -0.4807  -0.4456
    -0.4162  -0.3752  -0.3292  -0.3007  -0.2838  -0.2689  -0.2204  -0.1893
    -0.1459  -0.1206  -0.0836  -0.0643  -0.0475  -0.0054   0.0085   0.0245
     0.0550   0.0675   0.0844   0.1075   0.1494   0.1665   0.1721   0.1766
     0.1929   0.2029   0.2277   0.3055   0.3289   0.3677   0.4664   0.5190
     0.5475   0.5834   0.6021   0.6301   0.6569   0.6879   0.7197   0.7385
     0.7815   0.8044   0.8326   0.8590   0.8932   0.9257   0.9409   1.0004
     1.0336   1.0615   1.0950   1.1652   1.2074   1.2298   1.2728   1.3057
     1.3406   1.3581   1.4008   1.4305   1.4554   1.4693   1.4947   1.5384
     1.5515   1.5801   1.5991   1.6158   1.6739   1.6951   1.7490   1.7978
     1.9095   1.9276   1.9577   2.0196   2.0782   2.1111   2.1272   2.1656
     2.1933   2.2164   2.2650   2.3311   2.3539   2.3890   2.4187   2.4477
     2.4736   2.5057   2.5424   2.5695   2.5843   2.6162   2.6311   2.6522
     2.6927   2.7203   2.7502   2.8108   2.8473   2.8581   2.9037   2.9261
     2.9457   2.9720   2.9951   3.1585   3.1893   3.4506   3.6301   3.7470
     3.9348   4.0955   4.1324   4.2902   4.3767   4.5179   4.6648   4.7474
     4.9721   5.1338   5.1777   5.2815   5.4620   5.5772   5.7412   5.8685
     5.9421   5.9845   6.0479   6.3128   6.4338   6.5874   6.6774   7.0328
     7.1534   7.2001

     the Fermi energy is     2.7229 ev

!    total energy              =  -27845.64232831 Ry
     total all-electron energy =  -1326980.317535 Ry
     estimated scf accuracy    <          4.6E-09 Ry
     smearing contrib. (-TS)   =       0.00577582 Ry
     internal energy E=F+TS    =  -27845.64810413 Ry

     The total energy is F=E-TS. E is the sum of the following terms:
     one-electron contribution =  -20849.77545865 Ry
     hartree contribution      =   10741.05340816 Ry
     xc contribution           =    -909.05524833 Ry
     ewald contribution        =    8671.32776185 Ry
     one-center paw contrib.   =  -25499.19856715 Ry

     convergence has been achieved in  23 iterations

     negative rho (up, down):  3.020E-03 0.000E+00

     Forces acting on atoms (cartesian axes, Ry/au):

     atom    1 type  1   force =     0.00042979    0.00116168   -0.00298680
     atom    2 type  1   force =    -0.00030425   -0.00001882   -0.00420856
     atom    3 type  1   force =    -0.00023877    0.00033730   -0.00375429
     atom    4 type  1   force =    -0.00058662    0.00026727   -0.00367332
     atom    5 type  1   force =     0.00068228    0.00033240   -0.00397569
     atom    6 type  1   force =    -0.00016971    0.00081315   -0.00484753
     atom    7 type  1   force =    -0.00112579   -0.00051759   -0.00405129
     atom    8 type  1   force =     0.00087732   -0.00063218   -0.00509263
     atom    9 type  1   force =    -0.00123225   -0.00035506   -0.00586116
     atom   10 type  1   force =    -0.00293982   -0.00282237    0.00806856
     atom   11 type  1   force =     0.00334082   -0.00153208    0.00659862
     atom   12 type  1   force =     0.00086269   -0.00400642    0.01059809
     atom   13 type  1   force =     0.00029727    0.00393173    0.00483516
     atom   14 type  1   force =    -0.00125915    0.00065977    0.00254926
     atom   15 type  1   force =     0.00196950   -0.00057232    0.00242726
     atom   16 type  1   force =    -0.00566585    0.00144376    0.00489066
     atom   17 type  1   force =    -0.00056629    0.00037260   -0.00002008
     atom   18 type  1   force =     0.00610043    0.00123018   -0.00137665
     atom   19 type  1   force =    -0.00008053   -0.00002194   -0.00004883
     atom   20 type  1   force =    -0.00012234   -0.00006469    0.00003145
     atom   21 type  1   force =    -0.00018374    0.00000441    0.00015370
     atom   22 type  1   force =    -0.00011777   -0.00000743    0.00000257
     atom   23 type  1   force =     0.00002992   -0.00006891   -0.00000505
     atom   24 type  1   force =     0.00003385   -0.00010078    0.00000585
     atom   25 type  1   force =    -0.00001098   -0.00012037   -0.00010693
     atom   26 type  1   force =    -0.00000124    0.00013515    0.00007828
     atom   27 type  1   force =    -0.00015565    0.00001987    0.00009843
     atom   28 type  1   force =     0.00029769    0.00013326    0.00006290
     atom   29 type  1   force =    -0.00014278   -0.00026191   -0.00003235
     atom   30 type  1   force =    -0.00002405   -0.00003565    0.00005922
     atom   31 type  1   force =    -0.00003724    0.00001701   -0.00013261
     atom   32 type  1   force =     0.00003212   -0.00009820    0.00001844
     atom   33 type  1   force =     0.00000807    0.00007715   -0.00008455
     atom   34 type  1   force =     0.00001506   -0.00005671    0.00009758
     atom   35 type  1   force =     0.00010436    0.00013117    0.00000408
     atom   36 type  1   force =     0.00004383    0.00004593   -0.00010169
     atom   37 type  2   force =    -0.00010632   -0.00021486   -0.00016723
     atom   38 type  3   force =    -0.00013564    0.00012889   -0.00003994
     atom   39 type  4   force =     0.00023716    0.00018044   -0.00022014
     atom   40 type  5   force =    -0.00015539    0.00008516    0.00020723

     Total force =     0.000917     Total SCF correction =     0.000252
     SCF correction compared to forces is large: reduce conv_thr to get better values

     negative rho (up, down):  3.020E-03 0.000E+00

     negative rho (up, down):  3.020E-03 0.000E+00

     negative rho (up, down):  3.020E-03 0.000E+00

     negative rho (up, down):  3.020E-03 0.000E+00

     negative rho (up, down):  3.020E-03 0.000E+00

     negative rho (up, down):  3.020E-03 0.000E+00

     negative rho (up, down):  3.020E-03 0.000E+00

     negative rho (up, down):  3.020E-03 0.000E+00

     negative rho (up, down):  3.020E-03 0.000E+00

     negative rho (up, down):  3.020E-03 0.000E+00

     negative rho (up, down):  3.020E-03 0.000E+00

     negative rho (up, down):  3.020E-03 0.000E+00

     negative rho (up, down):  3.020E-03 0.000E+00

     negative rho (up, down):  3.020E-03 0.000E+00

     negative rho (up, down):  3.020E-03 0.000E+00

     negative rho (up, down):  3.020E-03 0.000E+00

     negative rho (up, down):  3.020E-03 0.000E+00

     negative rho (up, down):  3.020E-03 0.000E+00

     negative rho (up, down):  3.020E-03 0.000E+00

     negative rho (up, down):  3.020E-03 0.000E+00

     negative rho (up, down):  3.020E-03 0.000E+00

     negative rho (up, down):  3.020E-03 0.000E+00

     negative rho (up, down):  3.020E-03 0.000E+00

     negative rho (up, down):  3.020E-03 0.000E+00

     negative rho (up, down):  3.020E-03 0.000E+00

     negative rho (up, down):  3.020E-03 0.000E+00

     negative rho (up, down):  3.020E-03 0.000E+00

     negative rho (up, down):  3.020E-03 0.000E+00

     negative rho (up, down):  3.020E-03 0.000E+00

     negative rho (up, down):  3.020E-03 0.000E+00

     negative rho (up, down):  3.020E-03 0.000E+00

     negative rho (up, down):  3.020E-03 0.000E+00

     negative rho (up, down):  3.020E-03 0.000E+00

     negative rho (up, down):  3.020E-03 0.000E+00
 BEEFens 2000 ensemble energies
             -0.608393330135487E+02
             -0.361573805686655E+01
             -0.158986951249034E+02
              0.430272652036188E+02
             -0.221468187921639E+02
             -0.206071146024964E+02
             -0.353459937592347E+02
             -0.867424114359316E+02
             -0.466782502966225E+02
             -0.474158272538194E+02
             -0.370043066811924E+02
              0.225663290226349E+01
              0.408908930299472E+01
              0.764466476861770E+01
              0.267049295213425E+01
              0.475902230753700E+02
             -0.209899479438623E+02
             -0.231627426186024E+02
              0.193468437906179E+02
             -0.112680043645600E+03
              0.537796920779635E+02
             -0.290043503998656E+02
             -0.335108406186804E+01
             -0.114198542600772E+02
             -0.889817712641002E+01
             -0.472275218521892E+01
              0.885294357254213E+02
             -0.186245016610737E+02
             -0.909894170122413E+01
             -0.520101090135005E+02
              0.818504180152336E+02
             -0.188246485837611E+02
             -0.376323353340995E+02
              0.250370500200509E+02
             -0.282589850912160E+01
              0.164288133388602E+02
             -0.486531452142452E+01
              0.108566880767859E+02
              0.288432910247688E+02
             -0.103634269758767E+03
              0.559400766946256E+02
              0.142598809907927E+02
             -0.165820535212436E+01
             -0.362907276495997E+02
              0.123211536242940E+02
             -0.146252442872988E+02
              0.399573868445399E+02
              0.365997256653617E+02
             -0.308882298667946E+02
             -0.275883516808906E+02
             -0.328997076061162E+02
             -0.352647616540846E+02
              0.135907945573996E+02
             -0.492958144367647E+02
              0.115767427049053E+02
              0.624851375559066E+02
              0.636804158487134E+02
              0.356585230130035E+02
              0.155098206757937E+02
              0.270699308521489E+02
              0.893156509667203E+02
              0.214068226417522E+02
             -0.550374998249514E+02
             -0.157776914184490E+02
             -0.236697158376118E+02
              0.632075926123386E+02
             -0.776347736156569E+02
             -0.673089252850287E+02
             -0.259405488274389E+02
             -0.641159564518034E+01
             -0.473059815255572E+02
              0.271256388143316E+02
              0.804642832503794E+01
              0.871008191380929E+01
             -0.397672984540136E+02
             -0.347717472993725E+02
             -0.543034609687930E+02
              0.391648541461450E+02
             -0.296403849016804E+02
              0.265301272934313E+02
             -0.710984380475140E+01
             -0.319258774318459E+02
             -0.578240735690979E+02
             -0.177278404571873E+02
             -0.913625832940193E+01
             -0.125844797132146E+02
              0.412997852154708E+02
              0.684009102851826E+02
             -0.386597269091028E+02
             -0.797358732739523E+02
             -0.220343702462440E+02
              0.111863428550584E+03
             -0.593276378511162E+02
              0.357055788284528E+02
             -0.960762293962580E+01
             -0.665345892579958E+02
              0.255469752060892E+02
              0.399279997953089E+02
             -0.198866442783178E+02
              0.401093594904884E+02
             -0.297229172820651E+02
             -0.479131388070875E+02
              0.867762241531509E+02
              0.455575881878540E+02
              0.337228865537172E+02
              0.147110229146057E+02
              0.205492135511047E+02
              0.858911219611888E+02
             -0.257285771206117E+02
              0.785520414666684E+01
             -0.142853410614326E+03
              0.182067379467474E+02
             -0.718269522643304E+02
              0.150909616655530E+02
              0.204842027427436E+02
             -0.333894531576547E+02
             -0.558483651556793E+02
              0.659429506937124E+01
             -0.304722830641084E+02
              0.309113270362730E+02
             -0.530938815094408E+02
              0.172056388431758E+01
             -0.358066213917113E+02
             -0.427086010233467E+01
             -0.104120787579404E+01
              0.180697029125835E+02
              0.139504886300278E+01
             -0.655087119532971E+01
              0.591420933580293E+02
              0.910474739932426E+02
              0.485232899340687E+02
              0.832840731751826E+02
             -0.115642672851034E+02
              0.143591994685962E+02
              0.542466131098048E+02
             -0.111276867284803E+02
             -0.737278896826799E+02
             -0.384369926626987E+02
             -0.522344272228936E+02
             -0.277551243758030E+02
              0.327448772275224E+02
             -0.117107254720961E+03
             -0.187073386796946E+02
              0.415166545442470E+02
             -0.387384610182612E+02
             -0.366041497194811E+02
              0.544876347029998E+02
              0.402206214022995E+02
             -0.353982554998839E+02
              0.137485659444349E+02
             -0.273638759728460E+02
              0.344320283911584E+02
              0.453961908175216E+01
              0.212107580092413E+02
             -0.886602040998453E+02
             -0.481736199210116E+02
             -0.996649468883493E+01
              0.328486454466529E+01
             -0.367823651818924E+02
              0.106290995502623E+03
             -0.231408960612257E+02
             -0.399194634531835E+02
              0.390922337353322E+02
             -0.495771502316374E+02
             -0.364033154531346E+02
              0.325698626064659E+02
              0.124837160026554E+02
              0.164432168804188E+02
              0.116523193592406E+02
             -0.133292003411532E+02
              0.225524270503303E+02
              0.592346954580242E+02
             -0.313199407345423E+02
              0.163310585346536E+02
              0.936724816735726E+02
              0.341264487800359E+02
             -0.732148990341807E+01
             -0.188698426086317E+02
              0.153728956553788E+03
             -0.164277677364500E+02
              0.363829222198902E+02
              0.195041541187604E+02
              0.363346350622205E+02
              0.895312331225069E+02
              0.544421123103242E+02
             -0.247172298328893E+01
              0.228357775406458E+02
              0.486232580300027E+02
              0.364783964960803E+02
             -0.527103080332130E+02
              0.938192810393250E+02
             -0.827584407793868E+02
             -0.198956882847663E+02
              0.584855245810473E+02
              0.671025285294584E+01
              0.793174626237499E+01
              0.342382217548006E+02
              0.299237963237957E+02
              0.354719630573904E+02
             -0.639599562528202E+02
              0.290280807100658E+01
             -0.297959840466930E+02
             -0.878966560416006E+01
             -0.142514159982613E+01
             -0.719675620064383E+01
             -0.414816369337586E+01
              0.861410986715823E+02
             -0.101316090872935E+02
             -0.277323060433704E+02
             -0.497540455963688E+01
              0.140366980423207E+02
             -0.565793217452772E+02
             -0.407797184854660E+02
             -0.383134498102044E+02
             -0.631594852040797E+02
             -0.170440052345493E+02
             -0.448654816316436E+02
              0.163846956533868E+02
             -0.241033992004677E+01
             -0.104534420131263E+02
             -0.937297402939924E+01
              0.809513842597551E+01
             -0.243925884742957E+02
              0.690546666652032E+02
             -0.808890101337059E+02
             -0.141281793063717E+02
             -0.174833727301994E+02
              0.182444640072711E+02
              0.214070036781118E+02
             -0.465294453103184E+02
             -0.202604457530479E+02
              0.442139794227982E+02
             -0.276986266029189E+02
              0.186880200382620E+02
              0.383966860823259E+02
             -0.319412500621172E+01
              0.114469038925432E+03
             -0.231266712094705E+02
             -0.342172736239238E+02
              0.581220885080114E+01
             -0.228590020194635E+02
              0.529058925207429E+02
             -0.338141244484027E+02
              0.106650234912880E+02
              0.642599040112790E+02
             -0.126757426663386E+02
              0.120507352355425E+03
              0.126176962744614E+03
             -0.651307581265721E+02
              0.591760039851891E+02
              0.166897198380423E+02
             -0.519041550296695E+02
              0.217371079221331E+02
              0.353942526003989E+02
              0.363636757884896E+02
              0.138460963984502E+01
              0.159615246904393E+02
              0.696933904206420E+02
             -0.247668712229069E+02
              0.181482654567136E+02
              0.741199476382960E+02
             -0.373772295444301E+02
             -0.129660691555203E+02
              0.509576066925585E+02
              0.298185084108088E+02
              0.782990583669413E+02
              0.223266980893843E+02
              0.623208108845455E+01
              0.281484926150089E+02
              0.384331738046990E+02
             -0.471881437837211E+02
              0.329863059313357E+01
              0.129313588885428E+02
              0.113753264581190E+02
              0.220812508016316E+02
             -0.575727185647673E+02
              0.367315176799636E+02
             -0.445289496606744E+02
             -0.347720336913927E+02
              0.177779786841854E+02
             -0.182140645003705E+02
              0.556186221109951E+02
             -0.257131822824649E+02
              0.267535853316993E+02
              0.369262069272129E+02
              0.831401760894542E+02
              0.575972543729290E+02
              0.462820581228770E+02
             -0.106889631330546E+02
             -0.391652607586917E+01
             -0.332456890630209E+02
              0.752409671470403E+02
              0.799522819333823E+02
              0.362867502448007E+02
             -0.192405148716322E+02
              0.513040804099694E+02
             -0.163248169916887E+02
              0.215802531450555E+02
              0.615952082232075E+02
              0.213997134794900E+01
             -0.104866724455725E+02
             -0.284299213376637E+02
             -0.512153443335868E+02
              0.947571563131276E+02
              0.440355684768227E+02
             -0.560657213344006E+02
             -0.968924442662441E+01
              0.251018452569360E+02
             -0.100258185343156E+02
              0.593985406474931E+02
              0.152943609793331E+02
              0.801627921632048E+02
              0.279361802337785E+02
             -0.265292226136916E+02
              0.250168006575747E+02
             -0.505303282588142E+01
             -0.324840547291970E+02
              0.134154513127579E+02
              0.206761334249350E+02
              0.934229340819347E+02
              0.799364346532902E+02
              0.552371328827799E+02
              0.732889320534689E+02
              0.799191526412736E+01
             -0.273929972434710E+02
              0.163497488611067E+02
             -0.369405972784683E+02
             -0.477273823793030E+02
             -0.565413764770984E+02
             -0.267235690025157E+02
             -0.109984681880947E+03
             -0.292011910837454E+02
             -0.838898297925167E+02
              0.210243256459228E+02
             -0.478019503083887E+02
              0.397910608660953E+02
             -0.943294400347715E+02
             -0.330999800612641E+02
              0.550460346698788E+02
              0.208301959341333E+02
             -0.832616424186076E+02
              0.632790650863562E+02
             -0.257386452011355E+02
              0.513897395256202E+02
             -0.244334718454007E+02
             -0.753295725987966E+02
              0.113019906795155E+02
             -0.613214523693814E+02
             -0.168983473912585E+02
             -0.144080704270332E+01
              0.419757767340099E+02
              0.127320869941455E+03
             -0.463195408704698E+02
             -0.363996308799210E+02
             -0.101181542854528E+01
             -0.130549429285418E+02
             -0.824518549599898E+02
             -0.598673634250428E+02
              0.518742150734355E+02
             -0.290054560946209E+02
              0.169461650549028E+02
             -0.490930107510604E+02
             -0.132391045652180E+02
             -0.438671419963622E+02
              0.566784572779124E+02
              0.152373733746668E+02
             -0.232095049658673E+02
             -0.126861668367856E+02
              0.666375254629534E+01
             -0.620634597835857E+01
              0.442886398099336E+02
             -0.252933218792407E+02
              0.272300817961707E+01
              0.339470514980919E+02
              0.172259618363590E+02
             -0.159946867908531E+02
              0.156691312139395E+03
              0.538650518907156E+02
              0.119785027952909E+01
              0.162304749914939E+02
             -0.615856469198060E+02
              0.315702655188571E+02
             -0.723779766128519E+02
             -0.253297697060647E+02
             -0.524111027923769E+02
             -0.220234560733815E+02
              0.570419411582668E+02
             -0.538326198307136E+02
              0.160968880388276E+02
             -0.405123510426813E+01
              0.391775672187811E+01
             -0.434850327390738E+02
             -0.479516079972351E+02
             -0.395353159398974E+01
             -0.426688243800939E+02
             -0.218430953975106E+02
             -0.439252978348121E+02
             -0.119482832612262E+02
             -0.359860876846186E+02
             -0.517822327918895E+02
              0.213517446318930E+02
             -0.210379630086365E+02
              0.188084560834373E+02
              0.978422108682450E+01
             -0.739683053996203E+02
             -0.549752130086042E+02
             -0.398777251045099E+02
              0.355765273226425E+02
              0.270811393519483E+01
             -0.628966626644720E+02
              0.586350717479322E+02
             -0.402421323515856E+02
              0.545780507683891E+02
             -0.290086033153700E+02
             -0.447538915723784E+02
              0.300047580390620E+02
             -0.659889695931139E+02
             -0.380543972588242E+02
              0.674420646833485E+02
              0.204296321363373E+02
             -0.360278415837613E+02
              0.490494600879645E+02
             -0.174082282902426E+02
             -0.323315265927442E+02
             -0.302648463904760E+02
             -0.502074760247739E+02
              0.249294588907770E+02
             -0.934846533055974E+02
             -0.842329443311739E+02
             -0.734287891474480E+01
             -0.307531961877432E+02
             -0.576966977319393E+02
              0.724074976085820E+02
              0.131901290029992E+03
             -0.361989366432405E+02
             -0.254057608806789E+01
             -0.638766953472045E+02
              0.652290048919317E+02
              0.171256770095043E+02
             -0.181202819288930E+02
             -0.411143923141803E+02
              0.149383005937104E+02
             -0.588206414505790E+02
             -0.197579778981187E+02
             -0.907467660389533E+02
              0.337667203699941E+02
              0.169779833578958E+02
              0.180290240077807E+01
             -0.702024273057009E+01
             -0.330131649990765E+02
             -0.758855740412054E+01
              0.125830467025058E+03
             -0.199518986430908E+02
             -0.437871381210005E+02
             -0.685373620405972E+02
              0.109220926939865E+02
             -0.342681400679454E+02
              0.587596575017554E+01
              0.262341662281329E+02
              0.101849656595753E+02
              0.278656810011962E+02
              0.119856683939013E+02
              0.631117781800062E+02
              0.318054661922321E+02
             -0.327190882025418E+02
              0.356276384666007E+02
              0.380784625699568E+02
              0.121347461672496E+02
              0.487834225898637E+02
             -0.225151862014002E+02
              0.767885050737957E+02
              0.172970627665844E+02
             -0.273079875240689E+02
             -0.723331287862962E+01
             -0.186685381254022E+02
              0.262594808399752E+02
             -0.235801115154303E+02
             -0.109431890962043E+00
             -0.852216747482044E+01
              0.812026638305496E+02
              0.501542906913908E+02
             -0.689890867279401E+02
             -0.474748456126204E+01
             -0.557305241841109E+02
             -0.160418198427998E+02
             -0.268668540567096E+02
              0.378562809676328E+01
              0.525550587990098E+00
             -0.258012990564246E+02
              0.814890846040436E+01
             -0.603515412132909E+01
             -0.128998961346274E+02
              0.861525135183065E+02
              0.182727128540826E+02
             -0.808387655900378E+02
             -0.459378193418156E+02
              0.947024616643816E+02
              0.278142444988268E+02
             -0.106941919870852E+02
              0.104841930317649E+03
             -0.196137417524502E+02
             -0.123496967274344E+02
             -0.539979195043020E+01
              0.107713365353662E+02
              0.272515667720771E+02
              0.780913120472084E+01
              0.306217053364841E+02
             -0.188597960982612E+02
             -0.304063329585247E+02
             -0.418129591301690E+02
             -0.478189117173084E+02
              0.465174240374078E+02
              0.127471584590555E+02
              0.388437094267682E+02
              0.133850467308357E+02
              0.857735780194525E+02
              0.157036807193361E+02
             -0.847757951783580E+02
             -0.335378282079939E+02
              0.134353342101306E+02
             -0.303810062423807E+02
              0.628173308664513E+02
             -0.890593016314142E+01
              0.149405719838102E+02
              0.498972560249205E+02
             -0.709518268178376E+02
              0.150144204674298E+03
              0.209213245460745E+02
              0.272229941412816E+02
              0.348531105123874E+02
              0.104020275363529E+02
             -0.160471315504196E+01
              0.359653893363983E+02
             -0.357528982713428E+02
              0.775091599382362E+02
              0.686529799104106E+02
             -0.406893047433882E+02
              0.149970286635935E+02
              0.672156035283737E+02
             -0.225098008817481E+02
              0.154749054995427E+02
              0.436548403979031E+02
              0.423812077360446E+02
             -0.786821526737990E+02
             -0.152921084996851E+02
             -0.357593738996783E+02
             -0.150051679286662E+01
             -0.763306949006225E+01
             -0.550857530119015E+01
             -0.181642567930081E+02
             -0.293937877684980E+02
              0.632062752541177E+01
              0.112223577606285E+02
              0.537073431592713E+02
             -0.391071344806163E+02
              0.374855527304068E+02
              0.439414649367004E+02
             -0.187798918082711E+02
              0.874504481979757E+02
             -0.699623151081328E+02
             -0.103449410740986E+03
             -0.655963636206613E+01
             -0.268170524105039E+01
              0.388023537068511E+01
              0.791007858729274E+02
             -0.107112709548500E+02
              0.417584951668085E+02
              0.444740455674754E+02
              0.386505413290980E+02
             -0.991205601527395E+01
              0.629993140176007E+02
             -0.133909603776106E+02
             -0.308239885291482E+02
             -0.480984216907616E+02
              0.588448875855828E+01
              0.371338625310185E+02
             -0.605535452159964E+01
              0.394527772582093E+02
             -0.174421832854836E+01
              0.657192131864100E+02
              0.188373330841171E+02
              0.999820278669664E+01
             -0.121847433018712E+02
              0.332979936643065E+02
              0.364129194889891E+02
              0.233387711833245E+02
             -0.546163303023206E+00
             -0.551925701238407E+02
              0.261283451055021E+02
              0.175713305354967E+02
              0.403900238574561E+02
              0.273274401721699E+02
              0.373594822824697E+02
             -0.609218439990156E+01
              0.251512857419778E+02
             -0.299282595259419E+02
             -0.198125301084599E+01
             -0.570734899600639E+02
             -0.309594439805180E+02
              0.380189168026287E+02
             -0.937884242468861E+02
              0.295137910290126E+02
              0.184309125337886E+02
              0.842036097936309E+02
             -0.302044030789419E+02
              0.329732168374600E+02
             -0.138402176619267E+02
             -0.465501457986914E+02
             -0.764064877959603E+02
             -0.522758243528654E+01
             -0.862086146755225E+02
              0.200296966552560E+02
             -0.248137048278882E+02
              0.306721037314398E+02
              0.236932198787351E+02
             -0.241333145025528E+02
             -0.265743452810332E+02
              0.392290344483179E+02
             -0.588914380816653E+02
             -0.116637447019998E+02
             -0.196496767545285E+02
              0.213104311249700E+02
             -0.897971415632867E+01
              0.363191891492818E+01
             -0.201239310065975E+02
              0.559973622637616E+02
             -0.439924994333709E+02
[...]
             -0.189190516406761E+02
              0.329757472985625E+02
             -0.426916937488431E+01
              0.189679705032460E+02
              0.336711020507688E+02
             -0.589464532845471E+02
              0.222817970639962E+02
              0.583852464479392E+02
              0.555074855180828E+02
             -0.424965130502329E+01
             -0.139714949135976E+01
             -0.994381776501194E+01
             -0.483592576343132E+02
             -0.676884770040219E+02
              0.787681934100313E+02
             -0.528592736206230E+01
             -0.589535087168447E+02
              0.169135677091424E+01
             -0.205932727028167E+02
              0.940705760440466E+02
             -0.216588187307340E+02
             -0.354544174859819E+02
              0.335751962125340E+02
             -0.145857456218594E+02
              0.390887267815168E+02
             -0.247133321341903E+01
              0.101372407465536E+03
              0.490669452470571E+02
             -0.515539248060479E+01
             -0.322773424722088E+02
              0.232975888096608E+02
             -0.529977613306720E+02
             -0.128163548114810E+02
              0.587482475833210E+02
             -0.288214170458169E+02
             -0.439593786614470E+02
             -0.223487436267966E+02
              0.520516004221647E+02
              0.125435838276643E+02
             -0.851323360459800E+02
              0.304880998831823E+02
              0.152319948090293E+02
              0.576722871384766E+01
             -0.514491086431656E+02
             -0.371950287239429E+01
              0.324023724634895E+02
              0.514598521663019E+02
              0.633347288265326E+02
              0.229791371799837E+02
              0.819298725854480E+00
             -0.499003139790015E+02
             -0.510755923496432E+02
             -0.750328012219451E+02
             -0.609719085679069E+01
              0.309684017244434E+02
             -0.382584897396421E+01
              0.548231849102500E+02
             -0.318548713940381E+02
              0.167201774585193E+02
             -0.102647664019570E+02
             -0.289810536533142E+02
              0.586758650496573E+02
              0.791761592058981E+01
              0.605146773686779E+02
              0.509840492468516E+01
              0.265886029979913E+02
             -0.193241933053960E+02
              0.587824758335364E+02
             -0.110998668643561E+02
             -0.176890860817437E+00
             -0.792207277555238E+02
             -0.128718488259612E+02
              0.721020799395238E+02
              0.675423651650370E+02
              0.251798585522612E+02
             -0.130822615825318E+02
              0.337944062907101E+01
             -0.173627760633585E+02
             -0.202694302959415E+01
              0.909312639146056E+02
              0.123254381999368E+01
             -0.190708535006400E+02
             -0.111046888232761E+03
             -0.554630602715153E+02
             -0.375588481715469E+02
             -0.660610417755892E+02
             -0.556603260661748E+02
             -0.685031223144299E+02
             -0.447951753098305E+02
             -0.411747178427790E+02
             -0.452906193092523E+02
              0.484444425304105E+02
             -0.295282619407762E+02
             -0.999469284854126E+02
              0.420030555610163E+02
             -0.260304908231873E+02
             -0.792923583934306E+02
              0.947080623089291E+02
             -0.220303797210566E+02
              0.228630348674651E+02
              0.456632203901622E+02
             -0.141093023476816E+01
              0.254732450935024E+02
              0.469390202488327E+01
              0.439840500459951E+00
             -0.150247232137072E+02
             -0.716868276558607E+02
              0.133719397168925E+02
             -0.129723428381979E+03
              0.624865559887475E+02
             -0.441508741226699E+02
             -0.163216872940783E+02
             -0.158614561643464E+02
              0.715509529919706E+01
             -0.228273284182696E+02
              0.298517269590225E+02
             -0.522195717323870E+02
              0.368535990996674E+02
              0.371103558121979E+02
              0.169461911378719E+02
              0.100247990088770E+02
              0.198196808858043E+02
              0.623073702708882E+01
              0.311732012829369E+02
             -0.800298995268702E+01
             -0.593103311985749E+02
              0.759859734248226E+01
             -0.153474861961661E+02
             -0.190564107082776E+01
              0.506748960905795E+02
             -0.828973128736208E+02
             -0.156248380584742E+01
              0.543533596193754E+00
              0.997071593579238E+01
              0.319267508245033E+02
             -0.123862050215863E+02
              0.837971983685071E+02
              0.489302121284214E+02
             -0.184173744527203E+02
             -0.968659204565353E+01
              0.109774126802446E+01
              0.771803498940099E+02
             -0.587703221867102E+02
             -0.106049921700317E+03
              0.309678101343122E+02
             -0.162647770198831E+02
             -0.139392533957319E+02
              0.130767651585639E+02
              0.770529450795802E+02
              0.465353013843080E+02
             -0.153790987788373E+02
             -0.503981337868980E+02
             -0.552013005243333E+01
              0.307189663461098E+02
             -0.112068906545472E+02
             -0.757556599838961E+02
             -0.269799305143590E+01
             -0.891766959041423E+02
             -0.476789489995361E+02
              0.769826614261487E+02
             -0.484424406311880E+02
             -0.638070352800223E+02
             -0.515719570191105E+02
             -0.350522364216832E+02
              0.341109909125159E+02
              0.823459968320693E+02
             -0.354241642903452E+01
              0.277196346701524E+02
             -0.183865703673164E+02
             -0.695223381146477E+02
              0.466305209098233E+02
             -0.445795071029547E+02
              0.323083113416523E+02
              0.377417865536647E+02
             -0.659656279867994E+01
              0.392202877484413E+02
              0.439880853104090E+02
              0.100850783492112E+03
             -0.156754145457141E+02
             -0.456476506011497E+02
             -0.614349893269469E+02
             -0.124237487086796E+02
             -0.233575466897778E+02
              0.103296997470329E+03
             -0.449868299226325E+02
              0.105422287697162E+02
              0.976073710086024E+01
             -0.265347499628895E+02
             -0.800050162870311E+02
             -0.700935960767049E+01
              0.981947910807419E+02
              0.941272411332022E+01
              0.815226373046585E+01
             -0.527572686357683E+02
             -0.606328738869342E+02
             -0.564934733594406E+01
              0.501286440346830E+02
             -0.222307060891885E+02
              0.108229444681622E+03
             -0.435759798063088E+02
              0.146550712757141E+02
             -0.225195378654847E+02
             -0.719784491622771E+02
              0.168878483609996E+01
             -0.503222086319179E+02
             -0.762248754236491E+02
              0.612298030666932E+01
              0.235230630018955E+01
              0.514975624378795E+02
              0.187781404101850E+02
             -0.324168009360727E+02
              0.230889521780393E+02
             -0.811929720829105E+02
             -0.523256229928696E+02
              0.904123495247128E+02
              0.142934420731518E+02
             -0.188468391151159E+02
             -0.353135709261057E+02
             -0.264167299075234E+01
             -0.586917931412540E+01
              0.831172243112210E+02
              0.418371176761727E+02
             -0.166674647105841E+02
             -0.122640129602785E+02
             -0.428953120707610E+02
             -0.201575527652458E+02
             -0.671801853546741E+02
              0.460610997962800E+02
              0.544026113401759E+01
              0.145073261737550E+02
              0.156085002236429E+02
             -0.570809116385288E+00
             -0.168841727185815E+02
             -0.315555161748568E+01
             -0.100655485789728E+03
             -0.230079410000615E+02
             -0.759706419789683E+01
             -0.951270548548112E+01
              0.548524585064196E+02
              0.624911184770628E+02
              0.165164736420963E+02
             -0.972815086119259E+02
              0.649279490096840E+02
             -0.215734469153531E+02
             -0.377839298608004E+02
             -0.866178945045251E+02
             -0.387962582671613E+02
              0.565080762206436E+02
              0.244433520935600E+02
              0.517173716259811E+01
              0.293072632021010E+02
             -0.566069640676093E+02
             -0.423418343480372E+02
              0.516490364361972E+02
              0.388306394856221E+02
              0.520304109769828E+02
             -0.131805038889405E+01
              0.683498099351419E+01
              0.570641091332790E+02
              0.965283728695862E+02
             -0.300969766423856E+02
              0.323366519037447E+02
             -0.117704304813683E+02
             -0.413212397054299E+02
             -0.314684063810805E+02
             -0.300062576949892E+02
             -0.131674872884543E+02
             -0.524866290610657E+02
             -0.218156752750934E+02
             -0.141439096236221E+03
              0.369487900876063E+02
              0.207802696311349E+02
             -0.390631541855837E+01
             -0.380725954147119E+02
             -0.205090494105067E+02
             -0.527835796397189E+02
              0.151320044153849E+02
              0.821756044038456E+02
             -0.252477112094510E+02
             -0.163213711769467E+02
              0.238123037848293E+02
             -0.489999437190089E+02
              0.882981114129180E+02
              0.155264857852070E+02
              0.226977730679338E+02
              0.491696812363010E+02
              0.325151441555698E+01
              0.543711391329653E+02
              0.143039345355304E+02
             -0.107033808243026E+02
              0.737468432752561E+01
              0.841515887434298E+00
              0.729646006276557E+02
              0.101107663145750E+02
              0.120371252091125E+02
             -0.129736586871304E+02
              0.132251814000303E+02
             -0.913826577933810E+02
             -0.326689663467248E+02
             -0.458080825843841E+02
              0.487096661265169E+02
             -0.291824035739198E+02
             -0.660269334863536E+02
              0.539631178538538E+02
             -0.122944486416973E+02
              0.441198127816460E+02
             -0.901019267513818E+02
              0.232842462190784E+02
              0.862465422627241E+01
              0.580061477461572E+01
             -0.835208833340431E+01
             -0.905308103244658E+01
              0.480568286265939E+02
              0.204067607492226E+01
             -0.475728871946089E+02
             -0.176429131635658E+02
              0.277742577920984E+02
             -0.118213072765579E+03
             -0.932041947361996E+02
              0.400496705768069E+01
              0.118010091311588E+02
             -0.413481709720734E+02
             -0.390631909804478E+01
              0.112397789919594E+03
              0.308168115830204E+02
             -0.572665122614591E+02
              0.926993034323849E+01
             -0.968616758879874E+01
              0.105516948116474E+02
             -0.337760126456593E+02
              0.195367624922083E+02
              0.284983234051388E+02
             -0.301322731671189E+01
              0.108412700131618E+03
             -0.140516921733891E+02
             -0.316801223689791E+02
              0.143766902554936E+02
              0.467925825885005E+02
             -0.356713166814662E+02
             -0.317809539726021E+01
              0.966516385565667E+02
             -0.470296972131916E+01
              0.622361389741367E+02
              0.135856519956591E+02
             -0.909319418203128E+01
             -0.305341621364005E+02
              0.567906523483469E+02
             -0.515860480419676E+02
             -0.226013562798943E+01
             -0.170561286256589E+02
             -0.406338379562140E+02
              0.184764328812113E+02
              0.238690776338127E+02
              0.116096061423472E+02
              0.714847516623536E+00
             -0.385009105097590E+02
              0.216399398739449E+02
             -0.673177258170352E+01
             -0.247295436044034E+02
             -0.211412534955539E+02
              0.204526267680232E+02
             -0.594858453513871E+01
             -0.349797964752798E+02
             -0.106818666383924E+03
              0.102607493852578E+02
              0.249709538586254E+02
             -0.387693366564254E+02
             -0.211215447865020E+02
              0.808527792609219E+02
              0.649297981849071E+01
              0.311661728661644E+02
              0.391152294377511E+01
              0.322277751989887E+02
              0.646510922361347E+01
             -0.373891085999819E+02
             -0.226766555681138E+01
              0.878774624666488E+01
              0.274333685987704E+02
              0.784378013649774E+02
              0.508783921726852E+02
              0.170235666209919E+00
              0.168358336608036E+02
              0.614257939907699E+02
              0.236400591989690E+02
             -0.754935365185412E+02
             -0.274405247946210E+02
              0.151714452580932E+02
              0.563605717738255E+01
              0.255956126300402E+02
             -0.549316659057931E+02
              0.902560983102762E+01
              0.386037869342389E+02
              0.499703174788276E+02
             -0.435991276094762E+02
             -0.693622067185134E+01
             -0.209675364421241E+01
             -0.134532581481322E+02
             -0.366785160529654E+02
             -0.215805463144638E+02
             -0.196457439499395E+01
              0.793935590329886E+01
              0.422287204902965E+02
             -0.309189340734907E+02
              0.827822795886565E+02
              0.328486933674268E+02
              0.219607680980317E+02
              0.333276944054742E+02
              0.324344590086521E+02
              0.346107039061490E+02
              0.538573407802455E+02
             -0.434983923701339E+02
              0.620941589474020E+02
             -0.112474976233727E+03
              0.308404426199435E+02
             -0.106790145160126E+03
              0.856528559387424E+02
              0.692215576336109E+02
             -0.110194234278977E+02
             -0.494722969249616E+02
             -0.430330928345891E+02
             -0.625259424335151E+02
             -0.630062467017437E+02
              0.552417539642159E+02
              0.406661234047507E+02
              0.237400627282861E+02
              0.374990024921653E+02
              0.403624498151658E+02
             -0.383044645275677E+02
             -0.198130915596365E+02
              0.587336256778215E+02
             -0.115829827835573E+02
              0.552306483793894E+02
              0.701019535588573E+02
             -0.548237222836975E+01
             -0.707874205366096E+02
             -0.983029277585615E+00
             -0.243096034952980E+01
             -0.886417376172199E+01
             -0.173239520775036E+01
             -0.654573626621353E+02
             -0.211570999229502E+02
              0.540362173774028E+01
              0.895063843494603E+01
              0.469888136182593E+02
             -0.398647769556598E+02
              0.659596756335785E+02
             -0.426092263224291E+02
              0.210586815866880E+02
              0.351302441854644E+02

 BEEF-vdW xc energy contributions
           1 :   -785.12364145537686     
           2 :    721.59228437334104     
           3 :   -611.38735802566111     
           4 :    481.32106525027530     
           5 :   -358.80334345904680     
           6 :    263.76997494381794     
           7 :   -204.09332249851605     
           8 :    175.46854011496202     
           9 :   -165.35553814611558     
          10 :    159.11162383136048     
          11 :   -145.78879405564226     
          12 :    121.42274251550998     
          13 :   -88.944979848008870     
          14 :    55.334109295862845     
          15 :   -27.638779517951434     
          16 :    9.6782454859080644     
          17 :  -0.70929592036441136     
          18 :   -3.6531623715186470     
          19 :    8.9656921136829624     
          20 :   -19.231583453066833     
          21 :    35.174066848462417     
          22 :   -54.190890653861743     
          23 :    71.841290229281412     
          24 :   -84.046962474902330     
          25 :    88.932826987114368     
          26 :   -87.497553919367419     
          27 :    82.902779116247416     
          28 :   -78.825784022264997     
          29 :    77.712586802588362     
          30 :   -79.755651257438103     
          31 :   -86.031924797335250     
          32 :   -65.988418478925041     

     Writing all to output data dir ./pwscf.save/

     init_run     :      8.30s CPU      8.61s WALL (       1 calls)
     electrons    :    265.09s CPU    269.24s WALL (       1 calls)
     forces       :      3.06s CPU      3.11s WALL (       1 calls)

     Called by init_run:
     wfcinit      :      4.35s CPU      4.43s WALL (       1 calls)
     potinit      :      2.22s CPU      2.38s WALL (       1 calls)
     hinit0       :      1.19s CPU      1.23s WALL (       1 calls)

     Called by electrons:
     c_bands      :    219.95s CPU    222.35s WALL (      24 calls)
     sum_band     :     25.32s CPU     25.76s WALL (      24 calls)
     v_of_rho     :      6.71s CPU      7.83s WALL (      24 calls)
     newd         :      1.46s CPU      1.51s WALL (      24 calls)
     PAW_pot      :      2.54s CPU      2.55s WALL (      24 calls)
     mix_rho      :     10.13s CPU     10.28s WALL (      24 calls)
     vdW_kernel   :      0.88s CPU      0.89s WALL (       1 calls)

     Called by c_bands:
     init_us_2    :      1.70s CPU      1.73s WALL (     350 calls)
     init_us_2:cp :      1.70s CPU      1.73s WALL (     350 calls)
     cegterg      :    210.16s CPU    212.45s WALL (     168 calls)

     Called by *egterg:
     cdiaghg      :     42.17s CPU     42.55s WALL (     754 calls)
     h_psi        :    113.66s CPU    114.98s WALL (     768 calls)
     s_psi        :     14.59s CPU     14.72s WALL (     768 calls)
     g_psi        :      0.28s CPU      0.28s WALL (     593 calls)

     Called by h_psi:
     h_psi:calbec :     17.71s CPU     17.88s WALL (     768 calls)
     vloc_psi     :     80.37s CPU     81.38s WALL (     768 calls)
     add_vuspsi   :     14.97s CPU     15.11s WALL (     768 calls)

     General routines
     calbec       :     25.55s CPU     25.81s WALL (     964 calls)
     fft          :      7.93s CPU      9.18s WALL (    3510 calls)
     ffts         :      6.81s CPU      6.91s WALL (    9596 calls)
     fftw         :     90.48s CPU     91.64s WALL (  225836 calls)
     interpolate  :      0.35s CPU      0.40s WALL (      24 calls)

     Parallel routines

     PWSCF        :   4m46.41s CPU   4m53.30s WALL


   This run was terminated on:   4:13:21   7Apr2026            

=------------------------------------------------------------------------------=
   JOB DONE.
=------------------------------------------------------------------------------=
