
     Program PWSCF v.7.1 starts on  6Dec2025 at 13:57:55 
        Git branch: heads/qe-7.1
        Last git commit: 48ba0178f8fede6d020eb786884699a9f063f55d-dirty
        Last git commit date: Fri Jan 27 14:22:33 2023 +0000
        Last git commit subject: Merge branch 'fix_hubbard' into 'develop'

     This program is part of the open-source Quantum ESPRESSO suite
     for quantum simulation of materials; please cite
         "P. Giannozzi et al., J. Phys.:Condens. Matter 21 395502 (2009);
         "P. Giannozzi et al., J. Phys.:Condens. Matter 29 465901 (2017);
         "P. Giannozzi et al., J. Chem. Phys. 152 154105 (2020);
          URL http://www.quantum-espresso.org", 
     in publications or presentations arising from this work. More details at
     http://www.quantum-espresso.org/quote

     Parallel version (MPI), running on    96 processors

     MPI processes distributed on     2 nodes
     10444 MiB available memory on the printing compute node when the environment starts

     Reading input from espresso.pwi
Warning: card &CELL ignored
Warning: card / ignored
Warning: card &FCP ignored
Warning: card / ignored
Warning: card &RISM ignored
Warning: card / ignored

     Current dimensions of program PWSCF are:
     Max number of different atomic species (ntypx) = 10
     Max number of k-points (npk) =  40000
     Max angular momentum in pseudopotentials (lmaxx) =  4
     file Co.pbe-n-kjpaw_psl.1.0.0.UPF: wavefunction(s)  4S 3D renormalized
     file C.pbe-n-kjpaw_psl.1.0.0.UPF: wavefunction(s)  2S 2P renormalized
     file O.pbe-nl-kjpaw_psl.1.0.0.UPF: wavefunction(s)  2S 2P renormalized
     file H.pbe-kjpaw_psl.1.0.0.UPF: wavefunction(s)  1S renormalized

     **************************************************************************
     Initializing libbeef V0.1.2 with the BEEF-vdW functional.
     Citation: Wellendorff et al., PRB 85, 235149 (2012).
     **************************************************************************


     IMPORTANT: XC functional enforced from input :
     Exchange-correlation= BEEF-VDW
                           (   1   4  43  14   2   0   0)
     Any further DFT definition will be discarded
     Please, verify this is what you really want


     R & G space division:  proc/nbgrp/npool/nimage =      96
     Subspace diagonalization in iterative solution of the eigenvalue problem:
     one sub-group per band group will be used
     custom distributed-memory algorithm (size of sub-group:  2*  2 procs)


     Parallelization info
     --------------------
     sticks:   dense  smooth     PW     G-vecs:    dense   smooth      PW
     Min          43      23      6                 7829     3049     440
     Max          44      24      7                 7845     3068     465
     Sum        4153    2221    613               752179   293251   42993

     Using Slab Decomposition



     bravais-lattice index     =            0
     lattice parameter (alat)  =      14.1729  a.u.
     unit-cell volume          =    8574.3059 (a.u.)^3
     number of atoms/cell      =           39
     number of atomic types    =            4
     number of electrons       =       335.00
     number of Kohn-Sham states=          202
     kinetic-energy cutoff     =      40.0000  Ry
     charge density cutoff     =     300.0000  Ry
     scf convergence threshold =      1.0E-06
     mixing beta               =       0.7000
     number of iterations used =            8  local-TF  mixing
     Exchange-correlation= BEEF-VDW
                           (   1   4  43  14   2   0   0)

     celldm(1)=  14.172946  celldm(2)=   0.000000  celldm(3)=   0.000000
     celldm(4)=   0.000000  celldm(5)=   0.000000  celldm(6)=   0.000000

     crystal axes: (cart. coord. in units of alat)
               a(1) = (   1.000000   0.000000   0.000000 )  
               a(2) = (   0.500000   0.866025   0.000000 )  
               a(3) = (   0.000000   0.000000   3.477667 )  

     reciprocal axes: (cart. coord. in units 2 pi/alat)
               b(1) = (  1.000000 -0.577350  0.000000 )  
               b(2) = (  0.000000  1.154701  0.000000 )  
               b(3) = (  0.000000  0.000000  0.287549 )  


     PseudoPot. # 1 for Co read from file:
     /users/kbadger1/espresso/pseudo/pslibrary.1.0.0/pbe/PSEUDOPOTENTIALS/Co.pbe-n-kjpaw_psl.1.0.0.UPF
     MD5 check sum: 88af6ec42553d4236c267fdfcb472151
     Pseudo is Projector augmented-wave + core cor, Zval =  9.0
     Generated using 'atomic' code by A. Dal Corso  v.7.0
     Shape of augmentation charge: PSQ
     Using radial grid of 1193 points,  6 beta functions with: 
                l(1) =   0
                l(2) =   0
                l(3) =   1
                l(4) =   1
                l(5) =   2
                l(6) =   2
     Q(r) pseudized with 0 coefficients 


     PseudoPot. # 2 for C  read from file:
     /users/kbadger1/espresso/pseudo/pslibrary.1.0.0/pbe/PSEUDOPOTENTIALS/C.pbe-n-kjpaw_psl.1.0.0.UPF
     MD5 check sum: 6408e75cdba28732cea38a4db8498ce4
     Pseudo is Projector augmented-wave + core cor, Zval =  4.0
     Generated using 'atomic' code by A. Dal Corso  v.7.0
     Shape of augmentation charge: PSQ
     Using radial grid of 1073 points,  4 beta functions with: 
                l(1) =   0
                l(2) =   0
                l(3) =   1
                l(4) =   1
     Q(r) pseudized with 0 coefficients 


     PseudoPot. # 3 for O  read from file:
     /users/kbadger1/espresso/pseudo/pslibrary.1.0.0/pbe/PSEUDOPOTENTIALS/O.pbe-nl-kjpaw_psl.1.0.0.UPF
     MD5 check sum: f0439fab3598ca4e468f064226030408
     Pseudo is Projector augmented-wave + core cor, Zval =  6.0
     Generated using 'atomic' code by A. Dal Corso  v.7.0
     Shape of augmentation charge: PSQ
     Using radial grid of 1095 points,  4 beta functions with: 
                l(1) =   0
                l(2) =   0
                l(3) =   1
                l(4) =   1
     Q(r) pseudized with 0 coefficients 


     PseudoPot. # 4 for H  read from file:
     /users/kbadger1/espresso/pseudo/pslibrary.1.0.0/pbe/PSEUDOPOTENTIALS/H.pbe-kjpaw_psl.1.0.0.UPF
     MD5 check sum: fe4c6fa958fa6d3815bf5d2419cbf1df
     Pseudo is Projector augmented-wave, Zval =  1.0
     Generated using 'atomic' code by A. Dal Corso  v.7.0
     Shape of augmentation charge: PSQ
     Using radial grid of  929 points,  2 beta functions with: 
                l(1) =   0
                l(2) =   0
     Q(r) pseudized with 0 coefficients 


     atomic species   valence    mass     pseudopotential
        Co             9.00    58.93319     Co( 1.00)
        C              4.00    12.01100     C ( 1.00)
        O              6.00    15.99900     O ( 1.00)
        H              1.00     1.00800     H ( 1.00)

     Starting magnetic structure 
     atomic species   magnetization
        Co           1.000
        C            1.000
        O            0.000
        H            0.000

     No symmetry found



   Cartesian axes

     site n.     atom                  positions (alat units)
         1           Co  tau(   1) = (   0.0000000   0.1924501   1.3333333  )
         2           Co  tau(   2) = (   0.3333333   0.1924501   1.3333333  )
         3           Co  tau(   3) = (   0.6666667   0.1924501   1.3333333  )
         4           Co  tau(   4) = (   0.1666667   0.4811252   1.3333333  )
         5           Co  tau(   5) = (   0.5000000   0.4811252   1.3333333  )
         6           Co  tau(   6) = (   0.8333333   0.4811252   1.3333333  )
         7           Co  tau(   7) = (   0.3333333   0.7698004   1.3333333  )
         8           Co  tau(   8) = (   0.6666667   0.7698004   1.3333333  )
         9           Co  tau(   9) = (   1.0000000   0.7698004   1.3333333  )
        10           Co  tau(  10) = (   0.0000000   0.0000000   1.6036667  )
        11           Co  tau(  11) = (   0.3333333   0.0000000   1.6036667  )
        12           Co  tau(  12) = (   0.6666667   0.0000000   1.6036667  )
        13           Co  tau(  13) = (   0.1666667   0.2886751   1.6036667  )
        14           Co  tau(  14) = (   0.5000000   0.2886751   1.6036667  )
        15           Co  tau(  15) = (   0.8333333   0.2886751   1.6036667  )
        16           Co  tau(  16) = (   0.3333333   0.5773503   1.6036667  )
        17           Co  tau(  17) = (   0.6666667   0.5773503   1.6036667  )
        18           Co  tau(  18) = (   1.0000000   0.5773503   1.6036667  )
        19           Co  tau(  19) = (   0.0000000   0.1924501   1.8740000  )
        20           Co  tau(  20) = (   0.3333333   0.1924501   1.8740000  )
        21           Co  tau(  21) = (   0.6666667   0.1924501   1.8740000  )
        22           Co  tau(  22) = (   0.1666667   0.4811252   1.8740000  )
        23           Co  tau(  23) = (   0.5000000   0.4811252   1.8740000  )
        24           Co  tau(  24) = (   0.8333333   0.4811252   1.8740000  )
        25           Co  tau(  25) = (   0.3333333   0.7698004   1.8740000  )
        26           Co  tau(  26) = (   0.6666667   0.7698004   1.8740000  )
        27           Co  tau(  27) = (   1.0000000   0.7698004   1.8740000  )
        28           Co  tau(  28) = (   0.0000000   0.0000000   2.1443333  )
        29           Co  tau(  29) = (   0.3333333   0.0000000   2.1443333  )
        30           Co  tau(  30) = (   0.6666667   0.0000000   2.1443333  )
        31           Co  tau(  31) = (   0.1666667   0.2886751   2.1443333  )
        32           Co  tau(  32) = (   0.5000000   0.2886751   2.1443333  )
        33           Co  tau(  33) = (   0.8333333   0.2886751   2.1443333  )
        34           Co  tau(  34) = (   0.3333333   0.5773503   2.1443333  )
        35           Co  tau(  35) = (   0.6666667   0.5773503   2.1443333  )
        36           Co  tau(  36) = (   1.0000000   0.5773503   2.1443333  )
        37           C   tau(  37) = (   0.2220558  -0.0181365   2.3651359  )
        38           O   tau(  38) = (   0.0722287  -0.0389197   2.4344129  )
        39           H   tau(  39) = (   0.3412665  -0.0000891   2.4509863  )

     number of k points=    13  Marzari-Vanderbilt smearing, width (Ry)=  0.0010
                       cart. coord. in units 2pi/alat
        k(    1) = (   0.0000000   0.0000000   0.0000000), wk =   0.0400000
        k(    2) = (   0.0000000   0.2309401   0.0000000), wk =   0.0800000
        k(    3) = (   0.0000000   0.4618802   0.0000000), wk =   0.0800000
        k(    4) = (   0.2000000  -0.1154701   0.0000000), wk =   0.0800000
        k(    5) = (   0.2000000   0.1154701   0.0000000), wk =   0.0800000
        k(    6) = (   0.2000000   0.3464102   0.0000000), wk =   0.0800000
        k(    7) = (   0.2000000  -0.5773503   0.0000000), wk =   0.0800000
        k(    8) = (   0.2000000  -0.3464102   0.0000000), wk =   0.0800000
        k(    9) = (   0.4000000  -0.2309401   0.0000000), wk =   0.0800000
        k(   10) = (   0.4000000   0.0000000   0.0000000), wk =   0.0800000
        k(   11) = (   0.4000000   0.2309401   0.0000000), wk =   0.0800000
        k(   12) = (   0.4000000  -0.6928203   0.0000000), wk =   0.0800000
        k(   13) = (   0.4000000  -0.4618802   0.0000000), wk =   0.0800000

     Dense  grid:   752179 G-vectors     FFT dimensions: (  80,  80, 288)

     Smooth grid:   293251 G-vectors     FFT dimensions: (  60,  60, 200)

     Estimated max dynamical RAM per process >      84.82 MB

     Estimated total dynamical RAM >       7.95 GB
     Generating pointlists ...
     new r_m :   0.1023 (alat units)  1.4494 (a.u.) for type    1
     new r_m :   0.0611 (alat units)  0.8653 (a.u.) for type    2
     new r_m :   0.0686 (alat units)  0.9727 (a.u.) for type    3
     new r_m :   0.0611 (alat units)  0.8653 (a.u.) for type    4

     Initial potential from superposition of free atoms

     starting charge     334.9897, renormalised to     335.0000

     negative rho (up, down):  3.008E-03 4.719E-04


     %%%%%%%%%%%%%%%%%%%%%%%%%%%%%%%%%%%%%%%%%%%%%%%%%%%%%%%%%%%%%%%%%%%%%%%%
     %                                                                      %
     % You are using vdW-DF, which was implemented by the Thonhauser group. %
     % Please cite the following two papers that made this development      %
     % possible and the two reviews that describe the various versions:     %
     %                                                                      %
     %   T. Thonhauser et al., PRL 115, 136402 (2015).                      %
     %   T. Thonhauser et al., PRB 76, 125112 (2007).                       %
     %   K. Berland et al., Rep. Prog. Phys. 78, 066501 (2015).             %
     %   D.C. Langreth et al., J. Phys.: Condens. Matter 21, 084203 (2009). %
     %                                                                      %
     % If you are calculating stress with vdW-DF, please also cite:         %
     %                                                                      %
     %   R. Sabatini et al., J. Phys.: Condens. Matter 24, 424209 (2012).   %
     %   C.M. Frostenson et al., Electr. Struct. 4, 014001 (2022).          %
     %                                                                      %
     %%%%%%%%%%%%%%%%%%%%%%%%%%%%%%%%%%%%%%%%%%%%%%%%%%%%%%%%%%%%%%%%%%%%%%%%

     %%%%%%%%%%%%%%%%%%%%%%%%%%%%%%%%%%%%%%%%%%%%%%%%%%%%%%%%%%%%%%%%%%%%%%%%
     %                                                                      %
     %  vdW-DF NEWS:                                                        %
     %                                                                      %
     %  * vdW-DF3 is now available. DOI: 10.1021/acs.jctc.0c00471           %
     %    use with input_dft = 'vdW-DF3-opt1' or 'vdW-DF3-opt2'             %
     %                                                                      %
     %  * Unscreened and range-separated hybrid vdW-DF-cx functionals       %
     %    DOI: 10.1063/1.4986522 and 10.1088/1361-648X/ac2ad2               %
     %    use with input_dft = 'vdW-DF-cx0'    and 'vdW-DF-ahcx'            %
     %  * Unscreened and range-separated hybrid vdW-DF2-b86r functionals    %
     %    DOI: 10.1063/1.4986522 and DOI: 10.1103/PhysRevX.12.041003        %
     %    use with input_dft = 'vdW-DF2-br0' and 'vdW-DF2-ahbr'             %
     %                                                                      %
     %%%%%%%%%%%%%%%%%%%%%%%%%%%%%%%%%%%%%%%%%%%%%%%%%%%%%%%%%%%%%%%%%%%%%%%%


     Starting wfcs are  333 randomized atomic wfcs
     Checking if some PAW data can be deallocated... 

     total cpu time spent up to now is       11.6 secs

     per-process dynamical memory:   212.4 Mb

     Self-consistent Calculation

     iteration #  1     ecut=    40.00 Ry     beta= 0.70
     Davidson diagonalization with overlap
     ethr =  1.00E-02,  avg # of iterations =  2.0

     negative rho (up, down):  4.914E-05 9.252E-07

     total cpu time spent up to now is       35.1 secs

     total energy              =   -6052.96160468 Ry
     estimated scf accuracy    <      39.85757004 Ry

     total magnetization       =    69.00 Bohr mag/cell
     absolute magnetization    =    81.30 Bohr mag/cell

     iteration #  2     ecut=    40.00 Ry     beta= 0.70
     Davidson diagonalization with overlap
     ethr =  1.00E-02,  avg # of iterations =  1.0

     negative rho (up, down):  1.999E-05 5.399E-07

     total cpu time spent up to now is       55.4 secs

     total energy              =   -6052.39182635 Ry
     estimated scf accuracy    <      24.96790383 Ry

     total magnetization       =    68.69 Bohr mag/cell
     absolute magnetization    =    76.80 Bohr mag/cell

     iteration #  3     ecut=    40.00 Ry     beta= 0.70
     Davidson diagonalization with overlap
     ethr =  7.45E-03,  avg # of iterations =  1.0

     negative rho (up, down):  9.714E-07 1.596E-06

     total cpu time spent up to now is       67.6 secs

     total energy              =   -6055.00720776 Ry
     estimated scf accuracy    <      86.53105115 Ry

     total magnetization       =    65.67 Bohr mag/cell
     absolute magnetization    =    73.05 Bohr mag/cell

     iteration #  4     ecut=    40.00 Ry     beta= 0.70
     Davidson diagonalization with overlap
     ethr =  7.45E-03,  avg # of iterations =  1.0

     negative rho (up, down):  9.726E-07 4.182E-07

     total cpu time spent up to now is       87.9 secs

     total energy              =   -6056.20082724 Ry
     estimated scf accuracy    <       5.59592255 Ry

     total magnetization       =    60.36 Bohr mag/cell
     absolute magnetization    =    70.44 Bohr mag/cell

     iteration #  5     ecut=    40.00 Ry     beta= 0.70
     Davidson diagonalization with overlap
     ethr =  1.67E-03,  avg # of iterations =  1.3

     negative rho (up, down):  8.833E-07 4.358E-07

     total cpu time spent up to now is       99.7 secs

     total energy              =   -6056.26074683 Ry
     estimated scf accuracy    <       2.69694618 Ry

     total magnetization       =    60.29 Bohr mag/cell
     absolute magnetization    =    69.86 Bohr mag/cell

     iteration #  6     ecut=    40.00 Ry     beta= 0.70
     Davidson diagonalization with overlap
     ethr =  8.05E-04,  avg # of iterations =  1.5

     negative rho (up, down):  8.939E-07 5.573E-07

     total cpu time spent up to now is      120.8 secs

     total energy              =   -6056.36118178 Ry
     estimated scf accuracy    <       0.55385425 Ry

     total magnetization       =    60.30 Bohr mag/cell
     absolute magnetization    =    69.68 Bohr mag/cell

     iteration #  7     ecut=    40.00 Ry     beta= 0.70
     Davidson diagonalization with overlap
     ethr =  1.65E-04,  avg # of iterations =  5.1

     negative rho (up, down):  7.206E-07 4.451E-07

     total cpu time spent up to now is      145.4 secs

     total energy              =   -6056.39335704 Ry
     estimated scf accuracy    <       0.83164455 Ry

     total magnetization       =    60.38 Bohr mag/cell
     absolute magnetization    =    69.35 Bohr mag/cell

     iteration #  8     ecut=    40.00 Ry     beta= 0.70
     Davidson diagonalization with overlap
     ethr =  1.65E-04,  avg # of iterations =  1.8

     negative rho (up, down):  2.276E-07 1.421E-07

     total cpu time spent up to now is      157.8 secs

     total energy              =   -6056.39682474 Ry
     estimated scf accuracy    <       0.15195834 Ry

     total magnetization       =    60.52 Bohr mag/cell
     absolute magnetization    =    69.31 Bohr mag/cell

     iteration #  9     ecut=    40.00 Ry     beta= 0.70
     Davidson diagonalization with overlap
     c_bands:  1 eigenvalues not converged
     ethr =  4.54E-05,  avg # of iterations = 12.4

     negative rho (up, down):  2.235E-07 1.568E-07

     total cpu time spent up to now is      191.9 secs

     total energy              =   -6056.42166664 Ry
     estimated scf accuracy    <       0.26705054 Ry

     total magnetization       =    61.23 Bohr mag/cell
     absolute magnetization    =    69.30 Bohr mag/cell

     iteration # 10     ecut=    40.00 Ry     beta= 0.70
     Davidson diagonalization with overlap
     ethr =  4.54E-05,  avg # of iterations =  1.5

     negative rho (up, down):  1.064E-07 5.546E-08

     total cpu time spent up to now is      212.0 secs

     total energy              =   -6056.42166242 Ry
     estimated scf accuracy    <       0.21308752 Ry

     total magnetization       =    61.25 Bohr mag/cell
     absolute magnetization    =    69.23 Bohr mag/cell

     iteration # 11     ecut=    40.00 Ry     beta= 0.70
     Davidson diagonalization with overlap
     ethr =  4.54E-05,  avg # of iterations =  1.5

     negative rho (up, down):  6.831E-08 4.689E-08

     total cpu time spent up to now is      225.0 secs

     total energy              =   -6056.41752184 Ry
     estimated scf accuracy    <       0.12988938 Ry

     total magnetization       =    61.05 Bohr mag/cell
     absolute magnetization    =    68.95 Bohr mag/cell

     iteration # 12     ecut=    40.00 Ry     beta= 0.70
     Davidson diagonalization with overlap
     ethr =  3.88E-05,  avg # of iterations =  1.5

     negative rho (up, down):  1.159E-06 4.700E-08

     total cpu time spent up to now is      245.1 secs

     total energy              =   -6056.41988910 Ry
     estimated scf accuracy    <       0.10037423 Ry

     total magnetization       =    60.97 Bohr mag/cell
     absolute magnetization    =    68.71 Bohr mag/cell

     iteration # 13     ecut=    40.00 Ry     beta= 0.70
     Davidson diagonalization with overlap
     ethr =  3.00E-05,  avg # of iterations =  1.5

     negative rho (up, down):  1.790E-08 2.678E-09

     total cpu time spent up to now is      265.5 secs

     total energy              =   -6056.41839055 Ry
     estimated scf accuracy    <       0.08351268 Ry

     total magnetization       =    61.03 Bohr mag/cell
     absolute magnetization    =    68.67 Bohr mag/cell

     iteration # 14     ecut=    40.00 Ry     beta= 0.70
     Davidson diagonalization with overlap
     ethr =  2.49E-05,  avg # of iterations =  1.4

     negative rho (up, down):  1.341E-04 1.098E-05

     total cpu time spent up to now is      277.3 secs

     total energy              =   -6056.41588739 Ry
     estimated scf accuracy    <       0.08281697 Ry

     total magnetization       =    61.22 Bohr mag/cell
     absolute magnetization    =    68.86 Bohr mag/cell

     iteration # 15     ecut=    40.00 Ry     beta= 0.70
     Davidson diagonalization with overlap
     ethr =  2.47E-05,  avg # of iterations =  1.3

     negative rho (up, down):  3.265E-03 1.847E-03

     total cpu time spent up to now is      298.4 secs

     total energy              =   -6056.41366163 Ry
     estimated scf accuracy    <       0.07169469 Ry

     total magnetization       =    61.14 Bohr mag/cell
     absolute magnetization    =    68.74 Bohr mag/cell

     iteration # 16     ecut=    40.00 Ry     beta= 0.70
     Davidson diagonalization with overlap
     ethr =  2.14E-05,  avg # of iterations =  3.0

     negative rho (up, down):  1.644E-02 1.440E-02

     total cpu time spent up to now is      311.6 secs

     total energy              =   -6056.41082244 Ry
     estimated scf accuracy    <       0.05435652 Ry

     total magnetization       =    61.15 Bohr mag/cell
     absolute magnetization    =    68.71 Bohr mag/cell

     iteration # 17     ecut=    40.00 Ry     beta= 0.70
     Davidson diagonalization with overlap
     ethr =  1.62E-05,  avg # of iterations =  2.3

     negative rho (up, down):  2.171E-02 1.935E-02

     total cpu time spent up to now is      333.0 secs

     total energy              =   -6056.41129765 Ry
     estimated scf accuracy    <       0.05133911 Ry

     total magnetization       =    61.22 Bohr mag/cell
     absolute magnetization    =    68.76 Bohr mag/cell

     iteration # 18     ecut=    40.00 Ry     beta= 0.70
     Davidson diagonalization with overlap
     ethr =  1.53E-05,  avg # of iterations =  1.5

     negative rho (up, down):  1.146E-02 1.005E-02

     total cpu time spent up to now is      353.7 secs

     total energy              =   -6056.41146971 Ry
     estimated scf accuracy    <       0.02481806 Ry

     total magnetization       =    61.24 Bohr mag/cell
     absolute magnetization    =    68.72 Bohr mag/cell

     iteration # 19     ecut=    40.00 Ry     beta= 0.70
     Davidson diagonalization with overlap
     c_bands:  4 eigenvalues not converged
     ethr =  7.41E-06,  avg # of iterations =  3.3

     negative rho (up, down):  2.362E-02 2.195E-02

     total cpu time spent up to now is      368.1 secs

     total energy              =   -6056.41131131 Ry
     estimated scf accuracy    <       0.02137944 Ry

     total magnetization       =    61.21 Bohr mag/cell
     absolute magnetization    =    68.73 Bohr mag/cell

     iteration # 20     ecut=    40.00 Ry     beta= 0.70
     Davidson diagonalization with overlap
     c_bands:  1 eigenvalues not converged
     ethr =  6.38E-06,  avg # of iterations =  2.1

     negative rho (up, down):  2.288E-02 2.142E-02

     total cpu time spent up to now is      389.3 secs

     total energy              =   -6056.41070912 Ry
     estimated scf accuracy    <       0.02085765 Ry

     total magnetization       =    61.22 Bohr mag/cell
     absolute magnetization    =    68.72 Bohr mag/cell

     iteration # 21     ecut=    40.00 Ry     beta= 0.70
     Davidson diagonalization with overlap
     ethr =  6.23E-06,  avg # of iterations =  1.3

     negative rho (up, down):  1.482E-02 1.360E-02

     total cpu time spent up to now is      401.1 secs

     total energy              =   -6056.41051094 Ry
     estimated scf accuracy    <       0.01166045 Ry

     total magnetization       =    61.19 Bohr mag/cell
     absolute magnetization    =    68.70 Bohr mag/cell

     iteration # 22     ecut=    40.00 Ry     beta= 0.70
     Davidson diagonalization with overlap
     c_bands:  3 eigenvalues not converged
     ethr =  3.48E-06,  avg # of iterations =  2.2

     negative rho (up, down):  1.041E-02 9.658E-03

     total cpu time spent up to now is      423.1 secs

     total energy              =   -6056.41038326 Ry
     estimated scf accuracy    <       0.01304939 Ry

     total magnetization       =    61.21 Bohr mag/cell
     absolute magnetization    =    68.72 Bohr mag/cell

     iteration # 23     ecut=    40.00 Ry     beta= 0.70
     Davidson diagonalization with overlap
     c_bands:  1 eigenvalues not converged
     ethr =  3.48E-06,  avg # of iterations =  2.0

     negative rho (up, down):  1.719E-02 1.638E-02

     total cpu time spent up to now is      444.2 secs

     total energy              =   -6056.41105319 Ry
     estimated scf accuracy    <       0.00714525 Ry

     total magnetization       =    61.19 Bohr mag/cell
     absolute magnetization    =    68.72 Bohr mag/cell

     iteration # 24     ecut=    40.00 Ry     beta= 0.70
     Davidson diagonalization with overlap
     ethr =  2.13E-06,  avg # of iterations =  2.2

     negative rho (up, down):  8.961E-03 8.226E-03

     total cpu time spent up to now is      456.8 secs

     total energy              =   -6056.41092928 Ry
     estimated scf accuracy    <       0.00095606 Ry

     total magnetization       =    61.20 Bohr mag/cell
     absolute magnetization    =    68.72 Bohr mag/cell

     iteration # 25     ecut=    40.00 Ry     beta= 0.70
     Davidson diagonalization with overlap
     ethr =  2.85E-07,  avg # of iterations =  4.2

     negative rho (up, down):  6.880E-03 6.161E-03

     total cpu time spent up to now is      481.0 secs

     total energy              =   -6056.41117534 Ry
     estimated scf accuracy    <       0.00387296 Ry

     total magnetization       =    61.20 Bohr mag/cell
     absolute magnetization    =    68.73 Bohr mag/cell

     iteration # 26     ecut=    40.00 Ry     beta= 0.70
     Davidson diagonalization with overlap
     ethr =  2.85E-07,  avg # of iterations =  2.1

     negative rho (up, down):  6.803E-03 6.105E-03

     total cpu time spent up to now is      493.8 secs

     total energy              =   -6056.41122766 Ry
     estimated scf accuracy    <       0.00064557 Ry

     total magnetization       =    61.21 Bohr mag/cell
     absolute magnetization    =    68.74 Bohr mag/cell

     iteration # 27     ecut=    40.00 Ry     beta= 0.70
     Davidson diagonalization with overlap
     ethr =  1.93E-07,  avg # of iterations =  1.5

     negative rho (up, down):  5.399E-03 4.599E-03

     total cpu time spent up to now is      514.2 secs

     total energy              =   -6056.41136062 Ry
     estimated scf accuracy    <       0.00063944 Ry

     total magnetization       =    61.21 Bohr mag/cell
     absolute magnetization    =    68.74 Bohr mag/cell

     iteration # 28     ecut=    40.00 Ry     beta= 0.70
     Davidson diagonalization with overlap
     ethr =  1.91E-07,  avg # of iterations =  1.2

     negative rho (up, down):  4.494E-03 3.619E-03

     total cpu time spent up to now is      534.6 secs

     total energy              =   -6056.41136555 Ry
     estimated scf accuracy    <       0.00008153 Ry

     total magnetization       =    61.21 Bohr mag/cell
     absolute magnetization    =    68.74 Bohr mag/cell

     iteration # 29     ecut=    40.00 Ry     beta= 0.70
     Davidson diagonalization with overlap
     ethr =  2.43E-08,  avg # of iterations =  7.5

     negative rho (up, down):  3.493E-03 2.527E-03

     total cpu time spent up to now is      561.5 secs

     total energy              =   -6056.41135980 Ry
     estimated scf accuracy    <       0.00025080 Ry

     total magnetization       =    61.21 Bohr mag/cell
     absolute magnetization    =    68.74 Bohr mag/cell

     iteration # 30     ecut=    40.00 Ry     beta= 0.70
     Davidson diagonalization with overlap
     ethr =  2.43E-08,  avg # of iterations =  1.7

     negative rho (up, down):  2.929E-03 1.873E-03

     total cpu time spent up to now is      574.8 secs

     total energy              =   -6056.41137340 Ry
     estimated scf accuracy    <       0.00010062 Ry

     total magnetization       =    61.21 Bohr mag/cell
     absolute magnetization    =    68.74 Bohr mag/cell

     iteration # 31     ecut=    40.00 Ry     beta= 0.70
     Davidson diagonalization with overlap
     ethr =  2.43E-08,  avg # of iterations =  1.3

     negative rho (up, down):  2.414E-03 1.316E-03

     total cpu time spent up to now is      594.9 secs

     total energy              =   -6056.41137947 Ry
     estimated scf accuracy    <       0.00007538 Ry

     total magnetization       =    61.21 Bohr mag/cell
     absolute magnetization    =    68.74 Bohr mag/cell

     iteration # 32     ecut=    40.00 Ry     beta= 0.70
     Davidson diagonalization with overlap
     ethr =  2.25E-08,  avg # of iterations =  1.5

     negative rho (up, down):  3.201E-03 2.169E-03

     total cpu time spent up to now is      607.9 secs

     total energy              =   -6056.41137033 Ry
     estimated scf accuracy    <       0.00009112 Ry

     total magnetization       =    61.21 Bohr mag/cell
     absolute magnetization    =    68.74 Bohr mag/cell

     iteration # 33     ecut=    40.00 Ry     beta= 0.70
     Davidson diagonalization with overlap
     ethr =  2.25E-08,  avg # of iterations =  1.5

     negative rho (up, down):  2.222E-03 1.152E-03

     total cpu time spent up to now is      628.4 secs

     total energy              =   -6056.41138420 Ry
     estimated scf accuracy    <       0.00008944 Ry

     total magnetization       =    61.21 Bohr mag/cell
     absolute magnetization    =    68.74 Bohr mag/cell

     iteration # 34     ecut=    40.00 Ry     beta= 0.70
     Davidson diagonalization with overlap
     ethr =  2.25E-08,  avg # of iterations =  2.0

     negative rho (up, down):  2.280E-03 1.187E-03

     total cpu time spent up to now is      641.2 secs

     total energy              =   -6056.41138945 Ry
     estimated scf accuracy    <       0.00001066 Ry

     total magnetization       =    61.21 Bohr mag/cell
     absolute magnetization    =    68.74 Bohr mag/cell

     iteration # 35     ecut=    40.00 Ry     beta= 0.70
     Davidson diagonalization with overlap
     ethr =  3.18E-09,  avg # of iterations =  3.6

     negative rho (up, down):  2.308E-03 1.220E-03

     total cpu time spent up to now is      664.0 secs

     total energy              =   -6056.41139036 Ry
     estimated scf accuracy    <       0.00001985 Ry

     total magnetization       =    61.21 Bohr mag/cell
     absolute magnetization    =    68.74 Bohr mag/cell

     iteration # 36     ecut=    40.00 Ry     beta= 0.70
     Davidson diagonalization with overlap
     ethr =  3.18E-09,  avg # of iterations =  1.7

     negative rho (up, down):  2.306E-03 1.213E-03

     total cpu time spent up to now is      684.6 secs

     total energy              =   -6056.41139043 Ry
     estimated scf accuracy    <       0.00002210 Ry

     total magnetization       =    61.21 Bohr mag/cell
     absolute magnetization    =    68.74 Bohr mag/cell

     iteration # 37     ecut=    40.00 Ry     beta= 0.70
     Davidson diagonalization with overlap
     ethr =  3.18E-09,  avg # of iterations =  1.1

     negative rho (up, down):  2.226E-03 1.164E-03

     total cpu time spent up to now is      696.1 secs

     total energy              =   -6056.41139018 Ry
     estimated scf accuracy    <       0.00000570 Ry

     total magnetization       =    61.21 Bohr mag/cell
     absolute magnetization    =    68.74 Bohr mag/cell

     iteration # 38     ecut=    40.00 Ry     beta= 0.70
     Davidson diagonalization with overlap
     ethr =  1.70E-09,  avg # of iterations =  2.3

     negative rho (up, down):  2.278E-03 1.191E-03

     total cpu time spent up to now is      717.3 secs

     total energy              =   -6056.41139115 Ry
     estimated scf accuracy    <       0.00000358 Ry

     total magnetization       =    61.20 Bohr mag/cell
     absolute magnetization    =    68.74 Bohr mag/cell

     iteration # 39     ecut=    40.00 Ry     beta= 0.70
     Davidson diagonalization with overlap
     ethr =  1.07E-09,  avg # of iterations =  2.1

     negative rho (up, down):  2.261E-03 1.181E-03

     total cpu time spent up to now is      730.9 secs

     total energy              =   -6056.41139120 Ry
     estimated scf accuracy    <       0.00000181 Ry

     total magnetization       =    61.20 Bohr mag/cell
     absolute magnetization    =    68.74 Bohr mag/cell

     iteration # 40     ecut=    40.00 Ry     beta= 0.70
     Davidson diagonalization with overlap
     ethr =  5.41E-10,  avg # of iterations =  4.1

     negative rho (up, down):  2.220E-03 1.121E-03

     Magnetic moment per site  (integrated on atomic sphere of radius R)
     atom   1 (R=0.102)  charge=  6.2111  magn=  1.7606
     atom   2 (R=0.102)  charge=  6.2106  magn=  1.7627
     atom   3 (R=0.102)  charge=  6.2104  magn=  1.7666
     atom   4 (R=0.102)  charge=  6.2109  magn=  1.7670
     atom   5 (R=0.102)  charge=  6.2106  magn=  1.7653
     atom   6 (R=0.102)  charge=  6.2111  magn=  1.7637
     atom   7 (R=0.102)  charge=  6.2109  magn=  1.7656
     atom   8 (R=0.102)  charge=  6.2117  magn=  1.7583
     atom   9 (R=0.102)  charge=  6.2113  magn=  1.7599
     atom  10 (R=0.102)  charge=  6.2169  magn=  1.6971
     atom  11 (R=0.102)  charge=  6.2169  magn=  1.6819
     atom  12 (R=0.102)  charge=  6.2171  magn=  1.6944
     atom  13 (R=0.102)  charge=  6.2165  magn=  1.6945
     atom  14 (R=0.102)  charge=  6.2175  magn=  1.6907
     atom  15 (R=0.102)  charge=  6.2168  magn=  1.6889
     atom  16 (R=0.102)  charge=  6.2168  magn=  1.6860
     atom  17 (R=0.102)  charge=  6.2172  magn=  1.6922
     atom  18 (R=0.102)  charge=  6.2172  magn=  1.6915
     atom  19 (R=0.102)  charge=  6.2163  magn=  1.6894
     atom  20 (R=0.102)  charge=  6.2172  magn=  1.6727
     atom  21 (R=0.102)  charge=  6.2160  magn=  1.6987
     atom  22 (R=0.102)  charge=  6.2168  magn=  1.6939
     atom  23 (R=0.102)  charge=  6.2167  magn=  1.6883
     atom  24 (R=0.102)  charge=  6.2172  magn=  1.6973
     atom  25 (R=0.102)  charge=  6.2155  magn=  1.6865
     atom  26 (R=0.102)  charge=  6.2137  magn=  1.7122
     atom  27 (R=0.102)  charge=  6.2186  magn=  1.6600
     atom  28 (R=0.102)  charge=  6.2188  magn=  1.6830
     atom  29 (R=0.102)  charge=  6.2442  magn=  1.1243
     atom  30 (R=0.102)  charge=  6.2133  magn=  1.7554
     atom  31 (R=0.102)  charge=  6.2147  magn=  1.7542
     atom  32 (R=0.102)  charge=  6.2115  magn=  1.7608
     atom  33 (R=0.102)  charge=  6.2104  magn=  1.7813
     atom  34 (R=0.102)  charge=  6.2126  magn=  1.7809
     atom  35 (R=0.102)  charge=  6.2187  magn=  1.7404
     atom  36 (R=0.102)  charge=  6.2121  magn=  1.7534
     atom  37 (R=0.061)  charge=  0.8618  magn= -0.0184
     atom  38 (R=0.069)  charge=  3.1445  magn= -0.0130
     atom  39 (R=0.061)  charge=  0.5048  magn= -0.0010

     total cpu time spent up to now is      753.3 secs

     End of self-consistent calculation

 ------ SPIN UP ------------


          k = 0.0000 0.0000 0.0000 ( 36693 PWs)   bands (ev):

   -21.4682 -10.1656  -7.5185  -6.6652  -6.1822  -5.6108  -5.0882  -4.6481
    -4.6176  -4.6148  -4.6137  -4.6096  -4.5969  -4.5574  -4.2536  -4.0840
    -4.0804  -4.0777  -4.0720  -4.0533  -4.0168  -3.5653  -3.5606  -3.5581
    -3.5520  -3.5390  -3.5111  -3.4294  -3.4244  -3.4198  -3.4170  -3.4152
    -3.3916  -3.3536  -3.3499  -3.0397  -3.0371  -3.0348  -3.0330  -2.9894
    -2.9732  -2.9690  -2.9678  -2.9631  -2.9610  -2.9592  -2.9530  -2.8091
    -2.8069  -2.7584  -2.7428  -2.7353  -2.7273  -2.7230  -2.7181  -2.7007
    -2.6980  -2.6961  -2.6899  -2.6000  -2.5979  -2.5923  -2.5866  -2.5769
    -2.5383  -2.1550  -2.0624  -2.0584  -2.0544  -2.0537  -2.0424  -1.9464
    -1.9261  -1.9223  -1.9020  -1.8932  -1.8803  -1.8788  -1.8724  -1.8690
    -1.8371  -1.8221  -1.8161  -1.7752  -1.7704  -1.7568  -1.7480  -1.7422
    -1.7419  -1.7309  -1.7266  -1.7200  -1.7064  -1.6999  -1.6942  -1.6887
    -1.6876  -1.6858  -1.6835  -1.6810  -1.6785  -1.6733  -1.6722  -1.6697
    -1.6683  -1.6299  -1.6175  -1.5953  -1.5903  -1.5190  -1.5137  -1.4711
    -1.3113  -1.2341  -1.2309  -1.2251  -1.2241  -1.2205  -1.2060  -1.1889
    -1.1869  -1.1858  -1.1519  -1.1405  -1.1341  -1.0932  -1.0161  -1.0095
    -0.9932  -0.9827  -0.8781  -0.8282  -0.8145  -0.8070  -0.8041  -0.7787
    -0.7510  -0.7408  -0.7339  -0.7323  -0.7289  -0.7105  -0.6332  -0.6144
    -0.5307  -0.4929  -0.4904  -0.4872  -0.4620  -0.4448  -0.4273  -0.4242
    -0.4207  -0.4167  -0.4122  -0.4059  -0.4037  -0.4019  -0.3986  -0.3913
    -0.3844  -0.3844  -0.3642  -0.3535  -0.3452  -0.3408  -0.3387  -0.3378
    -0.3165  -0.3139  -0.2960  -0.2922  -0.2876  -0.2709  -0.2663  -0.2623
    -0.2589  -0.2549  -0.2529  -0.2248  -0.2052  -0.1897  -0.1849  -0.1837
    -0.1787  -0.1760  -0.1734  -0.1707  -0.1581  -0.1452  -0.0954  -0.0938
    -0.0911  -0.0907  -0.0277  -0.0228  -0.0195  -0.0173  -0.0048   0.0229
     0.3493   1.0232

          k = 0.0000 0.2309 0.0000 ( 36641 PWs)   bands (ev):

   -21.4682 -10.1649  -7.3723  -6.6386  -6.1030  -5.6173  -5.3305  -5.0824
    -4.8678  -4.8575  -4.4963  -4.3476  -4.2741  -4.2715  -4.2017  -4.1509
    -4.1256  -4.1003  -3.9954  -3.9555  -3.9418  -3.6812  -3.5730  -3.5610
    -3.4843  -3.4601  -3.4468  -3.4344  -3.4328  -3.4176  -3.4103  -3.3942
    -3.3580  -3.3128  -3.3097  -3.2851  -3.2809  -3.0875  -3.0556  -3.0513
    -3.0043  -2.9992  -2.9902  -2.9848  -2.9098  -2.8714  -2.8633  -2.8363
    -2.8269  -2.8233  -2.7972  -2.7808  -2.6979  -2.6912  -2.6610  -2.6300
    -2.6144  -2.5957  -2.5863  -2.5744  -2.5576  -2.5389  -2.5185  -2.5132
    -2.4510  -2.2172  -2.1784  -2.1610  -2.1470  -2.1241  -2.0744  -2.0247
    -2.0189  -2.0146  -1.9982  -1.9943  -1.9809  -1.9585  -1.9324  -1.8994
    -1.8822  -1.8718  -1.8587  -1.8202  -1.8115  -1.8099  -1.8059  -1.7887
    -1.7774  -1.7708  -1.7684  -1.7649  -1.7584  -1.7210  -1.6898  -1.6859
    -1.6672  -1.6279  -1.6000  -1.5892  -1.5784  -1.5733  -1.5628  -1.5610
    -1.5411  -1.5354  -1.5329  -1.5256  -1.5221  -1.4942  -1.4845  -1.4770
    -1.4569  -1.4489  -1.4232  -1.3721  -1.3563  -1.3305  -1.2678  -1.2506
    -1.2426  -1.2363  -1.2252  -1.2205  -1.2173  -1.2072  -1.1237  -1.0724
    -1.0590  -1.0375  -0.9745  -0.9651  -0.9434  -0.8926  -0.8732  -0.8644
    -0.8303  -0.7706  -0.7527  -0.7393  -0.7229  -0.7163  -0.6905  -0.6803
    -0.6696  -0.6568  -0.6418  -0.5951  -0.5872  -0.5757  -0.5696  -0.5622
    -0.5217  -0.5106  -0.4908  -0.4840  -0.4653  -0.4442  -0.4258  -0.4194
    -0.4123  -0.4047  -0.3980  -0.3893  -0.3756  -0.3621  -0.3517  -0.3447
    -0.2972  -0.2855  -0.2746  -0.2425  -0.2292  -0.2222  -0.1992  -0.1783
    -0.1668  -0.1582  -0.1533  -0.1387  -0.1331  -0.1167  -0.1057  -0.0961
    -0.0706  -0.0286  -0.0210  -0.0130   0.0098   0.0134   0.0518   0.0558
     0.0720   0.1166   0.3507   0.3570   0.4598   0.5648   0.6117   0.6185
     0.6961   0.8032

          k = 0.0000 0.4619 0.0000 ( 36606 PWs)   bands (ev):

   -21.4681 -10.1638  -6.9631  -6.6026  -6.2092  -5.8978  -5.4567  -5.0883
    -5.0071  -4.9975  -4.8313  -4.1582  -4.1273  -4.1011  -4.0866  -4.0176
    -3.9142  -3.9112  -3.8682  -3.7821  -3.7742  -3.7666  -3.6772  -3.5959
    -3.5906  -3.5850  -3.5809  -3.5287  -3.4781  -3.4685  -3.4652  -3.3178
    -3.3057  -3.3003  -3.2910  -3.2633  -3.2569  -3.1564  -3.1491  -3.1397
    -3.1314  -3.1263  -3.0112  -2.9295  -2.9164  -2.8339  -2.8199  -2.7978
    -2.7838  -2.7490  -2.7430  -2.7365  -2.7242  -2.7041  -2.6496  -2.6406
    -2.6107  -2.5818  -2.5705  -2.4429  -2.4335  -2.4245  -2.4027  -2.3683
    -2.3166  -2.3088  -2.2869  -2.2775  -2.2321  -2.1844  -2.1589  -2.1419
    -2.1394  -2.1300  -2.1238  -2.1078  -2.1003  -2.0846  -2.0427  -2.0295
    -2.0021  -1.9937  -1.9697  -1.9506  -1.9267  -1.9059  -1.8365  -1.8300
    -1.8189  -1.7962  -1.7788  -1.7695  -1.7274  -1.7114  -1.7073  -1.6990
    -1.6860  -1.6711  -1.6602  -1.6365  -1.6201  -1.6182  -1.6086  -1.5923
    -1.5761  -1.5611  -1.5170  -1.5014  -1.4460  -1.4311  -1.4184  -1.4011
    -1.3820  -1.3619  -1.3419  -1.3049  -1.2895  -1.2743  -1.2689  -1.2658
    -1.2610  -1.2558  -1.2395  -1.2355  -1.2278  -1.2219  -1.2111  -1.1989
    -1.1801  -1.1550  -1.0875  -1.0683  -1.0340  -1.0292  -1.0062  -0.9942
    -0.9614  -0.9450  -0.9067  -0.8940  -0.8863  -0.8389  -0.8211  -0.7722
    -0.7634  -0.7290  -0.7082  -0.6928  -0.6752  -0.6718  -0.6443  -0.5881
    -0.5302  -0.5182  -0.5037  -0.4899  -0.4859  -0.4806  -0.4707  -0.4544
    -0.4499  -0.4418  -0.3871  -0.3466  -0.3265  -0.3217  -0.3103  -0.3082
    -0.3023  -0.2789  -0.2650  -0.2545  -0.2392  -0.2279  -0.1631  -0.1387
    -0.1334  -0.1217  -0.1055  -0.0675  -0.0386  -0.0215  -0.0014   0.0187
     0.0397   0.0819   0.0861   0.1065   0.1083   0.1126   0.1283   0.1436
     0.2155   0.2426   0.3266   0.9072   1.1415   1.3096   1.3359   1.3603
     1.6102   1.7137

          k = 0.2000-0.1155 0.0000 ( 36641 PWs)   bands (ev):

   -21.4682 -10.1655  -7.3714  -6.6386  -6.0976  -5.6022  -5.3531  -5.0836
    -4.8629  -4.8493  -4.5005  -4.3710  -4.2737  -4.2695  -4.2049  -4.1574
    -4.1201  -4.0792  -4.0064  -3.9532  -3.9348  -3.6832  -3.5723  -3.5613
    -3.4854  -3.4665  -3.4420  -3.4335  -3.4316  -3.4256  -3.4077  -3.3898
    -3.3582  -3.3123  -3.3093  -3.2831  -3.2808  -3.0891  -3.0578  -3.0512
    -3.0053  -2.9994  -2.9919  -2.9826  -2.9162  -2.8763  -2.8628  -2.8348
    -2.8262  -2.8223  -2.7923  -2.7832  -2.7022  -2.6900  -2.6660  -2.6272
    -2.6193  -2.5931  -2.5844  -2.5668  -2.5530  -2.5353  -2.5175  -2.5121
    -2.4581  -2.2241  -2.1785  -2.1641  -2.1438  -2.1225  -2.0742  -2.0256
    -2.0217  -2.0111  -2.0064  -1.9896  -1.9810  -1.9571  -1.9288  -1.8986
    -1.8797  -1.8696  -1.8578  -1.8186  -1.8136  -1.8090  -1.8056  -1.7871
    -1.7790  -1.7705  -1.7688  -1.7655  -1.7640  -1.7289  -1.6917  -1.6745
    -1.6629  -1.6300  -1.6007  -1.5860  -1.5828  -1.5758  -1.5652  -1.5592
    -1.5503  -1.5367  -1.5273  -1.5252  -1.5122  -1.4994  -1.4787  -1.4706
    -1.4577  -1.4445  -1.4307  -1.3972  -1.3541  -1.3219  -1.2570  -1.2501
    -1.2448  -1.2394  -1.2229  -1.2199  -1.2141  -1.2052  -1.1018  -1.0650
    -1.0489  -1.0350  -0.9769  -0.9650  -0.9416  -0.9003  -0.8772  -0.8603
    -0.8147  -0.7919  -0.7677  -0.7518  -0.7314  -0.7166  -0.6837  -0.6787
    -0.6711  -0.6510  -0.6316  -0.5954  -0.5893  -0.5733  -0.5686  -0.5663
    -0.5342  -0.4993  -0.4871  -0.4863  -0.4684  -0.4480  -0.4202  -0.4144
    -0.4127  -0.4044  -0.4017  -0.3946  -0.3736  -0.3650  -0.3618  -0.3356
    -0.2936  -0.2814  -0.2735  -0.2450  -0.2380  -0.2167  -0.1942  -0.1747
    -0.1672  -0.1615  -0.1554  -0.1393  -0.1339  -0.1153  -0.1056  -0.0975
    -0.0665  -0.0280  -0.0178  -0.0126   0.0099   0.0131   0.0564   0.0613
     0.0741   0.1202   0.3522   0.3577   0.4290   0.5317   0.6075   0.6488
     0.6612   0.7857

          k = 0.2000 0.1155 0.0000 ( 36641 PWs)   bands (ev):

   -21.4682 -10.1656  -7.3712  -6.6390  -6.0955  -5.5999  -5.3489  -5.0995
    -4.8559  -4.8457  -4.5034  -4.3793  -4.2744  -4.2686  -4.2051  -4.1578
    -4.1123  -4.0795  -4.0084  -3.9505  -3.9355  -3.6847  -3.5697  -3.5647
    -3.4849  -3.4692  -3.4394  -3.4366  -3.4311  -3.4221  -3.4065  -3.3898
    -3.3582  -3.3140  -3.3080  -3.2832  -3.2809  -3.0843  -3.0538  -3.0499
    -3.0027  -2.9972  -2.9913  -2.9893  -2.9081  -2.8769  -2.8650  -2.8400
    -2.8274  -2.8229  -2.7975  -2.7873  -2.7000  -2.6900  -2.6708  -2.6279
    -2.6211  -2.5912  -2.5856  -2.5615  -2.5544  -2.5352  -2.5202  -2.5148
    -2.4582  -2.2122  -2.1811  -2.1681  -2.1443  -2.1209  -2.0737  -2.0231
    -2.0176  -2.0121  -2.0049  -1.9938  -1.9851  -1.9607  -1.9136  -1.8950
    -1.8863  -1.8733  -1.8493  -1.8214  -1.8126  -1.8086  -1.8079  -1.7825
    -1.7775  -1.7751  -1.7698  -1.7655  -1.7585  -1.7329  -1.6939  -1.6788
    -1.6611  -1.6259  -1.6023  -1.5896  -1.5773  -1.5762  -1.5626  -1.5567
    -1.5480  -1.5383  -1.5328  -1.5262  -1.5179  -1.4947  -1.4715  -1.4677
    -1.4569  -1.4533  -1.4341  -1.3985  -1.3544  -1.3199  -1.2606  -1.2499
    -1.2417  -1.2372  -1.2294  -1.2203  -1.2171  -1.2117  -1.1066  -1.0706
    -1.0427  -1.0308  -0.9816  -0.9646  -0.9367  -0.8997  -0.8811  -0.8669
    -0.8092  -0.7846  -0.7685  -0.7432  -0.7328  -0.7185  -0.6911  -0.6833
    -0.6668  -0.6528  -0.6328  -0.5879  -0.5828  -0.5767  -0.5698  -0.5578
    -0.5318  -0.5077  -0.4902  -0.4833  -0.4661  -0.4376  -0.4270  -0.4195
    -0.4120  -0.4058  -0.3976  -0.3879  -0.3738  -0.3671  -0.3552  -0.3371
    -0.2962  -0.2820  -0.2712  -0.2532  -0.2262  -0.2237  -0.1907  -0.1829
    -0.1619  -0.1605  -0.1529  -0.1378  -0.1280  -0.1162  -0.1065  -0.0937
    -0.0676  -0.0266  -0.0194  -0.0160   0.0123   0.0135   0.0539   0.0582
     0.0757   0.1107   0.3402   0.3577   0.4415   0.5256   0.6053   0.6308
     0.6732   0.7922

          k = 0.2000 0.3464 0.0000 ( 36608 PWs)   bands (ev):

   -21.4682 -10.1648  -7.0906  -6.6079  -5.9730  -5.7253  -5.6946  -5.4265
    -5.0787  -4.6001  -4.5077  -4.2815  -4.2776  -4.2346  -4.0568  -4.0529
    -3.9628  -3.9560  -3.9399  -3.8255  -3.8160  -3.6838  -3.6718  -3.6114
    -3.5663  -3.4789  -3.4719  -3.4481  -3.4281  -3.4198  -3.4101  -3.3864
    -3.3725  -3.3469  -3.3413  -3.2974  -3.2620  -3.2150  -3.2090  -3.0880
    -3.0811  -2.9954  -2.9849  -2.9601  -2.9361  -2.9311  -2.8415  -2.7930
    -2.7857  -2.7650  -2.7529  -2.7436  -2.7026  -2.6945  -2.6753  -2.6653
    -2.6461  -2.5432  -2.5295  -2.4745  -2.4697  -2.4516  -2.4176  -2.4105
    -2.3983  -2.3021  -2.2231  -2.2102  -2.1897  -2.1585  -2.1393  -2.1186
    -2.1127  -2.1007  -2.0905  -2.0699  -2.0590  -2.0435  -2.0352  -2.0225
    -2.0109  -1.9834  -1.9311  -1.8836  -1.8513  -1.8417  -1.8222  -1.8065
    -1.7992  -1.7750  -1.7477  -1.7363  -1.7166  -1.6949  -1.6919  -1.6839
    -1.6743  -1.6652  -1.6552  -1.6457  -1.6353  -1.6286  -1.6046  -1.5879
    -1.5777  -1.5681  -1.5317  -1.5140  -1.4973  -1.4812  -1.4563  -1.4450
    -1.4360  -1.4254  -1.4095  -1.3802  -1.3563  -1.3408  -1.3203  -1.2894
    -1.2753  -1.2717  -1.2649  -1.2420  -1.2351  -1.2220  -1.2094  -1.1683
    -1.1195  -1.1049  -1.0895  -1.0710  -0.9975  -0.9692  -0.9564  -0.8896
    -0.8455  -0.8403  -0.8321  -0.8179  -0.8105  -0.7950  -0.7850  -0.7560
    -0.7518  -0.7371  -0.7095  -0.6845  -0.6681  -0.6622  -0.6371  -0.6287
    -0.6066  -0.5909  -0.5588  -0.5550  -0.5442  -0.5351  -0.4745  -0.4063
    -0.3857  -0.3648  -0.3533  -0.3412  -0.3359  -0.3137  -0.3039  -0.2960
    -0.2892  -0.2781  -0.2126  -0.1973  -0.1870  -0.1811  -0.1482  -0.1283
    -0.1148  -0.1103  -0.1030  -0.0840  -0.0792  -0.0700  -0.0637  -0.0577
    -0.0340  -0.0044   0.0490   0.0592   0.0671   0.1086   0.1157   0.1257
     0.4273   0.4513   0.4899   0.6059   0.7486   0.7947   1.0949   1.3083
     1.3510   1.5301

          k = 0.2000-0.5774 0.0000 ( 36660 PWs)   bands (ev):

   -21.4682 -10.1642  -6.7438  -6.4796  -6.3881  -5.8838  -5.7477  -5.3394
    -5.0132  -4.9521  -4.6240  -4.2692  -4.0175  -3.9719  -3.8644  -3.8433
    -3.8397  -3.8140  -3.8080  -3.7917  -3.7477  -3.7305  -3.7284  -3.7216
    -3.6379  -3.6220  -3.5772  -3.5757  -3.5451  -3.5393  -3.4486  -3.4020
    -3.3915  -3.3831  -3.3663  -3.3217  -3.2399  -3.2220  -3.1093  -3.0944
    -3.0899  -3.0179  -3.0071  -2.9879  -2.9629  -2.8830  -2.8764  -2.8708
    -2.8071  -2.7981  -2.7212  -2.6879  -2.6578  -2.6509  -2.5999  -2.5946
    -2.5196  -2.5091  -2.5023  -2.4888  -2.4786  -2.4531  -2.4376  -2.3720
    -2.3069  -2.2985  -2.2791  -2.2746  -2.2278  -2.2188  -2.1896  -2.1538
    -2.1419  -2.1101  -2.1038  -2.0953  -2.0781  -2.0481  -2.0329  -2.0236
    -2.0147  -2.0065  -1.9795  -1.9635  -1.9602  -1.9427  -1.8884  -1.8714
    -1.8544  -1.8087  -1.7959  -1.7723  -1.7400  -1.7200  -1.7160  -1.6986
    -1.6795  -1.6749  -1.6633  -1.6602  -1.6465  -1.6361  -1.6112  -1.6058
    -1.5506  -1.5265  -1.5146  -1.5110  -1.4943  -1.4876  -1.4857  -1.4738
    -1.4701  -1.4609  -1.4417  -1.4099  -1.3997  -1.3650  -1.3550  -1.3303
    -1.2724  -1.2660  -1.2403  -1.2148  -1.2026  -1.1946  -1.1811  -1.1254
    -1.1083  -1.0974  -1.0883  -1.0486  -1.0224  -0.9709  -0.9617  -0.9410
    -0.9250  -0.9186  -0.9067  -0.8909  -0.8584  -0.8482  -0.8209  -0.7936
    -0.7769  -0.7552  -0.7376  -0.7253  -0.7179  -0.6823  -0.6527  -0.6439
    -0.6313  -0.6148  -0.6019  -0.5894  -0.5588  -0.5367  -0.5235  -0.4552
    -0.3704  -0.3472  -0.3382  -0.3291  -0.3219  -0.3163  -0.3118  -0.2960
    -0.2642  -0.2512  -0.2385  -0.2352  -0.2020  -0.1833  -0.1176  -0.1127
    -0.0953  -0.0818  -0.0712  -0.0609  -0.0180  -0.0069  -0.0023   0.0031
     0.0147   0.0769   0.0893   0.0946   0.1104   0.1171   0.1417   0.1752
     0.2560   0.4746   0.5206   0.8173   1.3522   1.3861   1.5153   1.6820
     1.8677   1.9352

          k = 0.2000-0.3464 0.0000 ( 36608 PWs)   bands (ev):

   -21.4681 -10.1646  -7.0910  -6.6076  -5.9762  -5.7270  -5.6966  -5.4252
    -5.0710  -4.6063  -4.5010  -4.2827  -4.2775  -4.2316  -4.0564  -4.0536
    -3.9625  -3.9557  -3.9370  -3.8268  -3.8192  -3.6786  -3.6752  -3.6116
    -3.5657  -3.4816  -3.4717  -3.4464  -3.4281  -3.4183  -3.4127  -3.3866
    -3.3738  -3.3506  -3.3350  -3.3003  -3.2640  -3.2208  -3.2060  -3.0896
    -3.0852  -2.9958  -2.9858  -2.9595  -2.9487  -2.9238  -2.8362  -2.7959
    -2.7785  -2.7643  -2.7547  -2.7378  -2.7014  -2.6938  -2.6716  -2.6606
    -2.6490  -2.5364  -2.5258  -2.4764  -2.4691  -2.4439  -2.4220  -2.4099
    -2.3955  -2.2990  -2.2474  -2.2138  -2.1950  -2.1587  -2.1437  -2.1247
    -2.1172  -2.0966  -2.0801  -2.0669  -2.0523  -2.0481  -2.0399  -2.0232
    -2.0169  -1.9929  -1.9243  -1.8773  -1.8484  -1.8399  -1.8152  -1.8054
    -1.7953  -1.7693  -1.7636  -1.7347  -1.7184  -1.6978  -1.6902  -1.6847
    -1.6803  -1.6655  -1.6526  -1.6406  -1.6301  -1.6233  -1.6008  -1.5910
    -1.5741  -1.5667  -1.5465  -1.5170  -1.4982  -1.4866  -1.4517  -1.4442
    -1.4383  -1.4218  -1.4128  -1.3672  -1.3520  -1.3347  -1.3191  -1.2915
    -1.2780  -1.2708  -1.2622  -1.2517  -1.2365  -1.2253  -1.2037  -1.1632
    -1.1348  -1.1010  -1.0952  -1.0585  -0.9932  -0.9766  -0.9579  -0.8707
    -0.8543  -0.8397  -0.8332  -0.8184  -0.8119  -0.7991  -0.7796  -0.7628
    -0.7515  -0.7308  -0.7119  -0.6965  -0.6729  -0.6562  -0.6447  -0.6265
    -0.6121  -0.5980  -0.5663  -0.5500  -0.5454  -0.5290  -0.4582  -0.4030
    -0.3908  -0.3731  -0.3489  -0.3418  -0.3361  -0.3110  -0.3062  -0.2972
    -0.2837  -0.2762  -0.2107  -0.2000  -0.1915  -0.1827  -0.1441  -0.1360
    -0.1168  -0.1093  -0.1056  -0.0933  -0.0792  -0.0688  -0.0626  -0.0529
    -0.0346  -0.0005   0.0493   0.0596   0.0661   0.1070   0.1117   0.1416
     0.4346   0.4494   0.4836   0.6124   0.7337   0.7947   1.1133   1.3163
     1.3355   1.5551

          k = 0.4000-0.2309 0.0000 ( 36606 PWs)   bands (ev):

   -21.4681 -10.1655  -6.9590  -6.6018  -6.2013  -5.8891  -5.4455  -5.1222
    -5.0084  -4.9666  -4.8664  -4.1762  -4.1194  -4.1003  -4.0630  -4.0278
    -3.9120  -3.9105  -3.8715  -3.7791  -3.7736  -3.7687  -3.6873  -3.5946
    -3.5899  -3.5829  -3.5805  -3.5304  -3.4810  -3.4738  -3.4659  -3.3108
    -3.3076  -3.2992  -3.2811  -3.2614  -3.2575  -3.1557  -3.1525  -3.1411
    -3.1330  -3.1266  -3.0209  -2.9295  -2.9175  -2.8342  -2.8231  -2.7979
    -2.7828  -2.7507  -2.7441  -2.7378  -2.7218  -2.7078  -2.6480  -2.6399
    -2.6147  -2.5801  -2.5725  -2.4434  -2.4336  -2.4227  -2.4043  -2.3685
    -2.3199  -2.3047  -2.2955  -2.2769  -2.2266  -2.1829  -2.1471  -2.1440
    -2.1404  -2.1294  -2.1107  -2.1034  -2.0969  -2.0847  -2.0498  -2.0227
    -2.0106  -1.9851  -1.9698  -1.9391  -1.9304  -1.9067  -1.8407  -1.8217
    -1.8159  -1.8059  -1.7866  -1.7769  -1.7358  -1.7110  -1.7085  -1.6998
    -1.6879  -1.6687  -1.6620  -1.6354  -1.6314  -1.6186  -1.6042  -1.5859
    -1.5767  -1.5703  -1.5140  -1.4658  -1.4475  -1.4346  -1.4065  -1.3974
    -1.3809  -1.3677  -1.3342  -1.2974  -1.2867  -1.2740  -1.2711  -1.2666
    -1.2559  -1.2521  -1.2428  -1.2376  -1.2296  -1.2226  -1.2070  -1.1943
    -1.1751  -1.1517  -1.1055  -1.0659  -1.0309  -1.0255  -1.0053  -0.9934
    -0.9680  -0.9338  -0.9107  -0.8948  -0.8823  -0.8424  -0.8338  -0.7787
    -0.7596  -0.7289  -0.7043  -0.6950  -0.6780  -0.6645  -0.6439  -0.6004
    -0.5636  -0.5087  -0.4984  -0.4897  -0.4815  -0.4793  -0.4660  -0.4608
    -0.4430  -0.4392  -0.3757  -0.3461  -0.3327  -0.3155  -0.3090  -0.3041
    -0.2933  -0.2770  -0.2684  -0.2624  -0.2419  -0.2293  -0.1577  -0.1383
    -0.1316  -0.1225  -0.0987  -0.0869  -0.0385  -0.0254  -0.0016   0.0197
     0.0401   0.0844   0.0874   0.1059   0.1090   0.1133   0.1327   0.1464
     0.2158   0.2453   0.2808   0.9641   1.0994   1.2553   1.3425   1.3614
     1.5649   1.7303

          k = 0.4000 0.0000 0.0000 ( 36608 PWs)   bands (ev):

   -21.4681 -10.1658  -7.0879  -6.6081  -5.9623  -5.7096  -5.7021  -5.4356
    -5.0892  -4.5700  -4.5387  -4.2872  -4.2793  -4.2326  -4.0587  -4.0530
    -3.9602  -3.9579  -3.9522  -3.8247  -3.8035  -3.6828  -3.6739  -3.6085
    -3.5646  -3.4737  -3.4704  -3.4521  -3.4279  -3.4219  -3.4096  -3.3898
    -3.3696  -3.3475  -3.3377  -3.3001  -3.2607  -3.2158  -3.2121  -3.0911
    -3.0803  -2.9971  -2.9823  -2.9572  -2.9436  -2.9332  -2.8464  -2.8025
    -2.7903  -2.7572  -2.7535  -2.7439  -2.6995  -2.6881  -2.6761  -2.6642
    -2.6480  -2.5433  -2.5315  -2.4739  -2.4655  -2.4569  -2.4155  -2.4094
    -2.4027  -2.2896  -2.2350  -2.2065  -2.1883  -2.1626  -2.1377  -2.1258
    -2.1055  -2.0979  -2.0898  -2.0734  -2.0589  -2.0450  -2.0398  -2.0233
    -2.0014  -1.9805  -1.9281  -1.8927  -1.8506  -1.8395  -1.8255  -1.8073
    -1.7868  -1.7766  -1.7540  -1.7407  -1.7219  -1.6957  -1.6871  -1.6844
    -1.6729  -1.6680  -1.6542  -1.6381  -1.6341  -1.6234  -1.6077  -1.5891
    -1.5790  -1.5465  -1.5233  -1.5088  -1.4953  -1.4913  -1.4622  -1.4465
    -1.4286  -1.4140  -1.4005  -1.3896  -1.3652  -1.3377  -1.3213  -1.2831
    -1.2769  -1.2691  -1.2650  -1.2435  -1.2318  -1.2223  -1.2061  -1.1716
    -1.1188  -1.1038  -1.0934  -1.0556  -0.9980  -0.9768  -0.9572  -0.8960
    -0.8550  -0.8372  -0.8327  -0.8133  -0.8060  -0.7924  -0.7846  -0.7773
    -0.7495  -0.7373  -0.7097  -0.6822  -0.6746  -0.6592  -0.6393  -0.6312
    -0.6127  -0.5984  -0.5639  -0.5522  -0.5407  -0.5332  -0.4586  -0.4101
    -0.3851  -0.3630  -0.3550  -0.3404  -0.3369  -0.3091  -0.3049  -0.2959
    -0.2874  -0.2767  -0.2125  -0.1953  -0.1865  -0.1817  -0.1445  -0.1398
    -0.1131  -0.1077  -0.1065  -0.0979  -0.0754  -0.0694  -0.0638  -0.0434
    -0.0350  -0.0099   0.0485   0.0592   0.0658   0.1090   0.1122   0.1313
     0.4395   0.4507   0.5147   0.5474   0.7756   0.7865   1.0724   1.3044
     1.3389   1.5226

          k = 0.4000 0.2309 0.0000 ( 36606 PWs)   bands (ev):

   -21.4681 -10.1658  -6.9589  -6.6025  -6.1965  -5.8853  -5.4394  -5.1389
    -5.0071  -4.9529  -4.8869  -4.1793  -4.1088  -4.0999  -4.0616  -4.0300
    -3.9135  -3.9090  -3.8714  -3.7786  -3.7742  -3.7687  -3.6933  -3.5945
    -3.5909  -3.5818  -3.5804  -3.5316  -3.4859  -3.4728  -3.4632  -3.3104
    -3.3058  -3.2945  -3.2781  -3.2614  -3.2545  -3.1519  -3.1454  -3.1388
    -3.1324  -3.1280  -3.0107  -2.9305  -2.9223  -2.8426  -2.8270  -2.8032
    -2.7888  -2.7552  -2.7450  -2.7361  -2.7191  -2.7140  -2.6425  -2.6405
    -2.6166  -2.5852  -2.5737  -2.4511  -2.4300  -2.4207  -2.4118  -2.3682
    -2.3211  -2.3040  -2.2965  -2.2788  -2.2211  -2.1786  -2.1541  -2.1434
    -2.1406  -2.1305  -2.1124  -2.1058  -2.0929  -2.0838  -2.0734  -2.0205
    -1.9950  -1.9825  -1.9670  -1.9365  -1.9103  -1.9036  -1.8476  -1.8232
    -1.8141  -1.8055  -1.7825  -1.7721  -1.7248  -1.7090  -1.7008  -1.6957
    -1.6801  -1.6730  -1.6599  -1.6344  -1.6277  -1.6189  -1.6021  -1.5851
    -1.5763  -1.5618  -1.5161  -1.4904  -1.4487  -1.4319  -1.4082  -1.4004
    -1.3762  -1.3587  -1.3425  -1.3098  -1.2877  -1.2772  -1.2715  -1.2692
    -1.2607  -1.2571  -1.2438  -1.2371  -1.2326  -1.2231  -1.2060  -1.1935
    -1.1832  -1.1414  -1.1083  -1.0632  -1.0327  -1.0222  -1.0132  -0.9932
    -0.9702  -0.9380  -0.9103  -0.9030  -0.8836  -0.8382  -0.8264  -0.7866
    -0.7627  -0.7234  -0.7043  -0.6837  -0.6785  -0.6589  -0.6265  -0.6023
    -0.5699  -0.5090  -0.5025  -0.4876  -0.4840  -0.4762  -0.4669  -0.4625
    -0.4503  -0.4286  -0.3797  -0.3377  -0.3284  -0.3202  -0.3140  -0.3079
    -0.2941  -0.2697  -0.2663  -0.2569  -0.2406  -0.2346  -0.1536  -0.1392
    -0.1314  -0.1282  -0.0997  -0.0807  -0.0386  -0.0248   0.0012   0.0198
     0.0394   0.0842   0.0855   0.1077   0.1096   0.1110   0.1293   0.1517
     0.2158   0.2376   0.2840   0.9419   1.1029   1.2482   1.3390   1.3582
     1.6236   1.6920

          k = 0.4000-0.6928 0.0000 ( 36660 PWs)   bands (ev):

   -21.4681 -10.1654  -6.7412  -6.4740  -6.3829  -5.9084  -5.7243  -5.2559
    -5.1196  -4.9832  -4.5772  -4.2649  -4.0204  -3.9762  -3.8859  -3.8444
    -3.8354  -3.8222  -3.8095  -3.7938  -3.7364  -3.7303  -3.7272  -3.7211
    -3.6406  -3.6246  -3.5775  -3.5733  -3.5437  -3.5415  -3.4305  -3.4080
    -3.3918  -3.3879  -3.3597  -3.3211  -3.2335  -3.2168  -3.1145  -3.0931
    -3.0905  -3.0152  -3.0081  -2.9873  -2.9587  -2.8938  -2.8805  -2.8661
    -2.8132  -2.8019  -2.7184  -2.6943  -2.6604  -2.6505  -2.6039  -2.5951
    -2.5253  -2.5088  -2.4987  -2.4921  -2.4838  -2.4567  -2.4418  -2.3703
    -2.3103  -2.2908  -2.2872  -2.2769  -2.2335  -2.2146  -2.1663  -2.1572
    -2.1296  -2.1087  -2.1028  -2.0934  -2.0851  -2.0644  -2.0338  -2.0147
    -2.0082  -2.0028  -1.9865  -1.9611  -1.9583  -1.9247  -1.8867  -1.8711
    -1.8546  -1.8231  -1.7872  -1.7812  -1.7465  -1.7196  -1.7053  -1.6964
    -1.6771  -1.6729  -1.6666  -1.6542  -1.6489  -1.6147  -1.6074  -1.5855
    -1.5393  -1.5240  -1.5143  -1.5126  -1.4940  -1.4892  -1.4851  -1.4757
    -1.4684  -1.4564  -1.4394  -1.4244  -1.4015  -1.3791  -1.3534  -1.3401
    -1.2963  -1.2700  -1.2251  -1.2131  -1.2031  -1.2003  -1.1864  -1.1268
    -1.1097  -1.1058  -1.0946  -1.0508  -0.9935  -0.9734  -0.9569  -0.9428
    -0.9291  -0.9201  -0.9009  -0.8924  -0.8590  -0.8415  -0.8101  -0.7980
    -0.7823  -0.7552  -0.7398  -0.7331  -0.7074  -0.6783  -0.6565  -0.6384
    -0.6283  -0.6211  -0.6009  -0.5911  -0.5592  -0.5375  -0.5259  -0.4607
    -0.3698  -0.3434  -0.3361  -0.3313  -0.3246  -0.3128  -0.3079  -0.2886
    -0.2671  -0.2556  -0.2424  -0.2311  -0.2048  -0.1787  -0.1165  -0.1099
    -0.0935  -0.0804  -0.0713  -0.0548  -0.0245  -0.0078   0.0013   0.0037
     0.0116   0.0641   0.0898   0.0916   0.1098   0.1200   0.1396   0.1714
     0.2239   0.4858   0.5490   0.8320   1.2728   1.3922   1.4723   1.7626
     1.8620   1.9074

          k = 0.4000-0.4619 0.0000 ( 36660 PWs)   bands (ev):

   -21.4681 -10.1652  -6.7399  -6.4753  -6.3869  -5.9017  -5.7298  -5.2860
    -5.0892  -4.9665  -4.5913  -4.2655  -4.0205  -3.9751  -3.8819  -3.8420
    -3.8368  -3.8225  -3.8106  -3.7910  -3.7385  -3.7294  -3.7277  -3.7205
    -3.6415  -3.6212  -3.5787  -3.5743  -3.5451  -3.5404  -3.4348  -3.4061
    -3.3918  -3.3885  -3.3623  -3.3211  -3.2343  -3.2199  -3.1175  -3.0970
    -3.0913  -3.0157  -3.0051  -2.9936  -2.9622  -2.8795  -2.8764  -2.8723
    -2.8052  -2.7985  -2.7223  -2.6905  -2.6642  -2.6501  -2.6010  -2.5959
    -2.5228  -2.5092  -2.5011  -2.4895  -2.4827  -2.4501  -2.4362  -2.3713
    -2.3102  -2.2928  -2.2847  -2.2750  -2.2398  -2.2159  -2.1765  -2.1542
    -2.1307  -2.1106  -2.1024  -2.0930  -2.0771  -2.0564  -2.0327  -2.0194
    -2.0126  -2.0022  -1.9823  -1.9618  -1.9602  -1.9240  -1.8895  -1.8731
    -1.8614  -1.8249  -1.7905  -1.7818  -1.7388  -1.7237  -1.7072  -1.6967
    -1.6807  -1.6726  -1.6640  -1.6578  -1.6453  -1.6344  -1.6049  -1.5932
    -1.5421  -1.5228  -1.5176  -1.5094  -1.5025  -1.4886  -1.4841  -1.4781
    -1.4680  -1.4635  -1.4425  -1.4151  -1.4008  -1.3635  -1.3554  -1.3321
    -1.2802  -1.2669  -1.2326  -1.2106  -1.2040  -1.1895  -1.1817  -1.1321
    -1.1074  -1.1011  -1.0929  -1.0335  -1.0194  -0.9734  -0.9488  -0.9397
    -0.9290  -0.9213  -0.9075  -0.8862  -0.8652  -0.8484  -0.8161  -0.7913
    -0.7755  -0.7533  -0.7408  -0.7338  -0.7053  -0.6890  -0.6634  -0.6456
    -0.6289  -0.6133  -0.6055  -0.5972  -0.5624  -0.5469  -0.5130  -0.4495
    -0.3700  -0.3430  -0.3360  -0.3294  -0.3235  -0.3141  -0.3035  -0.2988
    -0.2604  -0.2539  -0.2408  -0.2351  -0.2043  -0.1823  -0.1176  -0.1101
    -0.1003  -0.0814  -0.0662  -0.0608  -0.0183  -0.0061  -0.0043   0.0034
     0.0161   0.0642   0.0876   0.0944   0.1090   0.1177   0.1422   0.1763
     0.2180   0.4849   0.5558   0.8225   1.2979   1.3921   1.4694   1.7493
     1.8664   1.9161

 ------ SPIN DOWN ----------


          k = 0.0000 0.0000 0.0000 ( 36693 PWs)   bands (ev):

   -21.5020 -10.2455  -7.6432  -6.6864  -6.2409  -5.6090  -5.1229  -4.4446
    -4.4161  -4.4138  -4.4107  -4.4077  -4.3920  -4.2912  -3.5455  -3.5382
    -3.5346  -3.5319  -3.5112  -3.4999  -3.3861  -2.5929  -2.5878  -2.5856
    -2.5817  -2.5648  -2.5151  -2.1340  -2.1202  -2.1176  -2.1153  -2.1077
    -2.1074  -1.9270  -1.9156  -1.8447  -1.8365  -1.8301  -1.8240  -1.7497
    -1.7279  -1.7013  -1.6779  -1.6602  -1.6109  -1.5796  -1.5727  -1.5668
    -1.5527  -1.4845  -1.3435  -1.3183  -1.3035  -1.3000  -1.2921  -1.2857
    -1.2840  -1.2804  -1.2661  -1.2273  -1.2232  -1.2086  -1.2050  -1.1986
    -1.1777  -1.0188  -0.6780  -0.6389  -0.6240  -0.6204  -0.6162  -0.4767
    -0.4346  -0.3314  -0.3040  -0.3022  -0.2941  -0.2881  -0.2831  -0.2544
    -0.2364  -0.2207  -0.2076  -0.2067  -0.2044  -0.2018  -0.1643  -0.1262
    -0.1198  -0.1008  -0.0993  -0.0969  -0.0711  -0.0474  -0.0435  -0.0399
    -0.0394  -0.0375  -0.0138  -0.0126  -0.0054  -0.0042   0.0556   0.0860
     0.1295   0.1522   0.1686   0.1839   0.2043   0.2161   0.2183   0.2200
     0.2229   0.2241   0.2260   0.2267   0.2951   0.2958   0.3530   0.3750
     0.3852   0.4013   0.4088   0.4144   0.5953   0.6054   0.6281   0.6612
     0.6937   0.6948   0.7026   0.7046   0.7313   0.9404   1.0059   1.0419
     1.0502   1.0755   1.1956   1.2284   1.2559   1.2651   1.2669   1.2699
     1.2721   1.4163   1.4280   1.4330   1.4394   1.4457   1.4626   1.4685
     1.4754   1.4983   1.5194   1.5269   1.5416   1.5702   1.5783   1.5874
     1.5925   1.5956   1.5962   1.6134   1.6506   1.6687   1.6742   1.6849
     1.6993   1.7151   1.7159   1.7181   1.7231   1.7288   1.7320   1.7679
     1.7717   1.7951   1.7976   1.8062   1.8151   1.8191   1.8210   1.8381
     1.8571   1.8594   1.8664   1.8677   1.8709   1.8719   1.8800   1.8851
     1.8881   1.9123   1.9452   1.9463   2.0938   2.0980   2.1014   2.1045
     2.1058   2.1069

          k = 0.0000 0.2309 0.0000 ( 36641 PWs)   bands (ev):

   -21.5020 -10.2449  -7.4952  -6.6544  -6.1615  -5.6360  -5.3448  -5.1087
    -4.8025  -4.7897  -4.2761  -4.1340  -3.8683  -3.8619  -3.7806  -3.7481
    -3.5688  -3.3242  -3.1959  -3.1801  -3.0767  -2.8044  -2.6082  -2.5881
    -2.5221  -2.4880  -2.4687  -2.2456  -2.1621  -2.1584  -2.1467  -2.1119
    -2.1072  -2.0690  -2.0599  -2.0286  -2.0224  -1.9014  -1.8745  -1.7974
    -1.7927  -1.7602  -1.6595  -1.6345  -1.6010  -1.5939  -1.5377  -1.4755
    -1.4571  -1.4175  -1.3855  -1.3642  -1.3395  -1.3190  -1.3004  -1.2921
    -1.2843  -1.2529  -1.2039  -1.1776  -1.1548  -1.1282  -1.1083  -1.0930
    -1.0100  -0.9588  -0.7529  -0.6874  -0.6733  -0.6583  -0.6207  -0.5725
    -0.5303  -0.5078  -0.4632  -0.4434  -0.3444  -0.3229  -0.3132  -0.2963
    -0.2829  -0.2688  -0.2584  -0.2372  -0.2333  -0.2139  -0.1807  -0.1345
    -0.1098  -0.0994  -0.0935  -0.0739  -0.0628  -0.0421  -0.0294  -0.0120
    -0.0048  -0.0006   0.0068   0.0100   0.0141   0.0169   0.0468   0.0630
     0.0944   0.1045   0.1143   0.1161   0.1494   0.1610   0.1796   0.1832
     0.2193   0.2369   0.2521   0.2869   0.3214   0.3295   0.3346   0.3622
     0.4647   0.5138   0.5656   0.5738   0.6016   0.6108   0.6302   0.6558
     0.6668   0.6762   0.6810   0.6844   0.8274   0.8932   0.9935   1.0126
     1.0205   1.0296   1.0462   1.0560   1.0868   1.1217   1.1644   1.2049
     1.2223   1.2452   1.2942   1.3037   1.3338   1.3540   1.3822   1.4013
     1.4358   1.4476   1.4827   1.4996   1.5092   1.5230   1.5428   1.5512
     1.5792   1.5928   1.6390   1.6488   1.6701   1.6853   1.6956   1.7063
     1.7522   1.7539   1.7619   1.7646   1.7872   1.8005   1.8406   1.8491
     1.8512   1.8551   1.8922   1.9031   1.9118   1.9251   1.9441   1.9521
     1.9638   1.9965   2.0012   2.0030   2.0285   2.0345   2.0384   2.0635
     2.0733   2.0906   2.0947   2.1185   2.1747   2.1994   2.2044   2.2361
     2.2727   2.2913

          k = 0.0000 0.4619 0.0000 ( 36606 PWs)   bands (ev):

   -21.5020 -10.2438  -7.0706  -6.6294  -6.2980  -5.9382  -5.4974  -5.1164
    -5.0105  -4.9989  -4.8255  -3.9249  -3.9084  -3.8128  -3.3086  -3.2466
    -3.2416  -3.1220  -2.9856  -2.9175  -2.8028  -2.7900  -2.6462  -2.6387
    -2.5928  -2.5769  -2.5209  -2.4916  -2.4048  -2.3933  -2.3388  -2.3241
    -2.3107  -2.1201  -2.0997  -2.0232  -2.0203  -1.9075  -1.9023  -1.8955
    -1.8863  -1.8653  -1.6283  -1.6009  -1.5911  -1.5534  -1.5455  -1.4990
    -1.3797  -1.3691  -1.3477  -1.3414  -1.3302  -1.3069  -1.3015  -1.2860
    -1.2447  -1.1873  -1.1828  -1.1750  -1.1464  -1.1272  -1.0068  -0.9450
    -0.8689  -0.8303  -0.7681  -0.7208  -0.6943  -0.6685  -0.6420  -0.6260
    -0.6097  -0.5958  -0.5645  -0.5309  -0.5003  -0.4682  -0.4476  -0.4156
    -0.3931  -0.3697  -0.3436  -0.3382  -0.3242  -0.2764  -0.2205  -0.1991
    -0.1512  -0.1382  -0.1203  -0.0732  -0.0551  -0.0407  -0.0240   0.0102
     0.0286   0.0421   0.0554   0.0633   0.0716   0.0755   0.0865   0.1168
     0.1279   0.1555   0.1656   0.1689   0.1763   0.1805   0.2027   0.2130
     0.2354   0.2493   0.2875   0.3591   0.3807   0.3907   0.4186   0.4351
     0.4363   0.4536   0.4662   0.5219   0.5374   0.5504   0.5656   0.5899
     0.6126   0.6326   0.6484   0.6547   0.6893   0.7265   0.8062   0.8390
     0.8765   0.9158   0.9746   1.0149   1.0769   1.0916   1.1065   1.1220
     1.1320   1.1444   1.1843   1.2190   1.2288   1.2769   1.3547   1.4028
     1.4084   1.4172   1.4692   1.4911   1.5131   1.5200   1.5522   1.5588
     1.5966   1.6095   1.6406   1.6868   1.7185   1.7349   1.7394   1.7647
     1.7752   1.7798   1.8014   1.8319   1.8482   1.8532   1.8621   1.8904
     1.9027   1.9337   1.9765   1.9987   2.0130   2.0293   2.0376   2.0509
     2.0572   2.0876   2.0930   2.0992   2.1021   2.1253   2.1305   2.1353
     2.1404   2.1805   2.2891   2.3343   2.3467   2.4563   2.5667   2.7872
     2.8640   2.8912

          k = 0.2000-0.1155 0.0000 ( 36641 PWs)   bands (ev):

   -21.5020 -10.2455  -7.4944  -6.6545  -6.1559  -5.6174  -5.3679  -5.1186
    -4.7946  -4.7789  -4.2797  -4.1682  -3.8685  -3.8608  -3.7741  -3.7204
    -3.5734  -3.3256  -3.1937  -3.1687  -3.0890  -2.8229  -2.6027  -2.5747
    -2.5319  -2.4864  -2.4621  -2.2450  -2.1639  -2.1530  -2.1496  -2.1172
    -2.1079  -2.0688  -2.0601  -2.0299  -2.0197  -1.8929  -1.8754  -1.8058
    -1.7935  -1.7719  -1.6736  -1.6230  -1.6007  -1.5937  -1.5446  -1.4840
    -1.4486  -1.4203  -1.3763  -1.3537  -1.3405  -1.3184  -1.2992  -1.2926
    -1.2843  -1.2320  -1.2071  -1.1808  -1.1551  -1.1242  -1.1096  -1.0947
    -1.0268  -0.9472  -0.7494  -0.6862  -0.6755  -0.6529  -0.6278  -0.5781
    -0.5292  -0.5099  -0.4553  -0.4405  -0.3458  -0.3214  -0.3110  -0.2976
    -0.2815  -0.2674  -0.2587  -0.2377  -0.2271  -0.2171  -0.1773  -0.1372
    -0.1177  -0.0979  -0.0941  -0.0692  -0.0607  -0.0388  -0.0299  -0.0098
    -0.0075  -0.0017   0.0080   0.0092   0.0147   0.0216   0.0408   0.0632
     0.0932   0.1033   0.1117   0.1186   0.1468   0.1659   0.1740   0.1867
     0.2254   0.2419   0.2751   0.2890   0.3144   0.3321   0.3347   0.3623
     0.4635   0.5009   0.5431   0.5743   0.5766   0.6183   0.6318   0.6521
     0.6583   0.6796   0.6823   0.6836   0.8365   0.8978   0.9865   1.0107
     1.0175   1.0341   1.0433   1.0554   1.0732   1.1147   1.1725   1.2052
     1.2136   1.2622   1.2953   1.3043   1.3262   1.3553   1.3729   1.3857
     1.4423   1.4675   1.4832   1.4984   1.5077   1.5223   1.5412   1.5500
     1.5787   1.6037   1.6314   1.6549   1.6746   1.6888   1.6990   1.7250
     1.7439   1.7557   1.7609   1.7687   1.7846   1.7920   1.8385   1.8473
     1.8532   1.8547   1.8957   1.9035   1.9125   1.9278   1.9389   1.9550
     1.9618   1.9972   2.0005   2.0029   2.0278   2.0322   2.0405   2.0574
     2.0666   2.0918   2.0983   2.1156   2.1815   2.1972   2.2063   2.2202
     2.2780   2.2921

          k = 0.2000 0.1155 0.0000 ( 36641 PWs)   bands (ev):

   -21.5020 -10.2456  -7.4942  -6.6550  -6.1538  -5.6134  -5.3659  -5.1340
    -4.7847  -4.7783  -4.2830  -4.1778  -3.8667  -3.8621  -3.7637  -3.7184
    -3.5758  -3.3252  -3.1904  -3.1713  -3.0909  -2.8267  -2.5983  -2.5724
    -2.5302  -2.4867  -2.4651  -2.2456  -2.1624  -2.1510  -2.1473  -2.1137
    -2.1077  -2.0693  -2.0605  -2.0272  -2.0216  -1.8962  -1.8745  -1.8006
    -1.7932  -1.7668  -1.6954  -1.6369  -1.6113  -1.5946  -1.5059  -1.4732
    -1.4566  -1.4283  -1.3795  -1.3646  -1.3361  -1.3121  -1.3002  -1.2951
    -1.2845  -1.2332  -1.2141  -1.1868  -1.1562  -1.1205  -1.1113  -1.0910
    -1.0072  -0.9440  -0.7619  -0.6874  -0.6746  -0.6492  -0.6198  -0.5848
    -0.5371  -0.5130  -0.4521  -0.4366  -0.3518  -0.3174  -0.3098  -0.3036
    -0.2687  -0.2604  -0.2577  -0.2392  -0.2363  -0.2102  -0.1921  -0.1378
    -0.1140  -0.0983  -0.0904  -0.0811  -0.0674  -0.0354  -0.0282  -0.0150
    -0.0057  -0.0025   0.0055   0.0099   0.0134   0.0265   0.0448   0.0644
     0.0966   0.1019   0.1171   0.1183   0.1394   0.1655   0.1806   0.1866
     0.2256   0.2355   0.2676   0.2867   0.3204   0.3280   0.3343   0.3618
     0.4777   0.5165   0.5387   0.5736   0.5866   0.6229   0.6301   0.6560
     0.6607   0.6743   0.6815   0.6843   0.7984   0.9031   0.9906   1.0020
     1.0177   1.0379   1.0491   1.0549   1.0835   1.1301   1.1892   1.2089
     1.2152   1.2397   1.2965   1.3065   1.3290   1.3495   1.3670   1.3847
     1.4460   1.4587   1.4885   1.5001   1.5086   1.5250   1.5390   1.5513
     1.5730   1.6043   1.6356   1.6465   1.6660   1.6883   1.7011   1.7247
     1.7471   1.7570   1.7606   1.7686   1.7811   1.7976   1.8418   1.8474
     1.8514   1.8537   1.8909   1.9050   1.9139   1.9283   1.9376   1.9544
     1.9618   1.9980   2.0005   2.0062   2.0298   2.0336   2.0392   2.0602
     2.0667   2.0912   2.0961   2.1161   2.1787   2.1974   2.2095   2.2182
     2.2801   2.2913

          k = 0.2000 0.3464 0.0000 ( 36608 PWs)   bands (ev):

   -21.5020 -10.2448  -7.2063  -6.6237  -6.0142  -5.8002  -5.7671  -5.4449
    -5.1123  -4.5457  -4.4275  -4.0599  -4.0513  -3.9541  -3.2303  -3.2177
    -3.2112  -3.2053  -3.0979  -3.0181  -2.9385  -2.9063  -2.8737  -2.5421
    -2.4632  -2.4570  -2.4419  -2.3800  -2.3641  -2.3435  -2.2557  -2.2474
    -2.2386  -2.2339  -2.2199  -2.0953  -2.0359  -1.8747  -1.8629  -1.8581
    -1.7983  -1.7811  -1.7338  -1.7241  -1.5998  -1.5316  -1.5143  -1.4863
    -1.4125  -1.3772  -1.3406  -1.3392  -1.3279  -1.3172  -1.2894  -1.2746
    -1.2605  -1.2407  -1.1890  -1.1594  -1.1030  -1.0422  -0.9932  -0.9497
    -0.8815  -0.8687  -0.7704  -0.7418  -0.6555  -0.6374  -0.6198  -0.5843
    -0.5721  -0.5543  -0.5468  -0.5300  -0.4696  -0.4536  -0.4268  -0.4121
    -0.4044  -0.3803  -0.3659  -0.3550  -0.3017  -0.2421  -0.2005  -0.1851
    -0.1689  -0.1465  -0.1149  -0.0911  -0.0757  -0.0625  -0.0467  -0.0341
    -0.0123  -0.0066   0.0097   0.0263   0.0365   0.0455   0.0805   0.0947
     0.1100   0.1161   0.1277   0.1510   0.1612   0.1710   0.1830   0.1899
     0.2074   0.2753   0.2904   0.3020   0.4021   0.4203   0.4369   0.4567
     0.4766   0.4864   0.5187   0.5714   0.5875   0.6029   0.6060   0.6183
     0.6269   0.6403   0.6881   0.7281   0.7489   0.7792   0.9032   0.9212
     0.9521   1.0220   1.0392   1.0638   1.0816   1.0932   1.1066   1.1195
     1.1398   1.1522   1.1566   1.1808   1.2160   1.2510   1.2925   1.3314
     1.3565   1.3707   1.3806   1.4179   1.4308   1.4615   1.4949   1.5126
     1.5486   1.5992   1.6750   1.7180   1.7328   1.7451   1.7654   1.7770
     1.7968   1.8052   1.8239   1.8311   1.8434   1.8827   1.8995   1.9081
     1.9187   1.9443   1.9576   1.9647   1.9834   2.0029   2.0109   2.0300
     2.0435   2.0509   2.0528   2.0814   2.0850   2.0968   2.1306   2.1633
     2.1814   2.1993   2.2853   2.3096   2.3421   2.4263   2.4649   2.5951
     2.7382   2.7645

          k = 0.2000-0.5774 0.0000 ( 36660 PWs)   bands (ev):

   -21.5020 -10.2442  -6.7889  -6.5945  -6.4557  -5.9373  -5.7987  -5.3938
    -5.0277  -4.9831  -4.5881  -4.1174  -3.5710  -3.4645  -3.2485  -3.2452
    -3.2264  -3.0385  -2.9904  -2.8355  -2.8279  -2.8221  -2.6920  -2.6867
    -2.6796  -2.6621  -2.6450  -2.6400  -2.4372  -2.3163  -2.2776  -2.2715
    -2.2655  -2.2516  -2.2124  -2.2025  -2.0994  -2.0869  -1.8590  -1.7742
    -1.7507  -1.7404  -1.7388  -1.6625  -1.5846  -1.5318  -1.5060  -1.4885
    -1.4476  -1.4452  -1.4082  -1.3248  -1.2910  -1.2726  -1.2555  -1.2432
    -1.2024  -1.1402  -1.1159  -1.1028  -1.0472  -1.0323  -1.0168  -0.9165
    -0.8925  -0.8203  -0.7423  -0.7247  -0.7053  -0.6757  -0.6449  -0.6404
    -0.5950  -0.5712  -0.5481  -0.5215  -0.4816  -0.4674  -0.4345  -0.4145
    -0.3981  -0.3911  -0.3647  -0.3584  -0.3487  -0.3403  -0.3069  -0.2879
    -0.2771  -0.2569  -0.2318  -0.2009  -0.1543  -0.1182  -0.0961  -0.0821
    -0.0336  -0.0012   0.0193   0.0408   0.0584   0.0706   0.0844   0.0996
     0.1249   0.1529   0.1817   0.1932   0.2090   0.2177   0.2825   0.3045
     0.3324   0.3421   0.3578   0.3705   0.3824   0.4214   0.4448   0.4656
     0.4774   0.4943   0.5381   0.5673   0.5764   0.5856   0.6279   0.6385
     0.6529   0.6586   0.6775   0.6997   0.7215   0.7328   0.7459   0.7631
     0.8461   0.9006   0.9379   1.0094   1.0241   1.0421   1.0646   1.0768
     1.0870   1.1045   1.1152   1.1504   1.2205   1.2511   1.2807   1.2981
     1.3281   1.3418   1.3760   1.4152   1.4222   1.4421   1.4781   1.5063
     1.5452   1.6320   1.6818   1.6864   1.7459   1.7719   1.7980   1.8144
     1.8223   1.8345   1.8526   1.8616   1.8978   1.9051   1.9123   1.9222
     1.9433   1.9834   1.9978   2.0087   2.0143   2.0181   2.0253   2.0291
     2.0381   2.0816   2.0940   2.1137   2.1191   2.1374   2.1447   2.1760
     2.1793   2.2364   2.3330   2.4924   2.6763   2.7258   2.8936   3.0221
     3.0350   3.0749

          k = 0.2000-0.3464 0.0000 ( 36608 PWs)   bands (ev):

   -21.5020 -10.2446  -7.2068  -6.6233  -6.0179  -5.8021  -5.7683  -5.4433
    -5.1041  -4.5519  -4.4213  -4.0582  -4.0545  -3.9512  -3.2280  -3.2204
    -3.2104  -3.2060  -3.0985  -3.0213  -2.9393  -2.9038  -2.8751  -2.5432
    -2.4675  -2.4559  -2.4470  -2.3778  -2.3635  -2.3420  -2.2578  -2.2477
    -2.2433  -2.2306  -2.2218  -2.0969  -2.0396  -1.8708  -1.8659  -1.8474
    -1.8000  -1.7764  -1.7309  -1.7201  -1.5937  -1.5620  -1.5136  -1.4722
    -1.4017  -1.3716  -1.3424  -1.3372  -1.3309  -1.3049  -1.2970  -1.2822
    -1.2650  -1.2292  -1.1760  -1.1565  -1.0999  -1.0738  -0.9966  -0.9683
    -0.8901  -0.8579  -0.7597  -0.7471  -0.6580  -0.6305  -0.6247  -0.5931
    -0.5717  -0.5561  -0.5389  -0.5028  -0.4712  -0.4420  -0.4312  -0.4115
    -0.4027  -0.3748  -0.3585  -0.3513  -0.2991  -0.2483  -0.1982  -0.1961
    -0.1757  -0.1635  -0.1120  -0.0951  -0.0709  -0.0642  -0.0491  -0.0355
    -0.0224  -0.0017   0.0122   0.0282   0.0397   0.0451   0.0789   0.1011
     0.1076   0.1124   0.1318   0.1556   0.1623   0.1708   0.1771   0.1872
     0.2098   0.2698   0.2942   0.2999   0.4092   0.4245   0.4307   0.4672
     0.4759   0.4891   0.5192   0.5704   0.5921   0.5977   0.6074   0.6156
     0.6283   0.6384   0.6630   0.7218   0.7544   0.8039   0.8768   0.9237
     0.9681   1.0153   1.0296   1.0613   1.0862   1.0922   1.1068   1.1197
     1.1285   1.1566   1.1611   1.1719   1.2095   1.2435   1.3216   1.3307
     1.3460   1.3761   1.3866   1.4145   1.4328   1.4515   1.4993   1.5200
     1.5572   1.6063   1.6636   1.7173   1.7311   1.7450   1.7629   1.7803
     1.7933   1.8030   1.8236   1.8323   1.8351   1.8900   1.8996   1.9054
     1.9172   1.9472   1.9588   1.9684   1.9834   2.0057   2.0065   2.0367
     2.0444   2.0483   2.0530   2.0807   2.0872   2.0960   2.1301   2.1607
     2.1824   2.1964   2.2874   2.3102   2.3514   2.4342   2.4619   2.6032
     2.6953   2.7785

          k = 0.4000-0.2309 0.0000 ( 36606 PWs)   bands (ev):

   -21.5020 -10.2455  -7.0673  -6.6286  -6.2908  -5.9254  -5.4858  -5.1579
    -5.0158  -4.9654  -4.8594  -3.9380  -3.8961  -3.7945  -3.3274  -3.2459
    -3.2386  -3.1237  -2.9866  -2.9282  -2.7987  -2.7878  -2.6439  -2.6396
    -2.5837  -2.5636  -2.5169  -2.4998  -2.4005  -2.3918  -2.3435  -2.3228
    -2.3111  -2.1109  -2.1016  -2.0316  -2.0205  -1.9198  -1.9035  -1.8965
    -1.8841  -1.8775  -1.6864  -1.5905  -1.5865  -1.5510  -1.5427  -1.4731
    -1.3798  -1.3668  -1.3501  -1.3355  -1.3203  -1.3084  -1.2994  -1.2878
    -1.2253  -1.1893  -1.1816  -1.1733  -1.1449  -1.1049  -1.0074  -0.9680
    -0.8593  -0.8283  -0.7698  -0.7246  -0.6959  -0.6630  -0.6441  -0.6229
    -0.6137  -0.5887  -0.5589  -0.5210  -0.5081  -0.4678  -0.4472  -0.4176
    -0.3972  -0.3650  -0.3438  -0.3359  -0.3297  -0.2675  -0.2306  -0.1912
    -0.1509  -0.1358  -0.1127  -0.0750  -0.0609  -0.0402  -0.0178   0.0072
     0.0283   0.0436   0.0517   0.0651   0.0668   0.0776   0.1014   0.1162
     0.1275   0.1589   0.1679   0.1702   0.1786   0.1846   0.1969   0.2246
     0.2350   0.2466   0.2895   0.3632   0.3800   0.3854   0.4169   0.4342
     0.4359   0.4547   0.4674   0.5107   0.5420   0.5489   0.5564   0.5882
     0.6050   0.6238   0.6505   0.6567   0.6853   0.6902   0.7853   0.8393
     0.8705   0.9004   0.9663   1.0380   1.0780   1.0969   1.1118   1.1193
     1.1335   1.1584   1.1787   1.2120   1.2290   1.2574   1.3572   1.4015
     1.4137   1.4203   1.4708   1.4889   1.5157   1.5291   1.5504   1.5713
     1.5997   1.6135   1.6357   1.6862   1.7197   1.7409   1.7479   1.7697
     1.7751   1.7789   1.7972   1.8191   1.8446   1.8515   1.8643   1.8814
     1.9018   1.9282   1.9799   1.9953   2.0082   2.0352   2.0408   2.0512
     2.0590   2.0638   2.0945   2.1002   2.1067   2.1240   2.1309   2.1332
     2.1407   2.1798   2.2868   2.3459   2.3801   2.4501   2.5115   2.7939
     2.8802   2.9112

          k = 0.4000 0.0000 0.0000 ( 36608 PWs)   bands (ev):

   -21.5020 -10.2458  -7.2040  -6.6241  -6.0026  -5.7829  -5.7757  -5.4541
    -5.1258  -4.5181  -4.4591  -4.0650  -4.0522  -3.9534  -3.2240  -3.2158
    -3.2095  -3.2032  -3.1011  -3.0079  -2.9237  -2.9060  -2.9019  -2.5423
    -2.4643  -2.4551  -2.4505  -2.3707  -2.3593  -2.3386  -2.2547  -2.2454
    -2.2411  -2.2334  -2.2238  -2.0943  -2.0410  -1.8950  -1.8605  -1.8522
    -1.8069  -1.7852  -1.7302  -1.7173  -1.6223  -1.5471  -1.5142  -1.4741
    -1.3956  -1.3757  -1.3393  -1.3357  -1.3330  -1.3116  -1.2833  -1.2740
[...]
     atom    8 type  1   force =     0.00179389    0.00028884   -0.10170511
     atom    9 type  1   force =     0.00200648   -0.00162048   -0.10551220
     atom   10 type  1   force =     0.00004925    0.00033961   -0.00872210
     atom   11 type  1   force =     0.00167612    0.00034429   -0.01208274
     atom   12 type  1   force =    -0.00207384    0.00064841   -0.00984367
     atom   13 type  1   force =     0.00053740   -0.00078796   -0.01082018
     atom   14 type  1   force =     0.00016269   -0.00053191   -0.00989417
     atom   15 type  1   force =    -0.00019232    0.00000538   -0.01257088
     atom   16 type  1   force =     0.00148857   -0.00010935   -0.01443907
     atom   17 type  1   force =    -0.00105129   -0.00101588   -0.01061808
     atom   18 type  1   force =    -0.00040231    0.00144860   -0.01029961
     atom   19 type  1   force =     0.00108093    0.00711995    0.00458952
     atom   20 type  1   force =    -0.00335993    0.00523145    0.01158305
     atom   21 type  1   force =     0.00193316   -0.00069066    0.01699290
     atom   22 type  1   force =     0.00025748   -0.00043893    0.01769741
     atom   23 type  1   force =     0.00088560   -0.00068841    0.01313103
     atom   24 type  1   force =     0.00067931    0.00045028    0.01722989
     atom   25 type  1   force =    -0.00647447   -0.00141109    0.00578347
     atom   26 type  1   force =     0.00022606   -0.00582857    0.00221405
     atom   27 type  1   force =     0.00359004   -0.00314203    0.00951022
     atom   28 type  1   force =     0.06084645   -0.01467393    0.15692165
     atom   29 type  1   force =     0.01365574    0.00169652    0.09110191
     atom   30 type  1   force =    -0.00110117   -0.00010361    0.11870583
     atom   31 type  1   force =    -0.00723008   -0.02571209    0.13227460
     atom   32 type  1   force =    -0.00000095   -0.00261623    0.10768337
     atom   33 type  1   force =     0.00089096   -0.00392534    0.10607464
     atom   34 type  1   force =     0.00919169    0.01314655    0.12301443
     atom   35 type  1   force =    -0.01766361    0.04929574    0.16071853
     atom   36 type  1   force =    -0.00392698    0.00121248    0.10971261
     atom   37 type  2   force =    -0.31226630   -0.04456764    0.20761087
     atom   38 type  3   force =     2.12814484    0.32504275   -1.39518518
     atom   39 type  4   force =    -0.06145929   -0.00936918   -0.04251333
     The ionic contribution  to forces
     atom    1 type  1   force =    -0.00536990    0.00792698 -111.15674653
     atom    2 type  1   force =     0.00537790    0.00760353 -111.15673803
     atom    3 type  1   force =    -0.00000797    0.00226640 -111.14604970
     atom    4 type  1   force =    -0.00028174    0.00185975 -111.14548751
     atom    5 type  1   force =    -0.00190407   -0.00558216 -111.14981065
     atom    6 type  1   force =     0.00218581   -0.00540825 -111.14925117
     atom    7 type  1   force =    -0.00756524   -0.00215592 -111.15377810
     atom    8 type  1   force =     0.00028586   -0.00419212 -111.16839314
     atom    9 type  1   force =     0.00727935   -0.00231823 -111.15319925
     atom   10 type  1   force =    -0.05433077    0.01079611  -40.20057162
     atom   11 type  1   force =     0.05591396    0.00894514  -40.19776008
     atom   12 type  1   force =    -0.00157574    0.00429578  -40.08983945
     atom   13 type  1   force =    -0.00076182    0.06461660  -40.12291380
     atom   14 type  1   force =     0.02231288    0.01424438  -40.07954948
     atom   15 type  1   force =    -0.02155336    0.01639690  -40.07821529
     atom   16 type  1   force =    -0.03208398   -0.02509193  -40.08892190
     atom   17 type  1   force =     0.00229700   -0.06966403  -40.14871822
     atom   18 type  1   force =     0.02978464   -0.02453729  -40.08419521
     atom   19 type  1   force =    -0.26872759    0.40479370   31.19373189
     atom   20 type  1   force =     0.27120248    0.39345849   31.19057835
     atom   21 type  1   force =    -0.00180693    0.10025588   31.68518067
     atom   22 type  1   force =    -0.01391369    0.07985294   31.71090944
     atom   23 type  1   force =    -0.09092090   -0.26839227   31.52919805
     atom   24 type  1   force =     0.10488559   -0.25615415   31.55686792
     atom   25 type  1   force =    -0.37762382   -0.10274400   31.33273594
     atom   26 type  1   force =     0.01204537   -0.23967926   30.53849726
     atom   27 type  1   force =     0.36429790   -0.11314446   31.36683057
     atom   28 type  1   force =    -3.60757565    0.85069763   98.16706096
     atom   29 type  1   force =     4.09287929    0.65240489   97.93888858
     atom   30 type  1   force =    -0.11209561    0.13163813  103.94774910
     atom   31 type  1   force =    -0.02806149    2.74989091  102.98930409
     atom   32 type  1   force =     0.71483556    0.54272041  104.18940868
     atom   33 type  1   force =    -0.69910502    0.63927444  104.17943766
     atom   34 type  1   force =    -1.16443819   -1.00875167  103.83570937
     atom   35 type  1   force =     0.15452532   -3.45493982  101.93155635
     atom   36 type  1   force =     1.00390034   -0.89073635  104.07886673
     atom   37 type  2   force =     5.58302351    0.72938451   55.06784661
     atom   38 type  3   force =    -8.08068425   -1.25987543   88.04082389
     atom   39 type  4   force =     2.14335495    0.32004381   14.99895704
     The local contribution  to forces
     atom    1 type  1   force =     0.00278584   -0.00824168  111.26106819
     atom    2 type  1   force =    -0.00501669   -0.00896960  111.26413630
     atom    3 type  1   force =     0.00160203   -0.00124509  111.25107198
     atom    4 type  1   force =     0.00085392   -0.00214214  111.25207141
     atom    5 type  1   force =     0.00123287    0.00817640  111.25721475
     atom    6 type  1   force =    -0.00311899    0.00257405  111.25650000
     atom    7 type  1   force =     0.01098477    0.00110007  111.25644524
     atom    8 type  1   force =    -0.00188452    0.00406595  111.27281842
     atom    9 type  1   force =    -0.00956684    0.00427700  111.26169080
     atom   10 type  1   force =     0.05356673   -0.01175140   40.18833497
     atom   11 type  1   force =    -0.05659325   -0.00953310   40.18776935
     atom   12 type  1   force =     0.00391226   -0.00503058   40.07884999
     atom   13 type  1   force =     0.00033700   -0.06353493   40.11399328
     atom   14 type  1   force =    -0.02262917   -0.01314222   40.06877304
     atom   15 type  1   force =     0.02205458   -0.01645143   40.06905203
     atom   16 type  1   force =     0.03092047    0.02598954   40.08113315
     atom   17 type  1   force =    -0.00279327    0.07109642   40.13890538
     atom   18 type  1   force =    -0.02869690    0.02343248   40.07362471
     atom   19 type  1   force =     0.26722551   -0.41287541  -31.17724272
     atom   20 type  1   force =    -0.26780425   -0.39750456  -31.18338689
     atom   21 type  1   force =     0.00037587   -0.09974411  -31.67965852
     atom   22 type  1   force =     0.01329672   -0.07980342  -31.70266978
     atom   23 type  1   force =     0.09057020    0.26839477  -31.51994228
     atom   24 type  1   force =    -0.10455661    0.25507158  -31.55054042
     atom   25 type  1   force =     0.38588813    0.10658306  -31.31494852
     atom   26 type  1   force =    -0.01267587    0.24627347  -30.51958704
     atom   27 type  1   force =    -0.36534965    0.11535894  -31.36118358
     atom   28 type  1   force =     3.52682349   -0.83511764  -98.32634775
     atom   29 type  1   force =    -4.10522424   -0.65298433  -98.02493229
     atom   30 type  1   force =     0.11263113   -0.13047212 -104.07873967
     atom   31 type  1   force =     0.03732080   -2.71328905 -103.13127641
     atom   32 type  1   force =    -0.71098299   -0.53653403 -104.30619156
     atom   33 type  1   force =     0.69457590   -0.63239152 -104.29493083
     atom   34 type  1   force =     1.14999544    0.99101915 -103.96758995
     atom   35 type  1   force =    -0.13409140    3.39265020 -102.10363732
     atom   36 type  1   force =    -0.99498429    0.88412604 -104.19659805
     atom   37 type  2   force =    -5.26718944   -0.68429862  -55.27027239
     atom   38 type  3   force =     5.96740852    0.93895928  -86.66586112
     atom   39 type  4   force =    -2.08308169   -0.31158379  -14.94348225
     The core correction contribution to forces
     atom    1 type  1   force =    -0.00022123   -0.00020441    0.01043105
     atom    2 type  1   force =    -0.00007897   -0.00020471    0.01063396
     atom    3 type  1   force =    -0.00009199    0.00001490    0.01022942
     atom    4 type  1   force =    -0.00019238   -0.00017101    0.01033488
     atom    5 type  1   force =     0.00002746    0.00023786    0.01049374
     atom    6 type  1   force =    -0.00019617   -0.00013255    0.01032823
     atom    7 type  1   force =     0.00043397    0.00001153    0.01070149
     atom    8 type  1   force =    -0.00022480    0.00001452    0.01028087
     atom    9 type  1   force =    -0.00010498    0.00022345    0.01061850
     atom   10 type  1   force =     0.00006176   -0.00007106   -0.00153953
     atom   11 type  1   force =    -0.00003295    0.00009042   -0.00202476
     atom   12 type  1   force =     0.00010860    0.00012464   -0.00160527
     atom   13 type  1   force =     0.00014804    0.00007711   -0.00192690
     atom   14 type  1   force =    -0.00004408   -0.00008334   -0.00152556
     atom   15 type  1   force =    -0.00011567   -0.00004883   -0.00187660
     atom   16 type  1   force =     0.00012722   -0.00001368   -0.00196364
     atom   17 type  1   force =     0.00003162    0.00019030   -0.00176423
     atom   18 type  1   force =     0.00004584   -0.00001294   -0.00179983
     atom   19 type  1   force =    -0.00020131   -0.00002175    0.00090046
     atom   20 type  1   force =    -0.00043758    0.00055672    0.00077802
     atom   21 type  1   force =     0.00014150   -0.00011633    0.00183231
     atom   22 type  1   force =     0.00014596    0.00004540    0.00207910
     atom   23 type  1   force =    -0.00035118   -0.00018607    0.00147310
     atom   24 type  1   force =    -0.00020422   -0.00025360    0.00198428
     atom   25 type  1   force =    -0.00030216    0.00003408    0.00144429
     atom   26 type  1   force =    -0.00013026    0.00014958    0.00167469
     atom   27 type  1   force =     0.00081232   -0.00068912    0.00052058
     atom   28 type  1   force =     0.01096595   -0.00173834    0.00195686
     atom   29 type  1   force =    -0.00426837   -0.00062117    0.00014361
     atom   30 type  1   force =    -0.00081951   -0.00000050   -0.00989216
     atom   31 type  1   force =     0.00190431   -0.00448148   -0.00805313
     atom   32 type  1   force =    -0.00163037   -0.00188507   -0.01005718
     atom   33 type  1   force =     0.00001077   -0.00005638   -0.01062283
     atom   34 type  1   force =     0.00029237    0.00027432   -0.00956101
     atom   35 type  1   force =     0.00189851    0.00633518   -0.00611231
     atom   36 type  1   force =    -0.00210326    0.00213440   -0.00933786
     atom   37 type  2   force =     0.00224581    0.00074938   -0.00187782
     atom   38 type  3   force =    -0.01705471   -0.00266926    0.01203756
     atom   39 type  4   force =     0.00000000    0.00000000    0.00000000
     The Hubbard contrib.    to forces
     atom    1 type  1   force =     0.00000000    0.00000000    0.00000000
     atom    2 type  1   force =     0.00000000    0.00000000    0.00000000
     atom    3 type  1   force =     0.00000000    0.00000000    0.00000000
     atom    4 type  1   force =     0.00000000    0.00000000    0.00000000
     atom    5 type  1   force =     0.00000000    0.00000000    0.00000000
     atom    6 type  1   force =     0.00000000    0.00000000    0.00000000
     atom    7 type  1   force =     0.00000000    0.00000000    0.00000000
     atom    8 type  1   force =     0.00000000    0.00000000    0.00000000
     atom    9 type  1   force =     0.00000000    0.00000000    0.00000000
     atom   10 type  1   force =     0.00000000    0.00000000    0.00000000
     atom   11 type  1   force =     0.00000000    0.00000000    0.00000000
     atom   12 type  1   force =     0.00000000    0.00000000    0.00000000
     atom   13 type  1   force =     0.00000000    0.00000000    0.00000000
     atom   14 type  1   force =     0.00000000    0.00000000    0.00000000
     atom   15 type  1   force =     0.00000000    0.00000000    0.00000000
     atom   16 type  1   force =     0.00000000    0.00000000    0.00000000
     atom   17 type  1   force =     0.00000000    0.00000000    0.00000000
     atom   18 type  1   force =     0.00000000    0.00000000    0.00000000
     atom   19 type  1   force =     0.00000000    0.00000000    0.00000000
     atom   20 type  1   force =     0.00000000    0.00000000    0.00000000
     atom   21 type  1   force =     0.00000000    0.00000000    0.00000000
     atom   22 type  1   force =     0.00000000    0.00000000    0.00000000
     atom   23 type  1   force =     0.00000000    0.00000000    0.00000000
     atom   24 type  1   force =     0.00000000    0.00000000    0.00000000
     atom   25 type  1   force =     0.00000000    0.00000000    0.00000000
     atom   26 type  1   force =     0.00000000    0.00000000    0.00000000
     atom   27 type  1   force =     0.00000000    0.00000000    0.00000000
     atom   28 type  1   force =     0.00000000    0.00000000    0.00000000
     atom   29 type  1   force =     0.00000000    0.00000000    0.00000000
     atom   30 type  1   force =     0.00000000    0.00000000    0.00000000
     atom   31 type  1   force =     0.00000000    0.00000000    0.00000000
     atom   32 type  1   force =     0.00000000    0.00000000    0.00000000
     atom   33 type  1   force =     0.00000000    0.00000000    0.00000000
     atom   34 type  1   force =     0.00000000    0.00000000    0.00000000
     atom   35 type  1   force =     0.00000000    0.00000000    0.00000000
     atom   36 type  1   force =     0.00000000    0.00000000    0.00000000
     atom   37 type  2   force =     0.00000000    0.00000000    0.00000000
     atom   38 type  3   force =     0.00000000    0.00000000    0.00000000
     atom   39 type  4   force =     0.00000000    0.00000000    0.00000000
     The SCF correction term to forces
     atom    1 type  1   force =     0.00000000    0.00000000   -0.00000000
     atom    2 type  1   force =     0.00000000   -0.00000000   -0.00000000
     atom    3 type  1   force =    -0.00000000   -0.00000000   -0.00000000
     atom    4 type  1   force =    -0.00000000   -0.00000000   -0.00000000
     atom    5 type  1   force =    -0.00000000   -0.00000000   -0.00000000
     atom    6 type  1   force =     0.00000000   -0.00000000   -0.00000000
     atom    7 type  1   force =    -0.00000000    0.00000000   -0.00000000
     atom    8 type  1   force =     0.00000000    0.00000000   -0.00000000
     atom    9 type  1   force =    -0.00000000    0.00000000   -0.00000000
     atom   10 type  1   force =    -0.00000000    0.00000000   -0.00000000
     atom   11 type  1   force =     0.00000000    0.00000000   -0.00000000
     atom   12 type  1   force =    -0.00000000    0.00000000   -0.00000000
     atom   13 type  1   force =     0.00000000   -0.00000000   -0.00000000
     atom   14 type  1   force =    -0.00000000   -0.00000000   -0.00000000
     atom   15 type  1   force =     0.00000000   -0.00000000   -0.00000000
     atom   16 type  1   force =    -0.00000000   -0.00000000    0.00000000
     atom   17 type  1   force =     0.00000000   -0.00000000   -0.00000000
     atom   18 type  1   force =     0.00000000   -0.00000000   -0.00000000
     atom   19 type  1   force =    -0.00000000    0.00000000   -0.00000000
     atom   20 type  1   force =     0.00000000    0.00000000   -0.00000000
     atom   21 type  1   force =    -0.00000000    0.00000000   -0.00000000
     atom   22 type  1   force =     0.00000000   -0.00000000   -0.00000000
     atom   23 type  1   force =    -0.00000000   -0.00000000    0.00000000
     atom   24 type  1   force =     0.00000000   -0.00000000    0.00000000
     atom   25 type  1   force =    -0.00000000    0.00000000   -0.00000000
     atom   26 type  1   force =    -0.00000000    0.00000000    0.00000000
     atom   27 type  1   force =     0.00000000    0.00000000   -0.00000000
     atom   28 type  1   force =    -0.00000000   -0.00000000    0.00000000
     atom   29 type  1   force =    -0.00000000   -0.00000000    0.00000000
     atom   30 type  1   force =     0.00000000    0.00000000    0.00000000
     atom   31 type  1   force =    -0.00000000    0.00000000    0.00000000
     atom   32 type  1   force =     0.00000000    0.00000000    0.00000000
     atom   33 type  1   force =    -0.00000000    0.00000000    0.00000000
     atom   34 type  1   force =     0.00000000   -0.00000000    0.00000000
     atom   35 type  1   force =    -0.00000000   -0.00000000    0.00000000
     atom   36 type  1   force =    -0.00000000   -0.00000000    0.00000000
     atom   37 type  2   force =    -0.00005476   -0.00004264    0.00000132
     atom   38 type  3   force =     0.00001476   -0.00003987   -0.00009568
     atom   39 type  4   force =    -0.00001004   -0.00000279   -0.00000224

     Total force =     0.017063     Total SCF correction =     0.000126

     Writing all to output data dir ./pwscf.save/

     init_run     :     10.86s CPU     11.29s WALL (       1 calls)
     electrons    :    724.52s CPU    741.84s WALL (       1 calls)
     forces       :      4.88s CPU      4.97s WALL (       1 calls)

     Called by init_run:
     wfcinit      :      7.61s CPU      7.91s WALL (       1 calls)
     potinit      :      2.16s CPU      2.24s WALL (       1 calls)
     hinit0       :      0.84s CPU      0.85s WALL (       1 calls)

     Called by electrons:
     c_bands      :    608.69s CPU    624.02s WALL (      40 calls)
     sum_band     :     80.95s CPU     81.97s WALL (      40 calls)
     v_of_rho     :     11.52s CPU     11.94s WALL (      41 calls)
     newd         :      4.14s CPU      4.20s WALL (      41 calls)
     PAW_pot      :     11.98s CPU     12.12s WALL (      41 calls)
     mix_rho      :      8.45s CPU      8.62s WALL (      40 calls)
     vdW_kernel   :      1.10s CPU      1.11s WALL (       1 calls)

     Called by c_bands:
     init_us_2    :      4.98s CPU      5.10s WALL (    2132 calls)
     init_us_2:cp :      4.97s CPU      5.10s WALL (    2132 calls)
     cegterg      :    590.55s CPU    605.06s WALL (    1040 calls)

     Called by *egterg:
     cdiaghg      :    159.37s CPU    161.14s WALL (    3517 calls)
     h_psi        :    300.57s CPU    311.07s WALL (    3543 calls)
     s_psi        :     22.29s CPU     22.95s WALL (    3543 calls)
     g_psi        :      0.45s CPU      0.46s WALL (    2477 calls)

     Called by h_psi:
     h_psi:calbec :     45.25s CPU     46.79s WALL (    3543 calls)
     vloc_psi     :    231.00s CPU    239.22s WALL (    3543 calls)
     add_vuspsi   :     23.16s CPU     23.90s WALL (    3543 calls)

     General routines
     calbec       :     65.04s CPU     66.79s WALL (    4687 calls)
     fft          :      9.94s CPU     10.39s WALL (    3726 calls)
     ffts         :      5.44s CPU      5.56s WALL (   13885 calls)
     fftw         :    270.63s CPU    279.03s WALL ( 1084052 calls)
     interpolate  :      0.70s CPU      0.71s WALL (      82 calls)

     Parallel routines

     PWSCF        :  12m30.71s CPU  12m54.91s WALL


   This run was terminated on:  14:10:50   6Dec2025            

=------------------------------------------------------------------------------=
   JOB DONE.
=------------------------------------------------------------------------------=
