
     Program PWSCF v.7.1 starts on  2Mar2025 at  3:36:41 
        Git branch: heads/qe-7.1
        Last git commit: 48ba0178f8fede6d020eb786884699a9f063f55d-dirty
        Last git commit date: Fri Jan 27 14:22:33 2023 +0000
        Last git commit subject: Merge branch 'fix_hubbard' into 'develop'

     This program is part of the open-source Quantum ESPRESSO suite
     for quantum simulation of materials; please cite
         "P. Giannozzi et al., J. Phys.:Condens. Matter 21 395502 (2009);
         "P. Giannozzi et al., J. Phys.:Condens. Matter 29 465901 (2017);
         "P. Giannozzi et al., J. Chem. Phys. 152 154105 (2020);
          URL http://www.quantum-espresso.org", 
     in publications or presentations arising from this work. More details at
     http://www.quantum-espresso.org/quote

     Parallel version (MPI), running on    48 processors

     MPI processes distributed on     1 nodes
     248315 MiB available memory on the printing compute node when the environment starts

     Reading input from espresso.pwi
Warning: card &CELL ignored
Warning: card / ignored
Warning: card &FCP ignored
Warning: card / ignored
Warning: card &RISM ignored
Warning: card / ignored

     Current dimensions of program PWSCF are:
     Max number of different atomic species (ntypx) = 10
     Max number of k-points (npk) =  40000
     Max angular momentum in pseudopotentials (lmaxx) =  4
     file Pt.pbe-n-kjpaw_psl.1.0.0.UPF: wavefunction(s)  6S 5D renormalized
     file C.pbe-n-kjpaw_psl.1.0.0.UPF: wavefunction(s)  2S 2P renormalized
     file H.pbe-kjpaw_psl.1.0.0.UPF: wavefunction(s)  1S renormalized

     **************************************************************************
     Initializing libbeef V0.1.2 with the BEEF-vdW functional.
     Citation: Wellendorff et al., PRB 85, 235149 (2012).
     **************************************************************************


     IMPORTANT: XC functional enforced from input :
     Exchange-correlation= BEEF-VDW
                           (   1   4  43  14   2   0   0)
     Any further DFT definition will be discarded
     Please, verify this is what you really want


     R & G space division:  proc/nbgrp/npool/nimage =      48
     Subspace diagonalization in iterative solution of the eigenvalue problem:
     one sub-group per band group will be used
     custom distributed-memory algorithm (size of sub-group:  2*  2 procs)


     Parallelization info
     --------------------
     sticks:   dense  smooth     PW     G-vecs:    dense   smooth      PW
     Min         151      59     16                29407     7165    1028
     Max         152      60     17                29420     7176    1042
     Sum        7267    2839    769              1411785   344073   49691

     Using Slab Decomposition



     bravais-lattice index     =            0
     lattice parameter (alat)  =      16.0349  a.u.
     unit-cell volume          =   10068.6169 (a.u.)^3
     number of atoms/cell      =           38
     number of atomic types    =            3
     number of electrons       =       365.00
     number of Kohn-Sham states=          220
     kinetic-energy cutoff     =      40.0000  Ry
     charge density cutoff     =     410.0000  Ry
     scf convergence threshold =      1.0E-08
     mixing beta               =       0.7000
     number of iterations used =            8  local-TF  mixing
     Exchange-correlation= BEEF-VDW
                           (   1   4  43  14   2   0   0)

     celldm(1)=  16.034858  celldm(2)=   0.000000  celldm(3)=   0.000000
     celldm(4)=   0.000000  celldm(5)=   0.000000  celldm(6)=   0.000000

     crystal axes: (cart. coord. in units of alat)
               a(1) = (   1.000000   0.000000   0.000000 )  
               a(2) = (   0.500000   0.866025   0.000000 )  
               a(3) = (   0.000000   0.000000   2.819966 )  

     reciprocal axes: (cart. coord. in units 2 pi/alat)
               b(1) = (  1.000000 -0.577350  0.000000 )  
               b(2) = (  0.000000  1.154701  0.000000 )  
               b(3) = (  0.000000  0.000000  0.354614 )  


     PseudoPot. # 1 for Pt read from file:
     /users/kbadger1/espresso/pseudo/pslibrary.1.0.0/pbe/PSEUDOPOTENTIALS/Pt.pbe-n-kjpaw_psl.1.0.0.UPF
     MD5 check sum: 2e24a0b5bf98a4ed1a57fa81bca8c143
     Pseudo is Projector augmented-wave + core cor, Zval = 10.0
     Generated using 'atomic' code by A. Dal Corso  v.7.0
     Shape of augmentation charge: PSQ
     Using radial grid of 1277 points,  6 beta functions with: 
                l(1) =   0
                l(2) =   0
                l(3) =   1
                l(4) =   1
                l(5) =   2
                l(6) =   2
     Q(r) pseudized with 0 coefficients 


     PseudoPot. # 2 for C  read from file:
     /users/kbadger1/espresso/pseudo/pslibrary.1.0.0/pbe/PSEUDOPOTENTIALS/C.pbe-n-kjpaw_psl.1.0.0.UPF
     MD5 check sum: 6408e75cdba28732cea38a4db8498ce4
     Pseudo is Projector augmented-wave + core cor, Zval =  4.0
     Generated using 'atomic' code by A. Dal Corso  v.7.0
     Shape of augmentation charge: PSQ
     Using radial grid of 1073 points,  4 beta functions with: 
                l(1) =   0
                l(2) =   0
                l(3) =   1
                l(4) =   1
     Q(r) pseudized with 0 coefficients 


     PseudoPot. # 3 for H  read from file:
     /users/kbadger1/espresso/pseudo/pslibrary.1.0.0/pbe/PSEUDOPOTENTIALS/H.pbe-kjpaw_psl.1.0.0.UPF
     MD5 check sum: fe4c6fa958fa6d3815bf5d2419cbf1df
     Pseudo is Projector augmented-wave, Zval =  1.0
     Generated using 'atomic' code by A. Dal Corso  v.7.0
     Shape of augmentation charge: PSQ
     Using radial grid of  929 points,  2 beta functions with: 
                l(1) =   0
                l(2) =   0
     Q(r) pseudized with 0 coefficients 


     atomic species   valence    mass     pseudopotential
        Pt            10.00   195.08400     Pt( 1.00)
        C              4.00    12.01100     C ( 1.00)
        H              1.00     1.00800     H ( 1.00)

     No symmetry found



   Cartesian axes

     site n.     atom                  positions (alat units)
         1           Pt  tau(   1) = (   0.0000000   0.0000000   1.0017346  )
         2           Pt  tau(   2) = (   0.3333333   0.0000000   1.0017346  )
         3           Pt  tau(   3) = (   0.6666667   0.0000000   1.0017346  )
         4           Pt  tau(   4) = (   0.1666667   0.2886751   1.0017346  )
         5           Pt  tau(   5) = (   0.5000000   0.2886751   1.0017346  )
         6           Pt  tau(   6) = (   0.8333333   0.2886751   1.0017346  )
         7           Pt  tau(   7) = (   0.3333333   0.5773503   1.0017346  )
         8           Pt  tau(   8) = (   0.6666667   0.5773503   1.0017346  )
         9           Pt  tau(   9) = (   1.0000000   0.5773503   1.0017346  )
        10           Pt  tau(  10) = (   0.1666667   0.0962250   1.2739001  )
        11           Pt  tau(  11) = (   0.5000000   0.0962250   1.2739001  )
        12           Pt  tau(  12) = (   0.8333333   0.0962250   1.2739001  )
        13           Pt  tau(  13) = (   0.3333333   0.3849002   1.2739001  )
        14           Pt  tau(  14) = (   0.6666667   0.3849002   1.2739001  )
        15           Pt  tau(  15) = (   1.0000000   0.3849002   1.2739001  )
        16           Pt  tau(  16) = (   0.5000000   0.6735753   1.2739001  )
        17           Pt  tau(  17) = (   0.8333333   0.6735753   1.2739001  )
        18           Pt  tau(  18) = (   1.1666667   0.6735753   1.2739001  )
        19           Pt  tau(  19) = (   0.0014556   0.1943048   1.5466975  )
        20           Pt  tau(  20) = (   0.3321031   0.1943064   1.5467180  )
        21           Pt  tau(  21) = (   0.6667715   0.1948109   1.5415156  )
        22           Pt  tau(  22) = (   0.1667838   0.4796423   1.5489919  )
        23           Pt  tau(  23) = (   0.4996428   0.4834343   1.5414692  )
        24           Pt  tau(  24) = (   0.8339060   0.4834355   1.5414658  )
        25           Pt  tau(  25) = (   0.3347794   0.7731090   1.5451149  )
        26           Pt  tau(  26) = (   0.6667774   0.7731396   1.5448997  )
        27           Pt  tau(  27) = (   0.9987662   0.7731133   1.5451309  )
        28           Pt  tau(  28) = (  -0.0134561  -0.0019076   1.8296075  )
        29           Pt  tau(  29) = (   0.3472356  -0.0019167   1.8296716  )
        30           Pt  tau(  30) = (   0.6668873   0.0061609   1.8176658  )
        31           Pt  tau(  31) = (   0.1668886   0.3089129   1.8434765  )
        32           Pt  tau(  32) = (   0.5035407   0.2963765   1.8145864  )
        33           Pt  tau(  33) = (   0.8302389   0.2963751   1.8145752  )
        34           Pt  tau(  34) = (   0.3338865   0.5840214   1.8173200  )
        35           Pt  tau(  35) = (   0.6668911   0.5790814   1.8140107  )
        36           Pt  tau(  36) = (   0.9999061   0.5840238   1.8173195  )
        37           C   tau(  37) = (   0.1668751   0.0887169   1.9228072  )
        38           H   tau(  38) = (   0.1669249   0.2719046   2.0275232  )

     number of k points=    13  Marzari-Vanderbilt smearing, width (Ry)=  0.0200
                       cart. coord. in units 2pi/alat
        k(    1) = (   0.0000000   0.0000000   0.0000000), wk =   0.0800000
        k(    2) = (   0.0000000   0.2309401   0.0000000), wk =   0.1600000
        k(    3) = (   0.0000000   0.4618802   0.0000000), wk =   0.1600000
        k(    4) = (   0.2000000  -0.1154701   0.0000000), wk =   0.1600000
        k(    5) = (   0.2000000   0.1154701   0.0000000), wk =   0.1600000
        k(    6) = (   0.2000000   0.3464102   0.0000000), wk =   0.1600000
        k(    7) = (   0.2000000  -0.5773503   0.0000000), wk =   0.1600000
        k(    8) = (   0.2000000  -0.3464102   0.0000000), wk =   0.1600000
        k(    9) = (   0.4000000  -0.2309401   0.0000000), wk =   0.1600000
        k(   10) = (   0.4000000  -0.0000000   0.0000000), wk =   0.1600000
        k(   11) = (   0.4000000   0.2309401   0.0000000), wk =   0.1600000
        k(   12) = (   0.4000000  -0.6928203   0.0000000), wk =   0.1600000
        k(   13) = (   0.4000000  -0.4618802   0.0000000), wk =   0.1600000

     Dense  grid:  1411785 G-vectors     FFT dimensions: ( 108, 108, 300)

     Smooth grid:   344073 G-vectors     FFT dimensions: (  72,  72, 192)

     Estimated max dynamical RAM per process >     206.88 MB

     Estimated total dynamical RAM >       9.70 GB

     Initial potential from superposition of free atoms

     starting charge     364.9938, renormalised to     365.0000

     negative rho (up, down):  3.326E-03 0.000E+00


     %%%%%%%%%%%%%%%%%%%%%%%%%%%%%%%%%%%%%%%%%%%%%%%%%%%%%%%%%%%%%%%%%%%%%%%%
     %                                                                      %
     % You are using vdW-DF, which was implemented by the Thonhauser group. %
     % Please cite the following two papers that made this development      %
     % possible and the two reviews that describe the various versions:     %
     %                                                                      %
     %   T. Thonhauser et al., PRL 115, 136402 (2015).                      %
     %   T. Thonhauser et al., PRB 76, 125112 (2007).                       %
     %   K. Berland et al., Rep. Prog. Phys. 78, 066501 (2015).             %
     %   D.C. Langreth et al., J. Phys.: Condens. Matter 21, 084203 (2009). %
     %                                                                      %
     % If you are calculating stress with vdW-DF, please also cite:         %
     %                                                                      %
     %   R. Sabatini et al., J. Phys.: Condens. Matter 24, 424209 (2012).   %
     %                                                                      %
     %%%%%%%%%%%%%%%%%%%%%%%%%%%%%%%%%%%%%%%%%%%%%%%%%%%%%%%%%%%%%%%%%%%%%%%%

     %%%%%%%%%%%%%%%%%%%%%%%%%%%%%%%%%%%%%%%%%%%%%%%%%%%%%%%%%%%%%%%%%%%%%%%%
     %                                                                      %
     %  vdW-DF NEWS:                                                        %
     %                                                                      %
     %  * vdW-DF3 is now available. DOI: 10.1021/acs.jctc.0c00471           %
     %    use with input_dft = 'vdW-DF3-opt1' or 'vdW-DF3-opt2'             %
     %                                                                      %
     %  * Unscreened and range-separated hybrid vdW-DF-cx functionals       %
     %    DOI: 10.1063/1.4986522 and 10.1088/1361-648X/ac2ad2               %
     %    use with input_dft = 'vdW-DF-cx0'    and 'vdW-DF-ahcx'            %
     %  * Unscreened and range-separated hybrid vdW-DF2-b86r functionals    %
     %    DOI: 10.1063/1.4986522 and DOI: 10.1103/PhysRevX.12.041003        %
     %    use with input_dft = 'vdW-DF2-br0' and 'vdW-DF2-ahbr'             %
     %                                                                      %
     %%%%%%%%%%%%%%%%%%%%%%%%%%%%%%%%%%%%%%%%%%%%%%%%%%%%%%%%%%%%%%%%%%%%%%%%


     Starting wfcs are  329 randomized atomic wfcs
     Checking if some PAW data can be deallocated... 

     total cpu time spent up to now is       17.3 secs

     per-process dynamical memory:   211.7 Mb

     Self-consistent Calculation

     iteration #  1     ecut=    40.00 Ry     beta= 0.70
     Davidson diagonalization with overlap
     ethr =  1.00E-02,  avg # of iterations =  2.0

     Threshold (ethr) on eigenvalues was too large:
     Diagonalizing with lowered threshold

     Davidson diagonalization with overlap
     ethr =  5.29E-04,  avg # of iterations =  3.8

     negative rho (up, down):  1.558E-02 0.000E+00

     total cpu time spent up to now is       54.0 secs

     total energy              =  -27774.02184574 Ry
     estimated scf accuracy    <       2.19282778 Ry

     iteration #  2     ecut=    40.00 Ry     beta= 0.70
     Davidson diagonalization with overlap
     ethr =  6.01E-04,  avg # of iterations =  2.0

     negative rho (up, down):  1.287E-02 0.000E+00

     total cpu time spent up to now is       72.9 secs

     total energy              =  -27774.25241989 Ry
     estimated scf accuracy    <       0.98670372 Ry

     iteration #  3     ecut=    40.00 Ry     beta= 0.70
     Davidson diagonalization with overlap
     ethr =  2.70E-04,  avg # of iterations =  2.0

     negative rho (up, down):  8.871E-03 0.000E+00

     total cpu time spent up to now is       86.0 secs

     total energy              =  -27774.32189436 Ry
     estimated scf accuracy    <       0.23993767 Ry

     iteration #  4     ecut=    40.00 Ry     beta= 0.70
     Davidson diagonalization with overlap
     ethr =  6.57E-05,  avg # of iterations =  9.2

     negative rho (up, down):  4.872E-03 0.000E+00

     total cpu time spent up to now is      116.9 secs

     total energy              =  -27774.36324767 Ry
     estimated scf accuracy    <       0.09216886 Ry

     iteration #  5     ecut=    40.00 Ry     beta= 0.70
     Davidson diagonalization with overlap
     c_bands:  1 eigenvalues not converged
     ethr =  2.53E-05,  avg # of iterations =  6.2

     negative rho (up, down):  2.795E-03 0.000E+00

     total cpu time spent up to now is      142.3 secs

     total energy              =  -27774.37329280 Ry
     estimated scf accuracy    <       0.06142960 Ry

     iteration #  6     ecut=    40.00 Ry     beta= 0.70
     Davidson diagonalization with overlap
     ethr =  1.68E-05,  avg # of iterations =  2.0

     negative rho (up, down):  8.896E-04 0.000E+00

     total cpu time spent up to now is      161.2 secs

     total energy              =  -27774.37559582 Ry
     estimated scf accuracy    <       0.00684191 Ry

     iteration #  7     ecut=    40.00 Ry     beta= 0.70
     Davidson diagonalization with overlap
     c_bands:  1 eigenvalues not converged
     ethr =  1.87E-06,  avg # of iterations = 15.8

     negative rho (up, down):  4.959E-04 0.000E+00

     total cpu time spent up to now is      203.6 secs

     total energy              =  -27774.37835846 Ry
     estimated scf accuracy    <       0.00238481 Ry

     iteration #  8     ecut=    40.00 Ry     beta= 0.70
     Davidson diagonalization with overlap
     ethr =  6.53E-07,  avg # of iterations =  2.3

     negative rho (up, down):  3.475E-04 0.000E+00

     total cpu time spent up to now is      225.3 secs

     total energy              =  -27774.37867926 Ry
     estimated scf accuracy    <       0.00045447 Ry

     iteration #  9     ecut=    40.00 Ry     beta= 0.70
     Davidson diagonalization with overlap
     ethr =  1.25E-07,  avg # of iterations =  4.2

     negative rho (up, down):  2.994E-04 0.000E+00

     total cpu time spent up to now is      253.1 secs

     total energy              =  -27774.37877720 Ry
     estimated scf accuracy    <       0.00030382 Ry

     iteration # 10     ecut=    40.00 Ry     beta= 0.70
     Davidson diagonalization with overlap
     c_bands:  1 eigenvalues not converged
     ethr =  8.32E-08,  avg # of iterations =  2.7

     negative rho (up, down):  3.277E-04 0.000E+00

     total cpu time spent up to now is      265.4 secs

     total energy              =  -27774.37880447 Ry
     estimated scf accuracy    <       0.00018025 Ry

     iteration # 11     ecut=    40.00 Ry     beta= 0.70
     Davidson diagonalization with overlap
     ethr =  4.94E-08,  avg # of iterations =  2.2

     negative rho (up, down):  4.881E-04 0.000E+00

     total cpu time spent up to now is      284.0 secs

     total energy              =  -27774.37884147 Ry
     estimated scf accuracy    <       0.00010419 Ry

     iteration # 12     ecut=    40.00 Ry     beta= 0.70
     Davidson diagonalization with overlap
     ethr =  2.85E-08,  avg # of iterations =  1.6

     negative rho (up, down):  7.059E-04 0.000E+00

     total cpu time spent up to now is      295.9 secs

     total energy              =  -27774.37886531 Ry
     estimated scf accuracy    <       0.00007241 Ry

     iteration # 13     ecut=    40.00 Ry     beta= 0.70
     Davidson diagonalization with overlap
     ethr =  1.98E-08,  avg # of iterations =  1.4

     negative rho (up, down):  1.605E-03 0.000E+00

     total cpu time spent up to now is      315.0 secs

     total energy              =  -27774.37889302 Ry
     estimated scf accuracy    <       0.00003346 Ry

     iteration # 14     ecut=    40.00 Ry     beta= 0.70
     Davidson diagonalization with overlap
     ethr =  9.17E-09,  avg # of iterations =  4.6

     negative rho (up, down):  1.802E-03 0.000E+00

     total cpu time spent up to now is      329.6 secs

     total energy              =  -27774.37890320 Ry
     estimated scf accuracy    <       0.00001867 Ry

     iteration # 15     ecut=    40.00 Ry     beta= 0.70
     Davidson diagonalization with overlap
     ethr =  5.12E-09,  avg # of iterations =  1.7

     negative rho (up, down):  2.583E-03 0.000E+00

     total cpu time spent up to now is      347.4 secs

     total energy              =  -27774.37890290 Ry
     estimated scf accuracy    <       0.00000588 Ry

     iteration # 16     ecut=    40.00 Ry     beta= 0.70
     Davidson diagonalization with overlap
     ethr =  1.61E-09,  avg # of iterations =  4.3

     negative rho (up, down):  2.884E-03 0.000E+00

     total cpu time spent up to now is      372.7 secs

     total energy              =  -27774.37890286 Ry
     estimated scf accuracy    <       0.00000267 Ry

     iteration # 17     ecut=    40.00 Ry     beta= 0.70
     Davidson diagonalization with overlap
     ethr =  7.31E-10,  avg # of iterations =  2.3

     negative rho (up, down):  3.031E-03 0.000E+00

     total cpu time spent up to now is      386.0 secs

     total energy              =  -27774.37890225 Ry
     estimated scf accuracy    <       0.00000104 Ry

     iteration # 18     ecut=    40.00 Ry     beta= 0.70
     Davidson diagonalization with overlap
     ethr =  2.86E-10,  avg # of iterations =  2.8

     negative rho (up, down):  3.124E-03 0.000E+00

     total cpu time spent up to now is      406.5 secs

     total energy              =  -27774.37890192 Ry
     estimated scf accuracy    <       0.00000046 Ry

     iteration # 19     ecut=    40.00 Ry     beta= 0.70
     Davidson diagonalization with overlap
     ethr =  1.27E-10,  avg # of iterations =  2.3

     negative rho (up, down):  3.191E-03 0.000E+00

     total cpu time spent up to now is      420.0 secs

     total energy              =  -27774.37890163 Ry
     estimated scf accuracy    <       0.00000017 Ry

     iteration # 20     ecut=    40.00 Ry     beta= 0.70
     Davidson diagonalization with overlap
     ethr =  4.71E-11,  avg # of iterations =  4.4

     negative rho (up, down):  3.176E-03 0.000E+00

     total cpu time spent up to now is      445.4 secs

     total energy              =  -27774.37890176 Ry
     estimated scf accuracy    <       0.00000005 Ry

     iteration # 21     ecut=    40.00 Ry     beta= 0.70
     Davidson diagonalization with overlap
     ethr =  1.34E-11,  avg # of iterations =  3.5

     negative rho (up, down):  3.165E-03 0.000E+00

     total cpu time spent up to now is      468.8 secs

     total energy              =  -27774.37890184 Ry
     estimated scf accuracy    <       0.00000004 Ry

     iteration # 22     ecut=    40.00 Ry     beta= 0.70
     Davidson diagonalization with overlap
     ethr =  9.71E-12,  avg # of iterations =  2.0

     negative rho (up, down):  3.162E-03 0.000E+00

     total cpu time spent up to now is      488.4 secs

     total energy              =  -27774.37890186 Ry
     estimated scf accuracy    <       0.00000001 Ry

     iteration # 23     ecut=    40.00 Ry     beta= 0.70
     Davidson diagonalization with overlap
     ethr =  3.02E-12,  avg # of iterations =  3.5

     negative rho (up, down):  3.149E-03 0.000E+00

     total cpu time spent up to now is      505.2 secs

     End of self-consistent calculation

          k = 0.0000 0.0000 0.0000 ( 42913 PWs)   bands (ev):

    -9.7998  -6.1018  -4.7985  -4.7179  -4.1950  -3.7944  -3.7429  -3.7316
    -3.7111  -3.6885  -3.6543  -3.6173  -3.5864  -3.3874  -3.1852  -3.1827
    -3.1822  -3.1028  -3.0985  -3.0712  -2.7536  -2.7468  -2.7108  -2.6212
    -2.5547  -2.5486  -2.5289  -2.5134  -2.4848  -2.4475  -2.4236  -2.4139
    -2.3381  -2.3298  -2.2607  -2.2509  -2.2504  -2.2349  -2.2061  -2.1850
    -2.1748  -2.0509  -1.9259  -1.8097  -1.7748  -1.7333  -1.6579  -1.6435
    -1.6258  -1.6196  -1.5912  -1.5338  -1.5190  -1.4511  -1.4029  -1.3753
    -1.3343  -1.2874  -0.9995  -0.9772  -0.9671  -0.8772  -0.8593  -0.8058
    -0.7766  -0.7316  -0.7238  -0.6911  -0.6602  -0.6477  -0.6355  -0.6301
    -0.6198  -0.5991  -0.5683  -0.5580  -0.5561  -0.5356  -0.5282  -0.5173
    -0.4781  -0.4677  -0.4634  -0.4291  -0.4149  -0.3340  -0.3167  -0.2782
    -0.2600  -0.2298  -0.2283  -0.2088  -0.1922  -0.1741  -0.1361  -0.1075
    -0.1063  -0.0526  -0.0021   0.0022   0.0310   0.0482   0.0567   0.0595
     0.1223   0.1410   0.1657   0.2021   0.2194   0.2663   0.4380   0.4912
     0.5316   0.5714   0.6439   0.6544   0.6916   0.7002   0.7134   0.7548
     0.8220   0.8523   0.8664   0.8971   0.9091   0.9115   0.9293   0.9298
     0.9893   1.0420   1.1422   1.1483   1.1801   1.2097   1.2259   1.2502
     1.2953   1.3209   1.3959   1.4114   1.4367   1.4521   1.4855   1.4980
     1.5050   1.5472   1.6007   1.6728   1.7102   1.7130   1.7222   1.7567
     1.8050   1.8786   1.8790   1.8862   1.8958   1.8980   1.8981   1.9194
     1.9215   1.9320   1.9733   1.9754   1.9946   2.0120   2.0179   2.0294
     2.0895   2.0898   2.1152   2.1174   2.1250   2.1756   2.1794   2.2095
     2.2556   2.2579   2.2687   2.2787   2.2791   2.3138   2.3213   2.3483
     2.3697   2.3733   2.4130   2.4135   2.5367   2.5417   2.6525   2.6636
     2.6745   2.7096   2.7121   2.7313   2.8819   2.9337   3.3100   3.4097
     3.5686   3.5773   3.6153   4.3290   4.4284   4.7580   5.7007   5.8633
     5.8812   5.9570   6.1529   6.2648   6.6816   7.5094   7.5101   7.5127
     7.5343   7.5730   7.7151   7.7380

          k = 0.0000 0.2309 0.0000 ( 42996 PWs)   bands (ev):

    -9.7928  -5.9621  -4.8229  -4.5919  -4.1698  -4.1645  -3.8038  -3.7221
    -3.6404  -3.5951  -3.5013  -3.4547  -3.4309  -3.3562  -3.2493  -3.1919
    -3.1144  -3.0933  -3.0215  -3.0058  -2.7802  -2.7016  -2.6687  -2.6679
    -2.5927  -2.5918  -2.5473  -2.5042  -2.4966  -2.4551  -2.4341  -2.3953
    -2.3743  -2.3553  -2.3007  -2.2730  -2.2305  -2.2087  -2.1398  -2.0613
    -2.0313  -2.0207  -1.8944  -1.8748  -1.8217  -1.7755  -1.7359  -1.7307
    -1.7059  -1.6855  -1.5823  -1.5398  -1.4736  -1.4355  -1.4015  -1.3390
    -1.3309  -1.2879  -1.1086  -1.0637  -1.0463  -1.0157  -1.0024  -0.9270
    -0.9146  -0.8951  -0.8698  -0.8297  -0.7934  -0.7716  -0.7164  -0.7055
    -0.6833  -0.6516  -0.6348  -0.5703  -0.5280  -0.5278  -0.4938  -0.4879
    -0.4457  -0.4307  -0.4093  -0.3974  -0.3778  -0.3346  -0.2981  -0.2811
    -0.2653  -0.2497  -0.2483  -0.2008  -0.1903  -0.1802  -0.1521  -0.1244
    -0.0745  -0.0721  -0.0434  -0.0305  -0.0104   0.0106   0.0188   0.0761
     0.0896   0.1684   0.1802   0.2184   0.2397   0.2439   0.2959   0.3015
     0.3170   0.3496   0.3643   0.4860   0.5141   0.6247   0.6355   0.6823
     0.7154   0.7384   0.7504   0.7573   0.8818   0.9393   0.9638   0.9695
     1.0212   1.0249   1.0552   1.0653   1.1069   1.1176   1.1598   1.1999
     1.2441   1.3076   1.3222   1.3300   1.3623   1.3944   1.4398   1.4625
     1.4665   1.5387   1.5446   1.5959   1.6424   1.6573   1.6869   1.7113
     1.7250   1.7527   1.7977   1.8484   1.8631   1.8926   1.9011   1.9380
     1.9685   2.0309   2.0318   2.0735   2.0781   2.1170   2.1531   2.1779
     2.2168   2.2472   2.2523   2.2731   2.3316   2.3354   2.3436   2.3647
     2.3822   2.4122   2.4273   2.4615   2.4803   2.5505   2.5553   2.5860
     2.6119   2.6248   2.6452   2.6807   2.6902   2.7108   2.7727   2.7873
     2.8293   2.8403   2.9314   2.9872   3.0150   3.2838   3.2985   3.4517
     3.7067   4.0088   4.2242   4.2622   4.8176   4.8179   5.3901   5.6262
     5.8495   5.9987   6.3497   6.5167   6.6109   6.6116   6.9588   7.3320
     7.5155   7.6702   7.7553   7.8381

          k = 0.0000 0.4619 0.0000 ( 43046 PWs)   bands (ev):

    -9.7813  -5.5678  -5.0189  -4.6657  -4.2079  -4.1162  -3.8393  -3.7029
    -3.6773  -3.4956  -3.3663  -3.3174  -3.2098  -3.1265  -3.1200  -3.0893
    -2.9678  -2.9595  -2.9054  -2.8794  -2.8577  -2.8000  -2.7539  -2.7442
    -2.6925  -2.6833  -2.6615  -2.6235  -2.5667  -2.5516  -2.3972  -2.3780
    -2.3210  -2.3150  -2.2818  -2.2337  -2.2010  -2.1330  -2.0952  -2.0621
    -2.0166  -2.0125  -1.9714  -1.8509  -1.8151  -1.7893  -1.7487  -1.7364
    -1.6361  -1.6261  -1.6008  -1.5692  -1.5535  -1.5508  -1.4520  -1.4192
    -1.4049  -1.3373  -1.2891  -1.2245  -1.1947  -1.1935  -1.1625  -1.0852
    -1.0309  -0.9848  -0.9575  -0.9538  -0.8675  -0.8661  -0.8303  -0.8116
    -0.7568  -0.6948  -0.6796  -0.6758  -0.6137  -0.6135  -0.5407  -0.5357
    -0.5281  -0.4949  -0.4744  -0.4576  -0.4157  -0.4098  -0.3899  -0.3727
    -0.3567  -0.3110  -0.2722  -0.2614  -0.2364  -0.2256  -0.1979  -0.1795
    -0.1260  -0.1047  -0.0519  -0.0460  -0.0136   0.0113   0.0246   0.0563
     0.0615   0.0716   0.1661   0.1912   0.2068   0.2558   0.2703   0.3543
     0.3937   0.3958   0.4686   0.4791   0.5142   0.5600   0.6032   0.6080
     0.6199   0.6747   0.6772   0.7383   0.7525   0.7631   0.7745   0.7987
     0.8343   0.9009   0.9098   0.9569   0.9883   1.0008   1.0587   1.0637
     1.2051   1.2228   1.2411   1.3021   1.3059   1.3661   1.3848   1.4168
     1.5077   1.5297   1.5641   1.5712   1.5805   1.6003   1.6260   1.6610
     1.7211   1.7639   1.7838   1.7873   1.8562   1.8639   1.9094   1.9201
     1.9881   2.0148   2.0552   2.0936   2.1337   2.1461   2.2509   2.2554
     2.2795   2.3035   2.3341   2.3740   2.3969   2.4077   2.4647   2.5057
     2.5063   2.5455   2.5667   2.5849   2.5965   2.6392   2.6643   2.7384
     2.7566   2.8352   2.8418   2.8522   2.8929   2.9305   3.0949   3.1974
     3.2860   3.3883   3.5570   3.8061   3.8452   4.0365   4.1274   4.3416
     4.4479   4.6591   4.6807   4.7956   5.1230   5.1452   5.2830   5.3680
     5.4807   5.5267   5.6294   5.9893   6.1560   6.2720   6.5267   6.9387
     6.9773   7.3221   7.5135   7.6225

          k = 0.2000-0.1155 0.0000 ( 42996 PWs)   bands (ev):

    -9.7922  -5.9616  -4.7547  -4.6337  -4.3231  -4.0387  -3.8021  -3.7527
    -3.6093  -3.5876  -3.5131  -3.4625  -3.4336  -3.3634  -3.2603  -3.1723
    -3.1238  -3.0820  -3.0303  -3.0150  -2.7921  -2.7185  -2.6652  -2.6562
    -2.6020  -2.5722  -2.5407  -2.5031  -2.4859  -2.4619  -2.4221  -2.4011
    -2.3806  -2.3572  -2.3003  -2.2784  -2.2438  -2.1965  -2.1448  -2.0890
    -2.0427  -1.9889  -1.8705  -1.8506  -1.8298  -1.7735  -1.7534  -1.7311
    -1.6993  -1.6537  -1.6347  -1.5089  -1.4540  -1.4225  -1.3868  -1.3604
    -1.3242  -1.2889  -1.1225  -1.0699  -1.0258  -0.9975  -0.9923  -0.9388
    -0.9210  -0.8959  -0.8695  -0.8248  -0.7959  -0.7468  -0.7155  -0.6968
    -0.6734  -0.6480  -0.6225  -0.5940  -0.5677  -0.5322  -0.5041  -0.4686
    -0.4437  -0.4262  -0.4001  -0.3832  -0.3805  -0.3497  -0.3116  -0.2992
    -0.2713  -0.2583  -0.2294  -0.2136  -0.1921  -0.1660  -0.1491  -0.1142
    -0.0930  -0.0726  -0.0504  -0.0284  -0.0150  -0.0002   0.0197   0.0600
     0.0881   0.1237   0.1762   0.2255   0.2353   0.2517   0.2927   0.3037
     0.3082   0.3772   0.3989   0.4897   0.5471   0.5865   0.6522   0.6659
     0.6817   0.7366   0.7542   0.7985   0.8754   0.8907   0.9379   0.9912
     1.0108   1.0308   1.0724   1.0844   1.1092   1.1265   1.1385   1.1649
     1.2420   1.2971   1.3147   1.3290   1.3504   1.4029   1.4377   1.4563
     1.4959   1.5123   1.5639   1.5874   1.6524   1.6832   1.6982   1.7201
     1.7363   1.7428   1.8185   1.8496   1.8746   1.8862   1.9166   1.9426
     1.9723   2.0036   2.0438   2.0703   2.0891   2.1313   2.1624   2.1747
     2.2195   2.2333   2.2528   2.2622   2.3230   2.3329   2.3486   2.3667
     2.3855   2.4044   2.4212   2.4510   2.4791   2.5344   2.5565   2.5835
     2.6159   2.6228   2.6524   2.6835   2.6952   2.7156   2.7733   2.7840
     2.8412   2.8934   2.9497   2.9788   3.0135   3.1405   3.3096   3.5795
     3.7728   3.9017   4.2315   4.3480   4.6137   4.8624   5.3826   5.6914
     5.8493   6.1192   6.3025   6.4668   6.5617   6.6882   6.8606   7.3280
     7.4821   7.6422   7.7265   7.8179

          k = 0.2000 0.1155 0.0000 ( 42996 PWs)   bands (ev):

    -9.7922  -5.9616  -4.7548  -4.6336  -4.3232  -4.0388  -3.8021  -3.7523
    -3.6093  -3.5876  -3.5135  -3.4622  -3.4336  -3.3634  -3.2602  -3.1724
    -3.1239  -3.0822  -3.0303  -3.0150  -2.7920  -2.7188  -2.6650  -2.6561
    -2.6019  -2.5721  -2.5407  -2.5032  -2.4861  -2.4618  -2.4220  -2.4012
    -2.3805  -2.3572  -2.3003  -2.2783  -2.2438  -2.1965  -2.1448  -2.0889
    -2.0426  -1.9891  -1.8701  -1.8506  -1.8298  -1.7734  -1.7533  -1.7310
    -1.6994  -1.6537  -1.6348  -1.5087  -1.4539  -1.4227  -1.3867  -1.3604
    -1.3243  -1.2887  -1.1222  -1.0695  -1.0255  -0.9972  -0.9920  -0.9388
    -0.9212  -0.8962  -0.8696  -0.8253  -0.7953  -0.7471  -0.7154  -0.6966
    -0.6729  -0.6481  -0.6224  -0.5946  -0.5686  -0.5324  -0.5039  -0.4684
    -0.4437  -0.4260  -0.4005  -0.3828  -0.3806  -0.3501  -0.3115  -0.3000
    -0.2715  -0.2582  -0.2287  -0.2133  -0.1921  -0.1662  -0.1491  -0.1139
    -0.0934  -0.0726  -0.0508  -0.0284  -0.0150  -0.0004   0.0197   0.0600
     0.0881   0.1235   0.1759   0.2253   0.2354   0.2518   0.2928   0.3038
     0.3084   0.3772   0.3992   0.4897   0.5472   0.5868   0.6520   0.6659
     0.6815   0.7365   0.7543   0.7982   0.8753   0.8907   0.9378   0.9910
     1.0107   1.0307   1.0724   1.0842   1.1093   1.1264   1.1383   1.1647
     1.2418   1.2971   1.3146   1.3293   1.3504   1.4029   1.4376   1.4563
     1.4958   1.5123   1.5641   1.5874   1.6525   1.6835   1.6982   1.7202
     1.7363   1.7430   1.8187   1.8496   1.8747   1.8861   1.9167   1.9427
     1.9722   2.0036   2.0437   2.0702   2.0891   2.1312   2.1623   2.1746
     2.2195   2.2333   2.2527   2.2622   2.3231   2.3330   2.3484   2.3667
     2.3857   2.4040   2.4210   2.4507   2.4789   2.5340   2.5563   2.5835
     2.6163   2.6230   2.6527   2.6841   2.6956   2.7160   2.7733   2.7840
     2.8413   2.8932   2.9497   2.9787   3.0138   3.1409   3.3098   3.5797
     3.7727   3.9018   4.2312   4.3479   4.6136   4.8623   5.3823   5.6916
     5.8498   6.1190   6.3028   6.4669   6.5617   6.6878   6.8606   7.3277
     7.4816   7.6426   7.7268   7.8175

          k = 0.2000 0.3464 0.0000 ( 43046 PWs)   bands (ev):

    -9.7830  -5.6924  -4.8327  -4.5368  -4.3759  -4.3196  -3.9740  -3.5184
    -3.4166  -3.4024  -3.3601  -3.3327  -3.2978  -3.2800  -3.2428  -3.2189
    -3.1720  -3.0640  -2.8506  -2.8325  -2.8115  -2.7948  -2.7512  -2.7019
    -2.6382  -2.6197  -2.5677  -2.5266  -2.4803  -2.4759  -2.4492  -2.4216
    -2.3865  -2.3440  -2.3277  -2.2903  -2.2651  -2.2176  -2.1705  -2.0807
    -1.9941  -1.9072  -1.8685  -1.8468  -1.8081  -1.7672  -1.7514  -1.7192
    -1.6848  -1.6525  -1.5906  -1.5448  -1.5364  -1.4733  -1.4329  -1.3682
    -1.3332  -1.3230  -1.2630  -1.2076  -1.1597  -1.1448  -1.1138  -1.0533
    -1.0163  -0.9706  -0.9492  -0.9289  -0.9107  -0.8438  -0.8028  -0.7685
    -0.7479  -0.7161  -0.7034  -0.6714  -0.6038  -0.5869  -0.5463  -0.5251
    -0.4925  -0.4755  -0.4555  -0.4400  -0.4185  -0.3866  -0.3644  -0.3424
    -0.3007  -0.2895  -0.2655  -0.2539  -0.2064  -0.1935  -0.1819  -0.1285
    -0.1242  -0.0789  -0.0624  -0.0390  -0.0206  -0.0021   0.0142   0.0276
     0.0497   0.0900   0.0995   0.1311   0.1893   0.2131   0.2385   0.2808
     0.3023   0.3507   0.3577   0.4569   0.5152   0.5580   0.5740   0.6041
     0.6540   0.7051   0.7209   0.7485   0.7841   0.8041   0.8375   0.8671
     0.8809   0.9099   0.9379   1.0010   1.0292   1.0948   1.1134   1.1410
     1.2007   1.2371   1.2762   1.2959   1.3065   1.3235   1.3582   1.4294
     1.4616   1.4887   1.5270   1.5581   1.6197   1.6348   1.6477   1.6821
     1.7020   1.7087   1.7404   1.7524   1.7938   1.8355   1.8823   1.9724
     2.0051   2.0505   2.1224   2.1731   2.1896   2.2351   2.2489   2.2886
     2.3456   2.3646   2.3786   2.4163   2.4295   2.4468   2.4603   2.4794
     2.5003   2.5136   2.5559   2.5771   2.6034   2.6205   2.6619   2.6902
     2.7184   2.7716   2.8191   2.8541   2.9014   2.9327   2.9704   2.9993
     3.0985   3.1280   3.4298   3.5766   3.6784   3.8140   3.8999   4.1014
     4.1937   4.3109   4.6746   4.8140   4.9615   5.1397   5.2372   5.2604
     5.4120   5.9678   6.1626   6.3125   6.4043   6.6289   6.6938   7.0071
     7.0956   7.1633   7.2321   7.4889

          k = 0.2000-0.5774 0.0000 ( 43014 PWs)   bands (ev):

    -9.7772  -5.2648  -5.1373  -4.7127  -4.5278  -4.0111  -3.8949  -3.7778
    -3.4041  -3.3520  -3.3154  -3.2523  -3.1910  -3.1198  -3.0891  -3.0182
    -2.9756  -2.8875  -2.8756  -2.8673  -2.8408  -2.8272  -2.7939  -2.7757
    -2.6930  -2.6797  -2.6583  -2.6500  -2.6182  -2.5290  -2.4443  -2.4071
    -2.4045  -2.3572  -2.2953  -2.2680  -2.2232  -2.2060  -2.1932  -2.0770
    -2.0486  -1.9498  -1.8705  -1.8559  -1.8108  -1.7728  -1.7610  -1.7235
    -1.6747  -1.5576  -1.5350  -1.4716  -1.4615  -1.4094  -1.3948  -1.3705
    -1.3503  -1.3177  -1.2946  -1.2867  -1.2382  -1.1953  -1.1695  -1.1542
    -1.1070  -1.0889  -1.0410  -1.0035  -0.9435  -0.9349  -0.8839  -0.8418
    -0.7956  -0.7791  -0.7646  -0.7344  -0.6975  -0.6780  -0.6392  -0.6175
    -0.5808  -0.5371  -0.5207  -0.4957  -0.4497  -0.4321  -0.3819  -0.3712
    -0.3324  -0.3113  -0.2841  -0.2294  -0.1968  -0.1558  -0.1343  -0.1284
    -0.0946  -0.0760  -0.0520  -0.0432  -0.0176  -0.0094   0.0246   0.0489
     0.0566   0.0800   0.0957   0.1188   0.1302   0.1429   0.1615   0.2398
     0.2671   0.3417   0.4159   0.4921   0.4933   0.5376   0.5518   0.5946
     0.6176   0.6594   0.6673   0.6860   0.7167   0.7546   0.7772   0.8041
     0.8931   0.9091   0.9348   0.9563   0.9810   1.0333   1.0904   1.1446
     1.1930   1.2376   1.2639   1.2917   1.3117   1.3582   1.3705   1.3765
     1.4004   1.4667   1.4681   1.4923   1.5014   1.5759   1.5899   1.6315
     1.6687   1.6916   1.7731   1.7967   1.8361   1.9161   1.9454   2.0031
     2.0438   2.0792   2.1155   2.1592   2.1852   2.2277   2.2658   2.3094
     2.3592   2.3701   2.4178   2.4368   2.4510   2.4861   2.5207   2.5306
     2.5514   2.5603   2.5853   2.6370   2.6595   2.6926   2.7454   2.7772
     2.8181   2.8501   2.8677   2.8866   2.9186   2.9418   3.0991   3.1510
     3.3863   3.7591   3.9961   4.0170   4.1636   4.2756   4.2991   4.4473
     4.5612   4.6173   4.8333   5.0335   5.0989   5.1701   5.4592   5.5379
     5.6137   5.7366   5.7791   5.9215   6.1510   6.2107   6.3133   6.4274
     6.6982   6.9853   7.1127   7.1594

          k = 0.2000-0.3464 0.0000 ( 43046 PWs)   bands (ev):

    -9.7829  -5.6924  -4.8326  -4.5368  -4.3759  -4.3197  -3.9740  -3.5184
    -3.4164  -3.4024  -3.3602  -3.3327  -3.2981  -3.2801  -3.2428  -3.2189
    -3.1721  -3.0640  -2.8501  -2.8324  -2.8114  -2.7946  -2.7511  -2.7019
    -2.6379  -2.6197  -2.5682  -2.5269  -2.4804  -2.4760  -2.4496  -2.4217
    -2.3864  -2.3440  -2.3277  -2.2905  -2.2652  -2.2176  -2.1702  -2.0806
    -1.9943  -1.9073  -1.8687  -1.8469  -1.8081  -1.7674  -1.7515  -1.7194
    -1.6849  -1.6525  -1.5906  -1.5449  -1.5364  -1.4734  -1.4330  -1.3682
    -1.3332  -1.3231  -1.2631  -1.2076  -1.1598  -1.1451  -1.1144  -1.0536
    -1.0166  -0.9707  -0.9493  -0.9294  -0.9106  -0.8439  -0.8025  -0.7686
    -0.7476  -0.7157  -0.7032  -0.6715  -0.6035  -0.5865  -0.5464  -0.5249
    -0.4930  -0.4753  -0.4554  -0.4401  -0.4185  -0.3864  -0.3640  -0.3425
    -0.3000  -0.2898  -0.2653  -0.2530  -0.2064  -0.1934  -0.1817  -0.1285
    -0.1240  -0.0788  -0.0624  -0.0390  -0.0206  -0.0022   0.0143   0.0272
     0.0495   0.0900   0.0995   0.1312   0.1892   0.2130   0.2384   0.2809
     0.3025   0.3507   0.3581   0.4572   0.5155   0.5580   0.5739   0.6041
     0.6542   0.7053   0.7210   0.7484   0.7841   0.8041   0.8373   0.8674
     0.8810   0.9095   0.9378   1.0011   1.0293   1.0951   1.1135   1.1411
     1.2008   1.2374   1.2764   1.2959   1.3064   1.3236   1.3582   1.4295
     1.4616   1.4886   1.5270   1.5580   1.6195   1.6346   1.6475   1.6818
     1.7018   1.7086   1.7402   1.7525   1.7937   1.8354   1.8822   1.9725
     2.0051   2.0505   2.1223   2.1733   2.1896   2.2352   2.2489   2.2887
     2.3454   2.3645   2.3786   2.4164   2.4296   2.4470   2.4602   2.4796
     2.5005   2.5137   2.5560   2.5770   2.6038   2.6207   2.6619   2.6902
     2.7184   2.7713   2.8187   2.8537   2.9008   2.9325   2.9703   2.9993
     3.0986   3.1281   3.4300   3.5766   3.6786   3.8138   3.8999   4.1013
     4.1932   4.3106   4.6746   4.8142   4.9616   5.1395   5.2373   5.2604
     5.4121   5.9678   6.1625   6.3121   6.4041   6.6292   6.6940   7.0069
     7.0959   7.1634   7.2323   7.4887

          k = 0.4000-0.2309 0.0000 ( 43046 PWs)   bands (ev):

    -9.7799  -5.5626  -4.9794  -4.6383  -4.3658  -4.0730  -3.8158  -3.7825
    -3.5997  -3.5004  -3.4053  -3.2925  -3.2128  -3.1423  -3.1144  -3.0938
    -2.9785  -2.9469  -2.9204  -2.8895  -2.8762  -2.8063  -2.7510  -2.7408
    -2.7037  -2.6917  -2.6691  -2.6098  -2.5584  -2.5411  -2.4055  -2.3613
    -2.3311  -2.3008  -2.2528  -2.2206  -2.1760  -2.1311  -2.1100  -2.0764
    -2.0359  -2.0020  -1.9553  -1.8856  -1.8154  -1.7634  -1.7358  -1.6798
    -1.6382  -1.6237  -1.5964  -1.5620  -1.5558  -1.5416  -1.4609  -1.4074
    -1.3849  -1.3555  -1.2609  -1.2132  -1.1960  -1.1684  -1.1618  -1.0868
    -1.0254  -0.9914  -0.9635  -0.9242  -0.8912  -0.8572  -0.8279  -0.7985
    -0.7640  -0.7264  -0.6916  -0.6625  -0.6125  -0.6070  -0.5666  -0.5316
    -0.4935  -0.4797  -0.4720  -0.4602  -0.4354  -0.4124  -0.3937  -0.3784
    -0.3630  -0.3278  -0.3127  -0.2564  -0.2326  -0.2176  -0.2097  -0.1660
    -0.1401  -0.0818  -0.0717  -0.0567  -0.0355   0.0020   0.0299   0.0452
     0.0674   0.1100   0.1415   0.1858   0.2075   0.2534   0.2779   0.3188
     0.3517   0.3941   0.4324   0.4877   0.5485   0.5746   0.5937   0.6033
     0.6393   0.6701   0.7034   0.7198   0.7487   0.7689   0.7732   0.7814
     0.8243   0.9015   0.9389   0.9579   0.9726   0.9977   1.0186   1.0829
     1.1480   1.2295   1.2373   1.2812   1.3148   1.3623   1.3818   1.4583
     1.5055   1.5233   1.5640   1.5687   1.5874   1.5999   1.6496   1.6648
     1.7259   1.7666   1.7861   1.8186   1.8492   1.8660   1.8984   1.9217
     1.9940   2.0349   2.0740   2.0935   2.1412   2.1970   2.2392   2.2574
     2.2658   2.2961   2.3322   2.3723   2.4012   2.4139   2.4448   2.4892
     2.5134   2.5522   2.5585   2.5814   2.6015   2.6560   2.6748   2.7429
     2.7627   2.8273   2.8478   2.8645   2.9202   2.9346   3.0913   3.1149
     3.2828   3.4702   3.6085   3.8115   3.8679   4.0333   4.0823   4.3393
     4.4479   4.5465   4.6946   4.8892   5.0834   5.1798   5.2319   5.3126
     5.4850   5.5862   5.6297   6.0131   6.1597   6.3329   6.4412   6.7769
     7.0263   7.2328   7.5124   7.5882

          k = 0.4000-0.0000 0.0000 ( 43046 PWs)   bands (ev):

    -9.7821  -5.6898  -4.7549  -4.5905  -4.3904  -4.3633  -3.9716  -3.4992
    -3.4224  -3.4010  -3.3589  -3.3295  -3.3161  -3.2722  -3.2685  -3.2370
    -3.1438  -3.0669  -2.8649  -2.8379  -2.8233  -2.8004  -2.7313  -2.7020
    -2.6429  -2.6279  -2.5639  -2.5075  -2.4931  -2.4714  -2.4446  -2.4313
    -2.3830  -2.3422  -2.3233  -2.2992  -2.2434  -2.2110  -2.1939  -2.0729
    -1.9715  -1.9311  -1.8611  -1.8334  -1.8182  -1.7892  -1.7316  -1.6902
    -1.6673  -1.5874  -1.5843  -1.5741  -1.5033  -1.4610  -1.4553  -1.3718
    -1.3474  -1.3291  -1.2716  -1.2420  -1.1568  -1.1190  -1.0729  -1.0337
    -1.0287  -0.9653  -0.9535  -0.9205  -0.9075  -0.8719  -0.7797  -0.7532
    -0.7441  -0.7139  -0.7097  -0.6483  -0.6164  -0.5849  -0.5777  -0.5276
    -0.5098  -0.4844  -0.4416  -0.4273  -0.3996  -0.3922  -0.3816  -0.3554
    -0.3319  -0.2877  -0.2639  -0.2381  -0.2237  -0.1902  -0.1600  -0.1455
    -0.1321  -0.0894  -0.0753  -0.0500  -0.0255  -0.0065   0.0163   0.0305
     0.0487   0.0699   0.0966   0.1172   0.1836   0.2117   0.2708   0.2993
     0.3126   0.3206   0.3820   0.4391   0.4851   0.5264   0.5840   0.5999
     0.6360   0.6861   0.7268   0.7504   0.7810   0.8164   0.8543   0.8620
     0.8819   0.9186   0.9498   0.9794   1.0208   1.0921   1.1022   1.1508
     1.2107   1.2511   1.2724   1.2854   1.3117   1.3298   1.3754   1.4077
     1.4366   1.4776   1.5583   1.5769   1.6270   1.6450   1.6665   1.6862
     1.6906   1.7143   1.7410   1.7528   1.7956   1.8609   1.8949   1.9496
     2.0116   2.0406   2.1326   2.1828   2.2002   2.2355   2.2665   2.2910
     2.3491   2.3736   2.3790   2.3936   2.4294   2.4417   2.4557   2.4718
     2.4996   2.5047   2.5539   2.5655   2.5954   2.6144   2.6650   2.6917
     2.7197   2.8094   2.8250   2.8527   2.9099   2.9486   2.9938   3.0128
     3.1030   3.1310   3.3385   3.5909   3.6542   3.7830   3.9045   4.1802
     4.2026   4.3825   4.6018   4.8385   5.0179   5.0468   5.1874   5.3091
     5.3935   6.0397   6.1004   6.2756   6.4400   6.6317   6.6630   6.9055
     7.1167   7.1785   7.2410   7.4368

          k = 0.4000 0.2309 0.0000 ( 43046 PWs)   bands (ev):

    -9.7799  -5.5627  -4.9795  -4.6383  -4.3657  -4.0730  -3.8157  -3.7824
    -3.5999  -3.5006  -3.4056  -3.2926  -3.2129  -3.1420  -3.1142  -3.0939
    -2.9788  -2.9471  -2.9205  -2.8896  -2.8764  -2.8065  -2.7508  -2.7407
    -2.7038  -2.6919  -2.6693  -2.6098  -2.5581  -2.5410  -2.4054  -2.3611
    -2.3310  -2.3004  -2.2527  -2.2203  -2.1757  -2.1309  -2.1099  -2.0762
    -2.0359  -2.0018  -1.9549  -1.8856  -1.8152  -1.7633  -1.7357  -1.6799
    -1.6382  -1.6241  -1.5965  -1.5618  -1.5556  -1.5418  -1.4607  -1.4072
    -1.3845  -1.3553  -1.2606  -1.2126  -1.1956  -1.1680  -1.1614  -1.0864
    -1.0254  -0.9917  -0.9635  -0.9244  -0.8914  -0.8574  -0.8280  -0.7984
    -0.7634  -0.7267  -0.6927  -0.6635  -0.6128  -0.6070  -0.5664  -0.5316
    -0.4934  -0.4794  -0.4716  -0.4599  -0.4356  -0.4124  -0.3944  -0.3786
    -0.3628  -0.3277  -0.3126  -0.2565  -0.2327  -0.2178  -0.2100  -0.1658
    -0.1399  -0.0817  -0.0718  -0.0569  -0.0360   0.0014   0.0297   0.0450
     0.0671   0.1096   0.1412   0.1859   0.2076   0.2534   0.2780   0.3185
     0.3516   0.3941   0.4326   0.4879   0.5484   0.5745   0.5938   0.6033
     0.6396   0.6702   0.7033   0.7197   0.7486   0.7690   0.7735   0.7813
     0.8240   0.9012   0.9388   0.9582   0.9720   0.9975   1.0182   1.0824
     1.1479   1.2292   1.2371   1.2812   1.3149   1.3624   1.3820   1.4582
     1.5057   1.5230   1.5641   1.5687   1.5877   1.5998   1.6499   1.6652
     1.7261   1.7667   1.7863   1.8186   1.8490   1.8659   1.8985   1.9217
     1.9941   2.0350   2.0739   2.0936   2.1410   2.1968   2.2391   2.2574
     2.2657   2.2959   2.3322   2.3719   2.4014   2.4136   2.4442   2.4891
     2.5134   2.5522   2.5587   2.5816   2.6015   2.6567   2.6754   2.7431
     2.7626   2.8279   2.8477   2.8648   2.9203   2.9347   3.0913   3.1150
     3.2830   3.4704   3.6084   3.8114   3.8679   4.0333   4.0822   4.3393
     4.4481   4.5470   4.6944   4.8897   5.0835   5.1798   5.2319   5.3127
     5.4848   5.5863   5.6299   6.0131   6.1596   6.3336   6.4411   6.7764
     7.0264   7.2329   7.5126   7.5880

          k = 0.4000-0.6928 0.0000 ( 43014 PWs)   bands (ev):

    -9.7763  -5.2403  -5.1439  -4.7408  -4.4464  -4.1834  -3.8807  -3.6844
    -3.4545  -3.3709  -3.3223  -3.2147  -3.1795  -3.1140  -3.1018  -3.0076
    -2.9721  -2.9175  -2.8875  -2.8628  -2.8531  -2.8354  -2.8057  -2.7679
    -2.6915  -2.6752  -2.6666  -2.6520  -2.6152  -2.5184  -2.4500  -2.4078
    -2.3966  -2.3532  -2.2966  -2.2592  -2.2097  -2.1986  -2.1265  -2.0790
    -2.0556  -2.0101  -1.8787  -1.8501  -1.8229  -1.7742  -1.7533  -1.6868
    -1.6365  -1.5557  -1.5347  -1.5063  -1.4513  -1.4250  -1.3712  -1.3635
    -1.3456  -1.3012  -1.2942  -1.2728  -1.2176  -1.1894  -1.1638  -1.1476
    -1.1230  -1.0794  -1.0345  -1.0046  -0.9602  -0.9389  -0.8749  -0.8454
    -0.8004  -0.7824  -0.7655  -0.7529  -0.7102  -0.6863  -0.6238  -0.5983
    -0.5786  -0.5377  -0.5214  -0.5011  -0.4589  -0.4131  -0.3784  -0.3748
    -0.3548  -0.3036  -0.2632  -0.2368  -0.1954  -0.1853  -0.1491  -0.1194
    -0.1036  -0.0791  -0.0665  -0.0503  -0.0292  -0.0116   0.0131   0.0457
     0.0652   0.0734   0.0928   0.1122   0.1293   0.1445   0.1696   0.2453
     0.3104   0.3329   0.3776   0.4522   0.4878   0.5315   0.5552   0.6019
     0.6366   0.6546   0.6680   0.7040   0.7243   0.7477   0.7830   0.7989
     0.8778   0.9080   0.9433   0.9523   0.9692   1.0634   1.0734   1.1260
     1.1552   1.2452   1.2725   1.2843   1.3172   1.3575   1.3721   1.3872
     1.4039   1.4540   1.4872   1.4973   1.5277   1.5753   1.5951   1.6336
     1.6645   1.6988   1.7582   1.7810   1.8500   1.9352   1.9471   1.9834
     2.0476   2.0824   2.1101   2.1837   2.2070   2.2336   2.2687   2.2971
     2.3356   2.3760   2.4160   2.4378   2.4521   2.4889   2.5187   2.5351
     2.5557   2.5727   2.5879   2.6291   2.6501   2.6965   2.7431   2.7765
     2.8022   2.8551   2.8750   2.8977   2.9292   2.9588   3.0849   3.2329
     3.3676   3.6989   3.9823   4.0202   4.1930   4.2393   4.2950   4.4037
     4.5630   4.7381   4.8459   5.0592   5.1185   5.1586   5.3289   5.5302
     5.6349   5.7465   5.8689   5.9285   6.0094   6.1648   6.3762   6.4822
     6.6610   6.8770   7.0890   7.1901

          k = 0.4000-0.4619 0.0000 ( 43014 PWs)   bands (ev):

    -9.7763  -5.2401  -5.1438  -4.7410  -4.4464  -4.1835  -3.8807  -3.6843
    -3.4545  -3.3705  -3.3223  -3.2147  -3.1795  -3.1143  -3.1019  -3.0075
    -2.9719  -2.9172  -2.8874  -2.8629  -2.8531  -2.8354  -2.8058  -2.7679
    -2.6915  -2.6751  -2.6666  -2.6519  -2.6150  -2.5184  -2.4500  -2.4080
    -2.3969  -2.3533  -2.2968  -2.2594  -2.2097  -2.1987  -2.1267  -2.0792
    -2.0558  -2.0104  -1.8787  -1.8498  -1.8231  -1.7743  -1.7534  -1.6869
    -1.6364  -1.5555  -1.5344  -1.5061  -1.4514  -1.4248  -1.3716  -1.3640
    -1.3460  -1.3013  -1.2945  -1.2730  -1.2178  -1.1897  -1.1639  -1.1479
    -1.1227  -1.0794  -1.0347  -1.0047  -0.9606  -0.9386  -0.8749  -0.8450
    -0.8003  -0.7819  -0.7655  -0.7529  -0.7098  -0.6856  -0.6237  -0.5981
    -0.5788  -0.5379  -0.5214  -0.5013  -0.4589  -0.4137  -0.3785  -0.3744
    -0.3546  -0.3033  -0.2633  -0.2368  -0.1960  -0.1852  -0.1486  -0.1195
    -0.1030  -0.0788  -0.0658  -0.0500  -0.0291  -0.0112   0.0126   0.0457
     0.0651   0.0735   0.0928   0.1119   0.1295   0.1446   0.1693   0.2456
     0.3105   0.3331   0.3776   0.4525   0.4878   0.5313   0.5554   0.6018
     0.6367   0.6549   0.6678   0.7036   0.7243   0.7474   0.7831   0.7991
     0.8779   0.9082   0.9433   0.9524   0.9694   1.0633   1.0737   1.1262
     1.1552   1.2449   1.2725   1.2843   1.3174   1.3573   1.3722   1.3872
     1.4039   1.4539   1.4872   1.4972   1.5276   1.5753   1.5950   1.6336
     1.6648   1.6989   1.7582   1.7810   1.8502   1.9351   1.9471   1.9834
     2.0474   2.0823   2.1101   2.1836   2.2070   2.2336   2.2687   2.2971
     2.3358   2.3760   2.4162   2.4379   2.4522   2.4891   2.5189   2.5351
     2.5555   2.5724   2.5877   2.6293   2.6505   2.6967   2.7433   2.7764
     2.8021   2.8546   2.8746   2.8973   2.9291   2.9585   3.0849   3.2328
     3.3675   3.6989   3.9823   4.0202   4.1931   4.2394   4.2953   4.4037
     4.5631   4.7379   4.8459   5.0592   5.1184   5.1586   5.3288   5.5299
     5.6351   5.7450   5.8683   5.9285   6.0098   6.1652   6.3764   6.4821
     6.6611   6.8770   7.0890   7.1888

     the Fermi energy is     2.6524 ev

!    total energy              =  -27774.37890192 Ry
     total all-electron energy =  -1326718.908416 Ry
     estimated scf accuracy    <          9.9E-09 Ry
     smearing contrib. (-TS)   =       0.00365503 Ry
     internal energy E=F+TS    =  -27774.38255695 Ry

     The total energy is F=E-TS. E is the sum of the following terms:
     one-electron contribution =  -20780.38540775 Ry
     hartree contribution      =   10700.10033607 Ry
     xc contribution           =    -895.58176113 Ry
     ewald contribution        =    8682.10473333 Ry
     one-center paw contrib.   =  -25480.62045746 Ry

     convergence has been achieved in  23 iterations

     negative rho (up, down):  3.149E-03 0.000E+00

     Forces acting on atoms (cartesian axes, Ry/au):

     atom    1 type  1   force =    -0.00033989   -0.00055651   -0.00333776
     atom    2 type  1   force =     0.00030118   -0.00055017   -0.00334140
     atom    3 type  1   force =    -0.00000366   -0.00044348   -0.00669850
     atom    4 type  1   force =    -0.00001497   -0.00025100   -0.00356618
     atom    5 type  1   force =     0.00017760   -0.00058946   -0.00430341
     atom    6 type  1   force =    -0.00021210   -0.00059986   -0.00430046
     atom    7 type  1   force =    -0.00023159    0.00010136   -0.00425309
     atom    8 type  1   force =    -0.00002407   -0.00038862   -0.00415088
     atom    9 type  1   force =     0.00021510    0.00009811   -0.00425016
     atom   10 type  1   force =     0.00004743    0.00239082    0.01189683
     atom   11 type  1   force =     0.00109687   -0.00205468    0.00251179
     atom   12 type  1   force =    -0.00102202   -0.00205901    0.00249381
     atom   13 type  1   force =    -0.00297236    0.00121731    0.00638006
     atom   14 type  1   force =     0.00002878    0.00102173   -0.00042835
     atom   15 type  1   force =     0.00305870    0.00121418    0.00634883
     atom   16 type  1   force =    -0.00241753    0.00153183    0.00262911
     atom   17 type  1   force =     0.00248290    0.00153970    0.00263226
     atom   18 type  1   force =     0.00003825   -0.00144904    0.00237010
     atom   19 type  1   force =     0.00024286   -0.00007735    0.00077435
     atom   20 type  1   force =    -0.00025604   -0.00007654    0.00078444
     atom   21 type  1   force =    -0.00000350   -0.00003862    0.00004429
     atom   22 type  1   force =    -0.00000694   -0.00080955    0.00014660
     atom   23 type  1   force =    -0.00000131   -0.00025611   -0.00009518
     atom   24 type  1   force =    -0.00001253   -0.00025703   -0.00009096
     atom   25 type  1   force =    -0.00019319   -0.00038209   -0.00030953
     atom   26 type  1   force =    -0.00000614   -0.00018912    0.00007509
     atom   27 type  1   force =     0.00018130   -0.00038356   -0.00030584
     atom   28 type  1   force =    -0.00226697   -0.00249176   -0.00063354
     atom   29 type  1   force =     0.00223826   -0.00248318   -0.00063877
     atom   30 type  1   force =    -0.00001126   -0.00060634   -0.00037448
     atom   31 type  1   force =    -0.00000887   -0.00207305    0.00655547
     atom   32 type  1   force =    -0.00031896   -0.00071302    0.00015082
     atom   33 type  1   force =     0.00028596   -0.00071144    0.00015540
     atom   34 type  1   force =    -0.00060586   -0.00170533   -0.00068948
     atom   35 type  1   force =    -0.00001417   -0.00075009   -0.00018546
     atom   36 type  1   force =     0.00057538   -0.00170607   -0.00069066
     atom   37 type  2   force =    -0.00002090   -0.00550817   -0.00792008
     atom   38 type  3   force =    -0.00000572    0.02104520    0.00461488
     The non-local contrib.  to forces
     atom    1 type  1   force =     0.00017821   -0.00012903   -0.01980290
     atom    2 type  1   force =    -0.00017601   -0.00012487   -0.01981300
     atom    3 type  1   force =     0.00001007   -0.00128340   -0.01624267
     atom    4 type  1   force =     0.00000577    0.00052620   -0.01977697
     atom    5 type  1   force =     0.00049582    0.00060817   -0.01986578
     atom    6 type  1   force =    -0.00049208    0.00060069   -0.01987247
     atom    7 type  1   force =    -0.00076558    0.00036246   -0.01811645
     atom    8 type  1   force =    -0.00000258   -0.00022245   -0.02018216
     atom    9 type  1   force =     0.00078001    0.00035645   -0.01812129
     atom   10 type  1   force =     0.00004486    0.00146076    0.00183477
     atom   11 type  1   force =    -0.00277866    0.00355794    0.00003064
     atom   12 type  1   force =     0.00286333    0.00354316    0.00000353
     atom   13 type  1   force =     0.00062405   -0.00272789    0.00145197
     atom   14 type  1   force =     0.00004009    0.00141453   -0.00329428
     atom   15 type  1   force =    -0.00052372   -0.00273226    0.00142766
     atom   16 type  1   force =     0.00329094    0.00198772   -0.00034964
     atom   17 type  1   force =    -0.00321377    0.00199028   -0.00034731
     atom   18 type  1   force =     0.00004092   -0.00045067    0.00344500
     atom   19 type  1   force =    -0.00799825   -0.00375390    0.00961794
     atom   20 type  1   force =     0.00796177   -0.00373146    0.00966038
     atom   21 type  1   force =     0.00000853    0.00336787    0.00679473
     atom   22 type  1   force =    -0.00000693    0.01725175   -0.00868422
     atom   23 type  1   force =     0.00360994   -0.00046924    0.00595821
     atom   24 type  1   force =    -0.00361447   -0.00048374    0.00596383
     atom   25 type  1   force =    -0.00373200   -0.00420827    0.00060998
     atom   26 type  1   force =    -0.00003422   -0.00291573    0.01405177
     atom   27 type  1   force =     0.00372210   -0.00419778    0.00061458
     atom   28 type  1   force =     0.08114755    0.03925229   -0.01514379
     atom   29 type  1   force =    -0.08122648    0.03928367   -0.01516153
     atom   30 type  1   force =    -0.00003446   -0.00107164    0.01266609
     atom   31 type  1   force =    -0.00002172   -0.13028202   -0.04955589
     atom   32 type  1   force =    -0.02063469   -0.01053915    0.02488822
     atom   33 type  1   force =     0.02054226   -0.01055319    0.02488417
     atom   34 type  1   force =    -0.00051390   -0.00501427    0.01440564
     atom   35 type  1   force =    -0.00006281    0.02703845    0.02557506
     atom   36 type  1   force =     0.00040556   -0.00503299    0.01439614
     atom   37 type  2   force =    -0.00012205    0.20536086   -0.14683213
     atom   38 type  3   force =    -0.00000928    0.00516883   -0.03754283
     The ionic contribution  to forces
     atom    1 type  1   force =     0.00154860    0.00780840  -93.99488256
     atom    2 type  1   force =    -0.00146668    0.00783528  -93.99472635
     atom    3 type  1   force =    -0.00007801   -0.02336582  -93.99867896
     atom    4 type  1   force =     0.00006326    0.00650916  -93.97107226
     atom    5 type  1   force =    -0.02661452   -0.00851261  -94.02213255
     atom    6 type  1   force =     0.02655514   -0.00845528  -94.02224602
     atom    7 type  1   force =    -0.02757734    0.00069947  -93.98457131
     atom    8 type  1   force =     0.00001925    0.01693116  -94.03338508
     atom    9 type  1   force =     0.02756273    0.00078032  -93.98453117
     atom   10 type  1   force =     0.00114019    0.09626838  -32.49140523
     atom   11 type  1   force =    -0.12804069   -0.05540538  -32.59380102
     atom   12 type  1   force =     0.12829488   -0.05532393  -32.59473935
     atom   13 type  1   force =    -0.22729750   -0.00701428  -32.50666451
     atom   14 type  1   force =     0.00030776    0.00234557  -32.82057291
     atom   15 type  1   force =     0.22846294   -0.00642409  -32.50707666
     atom   16 type  1   force =    -0.07839927    0.12064265  -32.63432890
     atom   17 type  1   force =     0.07970961    0.12112450  -32.63389569
     atom   18 type  1   force =    -0.00000494   -0.12776972  -32.30034937
     atom   19 type  1   force =     0.34190680   -0.00314648   30.20016262
     atom   20 type  1   force =    -0.34206856   -0.00459105   30.20555094
     atom   21 type  1   force =    -0.00003482   -0.14249677   28.73134929
     atom   22 type  1   force =    -0.00093637    0.03077535   30.03487236
     atom   23 type  1   force =    -0.19934922    0.05307171   28.70503079
     atom   24 type  1   force =     0.20022448    0.05354098   28.70437049
     atom   25 type  1   force =    -0.16282182   -0.12548616   29.16636931
     atom   26 type  1   force =     0.00112658    0.27744497   29.73167203
     atom   27 type  1   force =     0.16133998   -0.12546260   29.16968751
     atom   28 type  1   force =    -2.45826120   -1.30804474   90.47955613
     atom   29 type  1   force =     2.45787025   -1.30807853   90.48953581
     atom   30 type  1   force =     0.00017971    0.21740851   91.33418818
     atom   31 type  1   force =    -0.00061209    2.71631343   90.99923491
     atom   32 type  1   force =     0.30594851    0.12255763   90.64302953
     atom   33 type  1   force =    -0.30644181    0.12296161   90.64151293
     atom   34 type  1   force =     0.22499268   -0.09455110   91.05829452
     atom   35 type  1   force =    -0.00010760   -0.27519470   90.74025784
     atom   36 type  1   force =    -0.22641679   -0.09547551   91.05732773
     atom   37 type  2   force =    -0.00105580   -0.43002531   44.55159384
     atom   38 type  3   force =     0.00033169    0.22980496   12.44546314
     The local contribution  to forces
     atom    1 type  1   force =    -0.00201965   -0.00822521   93.99430308
     atom    2 type  1   force =     0.00191197   -0.00826710   93.99416424
     atom    3 type  1   force =     0.00004531    0.02420957   93.99076004
     atom    4 type  1   force =    -0.00009125   -0.00732330   93.97029081
     atom    5 type  1   force =     0.02627578    0.00725036   94.02068369
     atom    6 type  1   force =    -0.02625043    0.00721371   94.02081441
     atom    7 type  1   force =     0.02809227   -0.00102900   93.98105070
     atom    8 type  1   force =    -0.00001846   -0.01708512   94.03241575
     atom    9 type  1   force =    -0.02813502   -0.00109984   93.98103670
     atom   10 type  1   force =    -0.00112699   -0.09516920   32.50105710
     atom   11 type  1   force =     0.13160836    0.04963120   32.59567732
     atom   12 type  1   force =    -0.13187794    0.04959613   32.59662894
     atom   13 type  1   force =     0.22313037    0.01103778   32.51109809
     atom   14 type  1   force =    -0.00029167   -0.00267712   32.82193735
     atom   15 type  1   force =    -0.22433313    0.01047426   32.51151008
     atom   16 type  1   force =     0.07250561   -0.12077664   32.63640274
     atom   17 type  1   force =    -0.07378900   -0.12126333   32.63597204
     atom   18 type  1   force =    -0.00003117    0.12637357   32.30002838
     atom   19 type  1   force =    -0.33272839    0.00662123  -30.20510688
     atom   20 type  1   force =     0.33289691    0.00800969  -30.21052339
     atom   21 type  1   force =     0.00003634    0.13865060  -28.73635598
     atom   22 type  1   force =     0.00090157   -0.04814927  -30.02511138
     atom   23 type  1   force =     0.19541903   -0.05257056  -28.70946762
     atom   24 type  1   force =    -0.19626981   -0.05302260  -28.70882133
     atom   25 type  1   force =     0.16564139    0.12889953  -29.16633572
     atom   26 type  1   force =    -0.00107754   -0.27395781  -29.74223851
     atom   27 type  1   force =    -0.16418457    0.12883792  -29.16967126
     atom   28 type  1   force =     2.35486549    1.25673733  -90.46257836
     atom   29 type  1   force =    -2.35442664    1.25673536  -90.47254096
     atom   30 type  1   force =    -0.00015748   -0.21630608  -91.33118883
     atom   31 type  1   force =     0.00060660   -2.56517092  -90.95894106
     atom   32 type  1   force =    -0.28744413   -0.11383638  -90.65171954
     atom   33 type  1   force =     0.28800970   -0.11421241  -90.65020607
     atom   34 type  1   force =    -0.22461206    0.09702446  -91.05737268
     atom   35 type  1   force =     0.00017239    0.24958497  -90.74978709
     atom   36 type  1   force =     0.22609184    0.09795724  -91.05641173
     atom   37 type  2   force =     0.00118174    0.22294466  -44.41594155
     atom   38 type  3   force =    -0.00032939   -0.21392814  -12.40332951
     The core correction contribution to forces
     atom    1 type  1   force =    -0.00003738    0.00001000    0.01706459
     atom    2 type  1   force =     0.00003796    0.00000991    0.01706397
     atom    3 type  1   force =     0.00000123   -0.00001180    0.01748050
     atom    4 type  1   force =     0.00000041    0.00003649    0.01702609
     atom    5 type  1   force =     0.00000457    0.00004418    0.01702683
     atom    6 type  1   force =    -0.00000375    0.00004398    0.01702705
     atom    7 type  1   force =    -0.00000943    0.00006364    0.01739586
     atom    8 type  1   force =     0.00000055   -0.00000213    0.01701489
     atom    9 type  1   force =     0.00001101    0.00006284    0.01739561
     atom   10 type  1   force =    -0.00000311   -0.00014946    0.00049525
     atom   11 type  1   force =     0.00028415    0.00014401    0.00067951
     atom   12 type  1   force =    -0.00028816    0.00014278    0.00068281
     atom   13 type  1   force =     0.00053102   -0.00010329    0.00057324
     atom   14 type  1   force =    -0.00000202   -0.00006659    0.00158761
     atom   15 type  1   force =    -0.00053508   -0.00010381    0.00057628
     atom   16 type  1   force =     0.00019437   -0.00030271    0.00098696
     atom   17 type  1   force =    -0.00019978   -0.00030302    0.00098698
     atom   18 type  1   force =    -0.00000185    0.00038606   -0.00068031
     atom   19 type  1   force =    -0.00092817    0.00022052   -0.00383496
     atom   20 type  1   force =     0.00093117    0.00022589   -0.00384215
     atom   21 type  1   force =    -0.00000233    0.00044415   -0.00166106
     atom   22 type  1   force =     0.00000328   -0.00070205   -0.00086856
     atom   23 type  1   force =     0.00032436   -0.00029337   -0.00152563
     atom   24 type  1   force =    -0.00032858   -0.00029267   -0.00152421
     atom   25 type  1   force =     0.00071659    0.00042450   -0.00087415
     atom   26 type  1   force =    -0.00000225   -0.00074534   -0.00333574
     atom   27 type  1   force =    -0.00071428    0.00042582   -0.00087259
     atom   28 type  1   force =     0.01998822    0.00957429   -0.00247358
     atom   29 type  1   force =    -0.01998580    0.00956964   -0.00248181
     atom   30 type  1   force =    -0.00000042   -0.00063292   -0.01603521
     atom   31 type  1   force =     0.00000356   -0.02293491    0.01580079
     atom   32 type  1   force =     0.00181888    0.00110661   -0.01604111
     atom   33 type  1   force =    -0.00181731    0.00110391   -0.01604060
     atom   34 type  1   force =    -0.00047588    0.00083375   -0.01600940
     atom   35 type  1   force =    -0.00000068   -0.00218194   -0.01622912
     atom   36 type  1   force =     0.00048112    0.00083491   -0.01601021
     atom   37 type  2   force =    -0.00002723   -0.00378843    0.00323288
     atom   38 type  3   force =     0.00000000    0.00000000    0.00000000
     The Hubbard contrib.    to forces
     atom    1 type  1   force =     0.00000000    0.00000000    0.00000000
     atom    2 type  1   force =     0.00000000    0.00000000    0.00000000
     atom    3 type  1   force =     0.00000000    0.00000000    0.00000000
     atom    4 type  1   force =     0.00000000    0.00000000    0.00000000
     atom    5 type  1   force =     0.00000000    0.00000000    0.00000000
     atom    6 type  1   force =     0.00000000    0.00000000    0.00000000
     atom    7 type  1   force =     0.00000000    0.00000000    0.00000000
     atom    8 type  1   force =     0.00000000    0.00000000    0.00000000
     atom    9 type  1   force =     0.00000000    0.00000000    0.00000000
     atom   10 type  1   force =     0.00000000    0.00000000    0.00000000
     atom   11 type  1   force =     0.00000000    0.00000000    0.00000000
     atom   12 type  1   force =     0.00000000    0.00000000    0.00000000
     atom   13 type  1   force =     0.00000000    0.00000000    0.00000000
     atom   14 type  1   force =     0.00000000    0.00000000    0.00000000
     atom   15 type  1   force =     0.00000000    0.00000000    0.00000000
     atom   16 type  1   force =     0.00000000    0.00000000    0.00000000
     atom   17 type  1   force =     0.00000000    0.00000000    0.00000000
     atom   18 type  1   force =     0.00000000    0.00000000    0.00000000
     atom   19 type  1   force =     0.00000000    0.00000000    0.00000000
     atom   20 type  1   force =     0.00000000    0.00000000    0.00000000
     atom   21 type  1   force =     0.00000000    0.00000000    0.00000000
     atom   22 type  1   force =     0.00000000    0.00000000    0.00000000
     atom   23 type  1   force =     0.00000000    0.00000000    0.00000000
     atom   24 type  1   force =     0.00000000    0.00000000    0.00000000
     atom   25 type  1   force =     0.00000000    0.00000000    0.00000000
     atom   26 type  1   force =     0.00000000    0.00000000    0.00000000
     atom   27 type  1   force =     0.00000000    0.00000000    0.00000000
     atom   28 type  1   force =     0.00000000    0.00000000    0.00000000
     atom   29 type  1   force =     0.00000000    0.00000000    0.00000000
     atom   30 type  1   force =     0.00000000    0.00000000    0.00000000
     atom   31 type  1   force =     0.00000000    0.00000000    0.00000000
     atom   32 type  1   force =     0.00000000    0.00000000    0.00000000
     atom   33 type  1   force =     0.00000000    0.00000000    0.00000000
     atom   34 type  1   force =     0.00000000    0.00000000    0.00000000
     atom   35 type  1   force =     0.00000000    0.00000000    0.00000000
     atom   36 type  1   force =     0.00000000    0.00000000    0.00000000
     atom   37 type  2   force =     0.00000000    0.00000000    0.00000000
     atom   38 type  3   force =     0.00000000    0.00000000    0.00000000
     The SCF correction term to forces
     atom    1 type  1   force =    -0.00000000   -0.00000000   -0.00000000
     atom    2 type  1   force =    -0.00000000   -0.00000000   -0.00000000
     atom    3 type  1   force =     0.00000000    0.00000000   -0.00000000
     atom    4 type  1   force =     0.00000000    0.00000000   -0.00000000
     atom    5 type  1   force =     0.00000000    0.00000000   -0.00000000
     atom    6 type  1   force =    -0.00000000   -0.00000000   -0.00000000
     atom    7 type  1   force =     0.00000000    0.00000000   -0.00000000
     atom    8 type  1   force =    -0.00000000   -0.00000000   -0.00000000
     atom    9 type  1   force =    -0.00000000   -0.00000000   -0.00000000
     atom   10 type  1   force =    -0.00000000   -0.00000000   -0.00000000
     atom   11 type  1   force =     0.00000000    0.00000000   -0.00000000
     atom   12 type  1   force =    -0.00000000   -0.00000000   -0.00000000
     atom   13 type  1   force =     0.00000000    0.00000000   -0.00000000
     atom   14 type  1   force =    -0.00000000    0.00000000   -0.00000000
     atom   15 type  1   force =    -0.00000000    0.00000000   -0.00000000
     atom   16 type  1   force =    -0.00000000   -0.00000000   -0.00000000
     atom   17 type  1   force =    -0.00000000   -0.00000000   -0.00000000
     atom   18 type  1   force =     0.00000000    0.00000000   -0.00000000
     atom   19 type  1   force =    -0.00000980   -0.00001816   -0.00008505
     atom   20 type  1   force =     0.00002201    0.00001097   -0.00008203
     atom   21 type  1   force =    -0.00001188   -0.00000390   -0.00010337
     atom   22 type  1   force =     0.00003086    0.00001523   -0.00008229
     atom   23 type  1   force =    -0.00000608    0.00000593   -0.00011161
     atom   24 type  1   force =    -0.00002481    0.00000156   -0.00010043
     atom   25 type  1   force =     0.00000198   -0.00001112   -0.00009963
     atom   26 type  1   force =    -0.00001937   -0.00001463   -0.00009515
     atom   27 type  1   force =     0.00001739    0.00001365   -0.00008475
     atom   28 type  1   force =    -0.00000770   -0.00001036   -0.00001462
     atom   29 type  1   force =     0.00000627    0.00000725   -0.00001096
     atom   30 type  1   force =     0.00000073   -0.00000364   -0.00002539
     atom   31 type  1   force =     0.00001413    0.00000195   -0.00000396
     atom   32 type  1   force =    -0.00000818   -0.00000116   -0.00002697
     atom   33 type  1   force =    -0.00000753   -0.00001079   -0.00001572
     atom   34 type  1   force =     0.00000264    0.00000241   -0.00002824
     atom   35 type  1   force =    -0.00001614    0.00000371   -0.00002284
     atom   36 type  1   force =     0.00001299    0.00001086   -0.00001327
     atom   37 type  2   force =     0.00000179    0.00000061    0.00000619
     atom   38 type  3   force =     0.00000059    0.00000012    0.00000340

     Total force =     0.025307     Total SCF correction =     0.000299

     Writing all to output data dir ./pwscf.save/

     init_run     :     12.09s CPU     12.41s WALL (       1 calls)
     electrons    :    478.61s CPU    488.13s WALL (       1 calls)
     forces       :     11.46s CPU     11.94s WALL (       1 calls)

     Called by init_run:
     wfcinit      :      5.60s CPU      5.77s WALL (       1 calls)
     potinit      :      3.23s CPU      3.32s WALL (       1 calls)
     hinit0       :      2.51s CPU      2.53s WALL (       1 calls)

     Called by electrons:
     c_bands      :    408.74s CPU    414.16s WALL (      24 calls)
     sum_band     :     41.85s CPU     43.07s WALL (      24 calls)
     v_of_rho     :     15.69s CPU     17.37s WALL (      24 calls)
     newd         :      3.87s CPU      4.70s WALL (      24 calls)
     PAW_pot      :      5.25s CPU      5.37s WALL (      24 calls)
     mix_rho      :      4.98s CPU      5.07s WALL (      24 calls)
     vdW_kernel   :      1.71s CPU      1.72s WALL (       1 calls)

     Called by c_bands:
     init_us_2    :      3.40s CPU      3.45s WALL (     650 calls)
     init_us_2:cp :      3.39s CPU      3.45s WALL (     650 calls)
     cegterg      :    397.28s CPU    402.42s WALL (     312 calls)

     Called by *egterg:
     cdiaghg      :     89.56s CPU     90.25s WALL (    1454 calls)
     h_psi        :    190.64s CPU    193.29s WALL (    1480 calls)
     s_psi        :     18.47s CPU     18.77s WALL (    1480 calls)
     g_psi        :      0.56s CPU      0.56s WALL (    1155 calls)

     Called by h_psi:
     h_psi:calbec :     25.87s CPU     26.57s WALL (    1480 calls)
     vloc_psi     :    144.93s CPU    146.64s WALL (    1480 calls)
     add_vuspsi   :     18.47s CPU     18.70s WALL (    1480 calls)

     General routines
     calbec       :     35.25s CPU     36.07s WALL (    1844 calls)
     fft          :     17.67s CPU     19.15s WALL (    1572 calls)
     ffts         :      2.66s CPU      2.69s WALL (    5884 calls)
     fftw         :    146.01s CPU    147.68s WALL (  401270 calls)
     interpolate  :      0.97s CPU      1.02s WALL (      24 calls)

     Parallel routines

     PWSCF        :   8m24.18s CPU   8m41.57s WALL


   This run was terminated on:   3:45:22   2Mar2025            

=------------------------------------------------------------------------------=
   JOB DONE.
=------------------------------------------------------------------------------=
