  37  37   0   0
  0.4190497E+02  0.8468310E-09  0.8468310E-09  0.2496566E-08  0.5000000E-15
  1.000000000000000E-004
  CAR 
 unknown system                          
      8.89865746     -9.88261790  301     -0.06252512      1.00000000
     -9.883  0.0000E+00  0.0000E+00
     -9.820  0.0000E+00  0.0000E+00
     -9.757  0.0000E+00  0.0000E+00
     -9.695 -0.6582E-28 -0.4121E-29
     -9.632 -0.1071E-23 -0.6705E-25
     -9.570 -0.7901E-20 -0.4947E-21
     -9.507 -0.2639E-16 -0.1653E-17
     -9.444 -0.3857E-13 -0.2417E-14
     -9.382 -0.2605E-10 -0.1633E-11
     -9.319 -0.7864E-08 -0.4939E-09
     -9.257 -0.1052E-05 -0.6635E-07
     -9.194 -0.6132E-04 -0.3905E-05
     -9.131 -0.1503E-02 -0.9802E-04
     -9.069 -0.1410E-01 -0.9805E-03
     -9.006 -0.3281E-01 -0.3035E-02
     -8.944  0.1003E+00  0.3242E-02
     -8.881  0.3816E+00  0.2713E-01
     -8.818  0.7700E+00  0.7533E-01
     -8.756  0.2603E+01  0.2383E+00
     -8.693  0.3751E+01  0.4731E+00
     -8.631  0.1510E+01  0.5676E+00
     -8.568 -0.2453E+00  0.5523E+00
     -8.505  0.7316E+00  0.5981E+00
     -8.443  0.3214E+01  0.7993E+00
     -8.380  0.3694E+01  0.1031E+01
     -8.318  0.3652E+01  0.1259E+01
     -8.255  0.3385E+01  0.1471E+01
     -8.192  0.1052E+01  0.1537E+01
     -8.130 -0.2125E+00  0.1524E+01
     -8.067 -0.4036E+00  0.1498E+01
     -8.004  0.3193E-01  0.1500E+01
     -7.942  0.3845E+01  0.1741E+01
     -7.879  0.7621E+01  0.2218E+01
     -7.817  0.4143E+01  0.2478E+01
     -7.754  0.3933E+00  0.2502E+01
     -7.691  0.2161E+01  0.2637E+01
     -7.629  0.4028E+01  0.2890E+01
     -7.566  0.2223E+01  0.3029E+01
     -7.504  0.1914E+01  0.3149E+01
     -7.441  0.3436E+01  0.3364E+01
     -7.378  0.2198E+01  0.3501E+01
     -7.316  0.2610E+01  0.3665E+01
     -7.253  0.7804E+01  0.4153E+01
     -7.191  0.1179E+02  0.4891E+01
     -7.128  0.8381E+01  0.5416E+01
     -7.065  0.4432E+01  0.5693E+01
     -7.003  0.4818E+01  0.5995E+01
     -6.940  0.4585E+01  0.6282E+01
     -6.878  0.1824E+01  0.6396E+01
     -6.815 -0.1688E+00  0.6386E+01
     -6.752  0.1657E+01  0.6489E+01
     -6.690  0.6259E+01  0.6881E+01
     -6.627  0.1199E+02  0.7631E+01
     -6.565  0.1696E+02  0.8693E+01
     -6.502  0.1503E+02  0.9634E+01
     -6.439  0.9854E+01  0.1025E+02
     -6.377  0.7465E+01  0.1072E+02
     -6.314  0.8975E+01  0.1128E+02
     -6.252  0.1656E+02  0.1232E+02
     -6.189  0.2435E+02  0.1384E+02
     -6.126  0.2970E+02  0.1570E+02
     -6.064  0.3407E+02  0.1783E+02
     -6.001  0.3360E+02  0.1994E+02
     -5.939  0.3483E+02  0.2212E+02
     -5.876  0.3644E+02  0.2440E+02
     -5.813  0.3106E+02  0.2634E+02
     -5.751  0.2167E+02  0.2770E+02
     -5.688  0.2464E+02  0.2924E+02
     -5.626  0.3825E+02  0.3164E+02
     -5.563  0.4720E+02  0.3459E+02
     -5.500  0.4820E+02  0.3761E+02
     -5.438  0.5122E+02  0.4082E+02
     -5.375  0.6111E+02  0.4464E+02
     -5.313  0.6381E+02  0.4864E+02
     -5.250  0.5302E+02  0.5196E+02
     -5.187  0.4764E+02  0.5494E+02
     -5.125  0.4813E+02  0.5795E+02
     -5.062  0.5511E+02  0.6140E+02
     -4.999  0.7175E+02  0.6589E+02
     -4.937  0.5720E+02  0.6948E+02
     -4.874  0.2935E+02  0.7131E+02
     -4.812  0.2992E+02  0.7319E+02
     -4.749  0.4303E+02  0.7588E+02
     -4.686  0.3389E+02  0.7800E+02
     -4.624  0.1873E+02  0.7917E+02
     -4.561  0.2642E+02  0.8083E+02
     -4.499  0.4797E+02  0.8383E+02
     -4.436  0.6283E+02  0.8776E+02
     -4.373  0.6017E+02  0.9153E+02
     -4.311  0.4758E+02  0.9451E+02
     -4.248  0.4232E+02  0.9716E+02
     -4.186  0.4460E+02  0.9995E+02
     -4.123  0.5286E+02  0.1033E+03
     -4.060  0.5942E+02  0.1070E+03
     -3.998  0.4980E+02  0.1101E+03
     -3.935  0.4337E+02  0.1128E+03
     -3.873  0.4402E+02  0.1156E+03
     -3.810  0.3872E+02  0.1180E+03
     -3.747  0.3710E+02  0.1203E+03
     -3.685  0.5221E+02  0.1236E+03
     -3.622  0.6312E+02  0.1275E+03
     -3.560  0.5852E+02  0.1312E+03
     -3.497  0.5608E+02  0.1347E+03
     -3.434  0.6218E+02  0.1386E+03
     -3.372  0.7409E+02  0.1432E+03
     -3.309  0.7805E+02  0.1481E+03
     -3.247  0.7183E+02  0.1526E+03
     -3.184  0.6711E+02  0.1568E+03
     -3.121  0.8026E+02  0.1619E+03
     -3.059  0.8624E+02  0.1673E+03
     -2.996  0.7793E+02  0.1721E+03
     -2.934  0.7827E+02  0.1770E+03
     -2.871  0.7535E+02  0.1817E+03
     -2.808  0.7878E+02  0.1867E+03
     -2.746  0.9880E+02  0.1929E+03
     -2.683  0.1071E+03  0.1996E+03
     -2.621  0.8718E+02  0.2050E+03
     -2.558  0.6457E+02  0.2091E+03
     -2.495  0.6563E+02  0.2132E+03
     -2.433  0.6559E+02  0.2173E+03
     -2.370  0.4912E+02  0.2204E+03
     -2.308  0.3450E+02  0.2225E+03
     -2.245  0.3062E+02  0.2244E+03
     -2.182  0.2731E+02  0.2261E+03
     -2.120  0.3716E+02  0.2285E+03
     -2.057  0.6290E+02  0.2324E+03
     -1.994  0.8534E+02  0.2378E+03
     -1.932  0.9237E+02  0.2435E+03
     -1.869  0.8029E+02  0.2486E+03
     -1.807  0.6030E+02  0.2523E+03
     -1.744  0.4758E+02  0.2553E+03
     -1.681  0.4261E+02  0.2580E+03
     -1.619  0.4197E+02  0.2606E+03
     -1.556  0.5309E+02  0.2639E+03
     -1.494  0.6602E+02  0.2681E+03
     -1.431  0.6221E+02  0.2720E+03
     -1.368  0.5622E+02  0.2755E+03
     -1.306  0.5501E+02  0.2789E+03
     -1.243  0.5032E+02  0.2821E+03
     -1.181  0.5527E+02  0.2855E+03
     -1.118  0.7156E+02  0.2900E+03
     -1.055  0.8222E+02  0.2952E+03
     -0.993  0.8433E+02  0.3004E+03
     -0.930  0.7110E+02  0.3049E+03
     -0.868  0.5663E+02  0.3084E+03
     -0.805  0.5396E+02  0.3118E+03
     -0.742  0.4815E+02  0.3148E+03
     -0.680  0.4312E+02  0.3175E+03
     -0.617  0.5591E+02  0.3210E+03
     -0.555  0.6692E+02  0.3252E+03
     -0.492  0.6009E+02  0.3290E+03
     -0.429  0.5888E+02  0.3327E+03
     -0.367  0.6801E+02  0.3369E+03
     -0.304  0.8593E+02  0.3423E+03
     -0.242  0.9091E+02  0.3480E+03
     -0.179  0.6730E+02  0.3522E+03
     -0.116  0.6260E+02  0.3561E+03
     -0.054  0.9177E+02  0.3619E+03
      0.009  0.8598E+02  0.3673E+03
      0.071  0.4511E+02  0.3701E+03
      0.134  0.4028E+02  0.3726E+03
      0.197  0.5677E+02  0.3762E+03
      0.259  0.4797E+02  0.3792E+03
      0.322  0.3964E+02  0.3816E+03
      0.384  0.3433E+02  0.3838E+03
      0.447  0.2104E+02  0.3851E+03
      0.510  0.1055E+02  0.3858E+03
      0.572  0.5622E+01  0.3861E+03
      0.635  0.5093E+01  0.3864E+03
      0.698  0.6798E+01  0.3869E+03
      0.760  0.1039E+02  0.3875E+03
      0.823  0.1224E+02  0.3883E+03
      0.885  0.9421E+01  0.3889E+03
      0.948  0.1033E+02  0.3895E+03
      1.011  0.1268E+02  0.3903E+03
      1.073  0.8083E+01  0.3908E+03
      1.136  0.4689E+01  0.3911E+03
      1.198  0.7678E+01  0.3916E+03
      1.261  0.1111E+02  0.3923E+03
      1.324  0.1174E+02  0.3930E+03
      1.386  0.1030E+02  0.3937E+03
      1.449  0.7875E+01  0.3942E+03
      1.511  0.1815E+02  0.3953E+03
      1.574  0.2903E+02  0.3971E+03
      1.637  0.2478E+02  0.3987E+03
      1.699  0.1701E+02  0.3997E+03
      1.762  0.1205E+02  0.4005E+03
      1.824  0.6114E+01  0.4009E+03
      1.887  0.3931E+01  0.4011E+03
      1.950  0.5352E+01  0.4014E+03
      2.012  0.6493E+01  0.4019E+03
      2.075  0.4505E+01  0.4021E+03
      2.137  0.3314E+01  0.4023E+03
      2.200  0.6519E+01  0.4028E+03
      2.263  0.1151E+02  0.4035E+03
      2.325  0.1208E+02  0.4042E+03
      2.388  0.1246E+02  0.4050E+03
      2.450  0.2039E+02  0.4063E+03
      2.513  0.2168E+02  0.4076E+03
      2.576  0.1105E+02  0.4083E+03
      2.638  0.6348E+01  0.4087E+03
      2.701  0.8862E+01  0.4093E+03
      2.763  0.1354E+02  0.4101E+03
      2.826  0.1554E+02  0.4111E+03
      2.889  0.1330E+02  0.4119E+03
      2.951  0.1307E+02  0.4128E+03
      3.014  0.1174E+02  0.4135E+03
      3.076  0.1107E+02  0.4142E+03
      3.139  0.1440E+02  0.4151E+03
      3.202  0.1218E+02  0.4159E+03
      3.264  0.1087E+02  0.4165E+03
      3.327  0.1058E+02  0.4172E+03
      3.389  0.6390E+01  0.4176E+03
      3.452  0.6117E+01  0.4180E+03
      3.515  0.6795E+01  0.4184E+03
      3.577  0.6098E+01  0.4188E+03
      3.640  0.1176E+02  0.4195E+03
      3.703  0.1940E+02  0.4207E+03
      3.765  0.1936E+02  0.4219E+03
      3.828  0.1209E+02  0.4227E+03
      3.890  0.5918E+01  0.4231E+03
      3.953  0.8099E+01  0.4236E+03
      4.016  0.1213E+02  0.4243E+03
      4.078  0.1035E+02  0.4250E+03
      4.141  0.3612E+01  0.4252E+03
      4.203 -0.7171E-01  0.4252E+03
      4.266  0.1550E+01  0.4253E+03
      4.329  0.6529E+01  0.4257E+03
      4.391  0.1909E+02  0.4269E+03
      4.454  0.2967E+02  0.4288E+03
      4.516  0.2096E+02  0.4301E+03
      4.579  0.8243E+01  0.4306E+03
      4.642  0.6407E+01  0.4310E+03
      4.704  0.8350E+01  0.4315E+03
      4.767  0.1012E+02  0.4322E+03
      4.829  0.1024E+02  0.4328E+03
      4.892  0.8692E+01  0.4333E+03
      4.955  0.1148E+02  0.4341E+03
      5.017  0.1455E+02  0.4350E+03
      5.080  0.1319E+02  0.4358E+03
      5.142  0.1218E+02  0.4366E+03
      5.205  0.9023E+01  0.4371E+03
      5.268  0.9356E+01  0.4377E+03
      5.330  0.1116E+02  0.4384E+03
      5.393  0.6452E+01  0.4388E+03
      5.455  0.6851E+01  0.4392E+03
      5.518  0.1806E+02  0.4404E+03
      5.581  0.2413E+02  0.4419E+03
      5.643  0.2021E+02  0.4431E+03
      5.706  0.2160E+02  0.4445E+03
      5.768  0.2511E+02  0.4461E+03
      5.831  0.1884E+02  0.4472E+03
      5.894  0.1517E+02  0.4482E+03
      5.956  0.2122E+02  0.4495E+03
      6.019  0.2913E+02  0.4514E+03
      6.081  0.2949E+02  0.4532E+03
      6.144  0.1983E+02  0.4544E+03
      6.207  0.1473E+02  0.4554E+03
      6.269  0.1724E+02  0.4564E+03
      6.332  0.2442E+02  0.4580E+03
      6.394  0.3004E+02  0.4598E+03
      6.457  0.1997E+02  0.4611E+03
      6.520  0.1162E+02  0.4618E+03
      6.582  0.2131E+02  0.4632E+03
      6.645  0.3069E+02  0.4651E+03
      6.708  0.3014E+02  0.4670E+03
      6.770  0.2521E+02  0.4685E+03
      6.833  0.1703E+02  0.4696E+03
      6.895  0.1920E+02  0.4708E+03
      6.958  0.2046E+02  0.4721E+03
      7.021  0.1093E+02  0.4728E+03
      7.083  0.1167E+02  0.4735E+03
      7.146  0.2085E+02  0.4748E+03
      7.208  0.2383E+02  0.4763E+03
      7.271  0.2054E+02  0.4776E+03
      7.334  0.1177E+02  0.4783E+03
      7.396  0.2733E+01  0.4785E+03
      7.459  0.8164E+00  0.4786E+03
      7.521  0.5043E+01  0.4789E+03
      7.584  0.8034E+01  0.4794E+03
      7.647  0.6432E+01  0.4798E+03
      7.709  0.2523E+01  0.4799E+03
      7.772  0.1969E-01  0.4799E+03
      7.834 -0.9880E-01  0.4799E+03
      7.897  0.4943E+00  0.4800E+03
      7.960  0.5566E+00  0.4800E+03
      8.022  0.1421E+00  0.4800E+03
      8.085 -0.2972E-01  0.4800E+03
      8.147 -0.1400E-01  0.4800E+03
      8.210 -0.1502E-02  0.4800E+03
      8.273 -0.6132E-04  0.4800E+03
      8.335 -0.1052E-05  0.4800E+03
      8.398 -0.7864E-08  0.4800E+03
      8.460 -0.2605E-10  0.4800E+03
      8.523 -0.3859E-13  0.4800E+03
      8.586  0.0000E+00  0.4800E+03
      8.648  0.0000E+00  0.4800E+03
      8.711  0.0000E+00  0.4800E+03
      8.773  0.0000E+00  0.4800E+03
      8.836  0.0000E+00  0.4800E+03
      8.899  0.0000E+00  0.4800E+03
