   37   37    1    1
  0.4190497E+02  0.8468310E-09  0.8468310E-09  0.2496566E-08  0.5000000E-15
  1.000000000000000E-004
  CAR 
 unknown system                          
    361     13    240
 
  0.1276756E-14  0.1276756E-14  0.1276756E-14  0.4000000E-01
      1         -8.882618   1.000000
      2         -7.611308   1.000000
      3         -6.545987   1.000000
      4         -6.488531   1.000000
      5         -6.470509   1.000000
      6         -6.460475   1.000000
      7         -6.453552   1.000000
      8         -6.452086   1.000000
      9         -6.438515   1.000000
     10         -6.433458   1.000000
     11         -6.003272   1.000000
     12         -5.910579   1.000000
     13         -5.908028   1.000000
     14         -5.906203   1.000000
     15         -5.899284   1.000000
     16         -5.897154   1.000000
     17         -5.580115   1.000000
     18         -5.452017   1.000000
     19         -5.448251   1.000000
     20         -5.443362   1.000000
     21         -5.441607   1.000000
     22         -5.439079   1.000000
     23         -5.371573   1.000000
     24         -5.224758   1.000000
     25         -5.220073   1.000000
     26         -5.218520   1.000000
     27         -5.211427   1.000000
     28         -5.209829   1.000000
     29         -5.055845   1.000000
     30         -5.013297   1.000000
     31         -5.008088   1.000000
     32         -5.005776   1.000000
     33         -5.004040   1.000000
     34         -5.000756   1.000000
     35         -4.978637   1.000000
     36         -4.969913   1.000000
     37         -4.960839   1.000000
     38         -4.956089   1.000000
     39         -4.952046   1.000000
     40         -4.912321   1.000000
     41         -4.795974   1.000000
     42         -4.373611   1.000000
     43         -4.371631   1.000000
     44         -4.349119   1.000000
     45         -4.346937   1.000000
     46         -4.310186   1.000000
     47         -4.306416   1.000000
     48         -4.302952   1.000000
     49         -4.294660   1.000000
     50         -4.292591   1.000000
     51         -4.239370   1.000000
     52         -4.134210   1.000000
     53         -4.112333   1.000000
     54         -4.047002   1.000000
     55         -3.908376   1.000000
     56         -3.578397   1.000000
     57         -3.570687   1.000000
     58         -3.562371   1.000000
     59         -3.555177   1.000000
     60         -3.552372   1.000000
     61         -3.541098   1.000000
     62         -3.473815   1.000000
     63         -3.379000   1.000000
     64         -3.376971   1.000000
     65         -3.367578   1.000000
     66         -3.366796   1.000000
     67         -3.356647   1.000000
     68         -3.355357   1.000000
     69         -3.324064   1.000000
     70         -3.319511   1.000000
     71         -3.315504   1.000000
     72         -3.298190   1.000000
     73         -3.292205   1.000000
     74         -3.291265   1.000000
     75         -3.262644   1.000000
     76         -3.261312   1.000000
     77         -3.229977   1.000000
     78         -3.149571   1.000000
     79         -3.141111   1.000000
     80         -3.131996   1.000000
     81         -3.129650   1.000000
     82         -3.123426   1.000000
     83         -2.944158   1.000000
     84         -2.934895   1.000000
     85         -2.929802   1.000000
     86         -2.925132   1.000000
     87         -2.917460   1.000000
     88         -2.908358   1.000000
     89         -2.903577   1.000000
     90         -2.894719   1.000000
     91         -2.892335   1.000000
     92         -2.817442   1.000000
     93         -2.816564   1.000000
     94         -2.761805   1.000000
     95         -2.761005   1.000000
     96         -2.727299   1.000000
     97         -2.726313   1.000000
     98         -2.699691   1.000000
     99         -2.686700   1.000000
    100         -2.674167   1.000000
    101         -2.672489   1.000000
    102         -2.532498   1.000000
    103         -2.529876   1.000000
    104         -2.508782   1.000000
    105         -2.497401   1.000000
    106         -2.493111   1.000000
    107         -2.488132   1.000000
    108         -2.140321   1.000000
    109         -2.019727   1.000000
    110         -2.017676   1.000000
    111         -1.995159   1.000000
    112         -1.990990   1.000000
    113         -1.987755   1.000000
    114         -1.983453   1.000000
    115         -1.980570   1.000000
    116         -1.943758   1.000000
    117         -1.943031   1.000000
    118         -1.936430   1.000000
    119         -1.935472   1.000000
    120         -1.924754   1.000000
    121         -1.850654   1.000000
    122         -1.846843   1.000000
    123         -1.729904   1.000000
    124         -1.705113   1.000000
    125         -1.701600   1.000000
    126         -1.690927   1.000000
    127         -1.690005   1.000000
    128         -1.604820   1.000000
    129         -1.587816   1.000000
    130         -1.576147   1.000000
    131         -1.523727   1.000000
    132         -1.523322   1.000000
    133         -1.505119   1.000000
    134         -1.493148   1.000000
    135         -1.293161   1.000000
    136         -1.287017   1.000000
    137         -1.258727   1.000000
    138         -1.256975   1.000000
    139         -1.245025   1.000000
    140         -1.238777   1.000000
    141         -1.178303   1.000000
    142         -1.176457   1.000000
    143         -1.017976   1.000000
    144         -1.013147   1.000000
    145         -1.010066   1.000000
    146         -1.006828   1.000000
    147         -1.001897   1.000000
    148         -0.942923   1.000000
    149         -0.848270   1.000000
    150         -0.843955   1.000000
    151         -0.831382   1.000000
    152         -0.825744   1.000000
    153         -0.820400   1.000000
    154         -0.807895   1.000000
    155         -0.794572   1.000000
    156         -0.792245   1.000000
    157         -0.788713   1.000000
    158         -0.786799   1.000000
    159         -0.784748   1.000000
    160         -0.696189   1.000000
    161         -0.678014   1.000000
    162         -0.676359   1.000000
    163         -0.663621   1.000000
    164         -0.658927   1.000000
    165         -0.655291   1.000000
    166         -0.634197   1.000000
    167         -0.626082   1.000000
    168         -0.580284   1.000000
    169         -0.578043   1.000000
    170         -0.550707   1.000000
    171         -0.544385   1.000000
    172         -0.542032   1.000000
    173         -0.539464   1.000000
    174         -0.533418   1.000000
    175         -0.532623   1.000000
    176         -0.460611   1.000000
    177         -0.443209   1.000001
    178         -0.437697   1.000001
    179         -0.431333   1.000001
    180         -0.426543   1.000002
    181         -0.423891   1.000002
    182         -0.408783   1.000006
    183         -0.339289   1.000323
    184         -0.315712   1.001003
    185         -0.309890   1.001302
    186         -0.308485   1.001384
    187         -0.295663   1.002379
    188         -0.294880   1.002456
    189         -0.101040   0.800683
    190         -0.094184   0.753613
    191         -0.007038   0.101265
    192         -0.004887   0.090868
    193          0.020088   0.003567
    194          0.022524  -0.001860
    195          0.022749  -0.002337
    196          0.028963  -0.013890
    197          0.330661  -0.000000
    198          0.823263  -0.000000
    199          0.901491  -0.000000
    200          0.904305  -0.000000
    201          0.912861  -0.000000
    202          0.914650  -0.000000
    203          0.917714  -0.000000
    204          2.428217  -0.000000
    205          3.193809   0.000000
    206          3.196927   0.000000
    207          3.225679   0.000000
    208          3.229344   0.000000
    209          3.243701   0.000000
    210          4.392111   0.000000
    211          4.770299   0.000000
    212          4.786607   0.000000
    213          4.825053   0.000000
    214          4.826866   0.000000
    215          4.833333   0.000000
    216          4.835644   0.000000
    217          4.961332   0.000000
    218          5.102981   0.000000
    219          5.510256   0.000000
    220          5.540995   0.000000
    221          5.838852   0.000000
    222          5.847214   0.000000
    223          5.853747   0.000000
    224          5.858062   0.000000
    225          5.868307   0.000000
    226          6.109144   0.000000
    227          6.605135   0.000000
    228          6.625168   0.000000
    229          6.643165   0.000000
    230          6.644328   0.000000
    231          6.677763   0.000000
    232          6.865064   0.000000
    233          7.128551   0.000000
    234          7.130787   0.000000
    235          7.140589   0.000000
    236          7.169407   0.000000
    237          7.169964   0.000000
    238          7.172576   0.000000
    239          7.320067   0.000000
    240          7.898657   0.000000
 
  0.2000000E+00  0.1278043E-14  0.1276756E-14  0.8000000E-01
      1         -8.734411   1.000000
      2         -7.466356   1.000000
      3         -6.967634   1.000000
      4         -6.580667   1.000000
      5         -6.557375   1.000000
      6         -6.391604   1.000000
      7         -6.332985   1.000000
      8         -6.278352   1.000000
      9         -6.230653   1.000000
     10         -6.213383   1.000000
     11         -6.066740   1.000000
     12         -5.999745   1.000000
     13         -5.898740   1.000000
     14         -5.838292   1.000000
     15         -5.834268   1.000000
     16         -5.823743   1.000000
     17         -5.570213   1.000000
     18         -5.497768   1.000000
     19         -5.411883   1.000000
     20         -5.408436   1.000000
     21         -5.398125   1.000000
     22         -5.361696   1.000000
     23         -5.323714   1.000000
     24         -5.310416   1.000000
     25         -5.262878   1.000000
     26         -5.234994   1.000000
     27         -5.215457   1.000000
     28         -5.202234   1.000000
     29         -5.154014   1.000000
     30         -5.117490   1.000000
     31         -5.088150   1.000000
     32         -5.024336   1.000000
     33         -5.009599   1.000000
     34         -4.997153   1.000000
     35         -4.992536   1.000000
     36         -4.876700   1.000000
     37         -4.793912   1.000000
     38         -4.786364   1.000000
     39         -4.772316   1.000000
     40         -4.764333   1.000000
     41         -4.716767   1.000000
     42         -4.496135   1.000000
     43         -4.477684   1.000000
     44         -4.467054   1.000000
     45         -4.417932   1.000000
     46         -4.406653   1.000000
     47         -4.386275   1.000000
     48         -4.331061   1.000000
     49         -4.203328   1.000000
     50         -4.185430   1.000000
     51         -4.116065   1.000000
     52         -4.113881   1.000000
     53         -4.083287   1.000000
     54         -4.052012   1.000000
     55         -3.972506   1.000000
     56         -3.814536   1.000000
     57         -3.735901   1.000000
     58         -3.707050   1.000000
     59         -3.676528   1.000000
     60         -3.671613   1.000000
     61         -3.631321   1.000000
     62         -3.564823   1.000000
     63         -3.556814   1.000000
     64         -3.539774   1.000000
     65         -3.519498   1.000000
     66         -3.514791   1.000000
     67         -3.492252   1.000000
     68         -3.443366   1.000000
     69         -3.396305   1.000000
     70         -3.371476   1.000000
     71         -3.358131   1.000000
     72         -3.338688   1.000000
     73         -3.263658   1.000000
     74         -3.255226   1.000000
     75         -3.244055   1.000000
     76         -3.182218   1.000000
     77         -3.174537   1.000000
     78         -3.152879   1.000000
     79         -3.101472   1.000000
     80         -3.077795   1.000000
     81         -3.068876   1.000000
     82         -3.034409   1.000000
     83         -3.017816   1.000000
     84         -2.979296   1.000000
     85         -2.967433   1.000000
     86         -2.950139   1.000000
     87         -2.936402   1.000000
     88         -2.924575   1.000000
     89         -2.914466   1.000000
     90         -2.900559   1.000000
     91         -2.848324   1.000000
     92         -2.804166   1.000000
     93         -2.795689   1.000000
     94         -2.788788   1.000000
     95         -2.758633   1.000000
     96         -2.750128   1.000000
     97         -2.739119   1.000000
     98         -2.704041   1.000000
     99         -2.697471   1.000000
    100         -2.681236   1.000000
    101         -2.574683   1.000000
    102         -2.536253   1.000000
    103         -2.523870   1.000000
    104         -2.512070   1.000000
    105         -2.503850   1.000000
    106         -2.495590   1.000000
    107         -2.486599   1.000000
    108         -2.478051   1.000000
    109         -2.426789   1.000000
    110         -2.418625   1.000000
    111         -2.408117   1.000000
    112         -2.399125   1.000000
    113         -2.302026   1.000000
    114         -2.103787   1.000000
    115         -2.076080   1.000000
    116         -2.031264   1.000000
    117         -2.004048   1.000000
    118         -1.986046   1.000000
    119         -1.967391   1.000000
    120         -1.963909   1.000000
    121         -1.934095   1.000000
    122         -1.917369   1.000000
    123         -1.795879   1.000000
    124         -1.780898   1.000000
    125         -1.776701   1.000000
    126         -1.666528   1.000000
    127         -1.639982   1.000000
    128         -1.590566   1.000000
    129         -1.574119   1.000000
    130         -1.568421   1.000000
    131         -1.530814   1.000000
    132         -1.522502   1.000000
    133         -1.502288   1.000000
    134         -1.484951   1.000000
    135         -1.422139   1.000000
    136         -1.400171   1.000000
    137         -1.387001   1.000000
    138         -1.369604   1.000000
    139         -1.362280   1.000000
    140         -1.195458   1.000000
    141         -1.171420   1.000000
    142         -1.167115   1.000000
    143         -1.136845   1.000000
    144         -1.126983   1.000000
    145         -1.104719   1.000000
    146         -1.073656   1.000000
    147         -1.021480   1.000000
    148         -0.994380   1.000000
    149         -0.988328   1.000000
    150         -0.970996   1.000000
    151         -0.942503   1.000000
    152         -0.903158   1.000000
    153         -0.895810   1.000000
    154         -0.885205   1.000000
    155         -0.856184   1.000000
    156         -0.772991   1.000000
    157         -0.763376   1.000000
    158         -0.741371   1.000000
    159         -0.693454   1.000000
    160         -0.640925   1.000000
    161         -0.620287   1.000000
    162         -0.616554   1.000000
    163         -0.602744   1.000000
    164         -0.575795   1.000000
    165         -0.565399   1.000000
    166         -0.531188   1.000000
    167         -0.476635   1.000000
    168         -0.453981   1.000000
    169         -0.444350   1.000000
    170         -0.388377   1.000020
    171         -0.380690   1.000033
    172         -0.374331   1.000048
    173         -0.336414   1.000373
    174         -0.334103   1.000419
    175         -0.329831   1.000516
    176         -0.329069   1.000536
    177         -0.321547   1.000767
    178         -0.264765   1.007431
    179         -0.252692   1.010841
    180         -0.117806   0.897713
    181         -0.108142   0.845085
    182         -0.084587   0.681762
    183         -0.071710   0.577365
    184         -0.070343   0.565938
    185         -0.052096   0.412269
    186         -0.020147   0.174584
    187         -0.004652   0.089760
    188          0.004660   0.050339
    189          0.020269   0.003146
    190          0.089753  -0.026625
    191          0.124006  -0.012050
    192          0.146183  -0.005973
    193          0.154776  -0.004395
    194          0.301997  -0.000002
    195          0.312761  -0.000001
    196          0.320934  -0.000000
    197          0.369800  -0.000000
    198          0.651792  -0.000000
    199          0.777155  -0.000000
    200          1.192231  -0.000000
    201          1.491109  -0.000000
    202          1.495957  -0.000000
    203          1.621951  -0.000000
    204          2.269240  -0.000000
    205          2.727392   0.000000
    206          2.937582   0.000000
    207          3.440674   0.000000
    208          3.660677   0.000000
    209          3.664841   0.000000
    210          3.776468   0.000000
    211          3.972299   0.000000
    212          4.373830   0.000000
    213          4.629538   0.000000
    214          4.664580   0.000000
    215          4.957700   0.000000
    216          4.995723   0.000000
    217          5.012631   0.000000
    218          5.123331   0.000000
    219          5.226563   0.000000
    220          5.489666   0.000000
    221          5.645492   0.000000
    222          5.742178   0.000000
    223          5.861627   0.000000
    224          5.929689   0.000000
    225          6.043592   0.000000
    226          6.195826   0.000000
    227          6.233461   0.000000
    228          6.327924   0.000000
    229          6.365355   0.000000
    230          6.616633   0.000000
    231          6.722045   0.000000
    232          6.728913   0.000000
    233          6.786129   0.000000
    234          6.868155   0.000000
    235          6.922541   0.000000
    236          7.057633   0.000000
    237          7.228890   0.000000
    238          7.505560   0.000000
    239          7.557869   0.000000
    240          7.627708   0.000000
 
  0.2000000E+00  0.2000000E+00  0.1276756E-14  0.8000000E-01
      1         -8.734453   1.000000
      2         -7.466435   1.000000
      3         -6.968970   1.000000
      4         -6.579718   1.000000
      5         -6.556585   1.000000
      6         -6.391521   1.000000
      7         -6.333186   1.000000
      8         -6.280124   1.000000
      9         -6.229614   1.000000
     10         -6.212180   1.000000
     11         -6.067463   1.000000
     12         -5.999309   1.000000
     13         -5.896646   1.000000
     14         -5.839501   1.000000
     15         -5.836830   1.000000
     16         -5.823757   1.000000
     17         -5.569470   1.000000
     18         -5.497044   1.000000
     19         -5.413081   1.000000
     20         -5.408000   1.000000
     21         -5.398085   1.000000
     22         -5.362681   1.000000
     23         -5.323485   1.000000
     24         -5.309702   1.000000
     25         -5.262795   1.000000
     26         -5.234997   1.000000
     27         -5.217282   1.000000
     28         -5.203240   1.000000
     29         -5.155354   1.000000
     30         -5.115641   1.000000
     31         -5.086034   1.000000
     32         -5.027010   1.000000
     33         -5.009734   1.000000
     34         -4.995645   1.000000
     35         -4.991826   1.000000
     36         -4.876911   1.000000
     37         -4.793814   1.000000
     38         -4.787588   1.000000
     39         -4.772060   1.000000
     40         -4.763661   1.000000
     41         -4.714451   1.000000
     42         -4.495798   1.000000
     43         -4.478440   1.000000
     44         -4.464657   1.000000
     45         -4.418710   1.000000
     46         -4.406393   1.000000
     47         -4.385811   1.000000
     48         -4.333188   1.000000
     49         -4.202604   1.000000
     50         -4.184910   1.000000
     51         -4.117334   1.000000
     52         -4.113550   1.000000
     53         -4.082955   1.000000
     54         -4.052262   1.000000
     55         -3.971598   1.000000
     56         -3.811591   1.000000
     57         -3.735080   1.000000
     58         -3.706576   1.000000
     59         -3.674291   1.000000
     60         -3.668819   1.000000
     61         -3.629169   1.000000
     62         -3.566958   1.000000
     63         -3.560572   1.000000
     64         -3.536261   1.000000
     65         -3.519840   1.000000
     66         -3.517119   1.000000
     67         -3.494346   1.000000
     68         -3.443131   1.000000
     69         -3.394943   1.000000
     70         -3.368169   1.000000
     71         -3.356180   1.000000
     72         -3.339543   1.000000
     73         -3.267365   1.000000
     74         -3.259481   1.000000
     75         -3.251102   1.000000
     76         -3.181815   1.000000
     77         -3.173258   1.000000
     78         -3.151640   1.000000
     79         -3.100295   1.000000
     80         -3.075120   1.000000
     81         -3.063321   1.000000
     82         -3.038972   1.000000
     83         -3.014120   1.000000
     84         -2.978773   1.000000
     85         -2.969130   1.000000
     86         -2.952205   1.000000
     87         -2.935732   1.000000
     88         -2.925221   1.000000
     89         -2.914254   1.000000
     90         -2.899629   1.000000
     91         -2.847818   1.000000
     92         -2.806496   1.000000
     93         -2.796835   1.000000
     94         -2.786988   1.000000
     95         -2.756780   1.000000
     96         -2.750408   1.000000
     97         -2.740242   1.000000
     98         -2.704999   1.000000
     99         -2.698495   1.000000
    100         -2.683574   1.000000
    101         -2.574566   1.000000
    102         -2.538001   1.000000
    103         -2.524410   1.000000
    104         -2.511562   1.000000
    105         -2.506400   1.000000
    106         -2.493072   1.000000
    107         -2.488409   1.000000
    108         -2.475692   1.000000
    109         -2.426008   1.000000
    110         -2.420164   1.000000
    111         -2.408541   1.000000
    112         -2.398830   1.000000
    113         -2.299956   1.000000
    114         -2.102101   1.000000
    115         -2.072982   1.000000
    116         -2.033963   1.000000
    117         -2.005256   1.000000
    118         -1.985743   1.000000
    119         -1.967977   1.000000
    120         -1.965671   1.000000
    121         -1.934094   1.000000
    122         -1.916161   1.000000
    123         -1.796670   1.000000
    124         -1.782761   1.000000
    125         -1.776893   1.000000
    126         -1.670695   1.000000
    127         -1.640996   1.000000
    128         -1.584017   1.000000
    129         -1.579204   1.000000
    130         -1.568856   1.000000
    131         -1.531327   1.000000
    132         -1.524273   1.000000
    133         -1.503013   1.000000
    134         -1.486122   1.000000
    135         -1.423261   1.000000
    136         -1.397936   1.000000
    137         -1.385600   1.000000
    138         -1.368302   1.000000
    139         -1.362919   1.000000
    140         -1.192467   1.000000
    141         -1.173104   1.000000
    142         -1.168842   1.000000
    143         -1.138068   1.000000
    144         -1.126233   1.000000
    145         -1.104379   1.000000
    146         -1.072426   1.000000
    147         -1.021528   1.000000
    148         -0.993145   1.000000
    149         -0.986963   1.000000
    150         -0.972448   1.000000
    151         -0.943899   1.000000
    152         -0.903298   1.000000
    153         -0.893170   1.000000
    154         -0.886871   1.000000
    155         -0.854045   1.000000
    156         -0.772656   1.000000
    157         -0.763244   1.000000
    158         -0.740346   1.000000
    159         -0.693275   1.000000
    160         -0.642068   1.000000
    161         -0.622171   1.000000
    162         -0.616874   1.000000
    163         -0.603684   1.000000
    164         -0.576896   1.000000
    165         -0.567952   1.000000
    166         -0.532339   1.000000
    167         -0.476281   1.000000
    168         -0.453373   1.000000
    169         -0.443226   1.000001
    170         -0.388128   1.000021
    171         -0.381342   1.000031
    172         -0.373998   1.000048
    173         -0.336069   1.000380
    174         -0.334203   1.000417
    175         -0.331429   1.000478
    176         -0.328899   1.000540
    177         -0.320091   1.000820
    178         -0.266827   1.006940
    179         -0.255057   1.010100
    180         -0.120648   0.911414
    181         -0.108680   0.848252
    182         -0.082671   0.666711
    183         -0.071005   0.571475
    184         -0.068254   0.548394
    185         -0.049985   0.394793
    186         -0.018260   0.163004
    187         -0.001303   0.074575
    188          0.005409   0.047546
    189          0.022970  -0.002801
    190          0.089409  -0.026781
    191          0.124908  -0.011742
    192          0.145178  -0.006184
    193          0.153842  -0.004548
    194          0.303509  -0.000001
    195          0.312860  -0.000001
    196          0.322207  -0.000000
    197          0.367341  -0.000000
    198          0.654667  -0.000000
    199          0.780752  -0.000000
    200          1.191138  -0.000000
    201          1.490093  -0.000000
    202          1.495016  -0.000000
    203          1.620825  -0.000000
    204          2.266875  -0.000000
    205          2.729432   0.000000
    206          2.940602   0.000000
    207          3.439647   0.000000
    208          3.659758   0.000000
    209          3.664748   0.000000
    210          3.777025   0.000000
    211          3.972890   0.000000
    212          4.371845   0.000000
    213          4.628928   0.000000
    214          4.662507   0.000000
    215          4.955617   0.000000
    216          4.997039   0.000000
    217          5.013922   0.000000
    218          5.123601   0.000000
    219          5.226353   0.000000
    220          5.493236   0.000000
    221          5.645427   0.000000
    222          5.739922   0.000000
    223          5.862683   0.000000
    224          5.932964   0.000000
    225          6.045294   0.000000
    226          6.193415   0.000000
    227          6.233299   0.000000
    228          6.329610   0.000000
    229          6.368953   0.000000
    230          6.616416   0.000000
    231          6.721925   0.000000
    232          6.727669   0.000000
    233          6.784886   0.000000
    234          6.867756   0.000000
    235          6.922511   0.000000
    236          7.056879   0.000000
    237          7.225513   0.000000
    238          7.503746   0.000000
    239          7.558416   0.000000
    240          7.628502   0.000000
 
  0.1276756E-14  0.2000000E+00  0.1276756E-14  0.8000000E-01
      1         -8.734380   1.000000
      2         -7.466388   1.000000
      3         -6.965709   1.000000
      4         -6.580439   1.000000
      5         -6.560802   1.000000
      6         -6.391098   1.000000
      7         -6.332941   1.000000
      8         -6.270856   1.000000
      9         -6.236979   1.000000
     10         -6.215605   1.000000
     11         -6.067498   1.000000
     12         -5.999336   1.000000
     13         -5.893802   1.000000
     14         -5.840560   1.000000
     15         -5.837426   1.000000
     16         -5.821890   1.000000
     17         -5.583634   1.000000
     18         -5.476067   1.000000
     19         -5.412174   1.000000
     20         -5.407356   1.000000
     21         -5.395226   1.000000
     22         -5.365483   1.000000
     23         -5.326747   1.000000
     24         -5.307724   1.000000
     25         -5.264666   1.000000
     26         -5.229813   1.000000
     27         -5.216661   1.000000
     28         -5.201240   1.000000
     29         -5.170925   1.000000
     30         -5.120106   1.000000
     31         -5.080747   1.000000
     32         -5.021921   1.000000
     33         -5.012050   1.000000
     34         -4.996185   1.000000
     35         -4.992212   1.000000
     36         -4.883749   1.000000
     37         -4.794427   1.000000
     38         -4.791961   1.000000
     39         -4.773615   1.000000
     40         -4.765282   1.000000
     41         -4.706008   1.000000
     42         -4.498058   1.000000
     43         -4.484778   1.000000
     44         -4.436472   1.000000
     45         -4.421083   1.000000
     46         -4.399838   1.000000
     47         -4.383951   1.000000
     48         -4.339771   1.000000
     49         -4.201787   1.000000
     50         -4.196526   1.000000
     51         -4.123483   1.000000
     52         -4.114642   1.000000
     53         -4.076437   1.000000
     54         -4.051179   1.000000
     55         -3.977031   1.000000
     56         -3.806383   1.000000
     57         -3.736739   1.000000
     58         -3.714200   1.000000
     59         -3.679387   1.000000
     60         -3.666196   1.000000
     61         -3.636484   1.000000
     62         -3.563733   1.000000
     63         -3.557848   1.000000
     64         -3.535082   1.000000
     65         -3.518025   1.000000
     66         -3.517753   1.000000
     67         -3.483924   1.000000
     68         -3.441510   1.000000
     69         -3.398800   1.000000
     70         -3.378719   1.000000
     71         -3.358659   1.000000
     72         -3.343506   1.000000
     73         -3.266084   1.000000
     74         -3.255451   1.000000
     75         -3.239448   1.000000
     76         -3.183643   1.000000
     77         -3.175463   1.000000
     78         -3.158569   1.000000