unknown system                          
           1
     8.468310    0.000000    0.000000
     4.234155    7.333772    0.000000
     0.000000    0.000000   24.965662
   Pt   H 
    36     1
Direct configuration=     1
   0.00000000  0.00000000  0.34046764
   0.33400137  0.00000000  0.34046764
   0.66800274  0.00000000  0.34046764
   0.00000000  0.33400137  0.34046764
   0.33400137  0.33400137  0.34046764
   0.66800274  0.33400137  0.34046764
   0.00000000  0.66800274  0.34046764
   0.33400137  0.66800274  0.34046764
   0.66800274  0.66800274  0.34046764
   0.11133379  0.11133379  0.43297074
   0.44533516  0.11133379  0.43297074
   0.77933653  0.11133379  0.43297074
   0.11133379  0.44533516  0.43297074
   0.44533516  0.44533516  0.43297074
   0.77933653  0.44533516  0.43297074
   0.11133379  0.77933653  0.43297074
   0.44533516  0.77933653  0.43297074
   0.77933653  0.77933653  0.43297074
   0.89022526  0.22420732  0.52505690
   0.22250747  0.22409541  0.52499073
   0.55662186  0.22349690  0.52416026
   0.89094336  0.55510922  0.52550984
   0.22327235  0.55695615  0.52437966
   0.55651662  0.55706290  0.52431624
   0.89019824  0.89025148  0.52445792
   0.22330035  0.89037145  0.52462321
   0.55678015  0.89007937  0.52430775
   0.00087754  0.00056171  0.61761600
   0.33596639  0.00067363  0.61755502
   0.66776340  0.00179438  0.61769066
   0.00181296  0.33365729  0.62171729
   0.33558565  0.33490297  0.61747849
   0.66681611  0.33486961  0.61742679
   0.00099692  0.66926011  0.61762089
   0.33452392  0.66828136  0.61750194
   0.66709436  0.66933407  0.61754357
   0.01557587  0.30618087  0.68353559
