  37  37   0   0
  0.4190497E+02  0.8468310E-09  0.8468310E-09  0.2496566E-08  0.5000000E-15
  1.000000000000000E-004
  CAR 
 unknown system                          
      8.63616475     -9.89100414  301     -0.07729926      1.00000000
     -9.891  0.0000E+00  0.0000E+00
     -9.829  0.0000E+00  0.0000E+00
     -9.767  0.0000E+00  0.0000E+00
     -9.706 -0.4427E-28 -0.2734E-29
     -9.644 -0.6555E-24 -0.4048E-25
     -9.582 -0.4495E-20 -0.2777E-21
     -9.520 -0.1426E-16 -0.8811E-18
     -9.459 -0.2025E-13 -0.1251E-14
     -9.397 -0.1356E-10 -0.8388E-12
     -9.335 -0.4152E-08 -0.2573E-09
     -9.273 -0.5766E-06 -0.3587E-07
     -9.212 -0.3578E-04 -0.2246E-05
     -9.150 -0.9622E-03 -0.6167E-04
     -9.088 -0.1039E-01 -0.7032E-03
     -9.026 -0.3355E-01 -0.2775E-02
     -8.965  0.5225E-01  0.4516E-03
     -8.903  0.3315E+00  0.2092E-01
     -8.841  0.6079E+00  0.5847E-01
     -8.779  0.2051E+01  0.1851E+00
     -8.718  0.3811E+01  0.4205E+00
     -8.656  0.2247E+01  0.5593E+00
     -8.594 -0.2308E-01  0.5579E+00
     -8.532  0.1875E+00  0.5694E+00
     -8.471  0.2560E+01  0.7275E+00
     -8.409  0.3809E+01  0.9628E+00
     -8.347  0.3552E+01  0.1182E+01
     -8.285  0.3746E+01  0.1413E+01
     -8.224  0.1882E+01  0.1530E+01
     -8.162  0.6611E-02  0.1530E+01
     -8.100 -0.3628E+00  0.1508E+01
     -8.038 -0.2764E+00  0.1491E+01
     -7.977  0.2126E+01  0.1622E+01
     -7.915  0.6679E+01  0.2034E+01
     -7.853  0.6005E+01  0.2405E+01
     -7.791  0.1618E+01  0.2505E+01
     -7.730  0.1849E+01  0.2619E+01
     -7.668  0.5548E+01  0.2962E+01
     -7.606  0.6256E+01  0.3348E+01
     -7.544  0.2672E+01  0.3513E+01
     -7.482  0.9343E+00  0.3571E+01
     -7.421  0.3105E+01  0.3763E+01
     -7.359  0.5555E+01  0.4106E+01
     -7.297  0.7445E+01  0.4566E+01
     -7.235  0.8927E+01  0.5117E+01
     -7.174  0.9251E+01  0.5688E+01
     -7.112  0.6840E+01  0.6111E+01
     -7.050  0.5239E+01  0.6434E+01
     -6.988  0.5110E+01  0.6750E+01
     -6.927  0.3955E+01  0.6994E+01
     -6.865  0.4242E+01  0.7256E+01
     -6.803  0.7122E+01  0.7696E+01
     -6.741  0.8535E+01  0.8223E+01
     -6.680  0.6421E+01  0.8620E+01
     -6.618  0.7402E+01  0.9077E+01
     -6.556  0.1372E+02  0.9924E+01
     -6.494  0.1420E+02  0.1080E+02
     -6.433  0.1121E+02  0.1149E+02
     -6.371  0.1126E+02  0.1219E+02
     -6.309  0.8841E+01  0.1273E+02
     -6.247  0.1009E+02  0.1336E+02
     -6.186  0.2039E+02  0.1462E+02
     -6.124  0.3343E+02  0.1668E+02
     -6.062  0.3631E+02  0.1892E+02
     -6.000  0.3029E+02  0.2079E+02
     -5.939  0.2913E+02  0.2259E+02
     -5.877  0.3256E+02  0.2460E+02
     -5.815  0.3616E+02  0.2684E+02
     -5.753  0.3009E+02  0.2870E+02
     -5.692  0.2646E+02  0.3033E+02
     -5.630  0.3337E+02  0.3239E+02
     -5.568  0.3975E+02  0.3484E+02
     -5.506  0.4284E+02  0.3749E+02
     -5.444  0.5254E+02  0.4073E+02
     -5.383  0.6358E+02  0.4466E+02
     -5.321  0.6396E+02  0.4861E+02
     -5.259  0.5581E+02  0.5206E+02
     -5.197  0.4536E+02  0.5486E+02
     -5.136  0.4108E+02  0.5740E+02
     -5.074  0.5144E+02  0.6057E+02
     -5.012  0.7038E+02  0.6492E+02
     -4.950  0.5946E+02  0.6859E+02
     -4.889  0.3066E+02  0.7048E+02
     -4.827  0.2567E+02  0.7207E+02
     -4.765  0.4078E+02  0.7459E+02
     -4.703  0.3788E+02  0.7693E+02
     -4.642  0.2175E+02  0.7827E+02
     -4.580  0.2686E+02  0.7993E+02
     -4.518  0.4605E+02  0.8277E+02
     -4.456  0.5989E+02  0.8647E+02
     -4.395  0.6169E+02  0.9028E+02
     -4.333  0.5259E+02  0.9353E+02
     -4.271  0.4580E+02  0.9636E+02
     -4.209  0.4406E+02  0.9908E+02
     -4.148  0.4697E+02  0.1020E+03
     -4.086  0.5793E+02  0.1056E+03
     -4.024  0.5796E+02  0.1091E+03
     -3.962  0.4603E+02  0.1120E+03
     -3.901  0.4077E+02  0.1145E+03
     -3.839  0.3907E+02  0.1169E+03
     -3.777  0.3655E+02  0.1192E+03
     -3.715  0.4412E+02  0.1219E+03
     -3.654  0.6135E+02  0.1257E+03
     -3.592  0.6432E+02  0.1297E+03
     -3.530  0.5750E+02  0.1332E+03
     -3.468  0.5772E+02  0.1368E+03
     -3.406  0.6918E+02  0.1410E+03
     -3.345  0.7686E+02  0.1458E+03
     -3.283  0.7232E+02  0.1503E+03
     -3.221  0.6684E+02  0.1544E+03
     -3.159  0.7460E+02  0.1590E+03
     -3.098  0.8755E+02  0.1644E+03
     -3.036  0.8161E+02  0.1694E+03
     -2.974  0.7499E+02  0.1741E+03
     -2.912  0.7811E+02  0.1789E+03
     -2.851  0.7730E+02  0.1837E+03
     -2.789  0.8736E+02  0.1891E+03
     -2.727  0.1039E+03  0.1955E+03
     -2.665  0.1027E+03  0.2018E+03
     -2.604  0.7897E+02  0.2067E+03
     -2.542  0.6133E+02  0.2105E+03
     -2.480  0.6361E+02  0.2144E+03
     -2.418  0.5806E+02  0.2180E+03
     -2.357  0.4168E+02  0.2206E+03
     -2.295  0.2876E+02  0.2224E+03
     -2.233  0.2505E+02  0.2239E+03
     -2.171  0.3233E+02  0.2259E+03
     -2.110  0.4790E+02  0.2289E+03
     -2.048  0.7025E+02  0.2332E+03
     -1.986  0.9014E+02  0.2388E+03
     -1.924  0.8999E+02  0.2443E+03
     -1.863  0.7580E+02  0.2490E+03
     -1.801  0.5653E+02  0.2525E+03
     -1.739  0.4340E+02  0.2552E+03
     -1.677  0.4352E+02  0.2579E+03
     -1.616  0.4945E+02  0.2609E+03
     -1.554  0.5754E+02  0.2645E+03
     -1.492  0.5777E+02  0.2680E+03
     -1.430  0.5529E+02  0.2714E+03
     -1.369  0.6000E+02  0.2752E+03
     -1.307  0.5783E+02  0.2787E+03
     -1.245  0.5095E+02  0.2819E+03
     -1.183  0.5924E+02  0.2855E+03
     -1.121  0.7691E+02  0.2903E+03
     -1.060  0.8579E+02  0.2956E+03
     -0.998  0.8345E+02  0.3007E+03
     -0.936  0.6638E+02  0.3048E+03
     -0.874  0.5679E+02  0.3083E+03
     -0.813  0.5772E+02  0.3119E+03
     -0.751  0.4884E+02  0.3149E+03
     -0.689  0.4238E+02  0.3175E+03
     -0.627  0.5476E+02  0.3209E+03
     -0.566  0.6298E+02  0.3248E+03
     -0.504  0.5922E+02  0.3285E+03
     -0.442  0.6150E+02  0.3323E+03
     -0.380  0.7385E+02  0.3368E+03
     -0.319  0.9150E+02  0.3425E+03
     -0.257  0.9118E+02  0.3481E+03
     -0.195  0.6509E+02  0.3521E+03
     -0.133  0.6082E+02  0.3559E+03
     -0.072  0.9220E+02  0.3616E+03
     -0.010  0.8878E+02  0.3671E+03
      0.052  0.4595E+02  0.3699E+03
      0.114  0.3494E+02  0.3721E+03
      0.175  0.5543E+02  0.3755E+03
      0.237  0.5372E+02  0.3788E+03
      0.299  0.4207E+02  0.3814E+03
      0.361  0.3592E+02  0.3836E+03
      0.422  0.2320E+02  0.3850E+03
      0.484  0.1072E+02  0.3857E+03
      0.546  0.4128E+01  0.3860E+03
      0.608  0.2852E+01  0.3861E+03
      0.669  0.5831E+01  0.3865E+03
      0.731  0.1300E+02  0.3873E+03
      0.793  0.1571E+02  0.3883E+03
      0.855  0.9793E+01  0.3889E+03
      0.917  0.7565E+01  0.3893E+03
      0.978  0.1121E+02  0.3900E+03
      1.040  0.8294E+01  0.3905E+03
      1.102  0.2488E+01  0.3907E+03
      1.164  0.5336E+01  0.3910E+03
      1.225  0.1220E+02  0.3918E+03
      1.287  0.1314E+02  0.3926E+03
      1.349  0.1131E+02  0.3933E+03
      1.411  0.1037E+02  0.3939E+03
      1.472  0.1714E+02  0.3950E+03
      1.534  0.2754E+02  0.3967E+03
      1.596  0.2416E+02  0.3982E+03
      1.658  0.1746E+02  0.3993E+03
      1.719  0.1521E+02  0.4002E+03
      1.781  0.8103E+01  0.4007E+03
      1.843  0.1183E+01  0.4008E+03
      1.905  0.2421E+01  0.4009E+03
      1.966  0.6312E+01  0.4013E+03
      2.028  0.7283E+01  0.4018E+03
      2.090  0.4773E+01  0.4021E+03
      2.152  0.4706E+01  0.4024E+03
      2.213  0.9915E+01  0.4030E+03
      2.275  0.1129E+02  0.4037E+03
      2.337  0.1091E+02  0.4043E+03
      2.399  0.1604E+02  0.4053E+03
      2.460  0.2231E+02  0.4067E+03
      2.522  0.1890E+02  0.4079E+03
      2.584  0.9386E+01  0.4085E+03
      2.646  0.6349E+01  0.4088E+03
      2.707  0.7802E+01  0.4093E+03
      2.769  0.1426E+02  0.4102E+03
      2.831  0.1972E+02  0.4114E+03
      2.893  0.1619E+02  0.4124E+03
      2.954  0.1035E+02  0.4131E+03
      3.016  0.7893E+01  0.4135E+03
      3.078  0.1247E+02  0.4143E+03
      3.140  0.1453E+02  0.4152E+03
      3.202  0.1119E+02  0.4159E+03
      3.263  0.9479E+01  0.4165E+03
      3.325  0.6739E+01  0.4169E+03
      3.387  0.2011E+01  0.4170E+03
      3.449  0.1945E+01  0.4172E+03
      3.510  0.7498E+01  0.4176E+03
      3.572  0.1378E+02  0.4185E+03
      3.634  0.2001E+02  0.4197E+03
      3.696  0.2381E+02  0.4212E+03
      3.757  0.1913E+02  0.4224E+03
      3.819  0.9556E+01  0.4229E+03
      3.881  0.4162E+01  0.4232E+03
      3.943  0.3556E+01  0.4234E+03
      4.004  0.4505E+01  0.4237E+03
      4.066  0.6465E+01  0.4241E+03
      4.128  0.8060E+01  0.4246E+03
      4.190  0.7336E+01  0.4251E+03
      4.251  0.5312E+01  0.4254E+03
      4.313  0.5861E+01  0.4257E+03
      4.375  0.1668E+02  0.4268E+03
      4.437  0.2603E+02  0.4284E+03
      4.498  0.1719E+02  0.4294E+03
      4.560  0.7257E+01  0.4299E+03
      4.622  0.8680E+01  0.4304E+03
      4.684  0.1323E+02  0.4312E+03
      4.745  0.1478E+02  0.4322E+03
      4.807  0.1107E+02  0.4328E+03
      4.869  0.6657E+01  0.4332E+03
      4.931  0.5901E+01  0.4336E+03
      4.992  0.9235E+01  0.4342E+03
      5.054  0.9403E+01  0.4348E+03
      5.116  0.6481E+01  0.4352E+03
      5.178  0.8214E+01  0.4357E+03
      5.240  0.1271E+02  0.4365E+03
      5.301  0.1407E+02  0.4373E+03
      5.363  0.9405E+01  0.4379E+03
      5.425  0.7799E+01  0.4384E+03
      5.487  0.1578E+02  0.4394E+03
      5.548  0.2309E+02  0.4408E+03
      5.610  0.2589E+02  0.4424E+03
      5.672  0.2643E+02  0.4440E+03
      5.734  0.2490E+02  0.4456E+03
      5.795  0.2100E+02  0.4469E+03
      5.857  0.1715E+02  0.4479E+03
      5.919  0.1688E+02  0.4490E+03
      5.981  0.2349E+02  0.4504E+03
      6.042  0.3080E+02  0.4523E+03
      6.104  0.2389E+02  0.4538E+03
      6.166  0.1367E+02  0.4546E+03
      6.228  0.1728E+02  0.4557E+03
      6.289  0.2593E+02  0.4573E+03
      6.351  0.3047E+02  0.4592E+03
      6.413  0.2509E+02  0.4607E+03
      6.475  0.1430E+02  0.4616E+03
      6.536  0.1613E+02  0.4626E+03
      6.598  0.2697E+02  0.4643E+03
      6.660  0.2742E+02  0.4660E+03
      6.722  0.2384E+02  0.4674E+03
      6.783  0.2197E+02  0.4688E+03
      6.845  0.1766E+02  0.4699E+03
      6.907  0.1791E+02  0.4710E+03
      6.969  0.1605E+02  0.4720E+03
      7.030  0.1033E+02  0.4726E+03
      7.092  0.1636E+02  0.4736E+03
      7.154  0.2549E+02  0.4752E+03
      7.216  0.2397E+02  0.4767E+03
      7.278  0.1707E+02  0.4777E+03
      7.339  0.9276E+01  0.4783E+03
      7.401  0.3717E+01  0.4785E+03
      7.463  0.3896E+01  0.4788E+03
      7.525  0.5808E+01  0.4791E+03
      7.586  0.6323E+01  0.4795E+03
      7.648  0.5583E+01  0.4799E+03
      7.710  0.2281E+01  0.4800E+03
      7.772 -0.3647E-01  0.4800E+03
      7.833 -0.2075E+00  0.4800E+03
      7.895 -0.3974E-01  0.4800E+03
      7.957 -0.2793E-02  0.4800E+03
      8.019 -0.8448E-04  0.4800E+03
      8.080 -0.1155E-05  0.4800E+03
      8.142 -0.7282E-08  0.4800E+03
      8.204 -0.2134E-10  0.4800E+03
      8.266 -0.2963E-13  0.4800E+03
      8.327  0.0000E+00  0.4800E+03
      8.389  0.0000E+00  0.4800E+03
      8.451  0.0000E+00  0.4800E+03
      8.513  0.0000E+00  0.4800E+03
      8.574  0.0000E+00  0.4800E+03
      8.636  0.0000E+00  0.4800E+03
