   37   37    1    1
  0.4190497E+02  0.8468310E-09  0.8468310E-09  0.2496566E-08  0.5000000E-15
  1.000000000000000E-004
  CAR 
 unknown system                          
    361     13    240
 
  0.1276756E-14  0.1276756E-14  0.1276756E-14  0.4000000E-01
      1         -8.891004   1.000000
      2         -7.754487   1.000000
      3         -7.005589   1.000000
      4         -6.499020   1.000000
      5         -6.471513   1.000000
      6         -6.453745   1.000000
      7         -6.443248   1.000000
      8         -6.437441   1.000000
      9         -6.428812   1.000000
     10         -6.415581   1.000000
     11         -6.147825   1.000000
     12         -5.915641   1.000000
     13         -5.913174   1.000000
     14         -5.898481   1.000000
     15         -5.893023   1.000000
     16         -5.889343   1.000000
     17         -5.825472   1.000000
     18         -5.460060   1.000000
     19         -5.457756   1.000000
     20         -5.452658   1.000000
     21         -5.446474   1.000000
     22         -5.442593   1.000000
     23         -5.326093   1.000000
     24         -5.226652   1.000000
     25         -5.222609   1.000000
     26         -5.221591   1.000000
     27         -5.213625   1.000000
     28         -5.212632   1.000000
     29         -5.121797   1.000000
     30         -5.030764   1.000000
     31         -5.025050   1.000000
     32         -5.021981   1.000000
     33         -5.016250   1.000000
     34         -5.015006   1.000000
     35         -4.965827   1.000000
     36         -4.953611   1.000000
     37         -4.944501   1.000000
     38         -4.938040   1.000000
     39         -4.906999   1.000000
     40         -4.901094   1.000000
     41         -4.552625   1.000000
     42         -4.378651   1.000000
     43         -4.376823   1.000000
     44         -4.352528   1.000000
     45         -4.338712   1.000000
     46         -4.323242   1.000000
     47         -4.313323   1.000000
     48         -4.300779   1.000000
     49         -4.286506   1.000000
     50         -4.283056   1.000000
     51         -4.177977   1.000000
     52         -4.132707   1.000000
     53         -4.130044   1.000000
     54         -4.039469   1.000000
     55         -4.029144   1.000000
     56         -3.592007   1.000000
     57         -3.580734   1.000000
     58         -3.569178   1.000000
     59         -3.562310   1.000000
     60         -3.550127   1.000000
     61         -3.499033   1.000000
     62         -3.484660   1.000000
     63         -3.385255   1.000000
     64         -3.384279   1.000000
     65         -3.371401   1.000000
     66         -3.371027   1.000000
     67         -3.365817   1.000000
     68         -3.362337   1.000000
     69         -3.348823   1.000000
     70         -3.319396   1.000000
     71         -3.302514   1.000000
     72         -3.296409   1.000000
     73         -3.291530   1.000000
     74         -3.286450   1.000000
     75         -3.266001   1.000000
     76         -3.258713   1.000000
     77         -3.249760   1.000000
     78         -3.166029   1.000000
     79         -3.154794   1.000000
     80         -3.141992   1.000000
     81         -3.136978   1.000000
     82         -3.129641   1.000000
     83         -3.107544   1.000000
     84         -2.937414   1.000000
     85         -2.929192   1.000000
     86         -2.926115   1.000000
     87         -2.912191   1.000000
     88         -2.910338   1.000000
     89         -2.886130   1.000000
     90         -2.879666   1.000000
     91         -2.872007   1.000000
     92         -2.839457   1.000000
     93         -2.822310   1.000000
     94         -2.807930   1.000000
     95         -2.779054   1.000000
     96         -2.742755   1.000000
     97         -2.739700   1.000000
     98         -2.695228   1.000000
     99         -2.692737   1.000000
    100         -2.684869   1.000000
    101         -2.611020   1.000000
    102         -2.535690   1.000000
    103         -2.523154   1.000000
    104         -2.518895   1.000000
    105         -2.510124   1.000000
    106         -2.492339   1.000000
    107         -2.486593   1.000000
    108         -2.267826   1.000000
    109         -2.033590   1.000000
    110         -2.001578   1.000000
    111         -1.998972   1.000000
    112         -1.996894   1.000000
    113         -1.990394   1.000000
    114         -1.982186   1.000000
    115         -1.975086   1.000000
    116         -1.970777   1.000000
    117         -1.961755   1.000000
    118         -1.949052   1.000000
    119         -1.938788   1.000000
    120         -1.879754   1.000000
    121         -1.868424   1.000000
    122         -1.817189   1.000000
    123         -1.739954   1.000000
    124         -1.728873   1.000000
    125         -1.718081   1.000000
    126         -1.711003   1.000000
    127         -1.703036   1.000000
    128         -1.616613   1.000000
    129         -1.589650   1.000000
    130         -1.538373   1.000000
    131         -1.536340   1.000000
    132         -1.529342   1.000000
    133         -1.483078   1.000000
    134         -1.302025   1.000000
    135         -1.284966   1.000000
    136         -1.273441   1.000000
    137         -1.254620   1.000000
    138         -1.249683   1.000000
    139         -1.243950   1.000000
    140         -1.193715   1.000000
    141         -1.176001   1.000000
    142         -1.069267   1.000000
    143         -1.048724   1.000000
    144         -1.037478   1.000000
    145         -1.029864   1.000000
    146         -1.024154   1.000000
    147         -1.015239   1.000000
    148         -0.892323   1.000000
    149         -0.874572   1.000000
    150         -0.860026   1.000000
    151         -0.850094   1.000000
    152         -0.834874   1.000000
    153         -0.829028   1.000000
    154         -0.820697   1.000000
    155         -0.819374   1.000000
    156         -0.811003   1.000000
    157         -0.805328   1.000000
    158         -0.800940   1.000000
    159         -0.797661   1.000000
    160         -0.735812   1.000000
    161         -0.707604   1.000000
    162         -0.697335   1.000000
    163         -0.695711   1.000000
    164         -0.671878   1.000000
    165         -0.658421   1.000000
    166         -0.643129   1.000000
    167         -0.639959   1.000000
    168         -0.601384   1.000000
    169         -0.595360   1.000000
    170         -0.578968   1.000000
    171         -0.573094   1.000000
    172         -0.557011   1.000000
    173         -0.543695   1.000000
    174         -0.539159   1.000000
    175         -0.535931   1.000000
    176         -0.462719   1.000000
    177         -0.457656   1.000001
    178         -0.448723   1.000001
    179         -0.438089   1.000002
    180         -0.428957   1.000004
    181         -0.426141   1.000005
    182         -0.393555   1.000037
    183         -0.352190   1.000355
    184         -0.341503   1.000600
    185         -0.325787   1.001239
    186         -0.323067   1.001396
    187         -0.310990   1.002326
    188         -0.307566   1.002671
    189         -0.126192   0.863957
    190         -0.103590   0.714191
    191         -0.022481   0.104593
    192         -0.020761   0.096125
    193         -0.008187   0.043263
    194         -0.000012   0.017222
    195          0.006559   0.000730
    196          0.010352  -0.007116
    197          0.508507  -0.000000
    198          0.818279  -0.000000
    199          0.828494  -0.000000
    200          0.870572  -0.000000
    201          0.888641  -0.000000
    202          0.901536  -0.000000
    203          0.904634  -0.000000
    204          2.768449   0.000000
    205          3.110985   0.000000
    206          3.159826   0.000000
    207          3.186941   0.000000
    208          3.215008   0.000000
    209          3.218230   0.000000
    210          4.541983   0.000000
    211          4.723882   0.000000
    212          4.778384   0.000000
    213          4.811439   0.000000
    214          4.824419   0.000000
    215          4.828954   0.000000
    216          4.919357   0.000000
    217          5.095514   0.000000
    218          5.163528   0.000000
    219          5.434095   0.000000
    220          5.531882   0.000000
    221          5.773004   0.000000
    222          5.820348   0.000000
    223          5.844969   0.000000
    224          5.852173   0.000000
    225          5.872982   0.000000
    226          6.092957   0.000000
    227          6.364785   0.000000
    228          6.608146   0.000000
    229          6.620591   0.000000
    230          6.626350   0.000000
    231          6.838981   0.000000
    232          6.993280   0.000000
    233          7.122402   0.000000
    234          7.149467   0.000000
    235          7.159479   0.000000
    236          7.169442   0.000000
    237          7.174832   0.000000
    238          7.219555   0.000000
    239          7.261064   0.000000
    240          7.636165   0.000000
 
  0.2000000E+00  0.1278043E-14  0.1276756E-14  0.8000000E-01
      1         -8.742716   1.000000
      2         -7.622250   1.000000
      3         -6.992071   1.000000
      4         -6.891906   1.000000
      5         -6.549170   1.000000
      6         -6.540037   1.000000
      7         -6.357903   1.000000
      8         -6.262725   1.000000
      9         -6.217249   1.000000
     10         -6.200390   1.000000
     11         -6.109614   1.000000
     12         -6.003424   1.000000
     13         -5.977464   1.000000
     14         -5.845015   1.000000
     15         -5.828217   1.000000
     16         -5.821957   1.000000
     17         -5.731428   1.000000
     18         -5.528550   1.000000
     19         -5.424358   1.000000
     20         -5.412257   1.000000
     21         -5.403102   1.000000
     22         -5.387325   1.000000
     23         -5.327098   1.000000
     24         -5.296354   1.000000
     25         -5.271106   1.000000
     26         -5.224013   1.000000
     27         -5.215374   1.000000
     28         -5.200540   1.000000
     29         -5.159536   1.000000
     30         -5.108380   1.000000
     31         -5.099361   1.000000
     32         -5.040095   1.000000
     33         -5.014246   1.000000
     34         -5.007827   1.000000
     35         -5.004267   1.000000
     36         -4.872488   1.000000
     37         -4.808316   1.000000
     38         -4.775379   1.000000
     39         -4.759456   1.000000
     40         -4.738561   1.000000
     41         -4.581060   1.000000
     42         -4.494182   1.000000
     43         -4.489453   1.000000
     44         -4.452210   1.000000
     45         -4.413028   1.000000
     46         -4.392531   1.000000
     47         -4.387671   1.000000
     48         -4.310765   1.000000
     49         -4.206541   1.000000
     50         -4.170841   1.000000
     51         -4.123022   1.000000
     52         -4.104837   1.000000
     53         -4.073493   1.000000
     54         -4.052149   1.000000
     55         -4.038865   1.000000
     56         -3.822048   1.000000
     57         -3.735288   1.000000
     58         -3.729025   1.000000
     59         -3.674792   1.000000
     60         -3.652826   1.000000
     61         -3.618038   1.000000
     62         -3.575666   1.000000
     63         -3.569152   1.000000
     64         -3.560127   1.000000
     65         -3.534149   1.000000
     66         -3.528350   1.000000
     67         -3.474662   1.000000
     68         -3.447017   1.000000
     69         -3.408134   1.000000
     70         -3.368852   1.000000
     71         -3.356557   1.000000
     72         -3.336600   1.000000
     73         -3.282736   1.000000
     74         -3.268296   1.000000
     75         -3.258569   1.000000
     76         -3.176424   1.000000
     77         -3.166775   1.000000
     78         -3.151284   1.000000
     79         -3.131204   1.000000
     80         -3.100129   1.000000
     81         -3.078289   1.000000
     82         -3.053774   1.000000
     83         -3.030495   1.000000
     84         -2.996842   1.000000
     85         -2.961266   1.000000
     86         -2.953547   1.000000
     87         -2.941279   1.000000
     88         -2.924311   1.000000
     89         -2.906420   1.000000
     90         -2.895006   1.000000
     91         -2.868241   1.000000
     92         -2.820812   1.000000
     93         -2.798561   1.000000
     94         -2.786343   1.000000
     95         -2.767110   1.000000
     96         -2.757346   1.000000
     97         -2.735935   1.000000
     98         -2.723996   1.000000
     99         -2.694955   1.000000
    100         -2.685586   1.000000
    101         -2.611291   1.000000
    102         -2.569886   1.000000
    103         -2.541764   1.000000
    104         -2.528390   1.000000
    105         -2.509922   1.000000
    106         -2.502822   1.000000
    107         -2.498804   1.000000
    108         -2.480486   1.000000
    109         -2.444359   1.000000
    110         -2.433367   1.000000
    111         -2.425924   1.000000
    112         -2.412548   1.000000
    113         -2.192409   1.000000
    114         -2.068528   1.000000
    115         -2.038514   1.000000
    116         -2.015854   1.000000
    117         -2.003217   1.000000
    118         -1.996572   1.000000
    119         -1.985324   1.000000
    120         -1.960057   1.000000
    121         -1.939913   1.000000
    122         -1.857109   1.000000
    123         -1.801525   1.000000
    124         -1.783240   1.000000
    125         -1.719704   1.000000
    126         -1.663464   1.000000
    127         -1.651011   1.000000
    128         -1.608336   1.000000
    129         -1.595387   1.000000
    130         -1.572024   1.000000
    131         -1.547394   1.000000
    132         -1.535697   1.000000
    133         -1.522408   1.000000
    134         -1.446470   1.000000
    135         -1.415364   1.000000
    136         -1.400571   1.000000
    137         -1.384242   1.000000
    138         -1.372780   1.000000
    139         -1.285961   1.000000
    140         -1.198412   1.000000
    141         -1.180622   1.000000
    142         -1.160736   1.000000
    143         -1.153431   1.000000
    144         -1.135179   1.000000
    145         -1.118330   1.000000
    146         -1.065676   1.000000
    147         -1.034032   1.000000
    148         -1.002134   1.000000
    149         -0.991984   1.000000
    150         -0.981505   1.000000
    151         -0.942334   1.000000
    152         -0.922435   1.000000
    153         -0.904967   1.000000
    154         -0.889579   1.000000
    155         -0.825492   1.000000
    156         -0.793553   1.000000
    157         -0.777814   1.000000
    158         -0.758369   1.000000
    159         -0.733172   1.000000
    160         -0.660079   1.000000
    161         -0.642598   1.000000
    162         -0.632985   1.000000
    163         -0.603588   1.000000
    164         -0.593675   1.000000
    165         -0.570062   1.000000
    166         -0.548299   1.000000
    167         -0.487292   1.000000
    168         -0.471671   1.000000
    169         -0.417805   1.000008
    170         -0.405847   1.000017
    171         -0.400794   1.000024
    172         -0.383184   1.000067
    173         -0.364311   1.000190
    174         -0.352975   1.000341
    175         -0.347492   1.000448
    176         -0.341988   1.000586
    177         -0.327734   1.001136
    178         -0.278968   1.007572
    179         -0.274294   1.008799
    180         -0.139408   0.929252
    181         -0.126079   0.863324
    182         -0.100886   0.693580
    183         -0.090445   0.610187
    184         -0.075077   0.481199
    185         -0.067661   0.418849
    186         -0.032625   0.160538
    187         -0.025548   0.120433
    188         -0.001920   0.022735
    189          0.008828  -0.004104
    190          0.062384  -0.031887
    191          0.105898  -0.013233
    192          0.130123  -0.006244
    193          0.186490  -0.000612
    194          0.290511  -0.000001
    195          0.302336  -0.000001
    196          0.314089  -0.000000
    197          0.344400  -0.000000
    198          0.685740  -0.000000
    199          0.755425  -0.000000
    200          1.231310  -0.000000
    201          1.462560  -0.000000
    202          1.480759  -0.000000
    203          1.595643  -0.000000
    204          2.373431  -0.000000
    205          2.777428   0.000000
    206          2.907302   0.000000
    207          3.529155   0.000000
    208          3.645325   0.000000
    209          3.657775   0.000000
    210          3.737876   0.000000
    211          3.977168   0.000000
    212          4.398822   0.000000
    213          4.602677   0.000000
    214          4.731097   0.000000
    215          4.939576   0.000000
    216          4.999800   0.000000
    217          5.015436   0.000000
    218          5.200450   0.000000
    219          5.265358   0.000000
    220          5.472135   0.000000
    221          5.658269   0.000000
    222          5.685808   0.000000
    223          5.775821   0.000000
    224          5.913712   0.000000
    225          6.114578   0.000000
    226          6.207487   0.000000
    227          6.226324   0.000000
    228          6.333047   0.000000
    229          6.357107   0.000000
    230          6.594414   0.000000
    231          6.705169   0.000000
    232          6.749464   0.000000
    233          6.792623   0.000000
    234          6.877038   0.000000
    235          6.937132   0.000000
    236          7.066351   0.000000
    237          7.273469   0.000000
    238          7.450014   0.000000
    239          7.511084   0.000000
    240          7.601491   0.000000
 
  0.2000000E+00  0.2000000E+00  0.1276756E-14  0.8000000E-01
      1         -8.743632   1.000000
      2         -7.632484   1.000000
      3         -7.036593   1.000000
      4         -6.843271   1.000000
      5         -6.557046   1.000000
      6         -6.545501   1.000000
      7         -6.358461   1.000000
      8         -6.262728   1.000000
      9         -6.212747   1.000000
     10         -6.200612   1.000000
     11         -6.152600   1.000000
     12         -5.997777   1.000000
     13         -5.894916   1.000000
     14         -5.846366   1.000000
     15         -5.824210   1.000000
     16         -5.819555   1.000000
     17         -5.790340   1.000000
     18         -5.526254   1.000000
     19         -5.415563   1.000000
     20         -5.408301   1.000000
     21         -5.403449   1.000000
     22         -5.348398   1.000000
     23         -5.327875   1.000000
     24         -5.287082   1.000000
     25         -5.272398   1.000000
     26         -5.264749   1.000000
     27         -5.218209   1.000000
     28         -5.201032   1.000000
     29         -5.119758   1.000000
     30         -5.103548   1.000000
     31         -5.094823   1.000000
     32         -5.027346   1.000000
     33         -5.014555   1.000000
     34         -5.005206   1.000000
     35         -5.003065   1.000000
     36         -4.841332   1.000000
     37         -4.806416   1.000000
     38         -4.775904   1.000000
     39         -4.769884   1.000000
     40         -4.753473   1.000000
     41         -4.556788   1.000000
     42         -4.493694   1.000000
     43         -4.486735   1.000000
     44         -4.458561   1.000000
     45         -4.413312   1.000000
     46         -4.407510   1.000000
     47         -4.385657   1.000000
     48         -4.332693   1.000000
     49         -4.208984   1.000000
     50         -4.177292   1.000000
     51         -4.125849   1.000000
     52         -4.108669   1.000000
     53         -4.065638   1.000000
     54         -4.045015   1.000000
     55         -4.030182   1.000000
     56         -3.825879   1.000000
     57         -3.732543   1.000000
     58         -3.726124   1.000000
     59         -3.678330   1.000000
     60         -3.658601   1.000000
     61         -3.622763   1.000000
     62         -3.578972   1.000000
     63         -3.573435   1.000000
     64         -3.549784   1.000000
     65         -3.531577   1.000000
     66         -3.522836   1.000000
     67         -3.499722   1.000000
     68         -3.442315   1.000000
     69         -3.395463   1.000000
     70         -3.375412   1.000000
     71         -3.368768   1.000000
     72         -3.346195   1.000000
     73         -3.279168   1.000000
     74         -3.263788   1.000000
     75         -3.255956   1.000000
     76         -3.181039   1.000000
     77         -3.162111   1.000000
     78         -3.153244   1.000000
     79         -3.129433   1.000000
     80         -3.089004   1.000000
     81         -3.079321   1.000000
     82         -3.060843   1.000000
     83         -3.027913   1.000000
     84         -2.986568   1.000000
     85         -2.963880   1.000000
     86         -2.962180   1.000000
     87         -2.929863   1.000000
     88         -2.926463   1.000000
     89         -2.903501   1.000000
     90         -2.900944   1.000000
     91         -2.867617   1.000000
     92         -2.828353   1.000000
     93         -2.800425   1.000000
     94         -2.778765   1.000000
     95         -2.771810   1.000000
     96         -2.756601   1.000000
     97         -2.740575   1.000000
     98         -2.723918   1.000000
     99         -2.702513   1.000000
    100         -2.685701   1.000000
    101         -2.612074   1.000000
    102         -2.565270   1.000000
    103         -2.550329   1.000000
    104         -2.540149   1.000000
    105         -2.516415   1.000000
    106         -2.505953   1.000000
    107         -2.497605   1.000000
    108         -2.496029   1.000000
    109         -2.448051   1.000000
    110         -2.437200   1.000000
    111         -2.431409   1.000000
    112         -2.418292   1.000000
    113         -2.165008   1.000000
    114         -2.079019   1.000000
    115         -2.045836   1.000000
    116         -2.031557   1.000000
    117         -2.006923   1.000000
    118         -1.989332   1.000000
    119         -1.979987   1.000000
    120         -1.946845   1.000000
    121         -1.931496   1.000000
    122         -1.906860   1.000000
    123         -1.816549   1.000000
    124         -1.784486   1.000000
    125         -1.713537   1.000000
    126         -1.663461   1.000000
    127         -1.650375   1.000000
    128         -1.613681   1.000000
    129         -1.605060   1.000000
    130         -1.571252   1.000000
    131         -1.548398   1.000000
    132         -1.534222   1.000000
    133         -1.530085   1.000000
    134         -1.441180   1.000000
    135         -1.401366   1.000000
    136         -1.397436   1.000000
    137         -1.383160   1.000000
    138         -1.372670   1.000000
    139         -1.217717   1.000000
    140         -1.203006   1.000000
    141         -1.185327   1.000000
    142         -1.174252   1.000000
    143         -1.156798   1.000000
    144         -1.146041   1.000000
    145         -1.114923   1.000000
    146         -1.057502   1.000000
    147         -1.045905   1.000000
    148         -1.018700   1.000000
    149         -0.994536   1.000000
    150         -0.982769   1.000000
    151         -0.932296   1.000000
    152         -0.922297   1.000000
    153         -0.909246   1.000000
    154         -0.904667   1.000000
    155         -0.815520   1.000000
    156         -0.800024   1.000000
    157         -0.773157   1.000000
    158         -0.758252   1.000000
    159         -0.709388   1.000000
    160         -0.672227   1.000000
    161         -0.667122   1.000000
    162         -0.618918   1.000000
    163         -0.610274   1.000000
    164         -0.608336   1.000000
    165         -0.565716   1.000000
    166         -0.542890   1.000000
    167         -0.485771   1.000000
    168         -0.476491   1.000000
    169         -0.414447   1.000010
    170         -0.409097   1.000014
    171         -0.391658   1.000041
    172         -0.375885   1.000101
    173         -0.365124   1.000182
    174         -0.351184   1.000373
    175         -0.346989   1.000459
    176         -0.339037   1.000675
    177         -0.328962   1.001075
    178         -0.276634   1.008168
    179         -0.273123   1.009128
    180         -0.135036   0.909602
    181         -0.127817   0.872927
    182         -0.109309   0.756118
    183         -0.082959   0.547815
    184         -0.069988   0.438313
    185         -0.061361   0.366998
    186         -0.034949   0.174760
    187         -0.014067   0.066007
    188         -0.004244   0.029912
    189          0.006594   0.000652
    190          0.080775  -0.023957
    191          0.105670  -0.013316
    192          0.126415  -0.007077
    193          0.194411  -0.000416
    194          0.293285  -0.000001
    195          0.295357  -0.000001
    196          0.310484  -0.000000
    197          0.352161  -0.000000
    198          0.701022  -0.000000
    199          0.738174  -0.000000
    200          1.242755  -0.000000
    201          1.448234  -0.000000
    202          1.480873  -0.000000
    203          1.607561  -0.000000
    204          2.344663  -0.000000
    205          2.840031   0.000000
    206          2.895310   0.000000
    207          3.497270   0.000000
    208          3.650859   0.000000
    209          3.679526   0.000000
    210          3.726372   0.000000
    211          3.933033   0.000000
    212          4.387115   0.000000
    213          4.604879   0.000000
    214          4.727525   0.000000
    215          4.975412   0.000000
    216          4.999378   0.000000
    217          5.016714   0.000000
    218          5.238645   0.000000
    219          5.313493   0.000000
    220          5.443671   0.000000
    221          5.596126   0.000000
    222          5.704637   0.000000
    223          5.867669   0.000000
    224          5.895404   0.000000
    225          6.094910   0.000000
    226          6.208262   0.000000
    227          6.249985   0.000000
    228          6.335193   0.000000
    229          6.349522   0.000000
    230          6.614905   0.000000
    231          6.675114   0.000000
    232          6.742441   0.000000
    233          6.788833   0.000000
    234          6.807357   0.000000
    235          6.945065   0.000000
    236          7.057202   0.000000
    237          7.230469   0.000000
    238          7.462147   0.000000
    239          7.580956   0.000000
    240          7.619535   0.000000
 
  0.1276756E-14  0.2000000E+00  0.1276756E-14  0.8000000E-01
      1         -8.742600   1.000000
      2         -7.622989   1.000000
      3         -6.988863   1.000000
      4         -6.888076   1.000000
      5         -6.556917   1.000000
      6         -6.541625   1.000000
      7         -6.357537   1.000000
      8         -6.250833   1.000000
      9         -6.218122   1.000000
     10         -6.212317   1.000000
     11         -6.113870   1.000000
     12         -6.001171   1.000000
     13         -5.970906   1.000000
     14         -5.842841   1.000000
     15         -5.825604   1.000000
     16         -5.818192   1.000000
     17         -5.734868   1.000000
     18         -5.533448   1.000000
     19         -5.423030   1.000000
     20         -5.409092   1.000000
     21         -5.399599   1.000000
     22         -5.384473   1.000000
     23         -5.331306   1.000000
     24         -5.297165   1.000000
     25         -5.274215   1.000000
     26         -5.224016   1.000000
     27         -5.208936   1.000000
     28         -5.200825   1.000000
     29         -5.161402   1.000000
     30         -5.111087   1.000000
     31         -5.104860   1.000000
     32         -5.027808   1.000000
     33         -5.014432   1.000000
     34         -5.009570   1.000000
     35         -5.003975   1.000000
     36         -4.871799   1.000000
     37         -4.809304   1.000000
     38         -4.774254   1.000000
     39         -4.763390   1.000000
     40         -4.747390   1.000000
     41         -4.580140   1.000000
     42         -4.497654   1.000000
     43         -4.493351   1.000000
     44         -4.450720   1.000000
     45         -4.414519   1.000000
     46         -4.390107   1.000000
     47         -4.385413   1.000000
     48         -4.312214   1.000000
     49         -4.208753   1.000000
     50         -4.169278   1.000000
     51         -4.121192   1.000000
     52         -4.106330   1.000000
     53         -4.074899   1.000000
     54         -4.049029   1.000000
     55         -4.039436   1.000000
     56         -3.835240   1.000000
     57         -3.733415   1.000000
     58         -3.728646   1.000000
     59         -3.688864   1.000000
     60         -3.663341   1.000000
     61         -3.625248   1.000000
     62         -3.592441   1.000000
     63         -3.557588   1.000000
     64         -3.547128   1.000000
     65         -3.530557   1.000000
     66         -3.518593   1.000000
     67         -3.470602   1.000000
     68         -3.446641   1.000000
     69         -3.412137   1.000000
     70         -3.373190   1.000000
     71         -3.363676   1.000000
     72         -3.345064   1.000000
     73         -3.264239   1.000000
     74         -3.250329   1.000000
     75         -3.229228   1.000000
     76         -3.179561   1.000000
     77         -3.171317   1.000000
     78         -3.157098   1.000000