unknown system                          
           1
     8.468310    0.000000    0.000000
     4.234155    7.333772    0.000000
     0.000000    0.000000   24.965662
   Pt   H 
    36     1
Direct configuration=     1
   0.00000000  0.00000000  0.34046764
   0.33400137  0.00000000  0.34046764
   0.66800274  0.00000000  0.34046764
   0.00000000  0.33400137  0.34046764
   0.33400137  0.33400137  0.34046764
   0.66800274  0.33400137  0.34046764
   0.00000000  0.66800274  0.34046764
   0.33400137  0.66800274  0.34046764
   0.66800274  0.66800274  0.34046764
   0.11133379  0.11133379  0.43297074
   0.44533516  0.11133379  0.43297074
   0.77933653  0.11133379  0.43297074
   0.11133379  0.44533516  0.43297074
   0.44533516  0.44533516  0.43297074
   0.77933653  0.44533516  0.43297074
   0.11133379  0.77933653  0.43297074
   0.44533516  0.77933653  0.43297074
   0.77933653  0.77933653  0.43297074
   0.88858472  0.22654153  0.52523363
   0.22084408  0.22533012  0.52617323
   0.55466323  0.22539376  0.52421363
   0.88834484  0.55708497  0.52542474
   0.22085410  0.55876713  0.52431742
   0.55477975  0.55873487  0.52434472
   0.88783130  0.89210438  0.52417889
   0.22158002  0.89323899  0.52506993
   0.55294706  0.89229037  0.52524127
   0.99620298  0.00390720  0.61758451
   0.33261137  0.00510634  0.62149249
   0.66527939  0.00475540  0.61757290
   0.99460045  0.34263937  0.62156473
   0.33459143  0.34124491  0.61820109
   0.66460264  0.33869315  0.61772228
   0.99733063  0.67292203  0.61772632
   0.33131372  0.67231453  0.61743761
   0.66388459  0.67242865  0.61802148
   0.17624490  0.20269664  0.66194060
