
     Program PWSCF v.7.1 starts on 11Dec2025 at  5:24:18 
        Git branch: heads/qe-7.1
        Last git commit: 48ba0178f8fede6d020eb786884699a9f063f55d-dirty
        Last git commit date: Fri Jan 27 14:22:33 2023 +0000
        Last git commit subject: Merge branch 'fix_hubbard' into 'develop'

     This program is part of the open-source Quantum ESPRESSO suite
     for quantum simulation of materials; please cite
         "P. Giannozzi et al., J. Phys.:Condens. Matter 21 395502 (2009);
         "P. Giannozzi et al., J. Phys.:Condens. Matter 29 465901 (2017);
         "P. Giannozzi et al., J. Chem. Phys. 152 154105 (2020);
          URL http://www.quantum-espresso.org", 
     in publications or presentations arising from this work. More details at
     http://www.quantum-espresso.org/quote

     Parallel version (MPI), running on    96 processors

     MPI processes distributed on     2 nodes
     11170 MiB available memory on the printing compute node when the environment starts

     Reading input from espresso.pwi
Warning: card &CELL ignored
Warning: card / ignored
Warning: card &FCP ignored
Warning: card / ignored
Warning: card &RISM ignored
Warning: card / ignored

     Current dimensions of program PWSCF are:
     Max number of different atomic species (ntypx) = 10
     Max number of k-points (npk) =  40000
     Max angular momentum in pseudopotentials (lmaxx) =  4
     file Co.pbe-n-kjpaw_psl.1.0.0.UPF: wavefunction(s)  4S 3D renormalized
     file C.pbe-n-kjpaw_psl.1.0.0.UPF: wavefunction(s)  2S 2P renormalized
     file O.pbe-nl-kjpaw_psl.1.0.0.UPF: wavefunction(s)  2S 2P renormalized
     file H.pbe-kjpaw_psl.1.0.0.UPF: wavefunction(s)  1S renormalized

     **************************************************************************
     Initializing libbeef V0.1.2 with the BEEF-vdW functional.
     Citation: Wellendorff et al., PRB 85, 235149 (2012).
     **************************************************************************


     IMPORTANT: XC functional enforced from input :
     Exchange-correlation= BEEF-VDW
                           (   1   4  43  14   2   0   0)
     Any further DFT definition will be discarded
     Please, verify this is what you really want


     R & G space division:  proc/nbgrp/npool/nimage =      96
     Subspace diagonalization in iterative solution of the eigenvalue problem:
     one sub-group per band group will be used
     custom distributed-memory algorithm (size of sub-group:  2*  2 procs)


     Parallelization info
     --------------------
     sticks:   dense  smooth     PW     G-vecs:    dense   smooth      PW
     Min          43      28      7                 7829     4248     595
     Max          44      29      8                 7845     4281     630
     Sum        4153    2773    757               752179   409445   59217

     Using Slab Decomposition



     bravais-lattice index     =            0
     lattice parameter (alat)  =      14.1729  a.u.
     unit-cell volume          =    8574.3059 (a.u.)^3
     number of atoms/cell      =           39
     number of atomic types    =            4
     number of electrons       =       335.00
     number of Kohn-Sham states=          202
     kinetic-energy cutoff     =      50.0000  Ry
     charge density cutoff     =     300.0000  Ry
     scf convergence threshold =      1.0E-08
     mixing beta               =       0.7000
     number of iterations used =            8  local-TF  mixing
     Exchange-correlation= BEEF-VDW
                           (   1   4  43  14   2   0   0)

     celldm(1)=  14.172946  celldm(2)=   0.000000  celldm(3)=   0.000000
     celldm(4)=   0.000000  celldm(5)=   0.000000  celldm(6)=   0.000000

     crystal axes: (cart. coord. in units of alat)
               a(1) = (   1.000000   0.000000   0.000000 )  
               a(2) = (   0.500000   0.866025   0.000000 )  
               a(3) = (   0.000000   0.000000   3.477667 )  

     reciprocal axes: (cart. coord. in units 2 pi/alat)
               b(1) = (  1.000000 -0.577350  0.000000 )  
               b(2) = (  0.000000  1.154701  0.000000 )  
               b(3) = (  0.000000  0.000000  0.287549 )  


     PseudoPot. # 1 for Co read from file:
     /users/kbadger1/espresso/pseudo/pslibrary.1.0.0/pbe/PSEUDOPOTENTIALS/Co.pbe-n-kjpaw_psl.1.0.0.UPF
     MD5 check sum: 88af6ec42553d4236c267fdfcb472151
     Pseudo is Projector augmented-wave + core cor, Zval =  9.0
     Generated using 'atomic' code by A. Dal Corso  v.7.0
     Shape of augmentation charge: PSQ
     Using radial grid of 1193 points,  6 beta functions with: 
                l(1) =   0
                l(2) =   0
                l(3) =   1
                l(4) =   1
                l(5) =   2
                l(6) =   2
     Q(r) pseudized with 0 coefficients 


     PseudoPot. # 2 for C  read from file:
     /users/kbadger1/espresso/pseudo/pslibrary.1.0.0/pbe/PSEUDOPOTENTIALS/C.pbe-n-kjpaw_psl.1.0.0.UPF
     MD5 check sum: 6408e75cdba28732cea38a4db8498ce4
     Pseudo is Projector augmented-wave + core cor, Zval =  4.0
     Generated using 'atomic' code by A. Dal Corso  v.7.0
     Shape of augmentation charge: PSQ
     Using radial grid of 1073 points,  4 beta functions with: 
                l(1) =   0
                l(2) =   0
                l(3) =   1
                l(4) =   1
     Q(r) pseudized with 0 coefficients 


     PseudoPot. # 3 for O  read from file:
     /users/kbadger1/espresso/pseudo/pslibrary.1.0.0/pbe/PSEUDOPOTENTIALS/O.pbe-nl-kjpaw_psl.1.0.0.UPF
     MD5 check sum: f0439fab3598ca4e468f064226030408
     Pseudo is Projector augmented-wave + core cor, Zval =  6.0
     Generated using 'atomic' code by A. Dal Corso  v.7.0
     Shape of augmentation charge: PSQ
     Using radial grid of 1095 points,  4 beta functions with: 
                l(1) =   0
                l(2) =   0
                l(3) =   1
                l(4) =   1
     Q(r) pseudized with 0 coefficients 


     PseudoPot. # 4 for H  read from file:
     /users/kbadger1/espresso/pseudo/pslibrary.1.0.0/pbe/PSEUDOPOTENTIALS/H.pbe-kjpaw_psl.1.0.0.UPF
     MD5 check sum: fe4c6fa958fa6d3815bf5d2419cbf1df
     Pseudo is Projector augmented-wave, Zval =  1.0
     Generated using 'atomic' code by A. Dal Corso  v.7.0
     Shape of augmentation charge: PSQ
     Using radial grid of  929 points,  2 beta functions with: 
                l(1) =   0
                l(2) =   0
     Q(r) pseudized with 0 coefficients 


     atomic species   valence    mass     pseudopotential
        Co             9.00    58.93319     Co( 1.00)
        C              4.00    12.00000     C ( 1.00)
        O              6.00    15.99491     O ( 1.00)
        H              1.00     1.00783     H ( 1.00)

     Starting magnetic structure 
     atomic species   magnetization
        Co           1.000
        C            1.000
        O            0.000
        H            0.000

     No symmetry found



   Cartesian axes

     site n.     atom                  positions (alat units)
         1           Co  tau(   1) = (   0.0000000   0.1924501   1.3333333  )
         2           Co  tau(   2) = (   0.3333333   0.1924501   1.3333333  )
         3           Co  tau(   3) = (   0.6666667   0.1924501   1.3333333  )
         4           Co  tau(   4) = (   0.1666667   0.4811252   1.3333333  )
         5           Co  tau(   5) = (   0.5000000   0.4811252   1.3333333  )
         6           Co  tau(   6) = (   0.8333333   0.4811252   1.3333333  )
         7           Co  tau(   7) = (   0.3333333   0.7698004   1.3333333  )
         8           Co  tau(   8) = (   0.6666667   0.7698004   1.3333333  )
         9           Co  tau(   9) = (   1.0000000   0.7698004   1.3333333  )
        10           Co  tau(  10) = (   0.0000000   0.0000000   1.6036667  )
        11           Co  tau(  11) = (   0.3333333   0.0000000   1.6036667  )
        12           Co  tau(  12) = (   0.6666667   0.0000000   1.6036667  )
        13           Co  tau(  13) = (   0.1666667   0.2886751   1.6036667  )
        14           Co  tau(  14) = (   0.5000000   0.2886751   1.6036667  )
        15           Co  tau(  15) = (   0.8333333   0.2886751   1.6036667  )
        16           Co  tau(  16) = (   0.3333333   0.5773503   1.6036667  )
        17           Co  tau(  17) = (   0.6666667   0.5773503   1.6036667  )
        18           Co  tau(  18) = (   1.0000000   0.5773503   1.6036667  )
        19           Co  tau(  19) = (   0.0000000   0.1924501   1.8740000  )
        20           Co  tau(  20) = (   0.3333333   0.1924501   1.8740000  )
        21           Co  tau(  21) = (   0.6666667   0.1924501   1.8740000  )
        22           Co  tau(  22) = (   0.1666667   0.4811252   1.8740000  )
        23           Co  tau(  23) = (   0.5000000   0.4811252   1.8740000  )
        24           Co  tau(  24) = (   0.8333333   0.4811252   1.8740000  )
        25           Co  tau(  25) = (   0.3333333   0.7698004   1.8740000  )
        26           Co  tau(  26) = (   0.6666667   0.7698004   1.8740000  )
        27           Co  tau(  27) = (   1.0000000   0.7698004   1.8740000  )
        28           Co  tau(  28) = (   0.0000000   0.0000000   2.1443333  )
        29           Co  tau(  29) = (   0.3333333   0.0000000   2.1443333  )
        30           Co  tau(  30) = (   0.6666667   0.0000000   2.1443333  )
        31           Co  tau(  31) = (   0.1666667   0.2886751   2.1443333  )
        32           Co  tau(  32) = (   0.5000000   0.2886751   2.1443333  )
        33           Co  tau(  33) = (   0.8333333   0.2886751   2.1443333  )
        34           Co  tau(  34) = (   0.3333333   0.5773503   2.1443333  )
        35           Co  tau(  35) = (   0.6666667   0.5773503   2.1443333  )
        36           Co  tau(  36) = (   1.0000000   0.5773503   2.1443333  )
        37           C   tau(  37) = (   0.3527429   0.2045498   2.3368449  )
        38           O   tau(  38) = (   0.2253425   0.1399062   2.4256557  )
        39           H   tau(  39) = (   0.4667613   0.2684576   2.4130222  )

     number of k points=    13  Marzari-Vanderbilt smearing, width (Ry)=  0.0010
                       cart. coord. in units 2pi/alat
        k(    1) = (   0.0000000   0.0000000   0.0000000), wk =   0.0400000
        k(    2) = (   0.0000000   0.2309401   0.0000000), wk =   0.0800000
        k(    3) = (   0.0000000   0.4618802   0.0000000), wk =   0.0800000
        k(    4) = (   0.2000000  -0.1154701   0.0000000), wk =   0.0800000
        k(    5) = (   0.2000000   0.1154701   0.0000000), wk =   0.0800000
        k(    6) = (   0.2000000   0.3464102   0.0000000), wk =   0.0800000
        k(    7) = (   0.2000000  -0.5773503   0.0000000), wk =   0.0800000
        k(    8) = (   0.2000000  -0.3464102   0.0000000), wk =   0.0800000
        k(    9) = (   0.4000000  -0.2309401   0.0000000), wk =   0.0800000
        k(   10) = (   0.4000000   0.0000000   0.0000000), wk =   0.0800000
        k(   11) = (   0.4000000   0.2309401   0.0000000), wk =   0.0800000
        k(   12) = (   0.4000000  -0.6928203   0.0000000), wk =   0.0800000
        k(   13) = (   0.4000000  -0.4618802   0.0000000), wk =   0.0800000

     Dense  grid:   752179 G-vectors     FFT dimensions: (  80,  80, 288)

     Smooth grid:   409445 G-vectors     FFT dimensions: (  64,  64, 225)

     Estimated max dynamical RAM per process >      99.02 MB

     Estimated total dynamical RAM >       9.28 GB
     Generating pointlists ...
     new r_m :   0.1058 (alat units)  1.4999 (a.u.) for type    1
     new r_m :   0.0624 (alat units)  0.8845 (a.u.) for type    2
     new r_m :   0.0694 (alat units)  0.9835 (a.u.) for type    3
     new r_m :   0.0624 (alat units)  0.8845 (a.u.) for type    4

     Initial potential from superposition of free atoms

     starting charge     334.9897, renormalised to     335.0000

     negative rho (up, down):  3.051E-03 4.719E-04


     %%%%%%%%%%%%%%%%%%%%%%%%%%%%%%%%%%%%%%%%%%%%%%%%%%%%%%%%%%%%%%%%%%%%%%%%
     %                                                                      %
     % You are using vdW-DF, which was implemented by the Thonhauser group. %
     % Please cite the following two papers that made this development      %
     % possible and the two reviews that describe the various versions:     %
     %                                                                      %
     %   T. Thonhauser et al., PRL 115, 136402 (2015).                      %
     %   T. Thonhauser et al., PRB 76, 125112 (2007).                       %
     %   K. Berland et al., Rep. Prog. Phys. 78, 066501 (2015).             %
     %   D.C. Langreth et al., J. Phys.: Condens. Matter 21, 084203 (2009). %
     %                                                                      %
     % If you are calculating stress with vdW-DF, please also cite:         %
     %                                                                      %
     %   R. Sabatini et al., J. Phys.: Condens. Matter 24, 424209 (2012).   %
     %   C.M. Frostenson et al., Electr. Struct. 4, 014001 (2022).          %
     %                                                                      %
     %%%%%%%%%%%%%%%%%%%%%%%%%%%%%%%%%%%%%%%%%%%%%%%%%%%%%%%%%%%%%%%%%%%%%%%%

     %%%%%%%%%%%%%%%%%%%%%%%%%%%%%%%%%%%%%%%%%%%%%%%%%%%%%%%%%%%%%%%%%%%%%%%%
     %                                                                      %
     %  vdW-DF NEWS:                                                        %
     %                                                                      %
     %  * vdW-DF3 is now available. DOI: 10.1021/acs.jctc.0c00471           %
     %    use with input_dft = 'vdW-DF3-opt1' or 'vdW-DF3-opt2'             %
     %                                                                      %
     %  * Unscreened and range-separated hybrid vdW-DF-cx functionals       %
     %    DOI: 10.1063/1.4986522 and 10.1088/1361-648X/ac2ad2               %
     %    use with input_dft = 'vdW-DF-cx0'    and 'vdW-DF-ahcx'            %
     %  * Unscreened and range-separated hybrid vdW-DF2-b86r functionals    %
     %    DOI: 10.1063/1.4986522 and DOI: 10.1103/PhysRevX.12.041003        %
     %    use with input_dft = 'vdW-DF2-br0' and 'vdW-DF2-ahbr'             %
     %                                                                      %
     %%%%%%%%%%%%%%%%%%%%%%%%%%%%%%%%%%%%%%%%%%%%%%%%%%%%%%%%%%%%%%%%%%%%%%%%


     Starting wfcs are  333 randomized atomic wfcs
     Checking if some PAW data can be deallocated... 

     total cpu time spent up to now is       12.0 secs

     per-process dynamical memory:   231.0 Mb

     Self-consistent Calculation

     iteration #  1     ecut=    50.00 Ry     beta= 0.70
     Davidson diagonalization with overlap
     ethr =  1.00E-02,  avg # of iterations =  2.0

     negative rho (up, down):  2.534E-05 4.195E-08

     total cpu time spent up to now is       33.2 secs

     total energy              =   -6053.08438781 Ry
     estimated scf accuracy    <      39.51421470 Ry

     total magnetization       =    69.00 Bohr mag/cell
     absolute magnetization    =    81.28 Bohr mag/cell

     iteration #  2     ecut=    50.00 Ry     beta= 0.70
     Davidson diagonalization with overlap
     ethr =  1.00E-02,  avg # of iterations =  1.0

     negative rho (up, down):  2.737E-06 8.538E-09

     total cpu time spent up to now is       46.9 secs

     total energy              =   -6052.58485024 Ry
     estimated scf accuracy    <      24.17606405 Ry

     total magnetization       =    68.53 Bohr mag/cell
     absolute magnetization    =    76.69 Bohr mag/cell

     iteration #  3     ecut=    50.00 Ry     beta= 0.70
     Davidson diagonalization with overlap
     ethr =  7.22E-03,  avg # of iterations =  1.1

     total cpu time spent up to now is       64.3 secs

     total energy              =   -6055.12505139 Ry
     estimated scf accuracy    <      86.64951777 Ry

     total magnetization       =    65.80 Bohr mag/cell
     absolute magnetization    =    73.07 Bohr mag/cell

     iteration #  4     ecut=    50.00 Ry     beta= 0.70
     Davidson diagonalization with overlap
     ethr =  7.22E-03,  avg # of iterations =  1.0

     total cpu time spent up to now is       77.0 secs

     total energy              =   -6056.33288314 Ry
     estimated scf accuracy    <       5.73320411 Ry

     total magnetization       =    60.55 Bohr mag/cell
     absolute magnetization    =    70.46 Bohr mag/cell

     iteration #  5     ecut=    50.00 Ry     beta= 0.70
     Davidson diagonalization with overlap
     ethr =  1.71E-03,  avg # of iterations =  1.5

     total cpu time spent up to now is       94.3 secs

     total energy              =   -6056.34595068 Ry
     estimated scf accuracy    <       2.20652485 Ry

     total magnetization       =    60.45 Bohr mag/cell
     absolute magnetization    =    69.81 Bohr mag/cell

     iteration #  6     ecut=    50.00 Ry     beta= 0.70
     Davidson diagonalization with overlap
     ethr =  6.59E-04,  avg # of iterations =  1.7

     total cpu time spent up to now is      108.7 secs

     total energy              =   -6056.46387320 Ry
     estimated scf accuracy    <       0.62906095 Ry

     total magnetization       =    60.20 Bohr mag/cell
     absolute magnetization    =    69.45 Bohr mag/cell

     iteration #  7     ecut=    50.00 Ry     beta= 0.70
     Davidson diagonalization with overlap
     ethr =  1.88E-04,  avg # of iterations =  4.6

     total cpu time spent up to now is      128.6 secs

     total energy              =   -6056.49860422 Ry
     estimated scf accuracy    <       0.77741386 Ry

     total magnetization       =    60.20 Bohr mag/cell
     absolute magnetization    =    69.17 Bohr mag/cell

     iteration #  8     ecut=    50.00 Ry     beta= 0.70
     Davidson diagonalization with overlap
     ethr =  1.88E-04,  avg # of iterations =  1.7

     total cpu time spent up to now is      145.9 secs

     total energy              =   -6056.50924764 Ry
     estimated scf accuracy    <       0.13756369 Ry

     total magnetization       =    60.27 Bohr mag/cell
     absolute magnetization    =    69.08 Bohr mag/cell

     iteration #  9     ecut=    50.00 Ry     beta= 0.70
     Davidson diagonalization with overlap
     c_bands:  2 eigenvalues not converged
     c_bands:  1 eigenvalues not converged
     ethr =  4.11E-05,  avg # of iterations = 12.2

     total cpu time spent up to now is      179.7 secs

     total energy              =   -6056.53400269 Ry
     estimated scf accuracy    <       0.27342257 Ry

     total magnetization       =    61.22 Bohr mag/cell
     absolute magnetization    =    69.10 Bohr mag/cell

     iteration # 10     ecut=    50.00 Ry     beta= 0.70
     Davidson diagonalization with overlap
     ethr =  4.11E-05,  avg # of iterations =  1.6

     total cpu time spent up to now is      194.5 secs

     total energy              =   -6056.54100705 Ry
     estimated scf accuracy    <       0.19954004 Ry

     total magnetization       =    61.24 Bohr mag/cell
     absolute magnetization    =    69.00 Bohr mag/cell

     iteration # 11     ecut=    50.00 Ry     beta= 0.70
     Davidson diagonalization with overlap
     ethr =  4.11E-05,  avg # of iterations =  1.0

     total cpu time spent up to now is      209.9 secs

     total energy              =   -6056.52441111 Ry
     estimated scf accuracy    <       0.09874173 Ry

     total magnetization       =    61.25 Bohr mag/cell
     absolute magnetization    =    68.95 Bohr mag/cell

     iteration # 12     ecut=    50.00 Ry     beta= 0.70
     Davidson diagonalization with overlap
     ethr =  2.95E-05,  avg # of iterations =  2.0

     negative rho (up, down):  1.809E-07 0.000E+00

     total cpu time spent up to now is      225.0 secs

     total energy              =   -6056.53048142 Ry
     estimated scf accuracy    <       0.13191630 Ry

     total magnetization       =    61.10 Bohr mag/cell
     absolute magnetization    =    68.62 Bohr mag/cell

     iteration # 13     ecut=    50.00 Ry     beta= 0.70
     Davidson diagonalization with overlap
     ethr =  2.95E-05,  avg # of iterations =  1.0

     total cpu time spent up to now is      240.6 secs

     total energy              =   -6056.52781428 Ry
     estimated scf accuracy    <       0.10657660 Ry

     total magnetization       =    61.14 Bohr mag/cell
     absolute magnetization    =    68.60 Bohr mag/cell

     iteration # 14     ecut=    50.00 Ry     beta= 0.70
     Davidson diagonalization with overlap
     ethr =  2.95E-05,  avg # of iterations =  1.3

     total cpu time spent up to now is      254.2 secs

     total energy              =   -6056.52657256 Ry
     estimated scf accuracy    <       0.07288832 Ry

     total magnetization       =    61.26 Bohr mag/cell
     absolute magnetization    =    68.71 Bohr mag/cell

     iteration # 15     ecut=    50.00 Ry     beta= 0.70
     Davidson diagonalization with overlap
     ethr =  2.18E-05,  avg # of iterations =  1.0

     negative rho (up, down):  3.815E-05 2.376E-06

     total cpu time spent up to now is      270.0 secs

     total energy              =   -6056.52411336 Ry
     estimated scf accuracy    <       0.12212859 Ry

     total magnetization       =    61.16 Bohr mag/cell
     absolute magnetization    =    68.64 Bohr mag/cell

     iteration # 16     ecut=    50.00 Ry     beta= 0.70
     Davidson diagonalization with overlap
     ethr =  2.18E-05,  avg # of iterations =  1.2

     negative rho (up, down):  8.302E-04 4.689E-04

     total cpu time spent up to now is      283.9 secs

     total energy              =   -6056.52131229 Ry
     estimated scf accuracy    <       0.09094885 Ry

     total magnetization       =    61.25 Bohr mag/cell
     absolute magnetization    =    68.68 Bohr mag/cell

     iteration # 17     ecut=    50.00 Ry     beta= 0.70
     Davidson diagonalization with overlap
     ethr =  2.18E-05,  avg # of iterations =  1.7

     negative rho (up, down):  2.110E-02 1.985E-02

     total cpu time spent up to now is      300.8 secs

     total energy              =   -6056.51687650 Ry
     estimated scf accuracy    <       0.07091421 Ry

     total magnetization       =    61.24 Bohr mag/cell
     absolute magnetization    =    68.70 Bohr mag/cell

     iteration # 18     ecut=    50.00 Ry     beta= 0.70
     Davidson diagonalization with overlap
     ethr =  2.12E-05,  avg # of iterations =  1.3

     negative rho (up, down):  1.121E-02 1.013E-02

     total cpu time spent up to now is      314.8 secs

     total energy              =   -6056.51794282 Ry
     estimated scf accuracy    <       0.02814804 Ry

     total magnetization       =    61.24 Bohr mag/cell
     absolute magnetization    =    68.66 Bohr mag/cell

     iteration # 19     ecut=    50.00 Ry     beta= 0.70
     Davidson diagonalization with overlap
     ethr =  8.40E-06,  avg # of iterations =  1.8

     negative rho (up, down):  1.116E-02 1.005E-02

     total cpu time spent up to now is      331.4 secs

     total energy              =   -6056.51701412 Ry
     estimated scf accuracy    <       0.02266002 Ry

     total magnetization       =    61.24 Bohr mag/cell
     absolute magnetization    =    68.68 Bohr mag/cell

     iteration # 20     ecut=    50.00 Ry     beta= 0.70
     Davidson diagonalization with overlap
     ethr =  6.76E-06,  avg # of iterations =  1.1

     negative rho (up, down):  1.518E-02 1.401E-02

     total cpu time spent up to now is      344.6 secs

     total energy              =   -6056.51626705 Ry
     estimated scf accuracy    <       0.02311480 Ry

     total magnetization       =    61.24 Bohr mag/cell
     absolute magnetization    =    68.68 Bohr mag/cell

     iteration # 21     ecut=    50.00 Ry     beta= 0.70
     Davidson diagonalization with overlap
     ethr =  6.76E-06,  avg # of iterations =  1.1

     negative rho (up, down):  1.553E-02 1.443E-02

     total cpu time spent up to now is      361.6 secs

     total energy              =   -6056.51571638 Ry
     estimated scf accuracy    <       0.01231944 Ry

     total magnetization       =    61.24 Bohr mag/cell
     absolute magnetization    =    68.69 Bohr mag/cell

     iteration # 22     ecut=    50.00 Ry     beta= 0.70
     Davidson diagonalization with overlap
     c_bands:  4 eigenvalues not converged
     ethr =  3.68E-06,  avg # of iterations =  2.0

     negative rho (up, down):  1.632E-02 1.565E-02

     total cpu time spent up to now is      375.7 secs

     total energy              =   -6056.51407240 Ry
     estimated scf accuracy    <       0.00776060 Ry

     total magnetization       =    61.24 Bohr mag/cell
     absolute magnetization    =    68.70 Bohr mag/cell

     iteration # 23     ecut=    50.00 Ry     beta= 0.70
     Davidson diagonalization with overlap
     ethr =  2.32E-06,  avg # of iterations =  2.4

     negative rho (up, down):  1.317E-02 1.267E-02

     total cpu time spent up to now is      394.0 secs

     total energy              =   -6056.51397300 Ry
     estimated scf accuracy    <       0.00319571 Ry

     total magnetization       =    61.24 Bohr mag/cell
     absolute magnetization    =    68.72 Bohr mag/cell

     iteration # 24     ecut=    50.00 Ry     beta= 0.70
     Davidson diagonalization with overlap
     c_bands:  2 eigenvalues not converged
     ethr =  9.54E-07,  avg # of iterations =  2.5

     negative rho (up, down):  1.075E-02 1.024E-02

     total cpu time spent up to now is      408.5 secs

     total energy              =   -6056.51412026 Ry
     estimated scf accuracy    <       0.00262981 Ry

     total magnetization       =    61.24 Bohr mag/cell
     absolute magnetization    =    68.73 Bohr mag/cell

     iteration # 25     ecut=    50.00 Ry     beta= 0.70
     Davidson diagonalization with overlap
     ethr =  7.85E-07,  avg # of iterations =  2.2

     negative rho (up, down):  9.907E-03 9.415E-03

     total cpu time spent up to now is      427.2 secs

     total energy              =   -6056.51418435 Ry
     estimated scf accuracy    <       0.00139761 Ry

     total magnetization       =    61.24 Bohr mag/cell
     absolute magnetization    =    68.73 Bohr mag/cell

     iteration # 26     ecut=    50.00 Ry     beta= 0.70
     Davidson diagonalization with overlap
     ethr =  4.17E-07,  avg # of iterations =  1.8

     negative rho (up, down):  6.166E-03 5.621E-03

     total cpu time spent up to now is      440.9 secs

     total energy              =   -6056.51415330 Ry
     estimated scf accuracy    <       0.00084857 Ry

     total magnetization       =    61.24 Bohr mag/cell
     absolute magnetization    =    68.73 Bohr mag/cell

     iteration # 27     ecut=    50.00 Ry     beta= 0.70
     Davidson diagonalization with overlap
     ethr =  2.53E-07,  avg # of iterations =  1.6

     negative rho (up, down):  6.264E-03 5.699E-03

     total cpu time spent up to now is      457.5 secs

     total energy              =   -6056.51433889 Ry
     estimated scf accuracy    <       0.00076889 Ry

     total magnetization       =    61.24 Bohr mag/cell
     absolute magnetization    =    68.73 Bohr mag/cell

     iteration # 28     ecut=    50.00 Ry     beta= 0.70
     Davidson diagonalization with overlap
     ethr =  2.30E-07,  avg # of iterations =  2.0

     negative rho (up, down):  2.983E-03 1.994E-03

     total cpu time spent up to now is      471.9 secs

     total energy              =   -6056.51436566 Ry
     estimated scf accuracy    <       0.00050201 Ry

     total magnetization       =    61.24 Bohr mag/cell
     absolute magnetization    =    68.73 Bohr mag/cell

     iteration # 29     ecut=    50.00 Ry     beta= 0.70
     Davidson diagonalization with overlap
     ethr =  1.50E-07,  avg # of iterations =  2.6

     negative rho (up, down):  2.451E-03 1.399E-03

     total cpu time spent up to now is      491.0 secs

     total energy              =   -6056.51435350 Ry
     estimated scf accuracy    <       0.00023650 Ry

     total magnetization       =    61.24 Bohr mag/cell
     absolute magnetization    =    68.73 Bohr mag/cell

     iteration # 30     ecut=    50.00 Ry     beta= 0.70
     Davidson diagonalization with overlap
     ethr =  7.06E-08,  avg # of iterations =  2.2

     negative rho (up, down):  2.724E-03 1.730E-03

     total cpu time spent up to now is      508.5 secs

     total energy              =   -6056.51434493 Ry
     estimated scf accuracy    <       0.00043192 Ry

     total magnetization       =    61.24 Bohr mag/cell
     absolute magnetization    =    68.73 Bohr mag/cell

     iteration # 31     ecut=    50.00 Ry     beta= 0.70
     Davidson diagonalization with overlap
     ethr =  7.06E-08,  avg # of iterations =  1.4

     negative rho (up, down):  2.567E-03 1.491E-03

     total cpu time spent up to now is      522.7 secs

     total energy              =   -6056.51436547 Ry
     estimated scf accuracy    <       0.00036012 Ry

     total magnetization       =    61.24 Bohr mag/cell
     absolute magnetization    =    68.73 Bohr mag/cell

     iteration # 32     ecut=    50.00 Ry     beta= 0.70
     Davidson diagonalization with overlap
     ethr =  7.06E-08,  avg # of iterations =  1.2

     negative rho (up, down):  2.417E-03 1.331E-03

     total cpu time spent up to now is      539.2 secs

     total energy              =   -6056.51437924 Ry
     estimated scf accuracy    <       0.00001679 Ry

     total magnetization       =    61.24 Bohr mag/cell
     absolute magnetization    =    68.73 Bohr mag/cell

     iteration # 33     ecut=    50.00 Ry     beta= 0.70
     Davidson diagonalization with overlap
     ethr =  5.01E-09,  avg # of iterations =  9.9

     negative rho (up, down):  2.387E-03 1.299E-03

     total cpu time spent up to now is      566.2 secs

     total energy              =   -6056.51438235 Ry
     estimated scf accuracy    <       0.00001437 Ry

     total magnetization       =    61.24 Bohr mag/cell
     absolute magnetization    =    68.73 Bohr mag/cell

     iteration # 34     ecut=    50.00 Ry     beta= 0.70
     Davidson diagonalization with overlap
     ethr =  4.29E-09,  avg # of iterations =  1.5

     negative rho (up, down):  2.386E-03 1.294E-03

     total cpu time spent up to now is      581.0 secs

     total energy              =   -6056.51438270 Ry
     estimated scf accuracy    <       0.00001966 Ry

     total magnetization       =    61.24 Bohr mag/cell
     absolute magnetization    =    68.73 Bohr mag/cell

     iteration # 35     ecut=    50.00 Ry     beta= 0.70
     Davidson diagonalization with overlap
     ethr =  4.29E-09,  avg # of iterations =  1.0

     negative rho (up, down):  2.386E-03 1.287E-03

     total cpu time spent up to now is      596.8 secs

     total energy              =   -6056.51438288 Ry
     estimated scf accuracy    <       0.00000390 Ry

     total magnetization       =    61.24 Bohr mag/cell
     absolute magnetization    =    68.73 Bohr mag/cell

     iteration # 36     ecut=    50.00 Ry     beta= 0.70
     Davidson diagonalization with overlap
     ethr =  1.16E-09,  avg # of iterations =  2.9

     negative rho (up, down):  2.397E-03 1.294E-03

     total cpu time spent up to now is      613.7 secs

     total energy              =   -6056.51438335 Ry
     estimated scf accuracy    <       0.00000247 Ry

     total magnetization       =    61.24 Bohr mag/cell
     absolute magnetization    =    68.73 Bohr mag/cell

     iteration # 37     ecut=    50.00 Ry     beta= 0.70
     Davidson diagonalization with overlap
     ethr =  7.38E-10,  avg # of iterations =  1.4

     negative rho (up, down):  2.393E-03 1.292E-03

     total cpu time spent up to now is      630.1 secs

     total energy              =   -6056.51438354 Ry
     estimated scf accuracy    <       0.00000195 Ry

     total magnetization       =    61.24 Bohr mag/cell
     absolute magnetization    =    68.73 Bohr mag/cell

     iteration # 38     ecut=    50.00 Ry     beta= 0.70
     Davidson diagonalization with overlap
     ethr =  5.83E-10,  avg # of iterations =  1.4

     negative rho (up, down):  2.383E-03 1.278E-03

     total cpu time spent up to now is      644.7 secs

     total energy              =   -6056.51438385 Ry
     estimated scf accuracy    <       0.00000206 Ry

     total magnetization       =    61.24 Bohr mag/cell
     absolute magnetization    =    68.73 Bohr mag/cell

     iteration # 39     ecut=    50.00 Ry     beta= 0.70
     Davidson diagonalization with overlap
     ethr =  5.83E-10,  avg # of iterations =  2.0

     negative rho (up, down):  2.379E-03 1.272E-03

     total cpu time spent up to now is      663.3 secs

     total energy              =   -6056.51438393 Ry
     estimated scf accuracy    <       0.00000797 Ry

     total magnetization       =    61.24 Bohr mag/cell
     absolute magnetization    =    68.73 Bohr mag/cell

     iteration # 40     ecut=    50.00 Ry     beta= 0.70
     Davidson diagonalization with overlap
     ethr =  5.83E-10,  avg # of iterations =  1.5

     negative rho (up, down):  2.365E-03 1.260E-03

     total cpu time spent up to now is      677.7 secs

     total energy              =   -6056.51438419 Ry
     estimated scf accuracy    <       0.00000254 Ry

     total magnetization       =    61.24 Bohr mag/cell
     absolute magnetization    =    68.73 Bohr mag/cell

     iteration # 41     ecut=    50.00 Ry     beta= 0.70
     Davidson diagonalization with overlap
     ethr =  5.83E-10,  avg # of iterations =  1.1

     negative rho (up, down):  2.361E-03 1.257E-03

     total cpu time spent up to now is      693.9 secs

     total energy              =   -6056.51438422 Ry
     estimated scf accuracy    <       0.00000288 Ry

     total magnetization       =    61.24 Bohr mag/cell
     absolute magnetization    =    68.73 Bohr mag/cell

     iteration # 42     ecut=    50.00 Ry     beta= 0.70
     Davidson diagonalization with overlap
     ethr =  5.83E-10,  avg # of iterations =  1.1

     negative rho (up, down):  2.349E-03 1.248E-03

     total cpu time spent up to now is      707.3 secs

     total energy              =   -6056.51438433 Ry
     estimated scf accuracy    <       0.00000128 Ry

     total magnetization       =    61.24 Bohr mag/cell
     absolute magnetization    =    68.73 Bohr mag/cell

     iteration # 43     ecut=    50.00 Ry     beta= 0.70
     Davidson diagonalization with overlap
     ethr =  3.81E-10,  avg # of iterations =  1.5

     negative rho (up, down):  2.327E-03 1.227E-03

     total cpu time spent up to now is      724.8 secs

     total energy              =   -6056.51438431 Ry
     estimated scf accuracy    <       0.00000041 Ry

     total magnetization       =    61.24 Bohr mag/cell
     absolute magnetization    =    68.73 Bohr mag/cell

     iteration # 44     ecut=    50.00 Ry     beta= 0.70
     Davidson diagonalization with overlap
     ethr =  1.22E-10,  avg # of iterations =  3.7

     negative rho (up, down):  2.321E-03 1.220E-03

     total cpu time spent up to now is      741.2 secs

     total energy              =   -6056.51438431 Ry
     estimated scf accuracy    <       0.00000083 Ry

     total magnetization       =    61.24 Bohr mag/cell
     absolute magnetization    =    68.73 Bohr mag/cell

     iteration # 45     ecut=    50.00 Ry     beta= 0.70
     Davidson diagonalization with overlap
     ethr =  1.22E-10,  avg # of iterations =  1.4

     negative rho (up, down):  2.318E-03 1.217E-03

     total cpu time spent up to now is      757.9 secs

     total energy              =   -6056.51438432 Ry
     estimated scf accuracy    <       0.00000061 Ry

     total magnetization       =    61.24 Bohr mag/cell
     absolute magnetization    =    68.73 Bohr mag/cell

     iteration # 46     ecut=    50.00 Ry     beta= 0.70
     Davidson diagonalization with overlap
     ethr =  1.22E-10,  avg # of iterations =  1.2

     negative rho (up, down):  2.308E-03 1.207E-03

     total cpu time spent up to now is      771.1 secs

     total energy              =   -6056.51438432 Ry
     estimated scf accuracy    <       0.00000017 Ry

     total magnetization       =    61.24 Bohr mag/cell
     absolute magnetization    =    68.73 Bohr mag/cell

     iteration # 47     ecut=    50.00 Ry     beta= 0.70
     Davidson diagonalization with overlap
     ethr =  5.07E-11,  avg # of iterations =  2.2

     negative rho (up, down):  2.297E-03 1.195E-03

     total cpu time spent up to now is      790.0 secs

     total energy              =   -6056.51438430 Ry
     estimated scf accuracy    <       0.00000021 Ry

     total magnetization       =    61.24 Bohr mag/cell
     absolute magnetization    =    68.73 Bohr mag/cell

     iteration # 48     ecut=    50.00 Ry     beta= 0.70
     Davidson diagonalization with overlap
     ethr =  5.07E-11,  avg # of iterations =  1.8

     negative rho (up, down):  2.292E-03 1.189E-03

     total cpu time spent up to now is      807.1 secs

     total energy              =   -6056.51438429 Ry
     estimated scf accuracy    <       0.00000037 Ry

     total magnetization       =    61.24 Bohr mag/cell
     absolute magnetization    =    68.73 Bohr mag/cell

     iteration # 49     ecut=    50.00 Ry     beta= 0.70
     Davidson diagonalization with overlap
     ethr =  5.07E-11,  avg # of iterations =  1.5

     negative rho (up, down):  2.300E-03 1.198E-03

     total cpu time spent up to now is      821.5 secs

     total energy              =   -6056.51438430 Ry
     estimated scf accuracy    <       0.00000038 Ry

     total magnetization       =    61.24 Bohr mag/cell
     absolute magnetization    =    68.73 Bohr mag/cell

     iteration # 50     ecut=    50.00 Ry     beta= 0.70
     Davidson diagonalization with overlap
     ethr =  5.07E-11,  avg # of iterations =  1.4

     negative rho (up, down):  2.274E-03 1.173E-03

     total cpu time spent up to now is      838.5 secs

     total energy              =   -6056.51438428 Ry
     estimated scf accuracy    <       0.00000023 Ry

     total magnetization       =    61.24 Bohr mag/cell
     absolute magnetization    =    68.73 Bohr mag/cell

     iteration # 51     ecut=    50.00 Ry     beta= 0.70
     Davidson diagonalization with overlap
     ethr =  5.07E-11,  avg # of iterations =  1.2

     negative rho (up, down):  2.249E-03 1.147E-03

     total cpu time spent up to now is      853.0 secs

     total energy              =   -6056.51438423 Ry
     estimated scf accuracy    <       0.00000012 Ry

     total magnetization       =    61.24 Bohr mag/cell
     absolute magnetization    =    68.73 Bohr mag/cell

     iteration # 52     ecut=    50.00 Ry     beta= 0.70
     Davidson diagonalization with overlap
     ethr =  3.65E-11,  avg # of iterations =  1.6

     negative rho (up, down):  2.257E-03 1.156E-03

     total cpu time spent up to now is      869.6 secs

     total energy              =   -6056.51438426 Ry
     estimated scf accuracy    <       0.00000009 Ry

     total magnetization       =    61.24 Bohr mag/cell
     absolute magnetization    =    68.73 Bohr mag/cell

     iteration # 53     ecut=    50.00 Ry     beta= 0.70
     Davidson diagonalization with overlap
     ethr =  2.75E-11,  avg # of iterations =  1.0

     negative rho (up, down):  2.245E-03 1.144E-03

     total cpu time spent up to now is      883.3 secs

     total energy              =   -6056.51438424 Ry
     estimated scf accuracy    <       0.00000005 Ry

     total magnetization       =    61.24 Bohr mag/cell
     absolute magnetization    =    68.73 Bohr mag/cell

     iteration # 54     ecut=    50.00 Ry     beta= 0.70
     Davidson diagonalization with overlap
     ethr =  1.40E-11,  avg # of iterations =  1.6

     negative rho (up, down):  2.240E-03 1.139E-03

     total cpu time spent up to now is      900.0 secs

     total energy              =   -6056.51438423 Ry
     estimated scf accuracy    <       0.00000009 Ry

     total magnetization       =    61.24 Bohr mag/cell
     absolute magnetization    =    68.73 Bohr mag/cell

     iteration # 55     ecut=    50.00 Ry     beta= 0.70
     Davidson diagonalization with overlap
     ethr =  1.40E-11,  avg # of iterations =  1.3

     negative rho (up, down):  2.245E-03 1.144E-03

     total cpu time spent up to now is      915.2 secs

     total energy              =   -6056.51438424 Ry
     estimated scf accuracy    <       0.00000001 Ry

     total magnetization       =    61.24 Bohr mag/cell
     absolute magnetization    =    68.73 Bohr mag/cell

     iteration # 56     ecut=    50.00 Ry     beta= 0.70
     Davidson diagonalization with overlap
     ethr =  3.57E-12,  avg # of iterations =  5.7

     negative rho (up, down):  2.243E-03 1.142E-03

     total cpu time spent up to now is      936.0 secs

     total energy              =   -6056.51438424 Ry
     estimated scf accuracy    <       0.00000002 Ry

     total magnetization       =    61.24 Bohr mag/cell
     absolute magnetization    =    68.73 Bohr mag/cell

     iteration # 57     ecut=    50.00 Ry     beta= 0.70
     Davidson diagonalization with overlap
     ethr =  3.57E-12,  avg # of iterations =  1.6

     negative rho (up, down):  2.239E-03 1.138E-03

     total cpu time spent up to now is      950.4 secs

     total energy              =   -6056.51438424 Ry
     estimated scf accuracy    <       0.00000001 Ry

     total magnetization       =    61.24 Bohr mag/cell
     absolute magnetization    =    68.73 Bohr mag/cell

     iteration # 58     ecut=    50.00 Ry     beta= 0.70
     Davidson diagonalization with overlap
     ethr =  3.57E-12,  avg # of iterations =  1.7

     negative rho (up, down):  2.235E-03 1.136E-03

     Magnetic moment per site  (integrated on atomic sphere of radius R)
     atom   1 (R=0.106)  charge=  6.3625  magn=  1.7821
     atom   2 (R=0.106)  charge=  6.3639  magn=  1.7773
     atom   3 (R=0.106)  charge=  6.3631  magn=  1.7830
     atom   4 (R=0.106)  charge=  6.3629  magn=  1.7840
     atom   5 (R=0.106)  charge=  6.3630  magn=  1.7835
     atom   6 (R=0.106)  charge=  6.3629  magn=  1.7891
     atom   7 (R=0.106)  charge=  6.3623  magn=  1.7911
     atom   8 (R=0.106)  charge=  6.3626  magn=  1.7819
     atom   9 (R=0.106)  charge=  6.3630  magn=  1.7841
     atom  10 (R=0.106)  charge=  6.3727  magn=  1.7061
     atom  11 (R=0.106)  charge=  6.3729  magn=  1.7064
     atom  12 (R=0.106)  charge=  6.3726  magn=  1.7074
     atom  13 (R=0.106)  charge=  6.3730  magn=  1.7072
     atom  14 (R=0.106)  charge=  6.3731  magn=  1.7050
     atom  15 (R=0.106)  charge=  6.3727  magn=  1.7136
     atom  16 (R=0.106)  charge=  6.3726  magn=  1.7070
     atom  17 (R=0.106)  charge=  6.3727  magn=  1.7133
     atom  18 (R=0.106)  charge=  6.3722  magn=  1.7109
     atom  19 (R=0.106)  charge=  6.3704  magn=  1.7161
     atom  20 (R=0.106)  charge=  6.3684  magn=  1.7450
     atom  21 (R=0.106)  charge=  6.3710  magn=  1.7123
     atom  22 (R=0.106)  charge=  6.3720  magn=  1.7136
     atom  23 (R=0.106)  charge=  6.3708  magn=  1.7127
     atom  24 (R=0.106)  charge=  6.3709  magn=  1.7169
     atom  25 (R=0.106)  charge=  6.3724  magn=  1.7156
     atom  26 (R=0.106)  charge=  6.3704  magn=  1.7154
     atom  27 (R=0.106)  charge=  6.3721  magn=  1.7161
     atom  28 (R=0.106)  charge=  6.3656  magn=  1.8013
     atom  29 (R=0.106)  charge=  6.3862  magn=  1.5754
     atom  30 (R=0.106)  charge=  6.3645  magn=  1.7939
     atom  31 (R=0.106)  charge=  6.3860  magn=  1.5817
     atom  32 (R=0.106)  charge=  6.3974  magn=  1.3489
     atom  33 (R=0.106)  charge=  6.3658  magn=  1.7686
     atom  34 (R=0.106)  charge=  6.3645  magn=  1.7951
     atom  35 (R=0.106)  charge=  6.3655  magn=  1.7676
     atom  36 (R=0.106)  charge=  6.3607  magn=  1.8007
     atom  37 (R=0.062)  charge=  0.9130  magn= -0.0203
     atom  38 (R=0.069)  charge=  3.1909  magn=  0.0354
     atom  39 (R=0.062)  charge=  0.5079  magn=  0.0102

     total cpu time spent up to now is      967.8 secs

     End of self-consistent calculation

 ------ SPIN UP ------------


          k = 0.0000 0.0000 0.0000 ( 51087 PWs)   bands (ev):

   -21.5306 -10.7229  -7.5334  -7.0165  -6.2949  -5.7135  -5.4566  -4.6364
    -4.6149  -4.6137  -4.6134  -4.6007  -4.5750  -4.5509  -4.2446  -4.0860
    -4.0807  -4.0801  -4.0615  -4.0274  -4.0237  -3.5810  -3.5627  -3.5617
    -3.5539  -3.5389  -3.5112  -3.4415  -3.4395  -3.4346  -3.4324  -3.4225
    -3.4082  -3.3601  -3.3584  -3.0782  -3.0460  -3.0445  -3.0440  -3.0374
    -3.0070  -2.9806  -2.9746  -2.9744  -2.9692  -2.9609  -2.9607  -2.8154
    -2.8137  -2.8030  -2.7722  -2.7422  -2.7415  -2.7390  -2.7222  -2.7136
    -2.7035  -2.7022  -2.7000  -2.6102  -2.6079  -2.6040  -2.6007  -2.5937
    -2.5387  -2.3236  -2.0839  -2.0678  -2.0675  -2.0603  -2.0510  -1.9931
    -1.9608  -1.9286  -1.9202  -1.9093  -1.9005  -1.8970  -1.8892  -1.8873
    -1.8801  -1.8313  -1.8282  -1.7794  -1.7782  -1.7766  -1.7625  -1.7518
    -1.7440  -1.7389  -1.7385  -1.7372  -1.7187  -1.7119  -1.7071  -1.7006
    -1.6978  -1.6935  -1.6929  -1.6906  -1.6898  -1.6841  -1.6826  -1.6814
    -1.6775  -1.6322  -1.6262  -1.6123  -1.6061  -1.5338  -1.5311  -1.4957
    -1.3052  -1.2828  -1.2376  -1.2324  -1.2302  -1.2258  -1.2209  -1.2191
    -1.2003  -1.1991  -1.1668  -1.1560  -1.1488  -1.0492  -1.0251  -1.0199
    -0.9919  -0.9809  -0.8917  -0.8477  -0.8275  -0.8173  -0.8102  -0.7997
    -0.7450  -0.7433  -0.7420  -0.7365  -0.7346  -0.7165  -0.6260  -0.6216
    -0.5120  -0.5039  -0.4954  -0.4949  -0.4661  -0.4583  -0.4388  -0.4338
    -0.4301  -0.4271  -0.4203  -0.4181  -0.4155  -0.4145  -0.4107  -0.4029
    -0.4013  -0.3997  -0.3828  -0.3714  -0.3580  -0.3523  -0.3467  -0.3413
    -0.3385  -0.3285  -0.3065  -0.3047  -0.2990  -0.2755  -0.2720  -0.2689
    -0.2591  -0.2560  -0.2529  -0.2419  -0.2294  -0.2039  -0.2001  -0.1942
    -0.1907  -0.1876  -0.1860  -0.1794  -0.1758  -0.1687  -0.1190  -0.1184
    -0.1019  -0.1002  -0.0378  -0.0351  -0.0313  -0.0259  -0.0227  -0.0172
     0.3790   1.1288

          k = 0.0000 0.2309 0.0000 ( 51134 PWs)   bands (ev):

   -21.5306 -10.7221  -7.3994  -6.9931  -6.2208  -5.7019  -5.4694  -5.2897
    -4.8599  -4.8499  -4.4808  -4.3459  -4.2742  -4.2704  -4.2059  -4.1525
    -4.1129  -4.0785  -4.0038  -3.9522  -3.9408  -3.6910  -3.5748  -3.5678
    -3.4990  -3.4723  -3.4472  -3.4427  -3.4405  -3.4269  -3.4172  -3.4002
    -3.3720  -3.3312  -3.3213  -3.2897  -3.2863  -3.1250  -3.0704  -3.0612
    -3.0343  -3.0065  -3.0017  -2.9932  -2.9406  -2.9044  -2.8729  -2.8522
    -2.8377  -2.8318  -2.8137  -2.7965  -2.7038  -2.7004  -2.6771  -2.6515
    -2.6306  -2.6144  -2.5963  -2.5841  -2.5749  -2.5454  -2.5290  -2.5201
    -2.4645  -2.3337  -2.2003  -2.1736  -2.1600  -2.1400  -2.0976  -2.0507
    -2.0303  -2.0224  -2.0193  -2.0085  -1.9929  -1.9829  -1.9604  -1.9286
    -1.8959  -1.8884  -1.8713  -1.8328  -1.8258  -1.8219  -1.8105  -1.7970
    -1.7893  -1.7830  -1.7780  -1.7755  -1.7658  -1.7545  -1.7130  -1.6983
    -1.6803  -1.6661  -1.6194  -1.6003  -1.5922  -1.5875  -1.5764  -1.5684
    -1.5582  -1.5500  -1.5451  -1.5365  -1.5330  -1.5094  -1.4908  -1.4846
    -1.4723  -1.4658  -1.4208  -1.3860  -1.3760  -1.3113  -1.2633  -1.2594
    -1.2520  -1.2416  -1.2340  -1.2308  -1.2263  -1.2182  -1.1305  -1.0882
    -1.0615  -1.0464  -0.9754  -0.9687  -0.9491  -0.9045  -0.8804  -0.8738
    -0.8267  -0.7979  -0.7726  -0.7492  -0.7338  -0.7312  -0.6936  -0.6865
    -0.6684  -0.6559  -0.6382  -0.6064  -0.6002  -0.5841  -0.5782  -0.5702
    -0.5254  -0.5034  -0.4952  -0.4897  -0.4728  -0.4451  -0.4326  -0.4292
    -0.4231  -0.4153  -0.4091  -0.3971  -0.3740  -0.3714  -0.3542  -0.3345
    -0.3086  -0.2939  -0.2812  -0.2685  -0.2422  -0.2405  -0.2010  -0.1919
    -0.1760  -0.1716  -0.1647  -0.1540  -0.1478  -0.1314  -0.1200  -0.1162
    -0.0800  -0.0384  -0.0364  -0.0280  -0.0036  -0.0023   0.0335   0.0399
     0.0513   0.0945   0.3160   0.3436   0.4291   0.5215   0.5896   0.6170
     0.6994   0.8325

          k = 0.0000 0.4619 0.0000 ( 51204 PWs)   bands (ev):

   -21.5306 -10.7209  -7.1309  -6.8252  -6.2501  -6.0256  -5.5680  -5.3082
    -5.0003  -4.9849  -4.8597  -4.1596  -4.1137  -4.1060  -4.0673  -4.0299
    -3.9177  -3.9134  -3.8713  -3.7905  -3.7822  -3.7721  -3.6650  -3.6049
    -3.5980  -3.5891  -3.5852  -3.5329  -3.5017  -3.4771  -3.4722  -3.3199
    -3.3153  -3.3065  -3.2961  -3.2716  -3.2654  -3.1897  -3.1582  -3.1523
    -3.1420  -3.1388  -3.0296  -2.9780  -2.9261  -2.8683  -2.8321  -2.8150
    -2.7970  -2.7662  -2.7525  -2.7496  -2.7454  -2.7141  -2.6737  -2.6533
    -2.6308  -2.5977  -2.5822  -2.5001  -2.4455  -2.4378  -2.4204  -2.3832
    -2.3323  -2.3141  -2.3051  -2.2925  -2.2525  -2.2008  -2.1827  -2.1553
    -2.1527  -2.1494  -2.1339  -2.1189  -2.1084  -2.1016  -2.0593  -2.0503
    -2.0197  -2.0046  -1.9791  -1.9678  -1.9322  -1.9172  -1.8742  -1.8439
    -1.8261  -1.8207  -1.7952  -1.7779  -1.7467  -1.7251  -1.7176  -1.7083
    -1.6999  -1.6850  -1.6719  -1.6506  -1.6493  -1.6299  -1.6171  -1.5998
    -1.5840  -1.5735  -1.5274  -1.5005  -1.4729  -1.4420  -1.4235  -1.4180
    -1.4006  -1.3845  -1.3514  -1.3104  -1.3072  -1.2908  -1.2789  -1.2736
    -1.2669  -1.2579  -1.2479  -1.2431  -1.2390  -1.2330  -1.2208  -1.2085
    -1.1972  -1.1717  -1.1013  -1.0728  -1.0534  -1.0412  -1.0196  -1.0041
    -0.9882  -0.9273  -0.9210  -0.8978  -0.8874  -0.8401  -0.8246  -0.7749
    -0.7655  -0.7351  -0.7159  -0.6901  -0.6844  -0.6699  -0.6381  -0.5898
    -0.5510  -0.5171  -0.4987  -0.4965  -0.4949  -0.4879  -0.4791  -0.4706
    -0.4482  -0.4249  -0.3920  -0.3459  -0.3323  -0.3303  -0.3224  -0.3195
    -0.3057  -0.2844  -0.2729  -0.2692  -0.2625  -0.2442  -0.1647  -0.1481
    -0.1438  -0.1388  -0.1120  -0.0705  -0.0458  -0.0411  -0.0058   0.0016
     0.0215   0.0691   0.0717   0.0926   0.0949   0.0989   0.1074   0.1267
     0.2040   0.2168   0.3028   0.9143   1.1184   1.2361   1.3317   1.3675
     1.5259   1.6980

          k = 0.2000-0.1155 0.0000 ( 51134 PWs)   bands (ev):

   -21.5306 -10.7222  -7.3994  -6.9931  -6.2200  -5.6995  -5.4712  -5.2913
    -4.8599  -4.8488  -4.4818  -4.3473  -4.2742  -4.2702  -4.2061  -4.1525
    -4.1122  -4.0775  -4.0049  -3.9523  -3.9397  -3.6919  -3.5744  -3.5676
    -3.5001  -3.4724  -3.4469  -3.4428  -3.4407  -3.4272  -3.4163  -3.4004
    -3.3713  -3.3316  -3.3208  -3.2899  -3.2860  -3.1238  -3.0726  -3.0611
    -3.0364  -3.0062  -3.0020  -2.9932  -2.9394  -2.9067  -2.8726  -2.8516
    -2.8374  -2.8317  -2.8133  -2.7970  -2.7050  -2.7007  -2.6787  -2.6499
    -2.6313  -2.6142  -2.5956  -2.5833  -2.5733  -2.5448  -2.5281  -2.5199
    -2.4653  -2.3347  -2.1995  -2.1740  -2.1598  -2.1395  -2.0979  -2.0510
    -2.0306  -2.0215  -2.0190  -2.0080  -1.9929  -1.9838  -1.9609  -1.9278
    -1.8953  -1.8880  -1.8711  -1.8317  -1.8258  -1.8208  -1.8105  -1.7970
    -1.7899  -1.7827  -1.7786  -1.7760  -1.7658  -1.7549  -1.7135  -1.6976
    -1.6808  -1.6675  -1.6191  -1.6003  -1.5918  -1.5874  -1.5762  -1.5687
    -1.5591  -1.5493  -1.5443  -1.5364  -1.5328  -1.5099  -1.4904  -1.4840
    -1.4723  -1.4656  -1.4214  -1.3877  -1.3755  -1.3099  -1.2624  -1.2595
    -1.2520  -1.2422  -1.2342  -1.2307  -1.2260  -1.2188  -1.1317  -1.0863
    -1.0595  -1.0457  -0.9753  -0.9690  -0.9494  -0.9051  -0.8802  -0.8739
    -0.8266  -0.7990  -0.7746  -0.7495  -0.7343  -0.7311  -0.6919  -0.6863
    -0.6684  -0.6564  -0.6378  -0.6068  -0.6010  -0.5834  -0.5783  -0.5703
    -0.5258  -0.5027  -0.4953  -0.4897  -0.4735  -0.4444  -0.4323  -0.4288
    -0.4227  -0.4148  -0.4093  -0.3977  -0.3745  -0.3697  -0.3514  -0.3398
    -0.3096  -0.2937  -0.2805  -0.2683  -0.2418  -0.2403  -0.2017  -0.1906
    -0.1760  -0.1712  -0.1658  -0.1549  -0.1471  -0.1314  -0.1199  -0.1163
    -0.0798  -0.0386  -0.0367  -0.0280  -0.0038  -0.0023   0.0346   0.0405
     0.0510   0.0948   0.3168   0.3439   0.4267   0.5234   0.5881   0.6193
     0.6978   0.8256

          k = 0.2000 0.1155 0.0000 ( 51134 PWs)   bands (ev):

   -21.5306 -10.7225  -7.4005  -6.9932  -6.2120  -5.6736  -5.4627  -5.3449
    -4.8550  -4.8356  -4.4873  -4.3679  -4.2762  -4.2670  -4.2075  -4.1590
    -4.0946  -4.0692  -4.0121  -3.9471  -3.9390  -3.6885  -3.5809  -3.5698
    -3.4908  -3.4664  -3.4451  -3.4438  -3.4394  -3.4357  -3.4112  -3.4035
    -3.3680  -3.3278  -3.3265  -3.2882  -3.2853  -3.1073  -3.0735  -3.0651
    -3.0450  -3.0168  -3.0037  -2.9987  -2.9320  -2.9045  -2.8879  -2.8504
    -2.8355  -2.8334  -2.8137  -2.8060  -2.7140  -2.7026  -2.6920  -2.6550
    -2.6346  -2.6044  -2.5984  -2.5778  -2.5593  -2.5312  -2.5256  -2.5237
    -2.4737  -2.3316  -2.2133  -2.1792  -2.1663  -2.1321  -2.0869  -2.0389
    -2.0358  -2.0281  -2.0141  -2.0072  -2.0006  -1.9769  -1.9500  -1.9252
    -1.9046  -1.8823  -1.8601  -1.8367  -1.8239  -1.8209  -1.8117  -1.7921
    -1.7897  -1.7867  -1.7805  -1.7743  -1.7605  -1.7399  -1.7222  -1.7095
    -1.6774  -1.6496  -1.6111  -1.5923  -1.5900  -1.5853  -1.5772  -1.5645
    -1.5569  -1.5540  -1.5478  -1.5340  -1.5330  -1.5177  -1.4952  -1.4867
    -1.4715  -1.4644  -1.4294  -1.3977  -1.3765  -1.3106  -1.2587  -1.2574
    -1.2562  -1.2460  -1.2387  -1.2321  -1.2276  -1.2261  -1.1000  -1.0767
    -1.0587  -1.0434  -0.9719  -0.9706  -0.9462  -0.9106  -0.8794  -0.8777
    -0.8186  -0.7878  -0.7725  -0.7554  -0.7435  -0.7320  -0.6953  -0.6916
    -0.6648  -0.6544  -0.6386  -0.6058  -0.5947  -0.5851  -0.5814  -0.5710
    -0.5279  -0.5033  -0.4956  -0.4873  -0.4772  -0.4385  -0.4351  -0.4257
    -0.4240  -0.4105  -0.4083  -0.3910  -0.3771  -0.3740  -0.3517  -0.3442
    -0.3031  -0.2901  -0.2690  -0.2644  -0.2484  -0.2419  -0.2008  -0.1972
    -0.1779  -0.1759  -0.1687  -0.1547  -0.1411  -0.1317  -0.1191  -0.1182
    -0.0786  -0.0413  -0.0372  -0.0284  -0.0032  -0.0022   0.0341   0.0492
     0.0575   0.0914   0.3034   0.3372   0.3846   0.5148   0.5735   0.6159
     0.7111   0.7884

          k = 0.2000 0.3464 0.0000 ( 51202 PWs)   bands (ev):

   -21.5306 -10.7216  -7.1919  -6.9026  -6.1176  -5.7480  -5.6874  -5.4786
    -5.3848  -4.5796  -4.5188  -4.2806  -4.2693  -4.2174  -4.0638  -4.0567
    -3.9658  -3.9632  -3.9444  -3.8268  -3.8035  -3.6914  -3.6822  -3.6186
    -3.5710  -3.4825  -3.4797  -3.4537  -3.4370  -3.4223  -3.4118  -3.3922
    -3.3760  -3.3587  -3.3441  -3.3103  -3.2643  -3.2388  -3.2241  -3.1225
    -3.0975  -3.0227  -3.0014  -2.9688  -2.9587  -2.9468  -2.8713  -2.8459
    -2.7984  -2.7751  -2.7667  -2.7626  -2.7184  -2.7036  -2.6852  -2.6775
    -2.6642  -2.5816  -2.5385  -2.4874  -2.4825  -2.4607  -2.4525  -2.4235
    -2.4099  -2.3054  -2.2715  -2.2296  -2.2132  -2.1739  -2.1551  -2.1367
    -2.1272  -2.1136  -2.1053  -2.0929  -2.0718  -2.0559  -2.0529  -2.0422
    -2.0253  -1.9866  -1.9446  -1.9253  -1.8607  -1.8547  -1.8487  -1.8213
    -1.8088  -1.7838  -1.7737  -1.7466  -1.7323  -1.7168  -1.7030  -1.6993
    -1.6854  -1.6768  -1.6640  -1.6539  -1.6452  -1.6339  -1.6192  -1.6017
    -1.5939  -1.5784  -1.5369  -1.5256  -1.5077  -1.4811  -1.4631  -1.4599
    -1.4395  -1.4300  -1.4135  -1.3820  -1.3590  -1.3566  -1.3314  -1.2949
    -1.2868  -1.2818  -1.2788  -1.2539  -1.2434  -1.2335  -1.2183  -1.1789
    -1.1363  -1.1142  -1.1045  -1.0616  -0.9866  -0.9826  -0.9642  -0.8814
    -0.8558  -0.8465  -0.8415  -0.8321  -0.8210  -0.8144  -0.7937  -0.7883
    -0.7615  -0.7428  -0.7173  -0.6853  -0.6770  -0.6654  -0.6515  -0.6398
    -0.6118  -0.6011  -0.5700  -0.5591  -0.5521  -0.5106  -0.4563  -0.4035
    -0.3938  -0.3662  -0.3572  -0.3429  -0.3302  -0.3208  -0.3150  -0.3056
    -0.3008  -0.2971  -0.2296  -0.2158  -0.2026  -0.1937  -0.1527  -0.1419
    -0.1247  -0.1200  -0.1174  -0.1009  -0.0921  -0.0814  -0.0759  -0.0612
    -0.0527  -0.0363   0.0365   0.0428   0.0468   0.0953   0.0988   0.1053
     0.4213   0.4370   0.5160   0.5709   0.7270   0.7751   1.0346   1.2569
     1.3426   1.4879

          k = 0.2000-0.5774 0.0000 ( 51262 PWs)   bands (ev):

   -21.5306 -10.7208  -7.0883  -6.4870  -6.4571  -6.0163  -5.7756  -5.5132
    -5.1085  -5.0111  -4.6052  -4.2628  -4.0250  -3.9809  -3.8801  -3.8472
    -3.8453  -3.8222  -3.8158  -3.7836  -3.7441  -3.7333  -3.7288  -3.7234
    -3.6494  -3.6164  -3.5831  -3.5753  -3.5548  -3.5499  -3.4401  -3.4168
    -3.3966  -3.3862  -3.3694  -3.3339  -3.2571  -3.2320  -3.1366  -3.1088
    -3.1026  -3.0432  -3.0202  -3.0024  -2.9747  -2.9056  -2.8908  -2.8826
    -2.8189  -2.8108  -2.7553  -2.7117  -2.6869  -2.6643  -2.6322  -2.6064
    -2.5597  -2.5232  -2.5115  -2.5038  -2.4957  -2.4711  -2.4552  -2.3861
    -2.3339  -2.3106  -2.2987  -2.2865  -2.2653  -2.2242  -2.1975  -2.1793
    -2.1514  -2.1291  -2.1162  -2.1068  -2.0952  -2.0725  -2.0474  -2.0374
    -2.0264  -2.0145  -2.0033  -1.9749  -1.9711  -1.9581  -1.8997  -1.8926
    -1.8720  -1.8358  -1.8094  -1.7938  -1.7532  -1.7438  -1.7322  -1.7060
    -1.6991  -1.6808  -1.6795  -1.6712  -1.6581  -1.6418  -1.6249  -1.6016
    -1.5529  -1.5404  -1.5261  -1.5236  -1.5064  -1.4988  -1.4974  -1.4852
    -1.4772  -1.4667  -1.4516  -1.4261  -1.4011  -1.3730  -1.3665  -1.3355
    -1.2840  -1.2697  -1.2423  -1.2284  -1.2222  -1.2036  -1.1949  -1.1457
    -1.1256  -1.1153  -1.1075  -1.0457  -1.0137  -0.9842  -0.9712  -0.9484
    -0.9381  -0.9259  -0.9114  -0.8929  -0.8640  -0.8553  -0.8292  -0.7983
    -0.7819  -0.7690  -0.7525  -0.7310  -0.7174  -0.6847  -0.6643  -0.6533
    -0.6354  -0.6234  -0.6207  -0.6007  -0.5647  -0.5337  -0.5242  -0.4329
    -0.3593  -0.3504  -0.3459  -0.3384  -0.3293  -0.3231  -0.3132  -0.3036
    -0.2679  -0.2614  -0.2517  -0.2423  -0.2234  -0.1927  -0.1270  -0.1221
    -0.1113  -0.0985  -0.0796  -0.0728  -0.0334  -0.0209  -0.0159  -0.0059
     0.0039   0.0728   0.0775   0.0868   0.0984   0.1017   0.1254   0.1527
     0.2399   0.4541   0.5132   0.7802   1.2723   1.3720   1.5098   1.6624
     1.8621   1.9338

          k = 0.2000-0.3464 0.0000 ( 51202 PWs)   bands (ev):

   -21.5306 -10.7211  -7.1843  -6.9121  -6.1266  -5.7757  -5.6903  -5.4832
    -5.3330  -4.5988  -4.4972  -4.2806  -4.2711  -4.2133  -4.0632  -4.0570
    -3.9697  -3.9554  -3.9365  -3.8282  -3.8124  -3.6926  -3.6816  -3.6217
    -3.5730  -3.4974  -3.4804  -3.4592  -3.4261  -3.4244  -3.4154  -3.4015
    -3.3763  -3.3612  -3.3512  -3.3082  -3.2643  -3.2283  -3.2211  -3.1242
    -3.1077  -3.0028  -2.9931  -2.9783  -2.9613  -2.9451  -2.8509  -2.7995
    -2.7921  -2.7866  -2.7687  -2.7593  -2.7119  -2.7081  -2.6869  -2.6775
    -2.6622  -2.5494  -2.5394  -2.5233  -2.4851  -2.4637  -2.4400  -2.4256
    -2.4046  -2.3222  -2.2877  -2.2301  -2.2026  -2.1791  -2.1637  -2.1396
    -2.1296  -2.1171  -2.1040  -2.0920  -2.0728  -2.0590  -2.0507  -2.0416
    -2.0297  -1.9870  -1.9434  -1.9224  -1.8672  -1.8577  -1.8318  -1.8259
    -1.8146  -1.7826  -1.7717  -1.7499  -1.7419  -1.7183  -1.7022  -1.6981
    -1.6809  -1.6787  -1.6725  -1.6546  -1.6442  -1.6401  -1.6124  -1.6063
    -1.5894  -1.5848  -1.5596  -1.5189  -1.5089  -1.4873  -1.4648  -1.4623
    -1.4407  -1.4308  -1.4252  -1.3754  -1.3606  -1.3548  -1.3319  -1.3128
    -1.2825  -1.2803  -1.2754  -1.2579  -1.2456  -1.2295  -1.2159  -1.1732
    -1.1413  -1.1129  -1.1093  -1.0594  -1.0037  -0.9820  -0.9649  -0.8667
    -0.8561  -0.8444  -0.8376  -0.8329  -0.8212  -0.8167  -0.7945  -0.7737
    -0.7568  -0.7369  -0.7208  -0.6886  -0.6841  -0.6612  -0.6532  -0.6427
    -0.6139  -0.5812  -0.5785  -0.5584  -0.5551  -0.5152  -0.4424  -0.4063
    -0.3888  -0.3633  -0.3588  -0.3502  -0.3389  -0.3240  -0.3155  -0.3096
    -0.2992  -0.2969  -0.2216  -0.2141  -0.1959  -0.1913  -0.1555  -0.1341
    -0.1282  -0.1222  -0.1210  -0.0970  -0.0878  -0.0835  -0.0741  -0.0593
    -0.0521  -0.0305   0.0348   0.0432   0.0480   0.0963   0.0988   0.1108
     0.3964   0.4385   0.5171   0.5732   0.6807   0.7821   1.1590   1.2927
     1.3163   1.5292

          k = 0.4000-0.2309 0.0000 ( 51204 PWs)   bands (ev):

   -21.5306 -10.7211  -7.1310  -6.8246  -6.2477  -6.0251  -5.5653  -5.3133
    -5.0004  -4.9834  -4.8623  -4.1605  -4.1132  -4.1051  -4.0667  -4.0310
    -3.9175  -3.9134  -3.8718  -3.7905  -3.7821  -3.7722  -3.6663  -3.6048
    -3.5975  -3.5891  -3.5851  -3.5334  -3.5030  -3.4773  -3.4720  -3.3200
    -3.3148  -3.3054  -3.2951  -3.2715  -3.2652  -3.1896  -3.1601  -3.1522
    -3.1421  -3.1394  -3.0300  -2.9806  -2.9266  -2.8692  -2.8327  -2.8157
    -2.7969  -2.7676  -2.7523  -2.7494  -2.7446  -2.7155  -2.6715  -2.6532
    -2.6308  -2.5971  -2.5829  -2.4988  -2.4453  -2.4381  -2.4199  -2.3835
    -2.3324  -2.3131  -2.3057  -2.2924  -2.2513  -2.2003  -2.1775  -2.1561
    -2.1524  -2.1488  -2.1337  -2.1185  -2.1081  -2.1017  -2.0603  -2.0498
    -2.0204  -2.0034  -1.9785  -1.9674  -1.9326  -1.9162  -1.8738  -1.8426
    -1.8257  -1.8203  -1.7956  -1.7783  -1.7463  -1.7265  -1.7176  -1.7084
    -1.7003  -1.6851  -1.6725  -1.6511  -1.6495  -1.6298  -1.6170  -1.5998
    -1.5846  -1.5738  -1.5271  -1.4994  -1.4739  -1.4424  -1.4238  -1.4189
    -1.3998  -1.3844  -1.3496  -1.3104  -1.3069  -1.2899  -1.2793  -1.2736
    -1.2664  -1.2568  -1.2485  -1.2431  -1.2390  -1.2336  -1.2207  -1.2085
    -1.1975  -1.1718  -1.1025  -1.0729  -1.0532  -1.0407  -1.0197  -1.0049
    -0.9876  -0.9251  -0.9209  -0.8974  -0.8877  -0.8406  -0.8243  -0.7736
    -0.7656  -0.7369  -0.7149  -0.6905  -0.6850  -0.6704  -0.6396  -0.5915
    -0.5492  -0.5177  -0.4988  -0.4963  -0.4944  -0.4872  -0.4788  -0.4702
    -0.4446  -0.4289  -0.3919  -0.3465  -0.3328  -0.3298  -0.3224  -0.3198
    -0.3052  -0.2844  -0.2733  -0.2696  -0.2624  -0.2439  -0.1648  -0.1478
    -0.1439  -0.1384  -0.1119  -0.0720  -0.0458  -0.0412  -0.0073   0.0026
     0.0217   0.0692   0.0717   0.0929   0.0946   0.0990   0.1098   0.1260
     0.2041   0.2169   0.2979   0.9221   1.1040   1.2375   1.3319   1.3662
     1.5244   1.7001

          k = 0.4000 0.0000 0.0000 ( 51202 PWs)   bands (ev):

   -21.5306 -10.7218  -7.1919  -6.9023  -6.1162  -5.7451  -5.6881  -5.4796
    -5.3872  -4.5782  -4.5209  -4.2805  -4.2689  -4.2180  -4.0638  -4.0569
    -3.9660  -3.9635  -3.9453  -3.8266  -3.8022  -3.6915  -3.6828  -3.6179
    -3.5710  -3.4827  -3.4793  -3.4545  -3.4369  -3.4222  -3.4127  -3.3911
    -3.3758  -3.3590  -3.3415  -3.3109  -3.2643  -3.2408  -3.2241  -3.1230
    -3.0971  -3.0240  -3.0013  -2.9687  -2.9583  -2.9467  -2.8773  -2.8457
    -2.7983  -2.7742  -2.7661  -2.7626  -2.7186  -2.7034  -2.6843  -2.6779
    -2.6644  -2.5815  -2.5388  -2.4873  -2.4800  -2.4607  -2.4516  -2.4224
    -2.4106  -2.3038  -2.2712  -2.2301  -2.2142  -2.1746  -2.1541  -2.1384
    -2.1268  -2.1131  -2.1046  -2.0927  -2.0718  -2.0566  -2.0534  -2.0421
    -2.0237  -1.9859  -1.9446  -1.9259  -1.8604  -1.8538  -1.8474  -1.8216
    -1.8097  -1.7848  -1.7731  -1.7477  -1.7337  -1.7162  -1.7026  -1.6992
    -1.6854  -1.6771  -1.6636  -1.6534  -1.6459  -1.6338  -1.6198  -1.6017
    -1.5937  -1.5778  -1.5364  -1.5248  -1.5072  -1.4809  -1.4630  -1.4602
    -1.4388  -1.4293  -1.4112  -1.3833  -1.3585  -1.3564  -1.3313  -1.2938
    -1.2868  -1.2817  -1.2785  -1.2544  -1.2431  -1.2334  -1.2181  -1.1796
    -1.1362  -1.1137  -1.1045  -1.0610  -0.9881  -0.9826  -0.9638  -0.8805
    -0.8571  -0.8467  -0.8413  -0.8331  -0.8210  -0.8134  -0.7958  -0.7898
    -0.7604  -0.7430  -0.7172  -0.6854  -0.6770  -0.6659  -0.6519  -0.6397
    -0.6122  -0.6011  -0.5697  -0.5590  -0.5508  -0.5108  -0.4581  -0.4027
    -0.3943  -0.3664  -0.3572  -0.3451  -0.3263  -0.3212  -0.3156  -0.3060
    -0.3000  -0.2970  -0.2295  -0.2164  -0.2021  -0.1932  -0.1529  -0.1421
    -0.1248  -0.1212  -0.1172  -0.1020  -0.0923  -0.0810  -0.0767  -0.0602
    -0.0521  -0.0362   0.0367   0.0429   0.0465   0.0951   0.0986   0.1051
     0.4213   0.4370   0.5146   0.5702   0.7306   0.7737   1.0356   1.2569
     1.3400   1.4909

          k = 0.4000 0.2309 0.0000 ( 51204 PWs)   bands (ev):

   -21.5306 -10.7219  -7.1447  -6.8117  -6.2131  -6.0256  -5.4750  -5.4475
    -4.9991  -4.9574  -4.9013  -4.1746  -4.1050  -4.0881  -4.0571  -4.0373
    -3.9184  -3.9104  -3.8747  -3.7833  -3.7810  -3.7756  -3.6785  -3.6033
    -3.5995  -3.5870  -3.5821  -3.5366  -3.4886  -3.4739  -3.4657  -3.3331
    -3.3179  -3.2927  -3.2879  -3.2636  -3.2616  -3.1857  -3.1530  -3.1514
    -3.1429  -3.1405  -3.0435  -2.9977  -2.9514  -2.8728  -2.8501  -2.8123
    -2.8040  -2.7673  -2.7573  -2.7478  -2.7470  -2.7278  -2.6617  -2.6576
    -2.6309  -2.6128  -2.5871  -2.4887  -2.4440  -2.4355  -2.4311  -2.3759
    -2.3298  -2.3159  -2.3088  -2.2941  -2.2326  -2.2214  -2.1793  -2.1598
    -2.1495  -2.1463  -2.1302  -2.1168  -2.1052  -2.1019  -2.0714  -2.0320
    -2.0213  -1.9970  -1.9764  -1.9508  -1.9313  -1.9043  -1.8648  -1.8532
    -1.8282  -1.8223  -1.7990  -1.7801  -1.7426  -1.7190  -1.7164  -1.7120
    -1.6948  -1.6759  -1.6681  -1.6482  -1.6429  -1.6331  -1.6084  -1.5875
    -1.5829  -1.5773  -1.5275  -1.4795  -1.4628  -1.4466  -1.4313  -1.4159
    -1.3881  -1.3822  -1.3456  -1.3097  -1.2989  -1.2895  -1.2773  -1.2769
    -1.2657  -1.2602  -1.2522  -1.2457  -1.2419  -1.2403  -1.2211  -1.2050
    -1.1808  -1.1567  -1.1185  -1.0732  -1.0538  -1.0316  -1.0217  -0.9822
    -0.9756  -0.9412  -0.9242  -0.8949  -0.8927  -0.8363  -0.8325  -0.7902
    -0.7706  -0.7353  -0.7126  -0.6952  -0.6829  -0.6667  -0.6344  -0.6075
    -0.5454  -0.5312  -0.5055  -0.4957  -0.4922  -0.4794  -0.4775  -0.4654
    -0.4457  -0.4277  -0.4087  -0.3437  -0.3412  -0.3252  -0.3235  -0.3165
    -0.3027  -0.2758  -0.2710  -0.2690  -0.2616  -0.2432  -0.1651  -0.1469
    -0.1443  -0.1393  -0.1096  -0.0811  -0.0473  -0.0429  -0.0103  -0.0026
     0.0217   0.0693   0.0713   0.0932   0.0954   0.0979   0.1262   0.1392
     0.2001   0.2141   0.2501   0.9345   1.0740   1.1804   1.3192   1.3417
     1.5578   1.7083

          k = 0.4000-0.6928 0.0000 ( 51262 PWs)   bands (ev):

   -21.5306 -10.7214  -7.0978  -6.4736  -6.4302  -6.0454  -5.7792  -5.4265
    -5.2128  -5.0296  -4.5677  -4.2586  -4.0271  -3.9852  -3.8972  -3.8477
    -3.8433  -3.8259  -3.8122  -3.7888  -3.7373  -3.7345  -3.7301  -3.7175
    -3.6545  -3.6165  -3.5827  -3.5709  -3.5568  -3.5529  -3.4256  -3.3970
    -3.3945  -3.3836  -3.3602  -3.3231  -3.2832  -3.2260  -3.1447  -3.1064
    -3.1036  -3.0560  -3.0239  -3.0049  -2.9748  -2.9013  -2.8979  -2.8824
    -2.8261  -2.8154  -2.7746  -2.7157  -2.6909  -2.6714  -2.6300  -2.6046
    -2.5567  -2.5258  -2.5174  -2.5053  -2.4957  -2.4731  -2.4587  -2.3808
    -2.3155  -2.3098  -2.3000  -2.2899  -2.2578  -2.2276  -2.2092  -2.1767
    -2.1539  -2.1271  -2.1147  -2.1072  -2.0906  -2.0667  -2.0477  -2.0352
    -2.0306  -2.0124  -2.0083  -1.9756  -1.9732  -1.9161  -1.9026  -1.8866
    -1.8842  -1.8575  -1.8057  -1.7877  -1.7587  -1.7344  -1.7143  -1.7082
    -1.6911  -1.6856  -1.6763  -1.6699  -1.6548  -1.6294  -1.6232  -1.5883
    -1.5409  -1.5392  -1.5276  -1.5099  -1.5051  -1.5003  -1.4961  -1.4845
    -1.4743  -1.4691  -1.4525  -1.4265  -1.4058  -1.3759  -1.3630  -1.3499
    -1.2886  -1.2702  -1.2410  -1.2242  -1.2201  -1.2055  -1.1977  -1.1565
    -1.1307  -1.1157  -1.1124  -1.0355  -1.0025  -0.9871  -0.9656  -0.9544
    -0.9386  -0.9126  -0.9076  -0.8938  -0.8690  -0.8588  -0.8150  -0.8077
    -0.7783  -0.7620  -0.7437  -0.7382  -0.7226  -0.6792  -0.6595  -0.6546
    -0.6450  -0.6291  -0.6199  -0.6095  -0.5627  -0.5409  -0.5196  -0.4385
    -0.3634  -0.3503  -0.3419  -0.3369  -0.3302  -0.3227  -0.3145  -0.3103
    -0.2676  -0.2597  -0.2525  -0.2443  -0.2205  -0.1908  -0.1276  -0.1236
    -0.1200  -0.0962  -0.0762  -0.0682  -0.0334  -0.0209  -0.0141  -0.0077
    -0.0020   0.0751   0.0758   0.0929   0.0998   0.1055   0.1207   0.1504
     0.1738   0.4751   0.5466   0.8146   1.2033   1.3725   1.4664   1.7369
     1.7830   1.8715

          k = 0.4000-0.4619 0.0000 ( 51262 PWs)   bands (ev):

   -21.5306 -10.7209  -7.0884  -6.4857  -6.4563  -6.0176  -5.7757  -5.5084
    -5.1161  -5.0106  -4.6027  -4.2625  -4.0251  -3.9816  -3.8821  -3.8474
    -3.8453  -3.8221  -3.8156  -3.7837  -3.7436  -3.7332  -3.7291  -3.7235
    -3.6495  -3.6166  -3.5832  -3.5749  -3.5549  -3.5501  -3.4413  -3.4153
    -3.3967  -3.3866  -3.3686  -3.3333  -3.2560  -3.2323  -3.1379  -3.1100
    -3.1028  -3.0440  -3.0198  -3.0023  -2.9748  -2.9066  -2.8910  -2.8824
    -2.8193  -2.8100  -2.7573  -2.7124  -2.6865  -2.6647  -2.6307  -2.6067
    -2.5595  -2.5230  -2.5117  -2.5037  -2.4957  -2.4710  -2.4547  -2.3865
    -2.3324  -2.3112  -2.2995  -2.2867  -2.2647  -2.2242  -2.1966  -2.1766
    -2.1491  -2.1303  -2.1158  -2.1066  -2.0960  -2.0733  -2.0474  -2.0375
    -2.0259  -2.0144  -2.0036  -1.9736  -1.9710  -1.9554  -1.8998  -1.8921
    -1.8714  -1.8363  -1.8096  -1.7952  -1.7540  -1.7440  -1.7319  -1.7062
    -1.6992  -1.6810  -1.6791  -1.6714  -1.6591  -1.6427  -1.6243  -1.6003
    -1.5527  -1.5401  -1.5264  -1.5235  -1.5065  -1.4988  -1.4970  -1.4853
    -1.4771  -1.4664  -1.4526  -1.4260  -1.4013  -1.3731  -1.3663  -1.3350
    -1.2838  -1.2696  -1.2437  -1.2281  -1.2218  -1.2035  -1.1945  -1.1467
    -1.1254  -1.1155  -1.1079  -1.0450  -1.0147  -0.9840  -0.9687  -0.9476
    -0.9380  -0.9263  -0.9121  -0.8929  -0.8642  -0.8550  -0.8295  -0.7983
    -0.7818  -0.7686  -0.7524  -0.7306  -0.7181  -0.6849  -0.6642  -0.6527
    -0.6355  -0.6240  -0.6208  -0.6016  -0.5640  -0.5345  -0.5230  -0.4339
    -0.3586  -0.3501  -0.3457  -0.3382  -0.3296  -0.3231  -0.3133  -0.3052
    -0.2674  -0.2617  -0.2523  -0.2423  -0.2221  -0.1928  -0.1273  -0.1218
    -0.1120  -0.0983  -0.0792  -0.0729  -0.0332  -0.0209  -0.0155  -0.0057
     0.0024   0.0724   0.0775   0.0899   0.0989   0.1024   0.1253   0.1527
     0.2308   0.4558   0.5161   0.7780   1.2758   1.3722   1.5089   1.6665
     1.8548   1.9299

 ------ SPIN DOWN ----------


          k = 0.0000 0.0000 0.0000 ( 51087 PWs)   bands (ev):

   -21.4661 -10.7419  -7.6523  -6.9342  -6.3270  -5.6796  -5.4328  -4.4435
    -4.4202  -4.4163  -4.4161  -4.4030  -4.3744  -4.2704  -3.5515  -3.5446
    -3.5429  -3.5194  -3.5129  -3.4825  -3.3630  -2.6310  -2.5954  -2.5944
    -2.5840  -2.5694  -2.5138  -2.2398  -2.1389  -2.1290  -2.1238  -2.1224
    -2.1106  -1.9360  -1.9316  -1.8987  -1.8474  -1.8337  -1.8333  -1.8142
    -1.7483  -1.7463  -1.6933  -1.6928  -1.6652  -1.6001  -1.5806  -1.5800
    -1.5496  -1.4671  -1.3936  -1.3264  -1.3168  -1.3149  -1.2929  -1.2902
    -1.2866  -1.2851  -1.2703  -1.2460  -1.2358  -1.2131  -1.2124  -1.2086
    -1.1859  -1.0846  -0.8574  -0.6550  -0.6482  -0.6351  -0.6345  -0.4846
    -0.4239  -0.3596  -0.3312  -0.3125  -0.3076  -0.3073  -0.2902  -0.2810
    -0.2498  -0.2415  -0.2218  -0.2162  -0.2135  -0.2127  -0.1530  -0.1500
    -0.1406  -0.1128  -0.1087  -0.1016  -0.0715  -0.0631  -0.0605  -0.0512
    -0.0506  -0.0496  -0.0294  -0.0245  -0.0244  -0.0228   0.0332   0.0594
     0.1105   0.1353   0.1359   0.1807   0.1856   0.1984   0.2025   0.2035
     0.2080   0.2118   0.2128   0.2301   0.2843   0.2844   0.3458   0.3558
     0.3770   0.3853   0.3958   0.4026   0.5818   0.5842   0.6288   0.6320
     0.6630   0.6843   0.6892   0.6915   0.7804   0.9625   0.9737   1.0236
     1.0248   1.1842   1.1932   1.2236   1.2491   1.2527   1.2598   1.2685
     1.3997   1.4075   1.4121   1.4240   1.4290   1.4346   1.4352   1.4612
     1.4813   1.5023   1.5146   1.5282   1.5437   1.5516   1.5632   1.5745
     1.5768   1.5805   1.5849   1.6097   1.6111   1.6469   1.6641   1.6766
     1.6800   1.6953   1.7002   1.7023   1.7084   1.7100   1.7194   1.7458
     1.7549   1.7788   1.7830   1.7846   1.7853   1.7983   1.8011   1.8079
     1.8397   1.8471   1.8504   1.8549   1.8582   1.8594   1.8665   1.8711
     1.8864   1.8871   1.9318   1.9331   2.0783   2.0823   2.0875   2.0890
     2.0912   2.0917

          k = 0.0000 0.2309 0.0000 ( 51134 PWs)   bands (ev):

   -21.4661 -10.7411  -7.5087  -6.9155  -6.2419  -5.7003  -5.4540  -5.2987
    -4.7985  -4.7870  -4.2676  -4.1249  -3.8695  -3.8647  -3.7698  -3.7324
    -3.5766  -3.3116  -3.1908  -3.1793  -3.0873  -2.8127  -2.6197  -2.5834
    -2.5508  -2.4962  -2.4741  -2.2977  -2.1896  -2.1622  -2.1586  -2.1485
    -2.1157  -2.0779  -2.0720  -2.0568  -2.0293  -1.9201  -1.8927  -1.8678
    -1.8047  -1.7979  -1.7430  -1.6350  -1.6174  -1.6048  -1.5769  -1.5114
    -1.4554  -1.4244  -1.3980  -1.3636  -1.3413  -1.3262  -1.3071  -1.2981
    -1.2948  -1.2750  -1.2220  -1.1770  -1.1697  -1.1504  -1.1267  -1.0996
    -1.0398  -0.9787  -0.8737  -0.7009  -0.6894  -0.6786  -0.6485  -0.5864
    -0.5342  -0.5195  -0.4775  -0.4566  -0.3587  -0.3489  -0.3283  -0.3095
    -0.2879  -0.2817  -0.2698  -0.2616  -0.2488  -0.2340  -0.1981  -0.1517
    -0.1320  -0.1065  -0.1017  -0.0996  -0.0747  -0.0490  -0.0418  -0.0298
    -0.0241  -0.0141  -0.0053   0.0002   0.0027   0.0043   0.0354   0.0504
     0.0826   0.0884   0.0993   0.1026   0.1285   0.1480   0.1570   0.1747
     0.2066   0.2131   0.2588   0.2741   0.3037   0.3171   0.3205   0.3508
     0.4701   0.4868   0.5450   0.5576   0.5769   0.6062   0.6165   0.6344
     0.6470   0.6566   0.6662   0.6710   0.8800   0.9428   0.9676   0.9944
     0.9997   1.0159   1.0377   1.0469   1.0899   1.1287   1.1829   1.1928
     1.2192   1.2612   1.2738   1.3109   1.3180   1.3414   1.3654   1.4033
     1.4217   1.4603   1.4724   1.4865   1.4983   1.5143   1.5379   1.5493
     1.5742   1.5985   1.6162   1.6284   1.6549   1.6683   1.6796   1.7099
     1.7215   1.7353   1.7468   1.7512   1.7593   1.7761   1.8277   1.8322
     1.8393   1.8449   1.8802   1.8879   1.8998   1.9186   1.9282   1.9361
     1.9501   1.9846   1.9903   1.9967   2.0196   2.0241   2.0268   2.0488
     2.0524   2.0768   2.0791   2.0921   2.1706   2.1849   2.1904   2.2210
     2.2614   2.2837

          k = 0.0000 0.4619 0.0000 ( 51204 PWs)   bands (ev):

   -21.4661 -10.7399  -7.1297  -6.8517  -6.3308  -6.0273  -5.5876  -5.3119
    -5.0139  -4.9917  -4.8448  -3.9322  -3.8959  -3.7854  -3.2955  -3.2500
    -3.2465  -3.1339  -2.9729  -2.9292  -2.8010  -2.7982  -2.6524  -2.6480
    -2.6095  -2.5766  -2.5421  -2.4900  -2.4158  -2.4015  -2.3788  -2.3313
    -2.3257  -2.1433  -2.1174  -2.0714  -2.0298  -1.9781  -1.9196  -1.9094
    -1.8973  -1.8770  -1.7712  -1.6296  -1.5972  -1.5745  -1.5508  -1.5077
    -1.3896  -1.3802  -1.3630  -1.3494  -1.3437  -1.3193  -1.3098  -1.2968
    -1.2560  -1.2116  -1.1945  -1.1831  -1.1627  -1.1259  -1.0276  -0.9439
    -0.9125  -0.8392  -0.8188  -0.7257  -0.7142  -0.6855  -0.6518  -0.6424
    -0.6209  -0.6100  -0.5746  -0.5454  -0.5226  -0.4823  -0.4520  -0.4349
    -0.4088  -0.3749  -0.3596  -0.3498  -0.3258  -0.3086  -0.2487  -0.1973
    -0.1658  -0.1645  -0.1352  -0.1000  -0.0771  -0.0580  -0.0474  -0.0161
     0.0069   0.0180   0.0337   0.0436   0.0531   0.0580   0.0777   0.1002
     0.1131   0.1404   0.1468   0.1583   0.1643   0.1710   0.1883   0.2153
     0.2182   0.2400   0.2808   0.3578   0.3631   0.3693   0.4029   0.4186
     0.4235   0.4464   0.4555   0.5168   0.5243   0.5346   0.5539   0.5757
     0.6002   0.6144   0.6339   0.6456   0.6755   0.7613   0.8124   0.8486
     0.8588   0.8859   0.9415   1.0320   1.0505   1.0844   1.1021   1.1123
     1.1245   1.1698   1.1839   1.2023   1.2178   1.2923   1.3198   1.3841
     1.4006   1.4417   1.4567   1.4878   1.5011   1.5205   1.5388   1.5594
     1.5831   1.6024   1.6278   1.6708   1.6969   1.7127   1.7195   1.7513
     1.7569   1.7672   1.7972   1.8160   1.8236   1.8408   1.8526   1.8835
     1.8917   1.9241   1.9565   1.9755   1.9972   2.0208   2.0300   2.0340
     2.0484   2.0516   2.0782   2.0815   2.0887   2.1142   2.1179   2.1206
     2.1286   2.1698   2.2565   2.3349   2.3810   2.4583   2.5085   2.7858
     2.8351   2.8908

          k = 0.2000-0.1155 0.0000 ( 51134 PWs)   bands (ev):

   -21.4661 -10.7412  -7.5086  -6.9155  -6.2410  -5.6974  -5.4565  -5.3004
    -4.7982  -4.7857  -4.2690  -4.1271  -3.8696  -3.8644  -3.7693  -3.7299
    -3.5771  -3.3116  -3.1911  -3.1776  -3.0889  -2.8157  -2.6182  -2.5819
    -2.5532  -2.4951  -2.4733  -2.2982  -2.1898  -2.1622  -2.1592  -2.1487
    -2.1160  -2.0770  -2.0723  -2.0571  -2.0288  -1.9193  -1.8935  -1.8689
    -1.8044  -1.7976  -1.7462  -1.6346  -1.6171  -1.6046  -1.5736  -1.5142
    -1.4548  -1.4237  -1.3977  -1.3636  -1.3416  -1.3255  -1.3067  -1.2989
    -1.2946  -1.2716  -1.2216  -1.1757  -1.1682  -1.1522  -1.1274  -1.0990
    -1.0401  -0.9802  -0.8729  -0.7006  -0.6898  -0.6786  -0.6484  -0.5864
    -0.5345  -0.5187  -0.4775  -0.4567  -0.3590  -0.3482  -0.3282  -0.3098
    -0.2874  -0.2821  -0.2703  -0.2619  -0.2484  -0.2336  -0.1983  -0.1514
    -0.1331  -0.1068  -0.1016  -0.0995  -0.0752  -0.0481  -0.0420  -0.0298
    -0.0243  -0.0138  -0.0051   0.0001   0.0031   0.0045   0.0348   0.0506
     0.0823   0.0888   0.0989   0.1027   0.1287   0.1479   0.1570   0.1752
     0.2074   0.2132   0.2593   0.2758   0.3031   0.3170   0.3208   0.3508
     0.4693   0.4878   0.5422   0.5579   0.5741   0.6070   0.6171   0.6344
     0.6463   0.6559   0.6672   0.6707   0.8816   0.9416   0.9703   0.9923
     0.9996   1.0159   1.0390   1.0464   1.0875   1.1326   1.1817   1.1912
     1.2157   1.2602   1.2752   1.3104   1.3162   1.3434   1.3655   1.3992
     1.4209   1.4598   1.4734   1.4868   1.4976   1.5158   1.5395   1.5534
     1.5754   1.6021   1.6127   1.6302   1.6567   1.6669   1.6794   1.7094
     1.7199   1.7350   1.7479   1.7519   1.7575   1.7765   1.8275   1.8319
     1.8387   1.8446   1.8804   1.8877   1.8994   1.9183   1.9275   1.9364
     1.9498   1.9850   1.9902   1.9972   2.0190   2.0243   2.0271   2.0478
     2.0519   2.0774   2.0798   2.0920   2.1712   2.1848   2.1902   2.2170
     2.2623   2.2847

          k = 0.2000 0.1155 0.0000 ( 51134 PWs)   bands (ev):

   -21.4661 -10.7416  -7.5089  -6.9173  -6.2322  -5.6658  -5.4438  -5.3677
    -4.7864  -4.7739  -4.2779  -4.1539  -3.8698  -3.8674  -3.7456  -3.7180
    -3.5788  -3.3110  -3.1865  -3.1822  -3.0912  -2.8244  -2.6020  -2.5967
    -2.5379  -2.4908  -2.4848  -2.2654  -2.2268  -2.1624  -2.1616  -2.1445
    -2.1252  -2.0750  -2.0724  -2.0476  -2.0364  -1.9075  -1.8915  -1.8843
    -1.8040  -1.7877  -1.7432  -1.6932  -1.6077  -1.6068  -1.5448  -1.4868
    -1.4799  -1.4193  -1.4078  -1.3796  -1.3417  -1.3136  -1.3131  -1.2968
    -1.2962  -1.2373  -1.2189  -1.1799  -1.1698  -1.1482  -1.1275  -1.1038
    -1.0376  -0.9548  -0.8996  -0.6930  -0.6925  -0.6597  -0.6462  -0.5885
    -0.5584  -0.5043  -0.4890  -0.4558  -0.3650  -0.3385  -0.3301  -0.3069
    -0.2861  -0.2834  -0.2711  -0.2551  -0.2516  -0.2317  -0.1950  -0.1706
    -0.1213  -0.1034  -0.0983  -0.0972  -0.0769  -0.0474  -0.0417  -0.0265
    -0.0177  -0.0157  -0.0119  -0.0037  -0.0008   0.0083   0.0417   0.0464
     0.0848   0.0893   0.1024   0.1058   0.1298   0.1538   0.1581   0.1698
     0.2032   0.2175   0.2695   0.2763   0.3021   0.3089   0.3207   0.3513
     0.4938   0.4954   0.5141   0.5522   0.5587   0.6124   0.6225   0.6266
     0.6333   0.6548   0.6674   0.6732   0.8685   0.9489   0.9637   0.9894
     1.0038   1.0075   1.0347   1.0486   1.0716   1.1434   1.1548   1.1930
     1.2096   1.2649   1.2757   1.3165   1.3253   1.3398   1.3652   1.4008
     1.4200   1.4718   1.4796   1.4842   1.5070   1.5179   1.5439   1.5472
     1.5819   1.5996   1.6058   1.6457   1.6474   1.6789   1.6840   1.7132
     1.7236   1.7311   1.7422   1.7551   1.7573   1.7680   1.8214   1.8282
     1.8379   1.8419   1.8847   1.8860   1.9003   1.9231   1.9261   1.9352
     1.9483   1.9902   1.9917   1.9952   2.0161   2.0217   2.0251   2.0489
     2.0507   2.0805   2.0811   2.0923   2.1733   2.1785   2.1894   2.2161
     2.2623   2.2734

          k = 0.2000 0.3464 0.0000 ( 51202 PWs)   bands (ev):

   -21.4661 -10.7406  -7.2430  -6.8785  -6.1067  -5.8208  -5.7676  -5.4868
    -5.3774  -4.5306  -4.4349  -4.0661  -4.0467  -3.9273  -3.2320  -3.2215
    -3.2170  -3.2064  -3.1004  -3.0181  -2.9233  -2.9062  -2.8636  -2.5499
    -2.5075  -2.4692  -2.4632  -2.3933  -2.3659  -2.3526  -2.2961  -2.2610
    -2.2497  -2.2430  -2.2202  -2.1019  -2.0849  -1.9881  -1.8706  -1.8670
[...]
     atom    8 type  1   force =    -0.00083406   -0.00322377   -0.10381214
     atom    9 type  1   force =     0.00057381    0.00079518   -0.10710940
     atom   10 type  1   force =     0.00184330    0.00101984   -0.00939948
     atom   11 type  1   force =    -0.00013418   -0.00142810   -0.00972404
     atom   12 type  1   force =    -0.00177573    0.00144264   -0.01094146
     atom   13 type  1   force =    -0.00101906    0.00051561   -0.00943739
     atom   14 type  1   force =     0.00080099    0.00036558   -0.00874599
     atom   15 type  1   force =     0.00003908   -0.00027505   -0.01032690
     atom   16 type  1   force =     0.00037516   -0.00207984   -0.01133498
     atom   17 type  1   force =     0.00008751    0.00033933   -0.01013995
     atom   18 type  1   force =     0.00011331    0.00026492   -0.01159850
     atom   19 type  1   force =    -0.00492108   -0.00265030    0.00562595
     atom   20 type  1   force =    -0.00006795   -0.00090413    0.00579498
     atom   21 type  1   force =     0.00469795   -0.00480042    0.00841191
     atom   22 type  1   force =     0.00261173    0.00432334    0.00967137
     atom   23 type  1   force =    -0.00185200    0.00623509    0.00862791
     atom   24 type  1   force =    -0.00111217   -0.00085454    0.01935897
     atom   25 type  1   force =     0.00093938    0.00056659    0.02008578
     atom   26 type  1   force =    -0.00438049   -0.00261288    0.00614906
     atom   27 type  1   force =     0.00430242    0.00082847    0.01154102
     atom   28 type  1   force =     0.03677324    0.02291800    0.15303941
     atom   29 type  1   force =    -0.04824393    0.04869920    0.16856057
     atom   30 type  1   force =    -0.00985078    0.00508710    0.11804782
     atom   31 type  1   force =     0.02183926   -0.06476066    0.17470528
     atom   32 type  1   force =    -0.01674553   -0.01237294    0.18165756
     atom   33 type  1   force =     0.00298178   -0.00330746    0.12241563
     atom   34 type  1   force =    -0.00085901   -0.01067448    0.11815648
     atom   35 type  1   force =    -0.00076912    0.00359436    0.12009680
     atom   36 type  1   force =     0.00178065    0.00081934    0.10356339
     atom   37 type  2   force =    -0.20639403   -0.09863433    0.21498667
     atom   38 type  3   force =     1.79938842    0.92570409   -1.56618915
     atom   39 type  4   force =    -0.05011319   -0.02808428   -0.03738634
     The ionic contribution  to forces
     atom    1 type  1   force =    -0.00987226    0.00078523 -111.23159543
     atom    2 type  1   force =     0.00162306    0.00063269 -111.24820146
     atom    3 type  1   force =     0.00824918   -0.00002095 -111.22835813
     atom    4 type  1   force =    -0.00424915    0.00905145 -111.22866968
     atom    5 type  1   force =     0.00436705    0.00726463 -111.22843078
     atom    6 type  1   force =    -0.00011788    0.00019166 -111.22001698
     atom    7 type  1   force =    -0.00149302   -0.00082169 -111.22024678
     atom    8 type  1   force =    -0.00399328   -0.00905021 -111.23114185
     atom    9 type  1   force =     0.00548630   -0.00803281 -111.22814685
     atom   10 type  1   force =    -0.05600941   -0.03361298  -40.18750108
     atom   11 type  1   force =     0.01265069   -0.07375331  -40.27582280
     atom   12 type  1   force =     0.04335790   -0.03024581  -40.16255254
     atom   13 type  1   force =    -0.05646590    0.04616001  -40.27998497
     atom   14 type  1   force =     0.06521227    0.03656738  -40.26242725
     atom   15 type  1   force =    -0.00874161    0.01619114  -40.15151171
     atom   16 type  1   force =    -0.00343874    0.05437543  -40.16431192
     atom   17 type  1   force =     0.01056577   -0.01386261  -40.14941954
     atom   18 type  1   force =    -0.00712854   -0.00181743  -40.14249764
     atom   19 type  1   force =    -0.49478495    0.04372605   31.18488977
     atom   20 type  1   force =     0.08566781    0.03228328   30.23885220
     atom   21 type  1   force =     0.40819971   -0.00498670   31.34812717
     atom   22 type  1   force =    -0.20693056    0.44122612   31.33691880
     atom   23 type  1   force =     0.21185905    0.36161986   31.34444836
     atom   24 type  1   force =    -0.00458911    0.00920496   31.70055187
     atom   25 type  1   force =    -0.07054185   -0.03934288   31.69013323
     atom   26 type  1   force =    -0.19547141   -0.45392772   31.20887806
     atom   27 type  1   force =     0.26587083   -0.39031117   31.36157280
     atom   28 type  1   force =    -2.31097466   -1.40173500  103.02342098
     atom   29 type  1   force =     0.92024865   -4.87820069   99.19967643
     atom   30 type  1   force =     1.45445341   -1.01257374  104.09096713
     atom   31 type  1   force =    -3.74883258    3.23167744   98.84300594
     atom   32 type  1   force =     4.31661201    2.43468529   99.37292776
     atom   33 type  1   force =    -0.34109030    0.46554461  104.28246994
     atom   34 type  1   force =    -0.11117378    1.83725439  104.05282595
     atom   35 type  1   force =     0.26619799   -0.44840479  104.33422470
     atom   36 type  1   force =    -0.16187069   -0.01197973  104.50613829
     atom   37 type  2   force =     4.70490778    2.29784945   54.99893331
     atom   38 type  3   force =    -6.85993023   -3.54432014   89.45231665
     atom   39 type  4   force =     1.87217048    1.03070929   15.26955803
     The local contribution  to forces
     atom    1 type  1   force =     0.01352037   -0.00048493  111.33732520
     atom    2 type  1   force =    -0.00333047   -0.00137989  111.35118383
     atom    3 type  1   force =    -0.00992220    0.00101372  111.33560888
     atom    4 type  1   force =     0.00310496   -0.01005257  111.33719069
     atom    5 type  1   force =    -0.00452443   -0.00902655  111.33543036
     atom    6 type  1   force =     0.00152606    0.00052969  111.32483477
     atom    7 type  1   force =     0.00060339    0.00006879  111.32705711
     atom    8 type  1   force =     0.00586713    0.01201782  111.33752865
     atom    9 type  1   force =    -0.00689921    0.00739975  111.33726748
     atom   10 type  1   force =     0.05382997    0.03245659   40.17830971
     atom   11 type  1   force =    -0.01258763    0.07557000   40.26530038
     atom   12 type  1   force =    -0.04120407    0.02929900   40.15473217
     atom   13 type  1   force =     0.05790917   -0.04683018   40.26921924
     atom   14 type  1   force =    -0.06614450   -0.03701903   40.25045144
     atom   15 type  1   force =     0.00871338   -0.01653527   40.14199407
     atom   16 type  1   force =     0.00363626   -0.05211786   40.15678161
     atom   17 type  1   force =    -0.01119536    0.01380348   40.13993109
     atom   18 type  1   force =     0.00714460    0.00153959   40.13417330
     atom   19 type  1   force =     0.49706874   -0.04115031  -31.17023713
     atom   20 type  1   force =    -0.08576585   -0.03141079  -30.22817019
     atom   21 type  1   force =    -0.40979531    0.00881492  -31.33515816
     atom   22 type  1   force =     0.20323676   -0.44566572  -31.32513833
     atom   23 type  1   force =    -0.20927612   -0.36506589  -31.33142085
     atom   24 type  1   force =     0.00676471   -0.00769222  -31.69594715
     atom   25 type  1   force =     0.07006935    0.03905215  -31.68469694
     atom   26 type  1   force =     0.19800031    0.45427617  -31.19526861
     atom   27 type  1   force =    -0.27059731    0.38864053  -31.35135128
     atom   28 type  1   force =     2.26398296    1.37268109 -103.18644930
     atom   29 type  1   force =    -0.86261634    4.80655074  -99.37419892
     atom   30 type  1   force =    -1.43622625    0.99816997 -104.21933282
     atom   31 type  1   force =     3.70951750   -3.14781412  -99.02488585
     atom   32 type  1   force =    -4.28255655   -2.41203728  -99.56089819
     atom   33 type  1   force =     0.33904292   -0.45911261 -104.41962977
     atom   34 type  1   force =     0.10882636   -1.81449433 -104.18132458
     atom   35 type  1   force =    -0.26215774    0.44459215 -104.46861520
     atom   36 type  1   force =     0.15763895    0.01020269 -104.61954857
     atom   37 type  2   force =    -4.50213656   -2.20103954  -55.21430326
     atom   38 type  3   force =     5.07654180    2.62685561  -87.89821825
     atom   39 type  4   force =    -1.81869921   -1.00115526  -15.23254957
     The core correction contribution to forces
     atom    1 type  1   force =     0.00030647   -0.00000109    0.01005962
     atom    2 type  1   force =    -0.00028719   -0.00010958    0.00990203
     atom    3 type  1   force =    -0.00000849    0.00009504    0.01023895
     atom    4 type  1   force =    -0.00012486    0.00000725    0.01016212
     atom    5 type  1   force =     0.00005616   -0.00008399    0.01025311
     atom    6 type  1   force =     0.00001362    0.00000484    0.00968974
     atom    7 type  1   force =    -0.00004296   -0.00002621    0.01051771
     atom    8 type  1   force =     0.00015886    0.00024301    0.01003901
     atom    9 type  1   force =    -0.00005979   -0.00010475    0.01011463
     atom   10 type  1   force =    -0.00029035   -0.00018638   -0.00191416
     atom   11 type  1   force =     0.00002515    0.00006402   -0.00172093
     atom   12 type  1   force =     0.00035261   -0.00018038   -0.00203939
     atom   13 type  1   force =     0.00004990   -0.00004571   -0.00167714
     atom   14 type  1   force =     0.00014712    0.00008301   -0.00185506
     atom   15 type  1   force =     0.00000394    0.00009587   -0.00179806
     atom   16 type  1   force =     0.00001837    0.00040957   -0.00204810
     atom   17 type  1   force =     0.00006556   -0.00005902   -0.00175712
     atom   18 type  1   force =    -0.00016531   -0.00008441   -0.00156341
     atom   19 type  1   force =    -0.00025235   -0.00035931    0.00139318
     atom   20 type  1   force =     0.00024905    0.00027439    0.00250614
     atom   21 type  1   force =     0.00013698    0.00008747    0.00105958
     atom   22 type  1   force =    -0.00023036   -0.00001973    0.00130020
     atom   23 type  1   force =     0.00013860    0.00015768    0.00113526
     atom   24 type  1   force =     0.00001446    0.00000183    0.00216231
     atom   25 type  1   force =     0.00042089    0.00021628    0.00207944
     atom   26 type  1   force =    -0.00049621   -0.00003880    0.00144525
     atom   27 type  1   force =    -0.00019598   -0.00016820    0.00138749
     atom   28 type  1   force =     0.00285528    0.00170037   -0.00702232
     atom   29 type  1   force =    -0.00135808    0.01241519    0.00078934
     atom   30 type  1   force =    -0.00289666    0.00308856   -0.00884366
     atom   31 type  1   force =     0.01077196   -0.00804760    0.00198829
     atom   32 type  1   force =    -0.01667610   -0.00979322    0.01232558
     atom   33 type  1   force =    -0.00069655   -0.00029750   -0.00857318
     atom   34 type  1   force =     0.00122658   -0.00403970   -0.00884794
     atom   35 type  1   force =    -0.00071213   -0.00061765   -0.00874599
     atom   36 type  1   force =    -0.00028096   -0.00017447   -0.01066849
     atom   37 type  2   force =     0.00114848    0.00048047   -0.00139598
     atom   38 type  3   force =    -0.01493614   -0.00771096    0.01358338
     atom   39 type  4   force =     0.00000000    0.00000000    0.00000000
     The Hubbard contrib.    to forces
     atom    1 type  1   force =     0.00000000    0.00000000    0.00000000
     atom    2 type  1   force =     0.00000000    0.00000000    0.00000000
     atom    3 type  1   force =     0.00000000    0.00000000    0.00000000
     atom    4 type  1   force =     0.00000000    0.00000000    0.00000000
     atom    5 type  1   force =     0.00000000    0.00000000    0.00000000
     atom    6 type  1   force =     0.00000000    0.00000000    0.00000000
     atom    7 type  1   force =     0.00000000    0.00000000    0.00000000
     atom    8 type  1   force =     0.00000000    0.00000000    0.00000000
     atom    9 type  1   force =     0.00000000    0.00000000    0.00000000
     atom   10 type  1   force =     0.00000000    0.00000000    0.00000000
     atom   11 type  1   force =     0.00000000    0.00000000    0.00000000
     atom   12 type  1   force =     0.00000000    0.00000000    0.00000000
     atom   13 type  1   force =     0.00000000    0.00000000    0.00000000
     atom   14 type  1   force =     0.00000000    0.00000000    0.00000000
     atom   15 type  1   force =     0.00000000    0.00000000    0.00000000
     atom   16 type  1   force =     0.00000000    0.00000000    0.00000000
     atom   17 type  1   force =     0.00000000    0.00000000    0.00000000
     atom   18 type  1   force =     0.00000000    0.00000000    0.00000000
     atom   19 type  1   force =     0.00000000    0.00000000    0.00000000
     atom   20 type  1   force =     0.00000000    0.00000000    0.00000000
     atom   21 type  1   force =     0.00000000    0.00000000    0.00000000
     atom   22 type  1   force =     0.00000000    0.00000000    0.00000000
     atom   23 type  1   force =     0.00000000    0.00000000    0.00000000
     atom   24 type  1   force =     0.00000000    0.00000000    0.00000000
     atom   25 type  1   force =     0.00000000    0.00000000    0.00000000
     atom   26 type  1   force =     0.00000000    0.00000000    0.00000000
     atom   27 type  1   force =     0.00000000    0.00000000    0.00000000
     atom   28 type  1   force =     0.00000000    0.00000000    0.00000000
     atom   29 type  1   force =     0.00000000    0.00000000    0.00000000
     atom   30 type  1   force =     0.00000000    0.00000000    0.00000000
     atom   31 type  1   force =     0.00000000    0.00000000    0.00000000
     atom   32 type  1   force =     0.00000000    0.00000000    0.00000000
     atom   33 type  1   force =     0.00000000    0.00000000    0.00000000
     atom   34 type  1   force =     0.00000000    0.00000000    0.00000000
     atom   35 type  1   force =     0.00000000    0.00000000    0.00000000
     atom   36 type  1   force =     0.00000000    0.00000000    0.00000000
     atom   37 type  2   force =     0.00000000    0.00000000    0.00000000
     atom   38 type  3   force =     0.00000000    0.00000000    0.00000000
     atom   39 type  4   force =     0.00000000    0.00000000    0.00000000
     The SCF correction term to forces
     atom    1 type  1   force =     0.00000000    0.00000000    0.00000000
     atom    2 type  1   force =     0.00000000    0.00000000    0.00000000
     atom    3 type  1   force =    -0.00000000    0.00000000    0.00000000
     atom    4 type  1   force =    -0.00000000   -0.00000000    0.00000000
     atom    5 type  1   force =     0.00000000   -0.00000000    0.00000000
     atom    6 type  1   force =    -0.00000000    0.00000000    0.00000000
     atom    7 type  1   force =    -0.00000000   -0.00000000    0.00000000
     atom    8 type  1   force =     0.00000000   -0.00000000    0.00000000
     atom    9 type  1   force =    -0.00000000   -0.00000000    0.00000000
     atom   10 type  1   force =     0.00000000    0.00000000    0.00000000
     atom   11 type  1   force =    -0.00000000    0.00000000    0.00000000
     atom   12 type  1   force =    -0.00000000    0.00000000    0.00000000
     atom   13 type  1   force =     0.00000000   -0.00000000    0.00000000
     atom   14 type  1   force =    -0.00000000    0.00000000    0.00000000
     atom   15 type  1   force =    -0.00000000    0.00000000    0.00000000
     atom   16 type  1   force =     0.00000000   -0.00000000    0.00000000
     atom   17 type  1   force =     0.00000000   -0.00000000    0.00000000
     atom   18 type  1   force =    -0.00000000   -0.00000000    0.00000000
     atom   19 type  1   force =     0.00000000    0.00000000    0.00000000
     atom   20 type  1   force =    -0.00000000   -0.00000000    0.00000000
     atom   21 type  1   force =    -0.00000000    0.00000000    0.00000000
     atom   22 type  1   force =    -0.00000000   -0.00000000    0.00000000
     atom   23 type  1   force =     0.00000000   -0.00000000    0.00000000
     atom   24 type  1   force =    -0.00000000   -0.00000000    0.00000000
     atom   25 type  1   force =     0.00000000    0.00000000    0.00000000
     atom   26 type  1   force =     0.00000000    0.00000000    0.00000000
     atom   27 type  1   force =    -0.00000000    0.00000000    0.00000000
     atom   28 type  1   force =     0.00000000    0.00000000    0.00000000
     atom   29 type  1   force =     0.00000000    0.00000000    0.00000000
     atom   30 type  1   force =    -0.00000000    0.00000000    0.00000000
     atom   31 type  1   force =     0.00000000   -0.00000000    0.00000000
     atom   32 type  1   force =    -0.00000000   -0.00000000    0.00000000
     atom   33 type  1   force =     0.00000000   -0.00000000    0.00000000
     atom   34 type  1   force =    -0.00000000   -0.00000000    0.00000000
     atom   35 type  1   force =     0.00000000    0.00000000    0.00000000
     atom   36 type  1   force =     0.00000000    0.00000000    0.00000000
     atom   37 type  2   force =    -0.00000559   -0.00000587   -0.00000644
     atom   38 type  3   force =     0.00000614    0.00000385   -0.00002070
     atom   39 type  4   force =    -0.00000147   -0.00000178   -0.00000174

     Total force =     0.005329     Total SCF correction =     0.000024

     Writing all to output data dir ./pwscf.save/

     init_run     :     11.27s CPU     11.69s WALL (       1 calls)
     electrons    :    935.01s CPU    955.95s WALL (       1 calls)
     forces       :      4.78s CPU      5.43s WALL (       1 calls)

     Called by init_run:
     wfcinit      :      8.14s CPU      8.46s WALL (       1 calls)
     potinit      :      2.02s CPU      2.10s WALL (       1 calls)
     hinit0       :      0.85s CPU      0.86s WALL (       1 calls)

     Called by electrons:
     c_bands      :    782.39s CPU    798.64s WALL (      58 calls)
     sum_band     :    103.89s CPU    106.40s WALL (      58 calls)
     v_of_rho     :      9.92s CPU     10.33s WALL (      59 calls)
     newd         :      3.25s CPU      3.29s WALL (      59 calls)
     PAW_pot      :     14.60s CPU     15.83s WALL (      59 calls)
     mix_rho      :     22.24s CPU     22.58s WALL (      58 calls)
     vdW_kernel   :      1.12s CPU      1.12s WALL (       1 calls)

     Called by c_bands:
     init_us_2    :      9.91s CPU     10.05s WALL (    3068 calls)
     init_us_2:cp :      9.89s CPU     10.04s WALL (    3068 calls)
     cegterg      :    752.10s CPU    767.05s WALL (    1508 calls)

     Called by *egterg:
     cdiaghg      :    215.67s CPU    218.55s WALL (    4607 calls)
     h_psi        :    353.89s CPU    362.30s WALL (    4633 calls)
     s_psi        :     41.36s CPU     42.22s WALL (    4633 calls)
     g_psi        :      0.99s CPU      1.01s WALL (    3099 calls)

     Called by h_psi:
     h_psi:calbec :     58.65s CPU     60.10s WALL (    4633 calls)
     vloc_psi     :    250.82s CPU    256.89s WALL (    4633 calls)
     add_vuspsi   :     41.77s CPU     42.62s WALL (    4633 calls)

     General routines
     calbec       :     88.31s CPU     90.29s WALL (    6245 calls)
     fft          :     10.25s CPU     10.69s WALL (    5328 calls)
     ffts         :     13.55s CPU     13.78s WALL (   27047 calls)
     fftw         :    287.98s CPU    295.47s WALL ( 1558490 calls)
     interpolate  :      0.41s CPU      0.42s WALL (     118 calls)

     Parallel routines

     PWSCF        :  15m57.25s CPU  16m27.23s WALL


   This run was terminated on:   5:40:45  11Dec2025            

=------------------------------------------------------------------------------=
   JOB DONE.
=------------------------------------------------------------------------------=
