
     Program PWSCF v.7.1 starts on 14Dec2025 at  8:35:40 
        Git branch: heads/qe-7.1
        Last git commit: 48ba0178f8fede6d020eb786884699a9f063f55d-dirty
        Last git commit date: Fri Jan 27 14:22:33 2023 +0000
        Last git commit subject: Merge branch 'fix_hubbard' into 'develop'

     This program is part of the open-source Quantum ESPRESSO suite
     for quantum simulation of materials; please cite
         "P. Giannozzi et al., J. Phys.:Condens. Matter 21 395502 (2009);
         "P. Giannozzi et al., J. Phys.:Condens. Matter 29 465901 (2017);
         "P. Giannozzi et al., J. Chem. Phys. 152 154105 (2020);
          URL http://www.quantum-espresso.org", 
     in publications or presentations arising from this work. More details at
     http://www.quantum-espresso.org/quote

     Parallel version (MPI), running on    96 processors

     MPI processes distributed on     2 nodes
     109185 MiB available memory on the printing compute node when the environment starts

     Reading input from espresso.pwi
Warning: card &CELL ignored
Warning: card / ignored
Warning: card &FCP ignored
Warning: card / ignored
Warning: card &RISM ignored
Warning: card / ignored

     Current dimensions of program PWSCF are:
     Max number of different atomic species (ntypx) = 10
     Max number of k-points (npk) =  40000
     Max angular momentum in pseudopotentials (lmaxx) =  4
     file Co.pbe-n-kjpaw_psl.1.0.0.UPF: wavefunction(s)  4S 3D renormalized
     file C.pbe-n-kjpaw_psl.1.0.0.UPF: wavefunction(s)  2S 2P renormalized
     file O.pbe-nl-kjpaw_psl.1.0.0.UPF: wavefunction(s)  2S 2P renormalized
     file H.pbe-kjpaw_psl.1.0.0.UPF: wavefunction(s)  1S renormalized

     **************************************************************************
     Initializing libbeef V0.1.2 with the BEEF-vdW functional.
     Citation: Wellendorff et al., PRB 85, 235149 (2012).
     **************************************************************************


     IMPORTANT: XC functional enforced from input :
     Exchange-correlation= BEEF-VDW
                           (   1   4  43  14   2   0   0)
     Any further DFT definition will be discarded
     Please, verify this is what you really want


     R & G space division:  proc/nbgrp/npool/nimage =      96
     Subspace diagonalization in iterative solution of the eigenvalue problem:
     one sub-group per band group will be used
     custom distributed-memory algorithm (size of sub-group:  2*  2 procs)


     Parallelization info
     --------------------
     sticks:   dense  smooth     PW     G-vecs:    dense   smooth      PW
     Min          43      28      7                 7829     4248     595
     Max          44      29      8                 7845     4281     630
     Sum        4153    2773    757               752179   409445   59217

     Using Slab Decomposition



     bravais-lattice index     =            0
     lattice parameter (alat)  =      14.1729  a.u.
     unit-cell volume          =    8574.3059 (a.u.)^3
     number of atoms/cell      =           39
     number of atomic types    =            4
     number of electrons       =       335.00
     number of Kohn-Sham states=          202
     kinetic-energy cutoff     =      50.0000  Ry
     charge density cutoff     =     300.0000  Ry
     scf convergence threshold =      1.0E-08
     mixing beta               =       0.7000
     number of iterations used =            8  local-TF  mixing
     Exchange-correlation= BEEF-VDW
                           (   1   4  43  14   2   0   0)

     celldm(1)=  14.172946  celldm(2)=   0.000000  celldm(3)=   0.000000
     celldm(4)=   0.000000  celldm(5)=   0.000000  celldm(6)=   0.000000

     crystal axes: (cart. coord. in units of alat)
               a(1) = (   1.000000   0.000000   0.000000 )  
               a(2) = (   0.500000   0.866025   0.000000 )  
               a(3) = (   0.000000   0.000000   3.477667 )  

     reciprocal axes: (cart. coord. in units 2 pi/alat)
               b(1) = (  1.000000 -0.577350  0.000000 )  
               b(2) = (  0.000000  1.154701  0.000000 )  
               b(3) = (  0.000000  0.000000  0.287549 )  


     PseudoPot. # 1 for Co read from file:
     /users/kbadger1/espresso/pseudo/pslibrary.1.0.0/pbe/PSEUDOPOTENTIALS/Co.pbe-n-kjpaw_psl.1.0.0.UPF
     MD5 check sum: 88af6ec42553d4236c267fdfcb472151
     Pseudo is Projector augmented-wave + core cor, Zval =  9.0
     Generated using 'atomic' code by A. Dal Corso  v.7.0
     Shape of augmentation charge: PSQ
     Using radial grid of 1193 points,  6 beta functions with: 
                l(1) =   0
                l(2) =   0
                l(3) =   1
                l(4) =   1
                l(5) =   2
                l(6) =   2
     Q(r) pseudized with 0 coefficients 


     PseudoPot. # 2 for C  read from file:
     /users/kbadger1/espresso/pseudo/pslibrary.1.0.0/pbe/PSEUDOPOTENTIALS/C.pbe-n-kjpaw_psl.1.0.0.UPF
     MD5 check sum: 6408e75cdba28732cea38a4db8498ce4
     Pseudo is Projector augmented-wave + core cor, Zval =  4.0
     Generated using 'atomic' code by A. Dal Corso  v.7.0
     Shape of augmentation charge: PSQ
     Using radial grid of 1073 points,  4 beta functions with: 
                l(1) =   0
                l(2) =   0
                l(3) =   1
                l(4) =   1
     Q(r) pseudized with 0 coefficients 


     PseudoPot. # 3 for O  read from file:
     /users/kbadger1/espresso/pseudo/pslibrary.1.0.0/pbe/PSEUDOPOTENTIALS/O.pbe-nl-kjpaw_psl.1.0.0.UPF
     MD5 check sum: f0439fab3598ca4e468f064226030408
     Pseudo is Projector augmented-wave + core cor, Zval =  6.0
     Generated using 'atomic' code by A. Dal Corso  v.7.0
     Shape of augmentation charge: PSQ
     Using radial grid of 1095 points,  4 beta functions with: 
                l(1) =   0
                l(2) =   0
                l(3) =   1
                l(4) =   1
     Q(r) pseudized with 0 coefficients 


     PseudoPot. # 4 for H  read from file:
     /users/kbadger1/espresso/pseudo/pslibrary.1.0.0/pbe/PSEUDOPOTENTIALS/H.pbe-kjpaw_psl.1.0.0.UPF
     MD5 check sum: fe4c6fa958fa6d3815bf5d2419cbf1df
     Pseudo is Projector augmented-wave, Zval =  1.0
     Generated using 'atomic' code by A. Dal Corso  v.7.0
     Shape of augmentation charge: PSQ
     Using radial grid of  929 points,  2 beta functions with: 
                l(1) =   0
                l(2) =   0
     Q(r) pseudized with 0 coefficients 


     atomic species   valence    mass     pseudopotential
        Co             9.00    58.93319     Co( 1.00)
        C              4.00    12.01100     C ( 1.00)
        O              6.00    15.99900     O ( 1.00)
        H              1.00     1.00800     H ( 1.00)

     Starting magnetic structure 
     atomic species   magnetization
        Co           1.000
        C            1.000
        O            0.000
        H            0.000

     No symmetry found



   Cartesian axes

     site n.     atom                  positions (alat units)
         1           Co  tau(   1) = (   0.0000000   0.1924501   1.3333333  )
         2           Co  tau(   2) = (   0.3333333   0.1924501   1.3333333  )
         3           Co  tau(   3) = (   0.6666667   0.1924501   1.3333333  )
         4           Co  tau(   4) = (   0.1666667   0.4811252   1.3333333  )
         5           Co  tau(   5) = (   0.5000000   0.4811252   1.3333333  )
         6           Co  tau(   6) = (   0.8333333   0.4811252   1.3333333  )
         7           Co  tau(   7) = (   0.3333333   0.7698004   1.3333333  )
         8           Co  tau(   8) = (   0.6666667   0.7698004   1.3333333  )
         9           Co  tau(   9) = (   1.0000000   0.7698004   1.3333333  )
        10           Co  tau(  10) = (   0.0000000   0.0000000   1.6036667  )
        11           Co  tau(  11) = (   0.3333333   0.0000000   1.6036667  )
        12           Co  tau(  12) = (   0.6666667   0.0000000   1.6036667  )
        13           Co  tau(  13) = (   0.1666667   0.2886751   1.6036667  )
        14           Co  tau(  14) = (   0.5000000   0.2886751   1.6036667  )
        15           Co  tau(  15) = (   0.8333333   0.2886751   1.6036667  )
        16           Co  tau(  16) = (   0.3333333   0.5773503   1.6036667  )
        17           Co  tau(  17) = (   0.6666667   0.5773503   1.6036667  )
        18           Co  tau(  18) = (   1.0000000   0.5773503   1.6036667  )
        19           Co  tau(  19) = (   0.0000000   0.1924501   1.8740000  )
        20           Co  tau(  20) = (   0.3333333   0.1924501   1.8740000  )
        21           Co  tau(  21) = (   0.6666667   0.1924501   1.8740000  )
        22           Co  tau(  22) = (   0.1666667   0.4811252   1.8740000  )
        23           Co  tau(  23) = (   0.5000000   0.4811252   1.8740000  )
        24           Co  tau(  24) = (   0.8333333   0.4811252   1.8740000  )
        25           Co  tau(  25) = (   0.3333333   0.7698004   1.8740000  )
        26           Co  tau(  26) = (   0.6666667   0.7698004   1.8740000  )
        27           Co  tau(  27) = (   1.0000000   0.7698004   1.8740000  )
        28           Co  tau(  28) = (   0.0000000   0.0000000   2.1443333  )
        29           Co  tau(  29) = (   0.3333333   0.0000000   2.1443333  )
        30           Co  tau(  30) = (   0.6666667   0.0000000   2.1443333  )
        31           Co  tau(  31) = (   0.1666667   0.2886751   2.1443333  )
        32           Co  tau(  32) = (   0.5000000   0.2886751   2.1443333  )
        33           Co  tau(  33) = (   0.8333333   0.2886751   2.1443333  )
        34           Co  tau(  34) = (   0.3333333   0.5773503   2.1443333  )
        35           Co  tau(  35) = (   0.6666667   0.5773503   2.1443333  )
        36           Co  tau(  36) = (   1.0000000   0.5773503   2.1443333  )
        37           C   tau(  37) = (   0.1666132  -0.0398717   2.3316285  )
        38           O   tau(  38) = (   0.1372904  -0.0509051   2.4873286  )
        39           H   tau(  39) = (   0.4385649   0.0239949   2.3169291  )

     number of k points=    13  Marzari-Vanderbilt smearing, width (Ry)=  0.0010
                       cart. coord. in units 2pi/alat
        k(    1) = (   0.0000000   0.0000000   0.0000000), wk =   0.0400000
        k(    2) = (   0.0000000   0.2309401   0.0000000), wk =   0.0800000
        k(    3) = (   0.0000000   0.4618802   0.0000000), wk =   0.0800000
        k(    4) = (   0.2000000  -0.1154701   0.0000000), wk =   0.0800000
        k(    5) = (   0.2000000   0.1154701   0.0000000), wk =   0.0800000
        k(    6) = (   0.2000000   0.3464102   0.0000000), wk =   0.0800000
        k(    7) = (   0.2000000  -0.5773503   0.0000000), wk =   0.0800000
        k(    8) = (   0.2000000  -0.3464102   0.0000000), wk =   0.0800000
        k(    9) = (   0.4000000  -0.2309401   0.0000000), wk =   0.0800000
        k(   10) = (   0.4000000   0.0000000   0.0000000), wk =   0.0800000
        k(   11) = (   0.4000000   0.2309401   0.0000000), wk =   0.0800000
        k(   12) = (   0.4000000  -0.6928203   0.0000000), wk =   0.0800000
        k(   13) = (   0.4000000  -0.4618802   0.0000000), wk =   0.0800000

     Dense  grid:   752179 G-vectors     FFT dimensions: (  80,  80, 288)

     Smooth grid:   409445 G-vectors     FFT dimensions: (  64,  64, 225)

     Estimated max dynamical RAM per process >      99.02 MB

     Estimated total dynamical RAM >       9.28 GB
     Generating pointlists ...
     new r_m :   0.0840 (alat units)  1.1901 (a.u.) for type    1
     new r_m :   0.0655 (alat units)  0.9285 (a.u.) for type    2
     new r_m :   0.0655 (alat units)  0.9285 (a.u.) for type    3
     new r_m :   0.0840 (alat units)  1.1901 (a.u.) for type    4

     Initial potential from superposition of free atoms

     starting charge     334.9897, renormalised to     335.0000

     negative rho (up, down):  3.049E-03 4.571E-04


     %%%%%%%%%%%%%%%%%%%%%%%%%%%%%%%%%%%%%%%%%%%%%%%%%%%%%%%%%%%%%%%%%%%%%%%%
     %                                                                      %
     % You are using vdW-DF, which was implemented by the Thonhauser group. %
     % Please cite the following two papers that made this development      %
     % possible and the two reviews that describe the various versions:     %
     %                                                                      %
     %   T. Thonhauser et al., PRL 115, 136402 (2015).                      %
     %   T. Thonhauser et al., PRB 76, 125112 (2007).                       %
     %   K. Berland et al., Rep. Prog. Phys. 78, 066501 (2015).             %
     %   D.C. Langreth et al., J. Phys.: Condens. Matter 21, 084203 (2009). %
     %                                                                      %
     % If you are calculating stress with vdW-DF, please also cite:         %
     %                                                                      %
     %   R. Sabatini et al., J. Phys.: Condens. Matter 24, 424209 (2012).   %
     %   C.M. Frostenson et al., Electr. Struct. 4, 014001 (2022).          %
     %                                                                      %
     %%%%%%%%%%%%%%%%%%%%%%%%%%%%%%%%%%%%%%%%%%%%%%%%%%%%%%%%%%%%%%%%%%%%%%%%

     %%%%%%%%%%%%%%%%%%%%%%%%%%%%%%%%%%%%%%%%%%%%%%%%%%%%%%%%%%%%%%%%%%%%%%%%
     %                                                                      %
     %  vdW-DF NEWS:                                                        %
     %                                                                      %
     %  * vdW-DF3 is now available. DOI: 10.1021/acs.jctc.0c00471           %
     %    use with input_dft = 'vdW-DF3-opt1' or 'vdW-DF3-opt2'             %
     %                                                                      %
     %  * Unscreened and range-separated hybrid vdW-DF-cx functionals       %
     %    DOI: 10.1063/1.4986522 and 10.1088/1361-648X/ac2ad2               %
     %    use with input_dft = 'vdW-DF-cx0'    and 'vdW-DF-ahcx'            %
     %  * Unscreened and range-separated hybrid vdW-DF2-b86r functionals    %
     %    DOI: 10.1063/1.4986522 and DOI: 10.1103/PhysRevX.12.041003        %
     %    use with input_dft = 'vdW-DF2-br0' and 'vdW-DF2-ahbr'             %
     %                                                                      %
     %%%%%%%%%%%%%%%%%%%%%%%%%%%%%%%%%%%%%%%%%%%%%%%%%%%%%%%%%%%%%%%%%%%%%%%%


     Starting wfcs are  333 randomized atomic wfcs
     Checking if some PAW data can be deallocated... 

     total cpu time spent up to now is       12.5 secs

     per-process dynamical memory:   230.9 Mb

     Self-consistent Calculation

     iteration #  1     ecut=    50.00 Ry     beta= 0.70
     Davidson diagonalization with overlap
     ethr =  1.00E-02,  avg # of iterations =  2.0

     negative rho (up, down):  3.306E-05 7.485E-08

     total cpu time spent up to now is       34.3 secs

     total energy              =   -6053.07214363 Ry
     estimated scf accuracy    <      39.28330754 Ry

     total magnetization       =    69.00 Bohr mag/cell
     absolute magnetization    =    81.20 Bohr mag/cell

     iteration #  2     ecut=    50.00 Ry     beta= 0.70
     Davidson diagonalization with overlap
     ethr =  1.00E-02,  avg # of iterations =  1.0

     negative rho (up, down):  5.323E-06 4.216E-08

     total cpu time spent up to now is       48.1 secs

     total energy              =   -6052.53655849 Ry
     estimated scf accuracy    <      25.11307852 Ry

     total magnetization       =    68.84 Bohr mag/cell
     absolute magnetization    =    76.67 Bohr mag/cell

     iteration #  3     ecut=    50.00 Ry     beta= 0.70
     Davidson diagonalization with overlap
     ethr =  7.50E-03,  avg # of iterations =  1.0

     negative rho (up, down):  4.173E-08 0.000E+00

     total cpu time spent up to now is       65.7 secs

     total energy              =   -6055.14568345 Ry
     estimated scf accuracy    <      83.68185682 Ry

     total magnetization       =    66.28 Bohr mag/cell
     absolute magnetization    =    73.60 Bohr mag/cell

     iteration #  4     ecut=    50.00 Ry     beta= 0.70
     Davidson diagonalization with overlap
     ethr =  7.50E-03,  avg # of iterations =  1.0

     total cpu time spent up to now is       78.9 secs

     total energy              =   -6056.39570955 Ry
     estimated scf accuracy    <       5.15101105 Ry

     total magnetization       =    60.47 Bohr mag/cell
     absolute magnetization    =    70.18 Bohr mag/cell

     iteration #  5     ecut=    50.00 Ry     beta= 0.70
     Davidson diagonalization with overlap
     ethr =  1.54E-03,  avg # of iterations =  1.2

     total cpu time spent up to now is       95.9 secs

     total energy              =   -6056.41528722 Ry
     estimated scf accuracy    <       2.25248938 Ry

     total magnetization       =    59.89 Bohr mag/cell
     absolute magnetization    =    69.32 Bohr mag/cell

     iteration #  6     ecut=    50.00 Ry     beta= 0.70
     Davidson diagonalization with overlap
     ethr =  6.72E-04,  avg # of iterations =  1.7

     total cpu time spent up to now is      114.5 secs

     total energy              =   -6056.51735809 Ry
     estimated scf accuracy    <       0.57952050 Ry

     total magnetization       =    59.73 Bohr mag/cell
     absolute magnetization    =    68.83 Bohr mag/cell

     iteration #  7     ecut=    50.00 Ry     beta= 0.70
     Davidson diagonalization with overlap
     ethr =  1.73E-04,  avg # of iterations =  6.2

     total cpu time spent up to now is      132.8 secs

     total energy              =   -6056.56079810 Ry
     estimated scf accuracy    <       0.75826471 Ry

     total magnetization       =    59.81 Bohr mag/cell
     absolute magnetization    =    68.57 Bohr mag/cell

     iteration #  8     ecut=    50.00 Ry     beta= 0.70
     Davidson diagonalization with overlap
     ethr =  1.73E-04,  avg # of iterations =  1.7

     total cpu time spent up to now is      151.2 secs

     total energy              =   -6056.57891313 Ry
     estimated scf accuracy    <       0.13302093 Ry

     total magnetization       =    59.94 Bohr mag/cell
     absolute magnetization    =    68.51 Bohr mag/cell

     iteration #  9     ecut=    50.00 Ry     beta= 0.70
     Davidson diagonalization with overlap
     c_bands:  1 eigenvalues not converged
     c_bands:  2 eigenvalues not converged
     ethr =  3.97E-05,  avg # of iterations =  8.9

     total cpu time spent up to now is      179.2 secs

     total energy              =   -6056.58401719 Ry
     estimated scf accuracy    <       0.16949539 Ry

     total magnetization       =    60.22 Bohr mag/cell
     absolute magnetization    =    68.40 Bohr mag/cell

     iteration # 10     ecut=    50.00 Ry     beta= 0.70
     Davidson diagonalization with overlap
     ethr =  3.97E-05,  avg # of iterations =  2.2

     total cpu time spent up to now is      193.6 secs

     total energy              =   -6056.58946191 Ry
     estimated scf accuracy    <       0.15896385 Ry

     total magnetization       =    60.29 Bohr mag/cell
     absolute magnetization    =    68.31 Bohr mag/cell

     iteration # 11     ecut=    50.00 Ry     beta= 0.70
     Davidson diagonalization with overlap
     ethr =  3.97E-05,  avg # of iterations =  1.3

     total cpu time spent up to now is      211.0 secs

     total energy              =   -6056.58400230 Ry
     estimated scf accuracy    <       0.12865504 Ry

     total magnetization       =    60.28 Bohr mag/cell
     absolute magnetization    =    68.18 Bohr mag/cell

     iteration # 12     ecut=    50.00 Ry     beta= 0.70
     Davidson diagonalization with overlap
     ethr =  3.84E-05,  avg # of iterations =  2.0

     total cpu time spent up to now is      225.2 secs

     total energy              =   -6056.58765534 Ry
     estimated scf accuracy    <       0.08004123 Ry

     total magnetization       =    60.28 Bohr mag/cell
     absolute magnetization    =    68.04 Bohr mag/cell

     iteration # 13     ecut=    50.00 Ry     beta= 0.70
     Davidson diagonalization with overlap
     ethr =  2.39E-05,  avg # of iterations =  1.2

     total cpu time spent up to now is      242.3 secs

     total energy              =   -6056.58805450 Ry
     estimated scf accuracy    <       0.09155645 Ry

     total magnetization       =    60.28 Bohr mag/cell
     absolute magnetization    =    67.99 Bohr mag/cell

     iteration # 14     ecut=    50.00 Ry     beta= 0.70
     Davidson diagonalization with overlap
     ethr =  2.39E-05,  avg # of iterations =  1.6

     total cpu time spent up to now is      256.2 secs

     total energy              =   -6056.58199291 Ry
     estimated scf accuracy    <       0.09804879 Ry

     total magnetization       =    60.29 Bohr mag/cell
     absolute magnetization    =    68.03 Bohr mag/cell

     iteration # 15     ecut=    50.00 Ry     beta= 0.70
     Davidson diagonalization with overlap
     ethr =  2.39E-05,  avg # of iterations =  1.5

     negative rho (up, down):  4.767E-03 3.599E-03

     total cpu time spent up to now is      273.7 secs

     total energy              =   -6056.57916840 Ry
     estimated scf accuracy    <       0.08543793 Ry

     total magnetization       =    60.28 Bohr mag/cell
     absolute magnetization    =    68.02 Bohr mag/cell

     iteration # 16     ecut=    50.00 Ry     beta= 0.70
     Davidson diagonalization with overlap
     ethr =  2.39E-05,  avg # of iterations =  1.5

     negative rho (up, down):  1.629E-02 1.462E-02

     total cpu time spent up to now is      287.6 secs

     total energy              =   -6056.57751218 Ry
     estimated scf accuracy    <       0.04081534 Ry

     total magnetization       =    60.29 Bohr mag/cell
     absolute magnetization    =    67.91 Bohr mag/cell

     iteration # 17     ecut=    50.00 Ry     beta= 0.70
     Davidson diagonalization with overlap
     c_bands:  1 eigenvalues not converged
     c_bands:  2 eigenvalues not converged
     c_bands:  2 eigenvalues not converged
     ethr =  1.22E-05,  avg # of iterations =  5.3

     negative rho (up, down):  3.294E-02 3.099E-02

     total cpu time spent up to now is      310.1 secs

     total energy              =   -6056.57537386 Ry
     estimated scf accuracy    <       0.05058411 Ry

     total magnetization       =    60.29 Bohr mag/cell
     absolute magnetization    =    67.88 Bohr mag/cell

     iteration # 18     ecut=    50.00 Ry     beta= 0.70
     Davidson diagonalization with overlap
     ethr =  1.22E-05,  avg # of iterations =  2.1

     negative rho (up, down):  1.658E-02 1.518E-02

     total cpu time spent up to now is      328.9 secs

     total energy              =   -6056.57667829 Ry
     estimated scf accuracy    <       0.09642077 Ry

     total magnetization       =    60.29 Bohr mag/cell
     absolute magnetization    =    67.83 Bohr mag/cell

     iteration # 19     ecut=    50.00 Ry     beta= 0.70
     Davidson diagonalization with overlap
     ethr =  1.22E-05,  avg # of iterations =  1.3

     negative rho (up, down):  2.829E-02 2.651E-02

     total cpu time spent up to now is      342.0 secs

     total energy              =   -6056.57687676 Ry
     estimated scf accuracy    <       0.01872796 Ry

     total magnetization       =    60.28 Bohr mag/cell
     absolute magnetization    =    67.86 Bohr mag/cell

     iteration # 20     ecut=    50.00 Ry     beta= 0.70
     Davidson diagonalization with overlap
     c_bands:  2 eigenvalues not converged
     c_bands:  2 eigenvalues not converged
     c_bands:  2 eigenvalues not converged
     ethr =  5.59E-06,  avg # of iterations =  5.7

     negative rho (up, down):  2.175E-02 2.018E-02

     total cpu time spent up to now is      364.7 secs

     total energy              =   -6056.57616741 Ry
     estimated scf accuracy    <       0.00906033 Ry

     total magnetization       =    60.34 Bohr mag/cell
     absolute magnetization    =    67.89 Bohr mag/cell

     iteration # 21     ecut=    50.00 Ry     beta= 0.70
     Davidson diagonalization with overlap
     ethr =  2.70E-06,  avg # of iterations =  5.2

     negative rho (up, down):  2.202E-02 2.058E-02

     total cpu time spent up to now is      385.9 secs

     total energy              =   -6056.57524902 Ry
     estimated scf accuracy    <       0.01796531 Ry

     total magnetization       =    60.37 Bohr mag/cell
     absolute magnetization    =    67.91 Bohr mag/cell

     iteration # 22     ecut=    50.00 Ry     beta= 0.70
     Davidson diagonalization with overlap
     ethr =  2.70E-06,  avg # of iterations =  1.8

     negative rho (up, down):  2.186E-02 2.046E-02

     total cpu time spent up to now is      399.7 secs

     total energy              =   -6056.57540811 Ry
     estimated scf accuracy    <       0.01039846 Ry

     total magnetization       =    60.40 Bohr mag/cell
     absolute magnetization    =    67.94 Bohr mag/cell

     iteration # 23     ecut=    50.00 Ry     beta= 0.70
     Davidson diagonalization with overlap
     ethr =  2.70E-06,  avg # of iterations =  1.6

     negative rho (up, down):  1.846E-02 1.734E-02

     total cpu time spent up to now is      418.3 secs

     total energy              =   -6056.57535644 Ry
     estimated scf accuracy    <       0.00648753 Ry

     total magnetization       =    60.37 Bohr mag/cell
     absolute magnetization    =    67.91 Bohr mag/cell

     iteration # 24     ecut=    50.00 Ry     beta= 0.70
     Davidson diagonalization with overlap
     ethr =  1.94E-06,  avg # of iterations =  1.5

     negative rho (up, down):  1.465E-02 1.365E-02

     total cpu time spent up to now is      431.9 secs

     total energy              =   -6056.57529826 Ry
     estimated scf accuracy    <       0.00378080 Ry

     total magnetization       =    60.37 Bohr mag/cell
     absolute magnetization    =    67.92 Bohr mag/cell

     iteration # 25     ecut=    50.00 Ry     beta= 0.70
     Davidson diagonalization with overlap
     ethr =  1.13E-06,  avg # of iterations =  1.3

     negative rho (up, down):  1.105E-02 1.034E-02

     total cpu time spent up to now is      449.9 secs

     total energy              =   -6056.57551913 Ry
     estimated scf accuracy    <       0.00192487 Ry

     total magnetization       =    60.37 Bohr mag/cell
     absolute magnetization    =    67.93 Bohr mag/cell

     iteration # 26     ecut=    50.00 Ry     beta= 0.70
     Davidson diagonalization with overlap
     ethr =  5.75E-07,  avg # of iterations =  2.3

     negative rho (up, down):  7.945E-03 7.282E-03

     total cpu time spent up to now is      464.2 secs

     total energy              =   -6056.57556607 Ry
     estimated scf accuracy    <       0.00072543 Ry

     total magnetization       =    60.39 Bohr mag/cell
     absolute magnetization    =    67.95 Bohr mag/cell

     iteration # 27     ecut=    50.00 Ry     beta= 0.70
     Davidson diagonalization with overlap
     ethr =  2.17E-07,  avg # of iterations =  3.9

     negative rho (up, down):  4.610E-03 3.826E-03

     total cpu time spent up to now is      485.3 secs

     total energy              =   -6056.57555540 Ry
     estimated scf accuracy    <       0.00063060 Ry

     total magnetization       =    60.39 Bohr mag/cell
     absolute magnetization    =    67.95 Bohr mag/cell

     iteration # 28     ecut=    50.00 Ry     beta= 0.70
     Davidson diagonalization with overlap
     ethr =  1.88E-07,  avg # of iterations =  1.5

     negative rho (up, down):  6.115E-03 5.383E-03

     total cpu time spent up to now is      499.0 secs

     total energy              =   -6056.57559443 Ry
     estimated scf accuracy    <       0.00082079 Ry

     total magnetization       =    60.39 Bohr mag/cell
     absolute magnetization    =    67.95 Bohr mag/cell

     iteration # 29     ecut=    50.00 Ry     beta= 0.70
     Davidson diagonalization with overlap
     ethr =  1.88E-07,  avg # of iterations =  1.3

     negative rho (up, down):  5.008E-03 4.180E-03

     total cpu time spent up to now is      516.5 secs

     total energy              =   -6056.57562277 Ry
     estimated scf accuracy    <       0.00062262 Ry

     total magnetization       =    60.38 Bohr mag/cell
     absolute magnetization    =    67.94 Bohr mag/cell

     iteration # 30     ecut=    50.00 Ry     beta= 0.70
     Davidson diagonalization with overlap
     ethr =  1.86E-07,  avg # of iterations =  1.0

     negative rho (up, down):  4.655E-03 3.712E-03

     total cpu time spent up to now is      533.9 secs

     total energy              =   -6056.57566769 Ry
     estimated scf accuracy    <       0.00015657 Ry

     total magnetization       =    60.39 Bohr mag/cell
     absolute magnetization    =    67.95 Bohr mag/cell

     iteration # 31     ecut=    50.00 Ry     beta= 0.70
     Davidson diagonalization with overlap
     c_bands:  1 eigenvalues not converged
     ethr =  4.67E-08,  avg # of iterations =  3.5

     negative rho (up, down):  4.301E-03 3.313E-03

     total cpu time spent up to now is      549.8 secs

     total energy              =   -6056.57566115 Ry
     estimated scf accuracy    <       0.00007488 Ry

     total magnetization       =    60.39 Bohr mag/cell
     absolute magnetization    =    67.94 Bohr mag/cell

     iteration # 32     ecut=    50.00 Ry     beta= 0.70
     Davidson diagonalization with overlap
     c_bands:  1 eigenvalues not converged
     c_bands:  1 eigenvalues not converged
     ethr =  2.24E-08,  avg # of iterations =  3.9

     negative rho (up, down):  4.032E-03 3.007E-03

     total cpu time spent up to now is      570.1 secs

     total energy              =   -6056.57565561 Ry
     estimated scf accuracy    <       0.00008047 Ry

     total magnetization       =    60.39 Bohr mag/cell
     absolute magnetization    =    67.94 Bohr mag/cell

     iteration # 33     ecut=    50.00 Ry     beta= 0.70
     Davidson diagonalization with overlap
     ethr =  2.24E-08,  avg # of iterations =  1.8

     negative rho (up, down):  3.700E-03 2.630E-03

     total cpu time spent up to now is      583.8 secs

     total energy              =   -6056.57564688 Ry
     estimated scf accuracy    <       0.00009095 Ry

     total magnetization       =    60.39 Bohr mag/cell
     absolute magnetization    =    67.94 Bohr mag/cell

     iteration # 34     ecut=    50.00 Ry     beta= 0.70
     Davidson diagonalization with overlap
     ethr =  2.24E-08,  avg # of iterations =  1.6

     negative rho (up, down):  3.866E-03 2.916E-03

     total cpu time spent up to now is      603.0 secs

     total energy              =   -6056.57565769 Ry
     estimated scf accuracy    <       0.00010836 Ry

     total magnetization       =    60.39 Bohr mag/cell
     absolute magnetization    =    67.94 Bohr mag/cell

     iteration # 35     ecut=    50.00 Ry     beta= 0.70
     Davidson diagonalization with overlap
     ethr =  2.24E-08,  avg # of iterations =  1.8

     negative rho (up, down):  4.023E-03 3.166E-03

     total cpu time spent up to now is      617.5 secs

     total energy              =   -6056.57567335 Ry
     estimated scf accuracy    <       0.00010613 Ry

     total magnetization       =    60.38 Bohr mag/cell
     absolute magnetization    =    67.94 Bohr mag/cell

     iteration # 36     ecut=    50.00 Ry     beta= 0.70
     Davidson diagonalization with overlap
     ethr =  2.24E-08,  avg # of iterations =  1.2

     negative rho (up, down):  3.964E-03 3.130E-03

     total cpu time spent up to now is      635.1 secs

     total energy              =   -6056.57567435 Ry
     estimated scf accuracy    <       0.00005620 Ry

     total magnetization       =    60.39 Bohr mag/cell
     absolute magnetization    =    67.94 Bohr mag/cell

     iteration # 37     ecut=    50.00 Ry     beta= 0.70
     Davidson diagonalization with overlap
     ethr =  1.68E-08,  avg # of iterations =  1.3

     negative rho (up, down):  3.754E-03 2.948E-03

     total cpu time spent up to now is      648.6 secs

     total energy              =   -6056.57567125 Ry
     estimated scf accuracy    <       0.00003831 Ry

     total magnetization       =    60.38 Bohr mag/cell
     absolute magnetization    =    67.94 Bohr mag/cell

     iteration # 38     ecut=    50.00 Ry     beta= 0.70
     Davidson diagonalization with overlap
     ethr =  1.14E-08,  avg # of iterations =  1.8

     negative rho (up, down):  3.363E-03 2.461E-03

     total cpu time spent up to now is      667.8 secs

     total energy              =   -6056.57565815 Ry
     estimated scf accuracy    <       0.00001484 Ry

     total magnetization       =    60.38 Bohr mag/cell
     absolute magnetization    =    67.94 Bohr mag/cell

     iteration # 39     ecut=    50.00 Ry     beta= 0.70
     Davidson diagonalization with overlap
     c_bands:  1 eigenvalues not converged
     ethr =  4.43E-09,  avg # of iterations =  3.0

     negative rho (up, down):  3.141E-03 2.168E-03

     total cpu time spent up to now is      687.1 secs

     total energy              =   -6056.57565065 Ry
     estimated scf accuracy    <       0.00002102 Ry

     total magnetization       =    60.38 Bohr mag/cell
     absolute magnetization    =    67.93 Bohr mag/cell

     iteration # 40     ecut=    50.00 Ry     beta= 0.70
     Davidson diagonalization with overlap
     ethr =  4.43E-09,  avg # of iterations =  1.8

     negative rho (up, down):  2.700E-03 1.662E-03

     total cpu time spent up to now is      701.1 secs

     total energy              =   -6056.57564478 Ry
     estimated scf accuracy    <       0.00003935 Ry

     total magnetization       =    60.38 Bohr mag/cell
     absolute magnetization    =    67.93 Bohr mag/cell

     iteration # 41     ecut=    50.00 Ry     beta= 0.70
     Davidson diagonalization with overlap
     ethr =  4.43E-09,  avg # of iterations =  1.7

     negative rho (up, down):  2.708E-03 1.684E-03

     total cpu time spent up to now is      720.2 secs

     total energy              =   -6056.57564542 Ry
     estimated scf accuracy    <       0.00002280 Ry

     total magnetization       =    60.38 Bohr mag/cell
     absolute magnetization    =    67.93 Bohr mag/cell

     iteration # 42     ecut=    50.00 Ry     beta= 0.70
     Davidson diagonalization with overlap
     ethr =  4.43E-09,  avg # of iterations =  1.2

     negative rho (up, down):  2.355E-03 1.268E-03

     total cpu time spent up to now is      733.6 secs

     total energy              =   -6056.57564573 Ry
     estimated scf accuracy    <       0.00001345 Ry

     total magnetization       =    60.38 Bohr mag/cell
     absolute magnetization    =    67.93 Bohr mag/cell

     iteration # 43     ecut=    50.00 Ry     beta= 0.70
     Davidson diagonalization with overlap
     ethr =  4.02E-09,  avg # of iterations =  1.8

     negative rho (up, down):  2.394E-03 1.312E-03

     total cpu time spent up to now is      752.3 secs

     total energy              =   -6056.57564610 Ry
     estimated scf accuracy    <       0.00000581 Ry

     total magnetization       =    60.38 Bohr mag/cell
     absolute magnetization    =    67.93 Bohr mag/cell

     iteration # 44     ecut=    50.00 Ry     beta= 0.70
     Davidson diagonalization with overlap
     ethr =  1.73E-09,  avg # of iterations =  2.8

     negative rho (up, down):  2.492E-03 1.412E-03

     total cpu time spent up to now is      767.4 secs

     total energy              =   -6056.57564573 Ry
     estimated scf accuracy    <       0.00001490 Ry

     total magnetization       =    60.38 Bohr mag/cell
     absolute magnetization    =    67.93 Bohr mag/cell

     iteration # 45     ecut=    50.00 Ry     beta= 0.70
     Davidson diagonalization with overlap
     ethr =  1.73E-09,  avg # of iterations =  2.0

     negative rho (up, down):  2.326E-03 1.238E-03

     total cpu time spent up to now is      786.9 secs

     total energy              =   -6056.57564614 Ry
     estimated scf accuracy    <       0.00000981 Ry

     total magnetization       =    60.38 Bohr mag/cell
     absolute magnetization    =    67.93 Bohr mag/cell

     iteration # 46     ecut=    50.00 Ry     beta= 0.70
     Davidson diagonalization with overlap
     ethr =  1.73E-09,  avg # of iterations =  1.3

     negative rho (up, down):  2.311E-03 1.225E-03

     total cpu time spent up to now is      804.9 secs

     total energy              =   -6056.57564652 Ry
     estimated scf accuracy    <       0.00000075 Ry

     total magnetization       =    60.38 Bohr mag/cell
     absolute magnetization    =    67.93 Bohr mag/cell

     iteration # 47     ecut=    50.00 Ry     beta= 0.70
     Davidson diagonalization with overlap
     c_bands:  1 eigenvalues not converged
     ethr =  2.24E-10,  avg # of iterations =  7.7

     negative rho (up, down):  2.333E-03 1.248E-03

     total cpu time spent up to now is      826.2 secs

     total energy              =   -6056.57564659 Ry
     estimated scf accuracy    <       0.00000145 Ry

     total magnetization       =    60.38 Bohr mag/cell
     absolute magnetization    =    67.93 Bohr mag/cell

     iteration # 48     ecut=    50.00 Ry     beta= 0.70
     Davidson diagonalization with overlap
     ethr =  2.24E-10,  avg # of iterations =  2.2

     negative rho (up, down):  2.312E-03 1.226E-03

     total cpu time spent up to now is      846.1 secs

     total energy              =   -6056.57564661 Ry
     estimated scf accuracy    <       0.00000122 Ry

     total magnetization       =    60.38 Bohr mag/cell
     absolute magnetization    =    67.93 Bohr mag/cell

     iteration # 49     ecut=    50.00 Ry     beta= 0.70
     Davidson diagonalization with overlap
     ethr =  2.24E-10,  avg # of iterations =  1.1

     negative rho (up, down):  2.292E-03 1.206E-03

     total cpu time spent up to now is      863.9 secs

     total energy              =   -6056.57564661 Ry
     estimated scf accuracy    <       0.00000077 Ry

     total magnetization       =    60.38 Bohr mag/cell
     absolute magnetization    =    67.93 Bohr mag/cell

     iteration # 50     ecut=    50.00 Ry     beta= 0.70
     Davidson diagonalization with overlap
     ethr =  2.24E-10,  avg # of iterations =  1.0

     negative rho (up, down):  2.302E-03 1.216E-03

     total cpu time spent up to now is      877.2 secs

     total energy              =   -6056.57564663 Ry
     estimated scf accuracy    <       0.00000032 Ry

     total magnetization       =    60.38 Bohr mag/cell
     absolute magnetization    =    67.93 Bohr mag/cell

     iteration # 51     ecut=    50.00 Ry     beta= 0.70
     Davidson diagonalization with overlap
     ethr =  9.56E-11,  avg # of iterations =  1.7

     negative rho (up, down):  2.289E-03 1.203E-03

     total cpu time spent up to now is      896.2 secs

     total energy              =   -6056.57564661 Ry
     estimated scf accuracy    <       0.00000069 Ry

     total magnetization       =    60.38 Bohr mag/cell
     absolute magnetization    =    67.93 Bohr mag/cell

     iteration # 52     ecut=    50.00 Ry     beta= 0.70
     Davidson diagonalization with overlap
     ethr =  9.56E-11,  avg # of iterations =  1.2

     negative rho (up, down):  2.273E-03 1.187E-03

     total cpu time spent up to now is      910.6 secs

     total energy              =   -6056.57564661 Ry
     estimated scf accuracy    <       0.00000029 Ry

     total magnetization       =    60.38 Bohr mag/cell
     absolute magnetization    =    67.93 Bohr mag/cell

     iteration # 53     ecut=    50.00 Ry     beta= 0.70
     Davidson diagonalization with overlap
     ethr =  8.77E-11,  avg # of iterations =  1.3

     negative rho (up, down):  2.263E-03 1.177E-03

     total cpu time spent up to now is      928.9 secs

     total energy              =   -6056.57564660 Ry
     estimated scf accuracy    <       0.00000041 Ry

     total magnetization       =    60.38 Bohr mag/cell
     absolute magnetization    =    67.93 Bohr mag/cell

     iteration # 54     ecut=    50.00 Ry     beta= 0.70
     Davidson diagonalization with overlap
     ethr =  8.77E-11,  avg # of iterations =  1.1

     negative rho (up, down):  2.269E-03 1.183E-03

     total cpu time spent up to now is      942.3 secs

     total energy              =   -6056.57564662 Ry
     estimated scf accuracy    <       0.00000014 Ry

     total magnetization       =    60.38 Bohr mag/cell
     absolute magnetization    =    67.93 Bohr mag/cell

     iteration # 55     ecut=    50.00 Ry     beta= 0.70
     Davidson diagonalization with overlap
     c_bands:  1 eigenvalues not converged
     ethr =  4.12E-11,  avg # of iterations =  2.1

     negative rho (up, down):  2.258E-03 1.173E-03

     total cpu time spent up to now is      961.5 secs

     total energy              =   -6056.57564660 Ry
     estimated scf accuracy    <       0.00000005 Ry

     total magnetization       =    60.38 Bohr mag/cell
     absolute magnetization    =    67.93 Bohr mag/cell

     iteration # 56     ecut=    50.00 Ry     beta= 0.70
     Davidson diagonalization with overlap
     ethr =  1.43E-11,  avg # of iterations =  3.0

     negative rho (up, down):  2.251E-03 1.165E-03

     total cpu time spent up to now is      977.7 secs

     total energy              =   -6056.57564659 Ry
     estimated scf accuracy    <       0.00000001 Ry

     total magnetization       =    60.38 Bohr mag/cell
     absolute magnetization    =    67.93 Bohr mag/cell

     iteration # 57     ecut=    50.00 Ry     beta= 0.70
     Davidson diagonalization with overlap
     ethr =  4.45E-12,  avg # of iterations =  5.6

     negative rho (up, down):  2.254E-03 1.168E-03

     total cpu time spent up to now is     1002.0 secs

     total energy              =   -6056.57564660 Ry
     estimated scf accuracy    <       0.00000006 Ry

     total magnetization       =    60.38 Bohr mag/cell
     absolute magnetization    =    67.93 Bohr mag/cell

     iteration # 58     ecut=    50.00 Ry     beta= 0.70
     Davidson diagonalization with overlap
     ethr =  4.45E-12,  avg # of iterations =  1.7

     negative rho (up, down):  2.245E-03 1.160E-03

     Magnetic moment per site  (integrated on atomic sphere of radius R)
     atom   1 (R=0.084)  charge=  5.3380  magn=  1.5755
     atom   2 (R=0.084)  charge=  5.3403  magn=  1.5716
     atom   3 (R=0.084)  charge=  5.3399  magn=  1.5794
     atom   4 (R=0.084)  charge=  5.3405  magn=  1.5850
     atom   5 (R=0.084)  charge=  5.3401  magn=  1.5804
     atom   6 (R=0.084)  charge=  5.3406  magn=  1.5790
     atom   7 (R=0.084)  charge=  5.3380  magn=  1.5786
     atom   8 (R=0.084)  charge=  5.3392  magn=  1.5643
     atom   9 (R=0.084)  charge=  5.3408  magn=  1.5755
     atom  10 (R=0.084)  charge=  5.3312  magn=  1.5167
     atom  11 (R=0.084)  charge=  5.3334  magn=  1.5094
     atom  12 (R=0.084)  charge=  5.3332  magn=  1.5245
     atom  13 (R=0.084)  charge=  5.3326  magn=  1.5269
     atom  14 (R=0.084)  charge=  5.3337  magn=  1.5238
     atom  15 (R=0.084)  charge=  5.3330  magn=  1.5197
     atom  16 (R=0.084)  charge=  5.3327  magn=  1.5136
     atom  17 (R=0.084)  charge=  5.3330  magn=  1.5224
     atom  18 (R=0.084)  charge=  5.3336  magn=  1.5203
     atom  19 (R=0.084)  charge=  5.3316  magn=  1.5109
     atom  20 (R=0.084)  charge=  5.3326  magn=  1.5099
     atom  21 (R=0.084)  charge=  5.3321  magn=  1.5359
     atom  22 (R=0.084)  charge=  5.3334  magn=  1.5144
     atom  23 (R=0.084)  charge=  5.3330  magn=  1.5045
     atom  24 (R=0.084)  charge=  5.3331  magn=  1.5172
     atom  25 (R=0.084)  charge=  5.3311  magn=  1.4949
     atom  26 (R=0.084)  charge=  5.3302  magn=  1.5159
     atom  27 (R=0.084)  charge=  5.3326  magn=  1.5110
     atom  28 (R=0.084)  charge=  5.3451  magn=  1.2170
     atom  29 (R=0.084)  charge=  5.3396  magn=  0.7693
     atom  30 (R=0.084)  charge=  5.3382  magn=  1.5528
     atom  31 (R=0.084)  charge=  5.3415  magn=  1.6000
     atom  32 (R=0.084)  charge=  5.3410  magn=  1.5875
     atom  33 (R=0.084)  charge=  5.3380  magn=  1.5941
     atom  34 (R=0.084)  charge=  5.3388  magn=  1.6057
     atom  35 (R=0.084)  charge=  5.3442  magn=  1.5177
     atom  36 (R=0.084)  charge=  5.3411  magn=  1.6102
     atom  37 (R=0.066)  charge=  1.0466  magn= -0.0196
     atom  38 (R=0.066)  charge=  2.9244  magn= -0.0352
     atom  39 (R=0.084)  charge=  0.7106  magn= -0.0145

     total cpu time spent up to now is     1020.0 secs

     End of self-consistent calculation

 ------ SPIN UP ------------


          k = 0.0000 0.0000 0.0000 ( 51087 PWs)   bands (ev):

   -21.9478  -9.2431  -7.6320  -6.4181  -5.8053  -5.7521  -5.3950  -4.8415
    -4.8057  -4.8032  -4.7990  -4.7802  -4.7706  -4.7507  -4.4547  -4.2868
    -4.2700  -4.2676  -4.2475  -4.2348  -4.2208  -3.9094  -3.7546  -3.7508
    -3.7437  -3.7284  -3.7014  -3.6635  -3.6199  -3.6175  -3.6124  -3.6069
    -3.5883  -3.5419  -3.5360  -3.4152  -3.2359  -3.2315  -3.2276  -3.2252
    -3.1716  -3.1669  -3.1603  -3.1548  -3.1521  -3.1447  -3.1338  -3.1078
    -2.9995  -2.9984  -2.9319  -2.9287  -2.9221  -2.9170  -2.9058  -2.8957
    -2.8946  -2.8916  -2.8828  -2.8633  -2.7945  -2.7865  -2.7815  -2.7736
    -2.7075  -2.6266  -2.2880  -2.2540  -2.2508  -2.2466  -2.2440  -2.1479
    -2.1246  -2.1154  -2.0994  -2.0932  -2.0827  -2.0721  -2.0696  -2.0643
    -2.0221  -2.0196  -1.9928  -1.9751  -1.9727  -1.9638  -1.9507  -1.9421
    -1.9366  -1.9318  -1.9255  -1.9207  -1.9125  -1.8974  -1.8926  -1.8847
    -1.8832  -1.8800  -1.8777  -1.8761  -1.8730  -1.8714  -1.8678  -1.8585
    -1.8489  -1.8443  -1.8163  -1.7987  -1.7883  -1.7205  -1.7145  -1.6103
    -1.5413  -1.4305  -1.4297  -1.4277  -1.4201  -1.4114  -1.3987  -1.3865
    -1.3826  -1.3756  -1.3602  -1.3339  -1.3303  -1.2104  -1.2065  -1.1946
    -1.1793  -1.1689  -1.0791  -1.0334  -1.0071  -0.9986  -0.9707  -0.9613
    -0.9463  -0.9439  -0.9346  -0.9313  -0.9201  -0.8737  -0.8209  -0.7956
    -0.7128  -0.6918  -0.6878  -0.6827  -0.6675  -0.6440  -0.6265  -0.6214
    -0.6182  -0.6160  -0.6151  -0.6125  -0.6059  -0.5962  -0.5931  -0.5845
    -0.5802  -0.5719  -0.5633  -0.5502  -0.5457  -0.5416  -0.5313  -0.5207
    -0.5191  -0.5067  -0.4988  -0.4945  -0.4877  -0.4759  -0.4747  -0.4694
    -0.4651  -0.4595  -0.4387  -0.4145  -0.3979  -0.3896  -0.3851  -0.3773
    -0.3727  -0.3634  -0.3497  -0.3436  -0.3339  -0.2965  -0.2911  -0.2902
    -0.2826  -0.2782  -0.2259  -0.2211  -0.2144  -0.2059  -0.1680  -0.1538
     0.4744   0.8348

          k = 0.0000 0.2309 0.0000 ( 51134 PWs)   bands (ev):

   -21.9478  -9.2343  -7.4891  -6.3196  -5.8209  -5.7541  -5.5318  -5.3630
    -5.0421  -5.0211  -4.7040  -4.5745  -4.4611  -4.4561  -4.3936  -4.3627
    -4.2911  -4.2759  -4.2007  -4.1371  -4.1291  -3.9311  -3.8369  -3.7559
    -3.7466  -3.6791  -3.6349  -3.6249  -3.6219  -3.6103  -3.6006  -3.5860
    -3.5658  -3.5096  -3.4960  -3.4731  -3.4661  -3.3791  -3.2559  -3.2447
    -3.2346  -3.1911  -3.1877  -3.1791  -3.1583  -3.0857  -3.0579  -3.0482
    -3.0216  -3.0196  -3.0111  -2.9812  -2.9608  -2.8855  -2.8764  -2.8459
    -2.8143  -2.8091  -2.7817  -2.7760  -2.7509  -2.7147  -2.7131  -2.6955
    -2.6819  -2.5963  -2.3722  -2.3653  -2.3435  -2.3372  -2.3096  -2.2250
    -2.2144  -2.2012  -2.1955  -2.1856  -2.1800  -2.1711  -2.1471  -2.0918
    -2.0784  -2.0681  -2.0457  -2.0147  -2.0102  -2.0061  -1.9916  -1.9858
    -1.9737  -1.9678  -1.9603  -1.9583  -1.9501  -1.9272  -1.9118  -1.8739
    -1.8550  -1.8513  -1.7870  -1.7821  -1.7715  -1.7694  -1.7605  -1.7572
    -1.7444  -1.7361  -1.7270  -1.7244  -1.7125  -1.6968  -1.6833  -1.6703
    -1.6541  -1.6454  -1.6208  -1.5578  -1.5453  -1.4747  -1.4551  -1.4510
    -1.4432  -1.4257  -1.4214  -1.4126  -1.3929  -1.3774  -1.3532  -1.2538
    -1.2333  -1.2155  -1.1650  -1.1552  -1.1386  -1.0870  -1.0661  -1.0562
    -1.0375  -0.9662  -0.9551  -0.9412  -0.9156  -0.9123  -0.8817  -0.8704
    -0.8545  -0.8396  -0.8308  -0.7995  -0.7853  -0.7727  -0.7658  -0.7609
    -0.7092  -0.7009  -0.6871  -0.6814  -0.6737  -0.6501  -0.6273  -0.6161
    -0.6082  -0.6019  -0.5974  -0.5848  -0.5664  -0.5578  -0.5464  -0.5283
    -0.5019  -0.4900  -0.4735  -0.4366  -0.4212  -0.4010  -0.3894  -0.3648
    -0.3595  -0.3445  -0.3413  -0.3295  -0.3125  -0.3062  -0.2999  -0.2668
    -0.2301  -0.2237  -0.2118  -0.1904  -0.1843  -0.1685  -0.1501  -0.1332
    -0.0693   0.0052   0.1525   0.1659   0.2618   0.3266   0.4280   0.4412
     0.4696   0.7901

          k = 0.0000 0.4619 0.0000 ( 51204 PWs)   bands (ev):

   -21.9478  -9.2203  -7.0681  -6.4158  -6.0868  -5.7896  -5.6540  -5.3531
    -5.1881  -5.1407  -5.0418  -4.4275  -4.2918  -4.2880  -4.2694  -4.2208
    -4.1296  -4.0993  -4.0730  -4.0011  -3.9672  -3.9614  -3.9491  -3.7938
    -3.7838  -3.7782  -3.7700  -3.7472  -3.7054  -3.6619  -3.6514  -3.5270
    -3.4966  -3.4857  -3.4712  -3.4504  -3.4402  -3.3914  -3.3398  -3.3337
    -3.3202  -3.3150  -3.2466  -3.1967  -3.1174  -3.0959  -3.0239  -3.0178
    -2.9839  -2.9676  -2.9414  -2.9297  -2.9228  -2.8984  -2.8836  -2.8325
    -2.8252  -2.7968  -2.7697  -2.7649  -2.6308  -2.6242  -2.5968  -2.5844
    -2.5422  -2.5114  -2.4849  -2.4749  -2.4555  -2.3996  -2.3423  -2.3397
    -2.3342  -2.3273  -2.3186  -2.2983  -2.2839  -2.2703  -2.2559  -2.2421
    -2.2108  -2.1734  -2.1586  -2.1401  -2.1135  -2.0925  -2.0515  -2.0173
    -2.0087  -1.9995  -1.9774  -1.9631  -1.9545  -1.9109  -1.8973  -1.8901
    -1.8860  -1.8691  -1.8578  -1.8324  -1.8185  -1.8112  -1.8048  -1.7859
    -1.7734  -1.7452  -1.7078  -1.7044  -1.6371  -1.6216  -1.6097  -1.6030
    -1.5786  -1.5580  -1.5334  -1.5071  -1.4906  -1.4701  -1.4670  -1.4601
    -1.4564  -1.4509  -1.4427  -1.4307  -1.4269  -1.4120  -1.4020  -1.3915
    -1.3853  -1.3443  -1.2789  -1.2670  -1.2456  -1.2219  -1.2072  -1.1938
    -1.1616  -1.0994  -1.0911  -1.0865  -1.0589  -1.0398  -1.0021  -0.9603
    -0.9399  -0.9209  -0.9136  -0.8905  -0.8761  -0.8618  -0.8387  -0.7509
    -0.7383  -0.7254  -0.7056  -0.7007  -0.6856  -0.6783  -0.6715  -0.6600
    -0.6499  -0.6327  -0.5468  -0.5356  -0.5268  -0.5180  -0.5112  -0.4967
    -0.4858  -0.4742  -0.4511  -0.4449  -0.4193  -0.4030  -0.3572  -0.3379
    -0.3306  -0.3054  -0.2963  -0.2448  -0.2331  -0.2082  -0.1975  -0.1570
    -0.1249  -0.1186  -0.1137  -0.0975  -0.0877  -0.0825  -0.0747  -0.0170
     0.0176   0.0633   0.4901   0.6466   0.9466   1.1288   1.1527   1.3689
     1.4935   1.5271

          k = 0.2000-0.1155 0.0000 ( 51134 PWs)   bands (ev):

   -21.9478  -9.2328  -7.4902  -6.3220  -5.8648  -5.7183  -5.5235  -5.3613
    -5.0412  -5.0253  -4.7098  -4.5525  -4.4643  -4.4555  -4.3969  -4.3580
    -4.3106  -4.2733  -4.1911  -4.1502  -4.1321  -3.8954  -3.8629  -3.7507
    -3.7346  -3.6766  -3.6404  -3.6259  -3.6218  -3.6163  -3.6055  -3.5876
    -3.5562  -3.5170  -3.4972  -3.4748  -3.4671  -3.3877  -3.2642  -3.2473
    -3.2398  -3.1922  -3.1876  -3.1714  -3.1570  -3.0945  -3.0584  -3.0454
    -3.0218  -3.0179  -3.0109  -2.9773  -2.9500  -2.8868  -2.8769  -2.8517
    -2.8114  -2.7972  -2.7794  -2.7777  -2.7493  -2.7152  -2.7113  -2.6968
    -2.6685  -2.6051  -2.3756  -2.3644  -2.3404  -2.3293  -2.3081  -2.2238
    -2.2160  -2.2044  -2.1968  -2.1869  -2.1814  -2.1657  -2.1315  -2.0895
    -2.0830  -2.0674  -2.0470  -2.0144  -2.0100  -2.0043  -1.9990  -1.9815
    -1.9759  -1.9719  -1.9642  -1.9600  -1.9467  -1.9323  -1.8942  -1.8707
    -1.8593  -1.8361  -1.7997  -1.7849  -1.7788  -1.7688  -1.7607  -1.7555
    -1.7478  -1.7384  -1.7285  -1.7238  -1.7174  -1.7030  -1.6804  -1.6703
    -1.6576  -1.6373  -1.6287  -1.5709  -1.5487  -1.4984  -1.4509  -1.4473
    -1.4359  -1.4297  -1.4177  -1.4150  -1.3924  -1.3732  -1.2991  -1.2625
    -1.2319  -1.2225  -1.1671  -1.1562  -1.1326  -1.0985  -1.0741  -1.0590
    -1.0054  -0.9762  -0.9681  -0.9541  -0.9259  -0.9134  -0.8865  -0.8803
    -0.8641  -0.8358  -0.8147  -0.7924  -0.7850  -0.7790  -0.7678  -0.7508
    -0.7130  -0.6943  -0.6857  -0.6815  -0.6623  -0.6394  -0.6227  -0.6154
    -0.6083  -0.6034  -0.5954  -0.5862  -0.5719  -0.5588  -0.5452  -0.5351
    -0.4912  -0.4749  -0.4641  -0.4375  -0.4250  -0.4098  -0.3808  -0.3657
    -0.3563  -0.3428  -0.3351  -0.3328  -0.3132  -0.3060  -0.3013  -0.2591
    -0.2283  -0.2159  -0.2121  -0.1905  -0.1829  -0.1676  -0.1497  -0.1290
    -0.0758  -0.0077   0.1388   0.1661   0.2257   0.3056   0.4129   0.4421
     0.4762   0.7953

          k = 0.2000 0.1155 0.0000 ( 51134 PWs)   bands (ev):

   -21.9478  -9.2324  -7.4906  -6.3238  -5.8827  -5.7033  -5.4924  -5.3917
    -5.0397  -5.0229  -4.7118  -4.5435  -4.4638  -4.4546  -4.4044  -4.3520
    -4.3089  -4.2833  -4.1924  -4.1492  -4.1319  -3.8988  -3.8519  -3.7570
    -3.7309  -3.6736  -3.6353  -3.6278  -3.6225  -3.6187  -3.6022  -3.5965
    -3.5382  -3.5252  -3.5059  -3.4726  -3.4687  -3.3945  -3.2659  -3.2463
    -3.2408  -3.1924  -3.1886  -3.1735  -3.1553  -3.0847  -3.0598  -3.0431
    -3.0207  -3.0166  -3.0093  -2.9808  -2.9563  -2.8881  -2.8778  -2.8486
    -2.8160  -2.7909  -2.7807  -2.7738  -2.7545  -2.7154  -2.7103  -2.7026
    -2.6506  -2.6127  -2.3735  -2.3673  -2.3357  -2.3293  -2.3099  -2.2234
    -2.2174  -2.2107  -2.1937  -2.1895  -2.1793  -2.1655  -2.1233  -2.0905
    -2.0838  -2.0681  -2.0366  -2.0137  -2.0091  -2.0055  -1.9990  -1.9821
    -1.9755  -1.9713  -1.9644  -1.9602  -1.9483  -1.9273  -1.9070  -1.8720
    -1.8609  -1.8361  -1.7970  -1.7834  -1.7801  -1.7674  -1.7610  -1.7579
    -1.7478  -1.7383  -1.7323  -1.7235  -1.7222  -1.7021  -1.6775  -1.6722
    -1.6590  -1.6438  -1.6174  -1.5682  -1.5471  -1.5093  -1.4531  -1.4455
    -1.4347  -1.4251  -1.4193  -1.4125  -1.3933  -1.3657  -1.2816  -1.2677
    -1.2428  -1.2237  -1.1669  -1.1581  -1.1296  -1.1072  -1.0768  -1.0686
    -0.9989  -0.9815  -0.9685  -0.9432  -0.9307  -0.9155  -0.8861  -0.8798
    -0.8634  -0.8348  -0.8181  -0.7913  -0.7896  -0.7777  -0.7742  -0.7515
    -0.7106  -0.6902  -0.6831  -0.6803  -0.6646  -0.6295  -0.6259  -0.6156
    -0.6075  -0.6030  -0.5955  -0.5867  -0.5712  -0.5581  -0.5519  -0.5448
    -0.4880  -0.4686  -0.4590  -0.4409  -0.4213  -0.4199  -0.3793  -0.3662
    -0.3597  -0.3463  -0.3368  -0.3267  -0.3122  -0.3056  -0.2995  -0.2558
    -0.2236  -0.2160  -0.2104  -0.1892  -0.1835  -0.1427  -0.1388  -0.1285
    -0.0756  -0.0281   0.1378   0.1671   0.2037   0.3058   0.4149   0.4371
     0.4714   0.7712

          k = 0.2000 0.3464 0.0000 ( 51202 PWs)   bands (ev):

   -21.9478  -9.2210  -7.2087  -6.1795  -6.0064  -5.9065  -5.6754  -5.5799
    -5.3621  -4.7806  -4.6931  -4.4740  -4.4651  -4.4505  -4.2589  -4.2439
    -4.1729  -4.1466  -4.1409  -4.0179  -4.0047  -3.9219  -3.8665  -3.8349
    -3.7999  -3.7460  -3.6621  -3.6463  -3.6219  -3.6093  -3.5979  -3.5910
    -3.5629  -3.5526  -3.5142  -3.4872  -3.4498  -3.4156  -3.4026  -3.3545
    -3.2677  -3.2208  -3.1877  -3.1688  -3.1449  -3.1267  -3.0798  -3.0289
    -2.9903  -2.9704  -2.9538  -2.9368  -2.9300  -2.8910  -2.8840  -2.8574
    -2.8356  -2.8191  -2.7321  -2.6963  -2.6607  -2.6473  -2.6366  -2.6080
    -2.5798  -2.5624  -2.4780  -2.4089  -2.3927  -2.3688  -2.3486  -2.3204
    -2.3057  -2.2954  -2.2903  -2.2675  -2.2526  -2.2394  -2.2257  -2.2220
    -2.2160  -2.1692  -2.1375  -2.0932  -2.0441  -2.0399  -2.0145  -2.0005
    -1.9917  -1.9666  -1.9475  -1.9369  -1.9237  -1.8981  -1.8834  -1.8797
    -1.8730  -1.8606  -1.8505  -1.8388  -1.8269  -1.8181  -1.8027  -1.7939
    -1.7734  -1.7650  -1.7360  -1.6999  -1.6932  -1.6624  -1.6452  -1.6439
    -1.6355  -1.6132  -1.5924  -1.5596  -1.5486  -1.5348  -1.5149  -1.4840
    -1.4797  -1.4671  -1.4607  -1.4370  -1.4303  -1.4080  -1.3965  -1.3586
    -1.3292  -1.3074  -1.2901  -1.2337  -1.1982  -1.1676  -1.1484  -1.0810
    -1.0520  -1.0332  -1.0256  -1.0101  -1.0086  -1.0001  -0.9745  -0.9657
    -0.9503  -0.9375  -0.9133  -0.8740  -0.8678  -0.8471  -0.8313  -0.8241
    -0.8050  -0.7844  -0.7608  -0.7514  -0.7403  -0.7326  -0.6253  -0.5851
    -0.5832  -0.5606  -0.5472  -0.5373  -0.5240  -0.5188  -0.4978  -0.4909
    -0.4656  -0.4397  -0.4105  -0.4014  -0.3840  -0.3709  -0.3349  -0.3219
    -0.3112  -0.3057  -0.3034  -0.2783  -0.2678  -0.2610  -0.2574  -0.2322
    -0.2238  -0.1521  -0.1356  -0.1326  -0.0882  -0.0827  -0.0585   0.0481
     0.2120   0.2573   0.2930   0.4599   0.5612   0.6668   1.0462   1.1401
     1.2790   1.4037

          k = 0.2000-0.5774 0.0000 ( 51262 PWs)   bands (ev):

   -21.9478  -9.2144  -6.6732  -6.6581  -6.1057  -5.9740  -5.7135  -5.5573
    -5.2173  -5.1764  -4.7763  -4.4485  -4.2473  -4.2058  -4.1584  -4.0589
    -4.0288  -4.0106  -4.0005  -3.9925  -3.9324  -3.9259  -3.9150  -3.9122
    -3.8692  -3.8336  -3.7687  -3.7609  -3.7395  -3.7323  -3.6756  -3.5929
    -3.5818  -3.5717  -3.5535  -3.4976  -3.4291  -3.4095  -3.3476  -3.2889
    -3.2860  -3.2388  -3.2040  -3.1860  -3.1581  -3.1279  -3.0730  -3.0700
    -3.0363  -3.0032  -2.9742  -2.9099  -2.8720  -2.8545  -2.8361  -2.7935
    -2.7848  -2.7119  -2.6998  -2.6859  -2.6790  -2.6673  -2.6444  -2.6255
    -2.5392  -2.4953  -2.4814  -2.4661  -2.4545  -2.4092  -2.3935  -2.3472
    -2.3390  -2.2986  -2.2936  -2.2900  -2.2790  -2.2567  -2.2319  -2.2272
    -2.2112  -2.2015  -2.1818  -2.1586  -2.1543  -2.1258  -2.0812  -2.0631
    -2.0501  -2.0112  -1.9843  -1.9679  -1.9514  -1.9226  -1.9087  -1.8979
    -1.8776  -1.8661  -1.8591  -1.8524  -1.8392  -1.8165  -1.8071  -1.8050
    -1.7481  -1.7233  -1.7141  -1.7042  -1.6891  -1.6821  -1.6777  -1.6653
    -1.6622  -1.6549  -1.6350  -1.5987  -1.5769  -1.5618  -1.5499  -1.5199
    -1.4643  -1.4598  -1.4354  -1.4177  -1.4019  -1.3952  -1.3750  -1.3489
    -1.3202  -1.3021  -1.2731  -1.2422  -1.1971  -1.1667  -1.1576  -1.1400
    -1.1210  -1.1158  -1.1005  -1.0736  -1.0543  -1.0329  -1.0212  -1.0119
    -0.9627  -0.9404  -0.9296  -0.9231  -0.9167  -0.8727  -0.8485  -0.8327
    -0.8248  -0.8086  -0.7948  -0.7850  -0.7693  -0.7517  -0.7095  -0.5861
    -0.5533  -0.5488  -0.5393  -0.5267  -0.5164  -0.5102  -0.4921  -0.4823
    -0.4529  -0.4387  -0.4335  -0.4215  -0.3828  -0.3319  -0.3121  -0.3026
    -0.2879  -0.2782  -0.2596  -0.2489  -0.2147  -0.2051  -0.1990  -0.1833
    -0.1754  -0.1133  -0.1095  -0.1012  -0.0891  -0.0744  -0.0560  -0.0101
     0.1686   0.2763   0.5131   0.8763   1.1383   1.1977   1.3369   1.5313
     1.7053   1.7447

          k = 0.2000-0.3464 0.0000 ( 51202 PWs)   bands (ev):

   -21.9478  -9.2216  -7.2075  -6.1806  -5.9795  -5.9156  -5.6821  -5.6036
    -5.3502  -4.7763  -4.6895  -4.4881  -4.4618  -4.4510  -4.2511  -4.2450
    -4.1786  -4.1469  -4.1405  -4.0152  -3.9969  -3.9284  -3.8685  -3.8452
    -3.8000  -3.7431  -3.6616  -3.6408  -3.6316  -3.6119  -3.6030  -3.5797
    -3.5622  -3.5533  -3.5096  -3.4849  -3.4515  -3.4138  -3.3975  -3.3530
    -3.2699  -3.2200  -3.1854  -3.1744  -3.1423  -3.1235  -3.0792  -3.0280
    -2.9839  -2.9781  -2.9521  -2.9385  -2.9299  -2.8943  -2.8747  -2.8555
    -2.8385  -2.8240  -2.7268  -2.7134  -2.6618  -2.6501  -2.6230  -2.6110
    -2.5863  -2.5625  -2.4752  -2.4086  -2.3885  -2.3682  -2.3488  -2.3195
    -2.3050  -2.2956  -2.2915  -2.2677  -2.2487  -2.2415  -2.2278  -2.2202
    -2.2108  -2.1741  -2.1418  -2.1157  -2.0445  -2.0380  -2.0148  -1.9995
    -1.9908  -1.9660  -1.9563  -1.9330  -1.9157  -1.9001  -1.8860  -1.8811
    -1.8721  -1.8611  -1.8554  -1.8368  -1.8246  -1.8203  -1.8026  -1.7865
    -1.7750  -1.7681  -1.7451  -1.6992  -1.6938  -1.6693  -1.6487  -1.6399
    -1.6365  -1.6089  -1.5887  -1.5687  -1.5430  -1.5173  -1.5105  -1.4888
    -1.4731  -1.4683  -1.4584  -1.4401  -1.4336  -1.4070  -1.3982  -1.3503
    -1.3312  -1.2956  -1.2841  -1.2354  -1.1938  -1.1588  -1.1553  -1.0726
    -1.0571  -1.0352  -1.0202  -1.0160  -1.0079  -1.0007  -0.9746  -0.9652
    -0.9494  -0.9424  -0.9169  -0.8742  -0.8638  -0.8512  -0.8310  -0.8163
    -0.7986  -0.7827  -0.7682  -0.7536  -0.7432  -0.7316  -0.6239  -0.5949
    -0.5821  -0.5621  -0.5488  -0.5372  -0.5270  -0.5125  -0.5013  -0.4884
    -0.4677  -0.4379  -0.4033  -0.3961  -0.3863  -0.3726  -0.3395  -0.3179
    -0.3119  -0.3073  -0.3018  -0.2773  -0.2703  -0.2606  -0.2526  -0.2362
    -0.2312  -0.1544  -0.1359  -0.1320  -0.0901  -0.0850  -0.0721   0.0609
     0.1977   0.2565   0.2864   0.4855   0.5403   0.6685   1.0781   1.1482
     1.2800   1.3797

          k = 0.4000-0.2309 0.0000 ( 51204 PWs)   bands (ev):

   -21.9478  -9.2162  -7.0731  -6.4251  -6.0948  -5.8417  -5.5707  -5.3780
    -5.1778  -5.1419  -5.0388  -4.4281  -4.3182  -4.2921  -4.2561  -4.2166
    -4.1276  -4.1001  -4.0866  -3.9851  -3.9651  -3.9604  -3.9094  -3.7962
    -3.7841  -3.7742  -3.7695  -3.7459  -3.6903  -3.6648  -3.6476  -3.5883
    -3.4989  -3.4915  -3.4762  -3.4529  -3.4400  -3.3940  -3.3441  -3.3344
    -3.3231  -3.3117  -3.2832  -3.1996  -3.1085  -3.0905  -3.0168  -3.0053
    -2.9811  -2.9598  -2.9399  -2.9299  -2.9201  -2.9092  -2.8767  -2.8365
    -2.8257  -2.8026  -2.7607  -2.7374  -2.6306  -2.6145  -2.5955  -2.5703
    -2.5444  -2.5097  -2.4875  -2.4726  -2.4578  -2.4003  -2.3418  -2.3400
    -2.3374  -2.3256  -2.3152  -2.2965  -2.2843  -2.2736  -2.2636  -2.2214
    -2.2071  -2.1770  -2.1593  -2.1395  -2.1113  -2.0984  -2.0628  -2.0211
    -2.0094  -2.0016  -1.9786  -1.9632  -1.9436  -1.9073  -1.8964  -1.8920
    -1.8849  -1.8605  -1.8557  -1.8351  -1.8245  -1.8159  -1.8110  -1.7804
    -1.7704  -1.7404  -1.7101  -1.7065  -1.6392  -1.6266  -1.6000  -1.5837
    -1.5754  -1.5577  -1.5454  -1.4995  -1.4902  -1.4762  -1.4705  -1.4621
    -1.4540  -1.4480  -1.4410  -1.4333  -1.4280  -1.4202  -1.3988  -1.3841
    -1.3663  -1.3529  -1.3015  -1.2566  -1.2434  -1.2278  -1.2113  -1.1820
    -1.1654  -1.1186  -1.0901  -1.0840  -1.0656  -1.0445  -1.0139  -0.9836
    -0.9645  -0.9254  -0.9115  -0.8994  -0.8730  -0.8425  -0.8171  -0.7731
    -0.7536  -0.7102  -0.7030  -0.6838  -0.6814  -0.6767  -0.6645  -0.6579
    -0.6367  -0.6303  -0.5413  -0.5308  -0.5281  -0.5196  -0.5039  -0.4926
    -0.4777  -0.4638  -0.4559  -0.4502  -0.4171  -0.3986  -0.3487  -0.3356
    -0.3234  -0.3104  -0.2824  -0.2408  -0.2357  -0.2046  -0.1955  -0.1575
    -0.1207  -0.1160  -0.1086  -0.0919  -0.0872  -0.0832  -0.0732  -0.0224
     0.0179   0.0578   0.4383   0.6553   0.9495   1.0994   1.1468   1.2889
     1.4712   1.5322

          k = 0.4000 0.0000 0.0000 ( 51202 PWs)   bands (ev):

   -21.9478  -9.2185  -7.2118  -6.1765  -6.0441  -5.8985  -5.6695  -5.5483
    -5.3790  -4.7572  -4.7065  -4.4781  -4.4655  -4.4511  -4.2595  -4.2455
    -4.1713  -4.1443  -4.1409  -4.0381  -4.0133  -3.8818  -3.8710  -3.8106
    -3.7921  -3.7532  -3.6643  -3.6585  -3.6197  -3.6144  -3.5989  -3.5911
    -3.5619  -3.5478  -3.5300  -3.4942  -3.4485  -3.4244  -3.4102  -3.3657
    -3.2795  -3.2314  -3.1870  -3.1567  -3.1420  -3.1283  -3.0735  -3.0275
    -2.9954  -2.9590  -2.9529  -2.9470  -2.9215  -2.8927  -2.8713  -2.8652
    -2.8438  -2.8072  -2.7404  -2.6703  -2.6615  -2.6415  -2.6278  -2.6001
    -2.5921  -2.5525  -2.4800  -2.4061  -2.3880  -2.3664  -2.3506  -2.3234
    -2.3056  -2.2974  -2.2912  -2.2707  -2.2512  -2.2412  -2.2356  -2.2204
    -2.1928  -2.1714  -2.1456  -2.0857  -2.0444  -2.0370  -2.0263  -2.0048
    -1.9872  -1.9706  -1.9446  -1.9345  -1.9273  -1.8966  -1.8812  -1.8742
    -1.8657  -1.8627  -1.8581  -1.8359  -1.8318  -1.8154  -1.8038  -1.7956
    -1.7684  -1.7402  -1.7200  -1.7006  -1.6914  -1.6711  -1.6460  -1.6435
    -1.6309  -1.6178  -1.5980  -1.5721  -1.5480  -1.5349  -1.5090  -1.4940
    -1.4812  -1.4709  -1.4586  -1.4439  -1.4301  -1.4192  -1.4008  -1.3637
    -1.3245  -1.3180  -1.3052  -1.2203  -1.1869  -1.1708  -1.1527  -1.0902
    -1.0422  -1.0357  -1.0300  -1.0240  -1.0058  -0.9956  -0.9808  -0.9751
    -0.9544  -0.9308  -0.9131  -0.8714  -0.8533  -0.8463  -0.8288  -0.8212
    -0.7965  -0.7819  -0.7625  -0.7557  -0.7436  -0.7336  -0.6229  -0.5877
    -0.5762  -0.5556  -0.5474  -0.5369  -0.5231  -0.5180  -0.4981  -0.4907
    -0.4715  -0.4358  -0.4174  -0.3990  -0.3833  -0.3652  -0.3243  -0.3201
    -0.3089  -0.3077  -0.2991  -0.2790  -0.2682  -0.2634  -0.2543  -0.2316
    -0.2219  -0.1499  -0.1364  -0.1336  -0.0925  -0.0896  -0.0451   0.0517
     0.2493   0.2575   0.3155   0.4113   0.5746   0.6429   0.9579   1.1474
     1.2493   1.4110

          k = 0.4000 0.2309 0.0000 ( 51204 PWs)   bands (ev):

   -21.9478  -9.2153  -7.0749  -6.4291  -6.1014  -5.8561  -5.5170  -5.4077
    -5.1783  -5.1361  -5.0377  -4.4349  -4.3271  -4.2868  -4.2613  -4.2170
    -4.1199  -4.0982  -4.0909  -3.9825  -3.9659  -3.9609  -3.8836  -3.7951
    -3.7841  -3.7743  -3.7678  -3.7447  -3.6710  -3.6684  -3.6442  -3.6271
    -3.5011  -3.4961  -3.4824  -3.4522  -3.4460  -3.3969  -3.3426  -3.3364
    -3.3244  -3.3101  -3.2813  -3.1881  -3.1105  -3.0782  -3.0175  -2.9980
    -2.9830  -2.9633  -2.9404  -2.9380  -2.9251  -2.9081  -2.8658  -2.8374
    -2.8285  -2.8030  -2.7678  -2.7243  -2.6237  -2.6131  -2.6013  -2.5737
    -2.5458  -2.5037  -2.4854  -2.4769  -2.4689  -2.3977  -2.3467  -2.3388
    -2.3353  -2.3251  -2.3167  -2.2985  -2.2812  -2.2760  -2.2582  -2.2149
    -2.2002  -2.1798  -2.1628  -2.1452  -2.1077  -2.0906  -2.0558  -2.0291
    -2.0110  -2.0032  -1.9779  -1.9641  -1.9375  -1.9069  -1.9009  -1.8872
    -1.8750  -1.8643  -1.8570  -1.8333  -1.8255  -1.8200  -1.8116  -1.7835
    -1.7671  -1.7340  -1.7243  -1.7061  -1.6425  -1.6298  -1.6002  -1.5820
    -1.5653  -1.5602  -1.5413  -1.4945  -1.4892  -1.4821  -1.4703  -1.4654
    -1.4519  -1.4514  -1.4356  -1.4336  -1.4259  -1.4215  -1.4086  -1.3836
    -1.3646  -1.3478  -1.3133  -1.2566  -1.2358  -1.2311  -1.2124  -1.1779
    -1.1697  -1.1200  -1.1019  -1.0874  -1.0773  -1.0342  -1.0228  -0.9875
    -0.9619  -0.9250  -0.9087  -0.9046  -0.8730  -0.8428  -0.8154  -0.7770
    -0.7411  -0.7111  -0.7031  -0.6865  -0.6801  -0.6716  -0.6661  -0.6528
    -0.6411  -0.6375  -0.5400  -0.5312  -0.5291  -0.5129  -0.5018  -0.4880
    -0.4802  -0.4697  -0.4538  -0.4414  -0.4266  -0.3968  -0.3463  -0.3315
    -0.3253  -0.3121  -0.2784  -0.2384  -0.2334  -0.1999  -0.1956  -0.1563
    -0.1189  -0.1121  -0.1094  -0.0891  -0.0846  -0.0819  -0.0634  -0.0305
     0.0173   0.0577   0.4120   0.7356   0.9135   1.0556   1.1517   1.2211
     1.5016   1.5313

          k = 0.4000-0.6928 0.0000 ( 51262 PWs)   bands (ev):

   -21.9478  -9.2114  -6.7001  -6.6469  -6.1043  -5.9234  -5.8466  -5.4274
    -5.2338  -5.1921  -4.7827  -4.4501  -4.2916  -4.1831  -4.1602  -4.0346
    -4.0278  -4.0065  -3.9976  -3.9739  -3.9410  -3.9199  -3.9155  -3.9073
    -3.8712  -3.7930  -3.7689  -3.7640  -3.7414  -3.7285  -3.6915  -3.5956
    -3.5826  -3.5761  -3.5600  -3.5336  -3.4785  -3.4146  -3.3203  -3.2892
    -3.2827  -3.2634  -3.1932  -3.1852  -3.1570  -3.1042  -3.0719  -3.0676
    -3.0630  -2.9937  -2.9779  -2.9085  -2.8702  -2.8455  -2.8365  -2.7852
    -2.7677  -2.7103  -2.7012  -2.6948  -2.6837  -2.6740  -2.6258  -2.6101
    -2.5366  -2.4919  -2.4808  -2.4663  -2.4594  -2.4155  -2.4012  -2.3456
    -2.3362  -2.3024  -2.2968  -2.2816  -2.2734  -2.2550  -2.2300  -2.2149
    -2.2050  -2.1961  -2.1749  -2.1604  -2.1528  -2.1274  -2.0945  -2.0734
    -2.0557  -2.0390  -1.9895  -1.9569  -1.9361  -1.9181  -1.9107  -1.9004
    -1.8753  -1.8701  -1.8559  -1.8418  -1.8300  -1.8165  -1.8047  -1.7601
    -1.7404  -1.7253  -1.7123  -1.7042  -1.6939  -1.6863  -1.6818  -1.6713
    -1.6647  -1.6578  -1.6328  -1.6217  -1.5757  -1.5594  -1.5436  -1.5399
    -1.4800  -1.4671  -1.4455  -1.4134  -1.3990  -1.3872  -1.3754  -1.3608
    -1.3105  -1.3062  -1.2820  -1.2327  -1.1816  -1.1744  -1.1662  -1.1379
    -1.1238  -1.1084  -1.0978  -1.0884  -1.0676  -1.0441  -1.0144  -0.9934
    -0.9625  -0.9533  -0.9326  -0.9193  -0.9096  -0.8788  -0.8529  -0.8469
    -0.8207  -0.8086  -0.7960  -0.7728  -0.7656  -0.7470  -0.7169  -0.5842
    -0.5539  -0.5456  -0.5353  -0.5225  -0.5191  -0.5050  -0.4908  -0.4623
    -0.4593  -0.4407  -0.4401  -0.4304  -0.3680  -0.3166  -0.3091  -0.3001
    -0.2906  -0.2766  -0.2589  -0.2312  -0.2138  -0.2061  -0.1965  -0.1851
    -0.1780  -0.1430  -0.1091  -0.1006  -0.0889  -0.0741  -0.0555  -0.0102
     0.1760   0.2953   0.5943   0.9007   0.9392   1.1981   1.2660   1.5965
     1.7004   1.7394

          k = 0.4000-0.4619 0.0000 ( 51262 PWs)   bands (ev):

   -21.9478  -9.2119  -6.6955  -6.6466  -6.1063  -5.9484  -5.7969  -5.4719
    -5.2322  -5.1824  -4.7741  -4.4497  -4.2786  -4.1899  -4.1632  -4.0396
    -4.0275  -4.0088  -3.9994  -3.9837  -3.9343  -3.9199  -3.9157  -3.9101
    -3.8725  -3.8102  -3.7698  -3.7624  -3.7415  -3.7298  -3.6795  -3.5976
    -3.5828  -3.5709  -3.5560  -3.5176  -3.4678  -3.4197  -3.3262  -3.2883
    -3.2835  -3.2674  -3.1967  -3.1828  -3.1572  -3.1225  -3.0750  -3.0658
    -3.0437  -2.9985  -2.9625  -2.9096  -2.8737  -2.8526  -2.8389  -2.7851
    -2.7719  -2.7091  -2.7049  -2.6918  -2.6840  -2.6687  -2.6396  -2.5972
    -2.5383  -2.4881  -2.4805  -2.4721  -2.4569  -2.4111  -2.3966  -2.3460
    -2.3375  -2.3012  -2.2904  -2.2871  -2.2763  -2.2586  -2.2357  -2.2203
    -2.2064  -2.1971  -2.1810  -2.1611  -2.1544  -2.1142  -2.0875  -2.0715
    -2.0618  -2.0448  -1.9814  -1.9630  -1.9406  -1.9177  -1.9048  -1.8984
    -1.8771  -1.8691  -1.8583  -1.8462  -1.8319  -1.8115  -1.8080  -1.7768
    -1.7453  -1.7248  -1.7136  -1.7074  -1.6923  -1.6842  -1.6760  -1.6692
    -1.6598  -1.6583  -1.6318  -1.6106  -1.5743  -1.5556  -1.5506  -1.5309
    -1.4809  -1.4679  -1.4465  -1.4109  -1.4005  -1.3871  -1.3793  -1.3519
    -1.3132  -1.3036  -1.2853  -1.2140  -1.1897  -1.1758  -1.1633  -1.1427
    -1.1226  -1.1120  -1.0968  -1.0785  -1.0612  -1.0443  -1.0222  -1.0034
    -0.9617  -0.9568  -0.9335  -0.9245  -0.9025  -0.8746  -0.8476  -0.8366
    -0.8285  -0.8054  -0.7922  -0.7784  -0.7694  -0.7453  -0.7187  -0.5804
    -0.5565  -0.5436  -0.5322  -0.5278  -0.5137  -0.5071  -0.4932  -0.4735
    -0.4541  -0.4493  -0.4373  -0.4213  -0.3710  -0.3268  -0.3073  -0.3018
    -0.2849  -0.2768  -0.2599  -0.2410  -0.2183  -0.2048  -0.2004  -0.1835
    -0.1708  -0.1306  -0.1075  -0.1023  -0.0901  -0.0731  -0.0547  -0.0114
     0.1683   0.2920   0.5583   0.8965   0.9929   1.1993   1.2823   1.5782
     1.7008   1.7431

 ------ SPIN DOWN ----------


          k = 0.0000 0.0000 0.0000 ( 51087 PWs)   bands (ev):

   -22.0250  -9.3227  -7.7671  -6.5007  -5.8089  -5.7883  -5.4222  -4.6606
    -4.6139  -4.6086  -4.6058  -4.5822  -4.5656  -4.5226  -3.9036  -3.7376
    -3.7341  -3.7230  -3.7072  -3.6992  -3.6499  -3.2408  -2.7998  -2.7906
    -2.7849  -2.7763  -2.7175  -2.5693  -2.3362  -2.3251  -2.3183  -2.3146
    -2.2962  -2.2597  -2.1250  -2.1202  -2.0550  -2.0365  -2.0260  -2.0249
    -1.9406  -1.9370  -1.8896  -1.8855  -1.8364  -1.8122  -1.8043  -1.7797
    -1.7550  -1.7304  -1.5495  -1.5439  -1.5251  -1.5145  -1.4985  -1.4975
    -1.4855  -1.4842  -1.4537  -1.4508  -1.4209  -1.4097  -1.4063  -1.4050
    -1.3299  -1.2608  -0.8991  -0.8555  -0.8367  -0.8287  -0.8017  -0.7511
    -0.6506  -0.6211  -0.5347  -0.5208  -0.5110  -0.5030  -0.4924  -0.4823
    -0.4593  -0.4456  -0.4206  -0.4170  -0.4105  -0.4097  -0.3562  -0.3536
    -0.3476  -0.3151  -0.3005  -0.2946  -0.2728  -0.2603  -0.2559  -0.2491
    -0.2458  -0.2364  -0.2261  -0.2250  -0.2213  -0.2189  -0.1697  -0.1343
    -0.1189  -0.0955  -0.0801  -0.0631  -0.0113   0.0001   0.0045   0.0077
     0.0107   0.0143   0.0187   0.0482   0.0879   0.0895   0.1390   0.1643
     0.1757   0.1824   0.1911   0.2172   0.2590   0.3977   0.4092   0.4520
     0.4638   0.4842   0.4948   0.4969   0.5872   0.6984   0.7805   0.8145
     0.8319   0.8729   0.9734   1.0045   1.0261   1.0536   1.0610   1.0638
     1.1212   1.2004   1.2084   1.2196   1.2313   1.2388   1.2463   1.2672
     1.2775   1.2950   1.3024   1.3205   1.3334   1.3376   1.3455   1.3788
     1.3841   1.3887   1.3918   1.3996   1.4319   1.4443   1.4534   1.4625
     1.4718   1.4891   1.4953   1.5054   1.5112   1.5191   1.5210   1.5548
     1.5611   1.5800   1.5834   1.5902   1.5992   1.6057   1.6111   1.6450
     1.6499   1.6544   1.6570   1.6615   1.6663   1.6740   1.6821   1.6859
     1.6908   1.7357   1.7373   1.8788   1.8857   1.8890   1.8908   1.8934
     1.8966   2.0071

          k = 0.0000 0.2309 0.0000 ( 51134 PWs)   bands (ev):

   -22.0250  -9.3137  -7.6236  -6.3959  -5.8503  -5.7907  -5.5499  -5.3860
    -4.9827  -4.9608  -4.5023  -4.4047  -4.0640  -4.0553  -3.9778  -3.9316
    -3.7795  -3.6667  -3.4289  -3.3836  -3.3526  -3.2200  -2.9148  -2.7873
    -2.7603  -2.7078  -2.6679  -2.5914  -2.4197  -2.3563  -2.3531  -2.3365
    -2.3125  -2.2933  -2.2658  -2.2617  -2.2195  -2.2112  -2.0886  -2.0778
    -1.9980  -1.9955  -1.9572  -1.8658  -1.8339  -1.8032  -1.7967  -1.6969
    -1.6686  -1.6514  -1.5943  -1.5623  -1.5441  -1.5265  -1.5044  -1.4999
    -1.4905  -1.4847  -1.3963  -1.3797  -1.3664  -1.3508  -1.3133  -1.2662
    -1.2411  -1.1447  -0.9582  -0.9259  -0.8859  -0.8803  -0.8290  -0.7809
    -0.7322  -0.7056  -0.6744  -0.6313  -0.6184  -0.5578  -0.5414  -0.5318
    -0.4870  -0.4758  -0.4700  -0.4643  -0.4506  -0.4225  -0.4065  -0.3728
    -0.3501  -0.3095  -0.2988  -0.2976  -0.2785  -0.2588  -0.2424  -0.2246
    -0.2173  -0.2138  -0.2046  -0.1985  -0.1966  -0.1940  -0.1675  -0.1493
    -0.1319  -0.1122  -0.1035  -0.0922  -0.0671  -0.0517  -0.0373  -0.0188
    -0.0060   0.0199   0.0438   0.0623   0.1047   0.1216   0.1243   0.1553
     0.2399   0.2739   0.3094   0.3610   0.3778   0.3888   0.4340   0.4422
     0.4467   0.4549   0.4687   0.4757   0.6013   0.6957   0.7761   0.8015
     0.8069   0.8184   0.8297   0.8392   0.8940   0.9089   0.9583   0.9779
     1.0181   1.0289   1.0693   1.0905   1.1134   1.1300   1.1590   1.2127
     1.2229   1.2509   1.2642   1.2838   1.2953   1.3032   1.3422   1.3503
     1.3781   1.3938   1.4285   1.4378   1.4581   1.4694   1.4809   1.4966
     1.5323   1.5461   1.5485   1.5522   1.5792   1.6304   1.6352   1.6443
     1.6491   1.6676   1.6787   1.7039   1.7061   1.7206   1.7270   1.7322
     1.7532   1.7947   1.7988   1.8141   1.8201   1.8280   1.8405   1.8556
     1.8763   1.8794   1.8879   1.9155   1.9752   1.9887   1.9926   2.0420
     2.0719   2.1168

          k = 0.0000 0.4619 0.0000 ( 51204 PWs)   bands (ev):

   -22.0250  -9.2997  -7.1978  -6.5213  -6.1407  -5.8313  -5.6995  -5.3788
    -5.2021  -5.1476  -5.0321  -4.2439  -4.0825  -4.0056  -3.7156  -3.4452
    -3.4361  -3.3501  -3.3069  -3.1514  -3.0353  -2.9947  -2.9733  -2.8422
    -2.8372  -2.7746  -2.7266  -2.7026  -2.6284  -2.5985  -2.5889  -2.5356
    -2.5205  -2.3885  -2.3117  -2.2999  -2.2260  -2.2216  -2.1112  -2.1058
    -2.0873  -2.0781  -2.0648  -1.8458  -1.8083  -1.7906  -1.7583  -1.7442
    -1.5950  -1.5779  -1.5643  -1.5527  -1.5469  -1.5166  -1.5099  -1.4941
    -1.4776  -1.4030  -1.3905  -1.3734  -1.3598  -1.3442  -1.1930  -1.1625
    -1.0732  -1.0244  -0.9415  -0.9099  -0.9042  -0.8736  -0.8511  -0.8396
    -0.8203  -0.8079  -0.7890  -0.7564  -0.7140  -0.6753  -0.6593  -0.6339
    -0.6054  -0.5906  -0.5599  -0.5521  -0.5154  -0.5005  -0.4514  -0.3881
    -0.3706  -0.3565  -0.3445  -0.3176  -0.2983  -0.2757  -0.2423  -0.2289
    -0.1939  -0.1858  -0.1700  -0.1597  -0.1450  -0.1407  -0.1177  -0.0916
    -0.0841  -0.0627  -0.0518  -0.0450  -0.0350  -0.0230  -0.0081   0.0066
     0.0187   0.0455   0.0685   0.1151   0.1620   0.1660   0.1862   0.2226
     0.2267   0.2422   0.2563   0.2883   0.3262   0.3408   0.3466   0.3685
     0.4063   0.4140   0.4337   0.4442   0.4814   0.5391   0.6117   0.6195
     0.6759   0.7095   0.7441   0.8017   0.8444   0.8729   0.8890   0.9011
     0.9260   0.9405   0.9647   0.9911   1.0059   1.0682   1.1608   1.1933
     1.2062   1.2359   1.2516   1.2751   1.3137   1.3264   1.3516   1.3652
     1.3917   1.4110   1.4159   1.4718   1.4953   1.5045   1.5505   1.5597
     1.5696   1.5709   1.5988   1.6158   1.6340   1.6456   1.6560   1.6818
     1.6901   1.7498   1.7555   1.7890   1.8011   1.8198   1.8285   1.8463
     1.8509   1.8763   1.8802   1.8962   1.9134   1.9185   1.9281   1.9305
     1.9763   2.0314   2.0468   2.1203   2.1400   2.2326   2.5698   2.6425
     2.6692   2.7131

          k = 0.2000-0.1155 0.0000 ( 51134 PWs)   bands (ev):

   -22.0250  -9.3124  -7.6247  -6.3989  -5.9023  -5.7370  -5.5464  -5.3919
    -4.9767  -4.9657  -4.5204  -4.3679  -4.0727  -4.0560  -4.0067  -3.9212
    -3.7745  -3.6666  -3.4466  -3.3836  -3.3001  -3.2148  -2.9596  -2.7771
    -2.7497  -2.7271  -2.6716  -2.5632  -2.4413  -2.3562  -2.3519  -2.3409
    -2.3123  -2.2896  -2.2667  -2.2662  -2.2201  -2.2024  -2.0855  -2.0797
    -1.9996  -1.9977  -1.9635  -1.8431  -1.8307  -1.8051  -1.7864  -1.7001
    -1.6636  -1.6528  -1.5940  -1.5605  -1.5501  -1.5207  -1.5057  -1.5018
    -1.4888  -1.4708  -1.4068  -1.3786  -1.3656  -1.3460  -1.3185  -1.2832
    -1.2340  -1.1481  -0.9562  -0.9249  -0.8865  -0.8821  -0.8356  -0.7706
    -0.7516  -0.7185  -0.6811  -0.6294  -0.6161  -0.5610  -0.5336  -0.5264
    -0.4879  -0.4827  -0.4647  -0.4564  -0.4461  -0.4307  -0.4183  -0.3744
    -0.3334  -0.3151  -0.2995  -0.2969  -0.2879  -0.2617  -0.2385  -0.2290
    -0.2177  -0.2068  -0.2047  -0.1974  -0.1964  -0.1929  -0.1752  -0.1476
    -0.1226  -0.1106  -0.0956  -0.0900  -0.0852  -0.0610  -0.0453  -0.0195
     0.0074   0.0129   0.0550   0.0738   0.0987   0.1178   0.1254   0.1554
     0.2457   0.2818   0.3125   0.3567   0.3814   0.3970   0.4231   0.4383
     0.4466   0.4533   0.4720   0.4771   0.5881   0.7150   0.7745   0.7951
     0.8045   0.8207   0.8316   0.8457   0.8915   0.8984   0.9609   0.9838
     1.0206   1.0431   1.0731   1.1015   1.1201   1.1372   1.1623   1.1720
     1.2273   1.2452   1.2664   1.2818   1.2915   1.3062   1.3419   1.3505
     1.3707   1.3916   1.4210   1.4422   1.4590   1.4711   1.4904   1.5160
     1.5337   1.5447   1.5506   1.5526   1.5728   1.6193   1.6318   1.6389
     1.6466   1.6686   1.6757   1.7049   1.7102   1.7206   1.7266   1.7381
     1.7510   1.7961   1.7986   1.8171   1.8207   1.8278   1.8388   1.8552
     1.8691   1.8785   1.8866   1.9019   1.9744   1.9884   1.9955   2.0465
     2.0697   2.1181

          k = 0.2000 0.1155 0.0000 ( 51134 PWs)   bands (ev):

   -22.0250  -9.3120  -7.6251  -6.4010  -5.9199  -5.7191  -5.5188  -5.4196
    -4.9739  -4.9672  -4.5297  -4.3486  -4.0689  -4.0585  -4.0048  -3.9409
    -3.7695  -3.6662  -3.4487  -3.3858  -3.2907  -3.2052  -2.9660  -2.7994
    -2.7409  -2.7128  -2.6864  -2.5485  -2.4506  -2.3598  -2.3517  -2.3371
    -2.3163  -2.2935  -2.2671  -2.2598  -2.2252  -2.1948  -2.0851  -2.0811
    -2.0027  -1.9964  -1.9502  -1.8479  -1.8285  -1.8028  -1.7960  -1.6834
    -1.6714  -1.6603  -1.5858  -1.5727  -1.5505  -1.5182  -1.5029  -1.5005
    -1.4940  -1.4479  -1.4134  -1.3860  -1.3673  -1.3484  -1.3189  -1.2822
    -1.2369  -1.1452  -0.9594  -0.9288  -0.8862  -0.8709  -0.8211  -0.7992
    -0.7581  -0.7015  -0.6702  -0.6361  -0.6201  -0.5615  -0.5445  -0.5137
    -0.4916  -0.4798  -0.4671  -0.4579  -0.4531  -0.4318  -0.4208  -0.3691
    -0.3293  -0.3116  -0.2996  -0.2971  -0.2883  -0.2589  -0.2351  -0.2265
    -0.2188  -0.2090  -0.2039  -0.1999  -0.1967  -0.1960  -0.1623  -0.1480
    -0.1267  -0.1130  -0.0970  -0.0927  -0.0825  -0.0575  -0.0413  -0.0272
     0.0041   0.0187   0.0638   0.0841   0.0869   0.1134   0.1259   0.1563
     0.2274   0.2839   0.3191   0.3497   0.3703   0.3935   0.4252   0.4330
     0.4455   0.4596   0.4730   0.4766   0.6277   0.6891   0.7774   0.7913
     0.8065   0.8135   0.8365   0.8488   0.8766   0.9003   0.9448   0.9758
     0.9975   1.0648   1.0799   1.1014   1.1187   1.1467   1.1630   1.1697
     1.2247   1.2568   1.2773   1.2878   1.2944   1.3012   1.3410   1.3496
     1.3680   1.3942   1.4261   1.4498   1.4565   1.4708   1.4894   1.5084
     1.5299   1.5424   1.5506   1.5580   1.5702   1.6165   1.6260   1.6388
     1.6491   1.6667   1.6805   1.7068   1.7129   1.7195   1.7276   1.7366
     1.7528   1.7960   1.8003   1.8165   1.8194   1.8290   1.8369   1.8543
     1.8714   1.8814   1.8864   1.8916   1.9742   1.9864   1.9960   2.0381
     2.0725   2.1198

[...]
     atom    8 type  1   force =    -0.00282031   -0.00079793   -0.10513904
     atom    9 type  1   force =     0.00380685    0.00001247   -0.10628391
     atom   10 type  1   force =    -0.00064950    0.00069011   -0.00930528
     atom   11 type  1   force =     0.00011553   -0.00011976   -0.00694457
     atom   12 type  1   force =     0.00045129    0.00059571   -0.00855400
     atom   13 type  1   force =     0.00017090   -0.00143028   -0.01105128
     atom   14 type  1   force =    -0.00019756   -0.00135490   -0.01105326
     atom   15 type  1   force =    -0.00058498   -0.00050051   -0.01292465
     atom   16 type  1   force =    -0.00048558    0.00157193   -0.01673283
     atom   17 type  1   force =     0.00188489   -0.00057501   -0.00885484
     atom   18 type  1   force =    -0.00140844    0.00138065   -0.01231613
     atom   19 type  1   force =     0.00219604    0.00422264    0.00907068
     atom   20 type  1   force =    -0.00041923    0.01634687   -0.00271051
     atom   21 type  1   force =    -0.00155894    0.00042326    0.01401607
     atom   22 type  1   force =     0.00015517    0.00056561    0.01840885
     atom   23 type  1   force =    -0.00121650   -0.00092622    0.01234099
     atom   24 type  1   force =    -0.00040469   -0.00016758    0.01219358
     atom   25 type  1   force =    -0.00327780   -0.00346826    0.00403420
     atom   26 type  1   force =    -0.00775297   -0.00831206   -0.00370997
     atom   27 type  1   force =     0.01301253   -0.00715666   -0.00123332
     atom   28 type  1   force =     0.04588554   -0.01425751    0.10643805
     atom   29 type  1   force =    -0.07653813   -0.02028276    0.05500978
     atom   30 type  1   force =    -0.00559339    0.00171541    0.11672147
     atom   31 type  1   force =     0.00364055   -0.02214410    0.13835380
     atom   32 type  1   force =    -0.00009002   -0.01424303    0.12715572
     atom   33 type  1   force =    -0.00026786    0.00020715    0.10640222
     atom   34 type  1   force =     0.00164718    0.00037353    0.11592335
     atom   35 type  1   force =    -0.00019587    0.04413271    0.14011264
     atom   36 type  1   force =     0.00143996    0.01109819    0.12820892
     atom   37 type  2   force =    -0.04795549   -0.06378578    0.40966935
     atom   38 type  3   force =     0.51869639    0.18012561   -2.65760124
     atom   39 type  4   force =    -0.00919353   -0.00230039   -0.02597244
     The ionic contribution  to forces
     atom    1 type  1   force =    -0.00577073    0.00818523 -111.13674844
     atom    2 type  1   force =     0.00467998    0.00877362 -111.13891760
     atom    3 type  1   force =     0.00109071    0.00235417 -111.12745770
     atom    4 type  1   force =    -0.00004553    0.00144806 -111.12593175
     atom    5 type  1   force =    -0.00264079   -0.00548802 -111.13124057
     atom    6 type  1   force =     0.00268632   -0.00670254 -111.13113984
     atom    7 type  1   force =    -0.00737349   -0.00201811 -111.13424952
     atom    8 type  1   force =    -0.00103872   -0.00386333 -111.15117023
     atom    9 type  1   force =     0.00841225   -0.00268912 -111.13634147
     atom   10 type  1   force =    -0.06184101    0.01531789  -40.17649969
     atom   11 type  1   force =     0.05302113    0.01330491  -40.19387691
     atom   12 type  1   force =     0.00880971    0.00429003  -40.07187269
     atom   13 type  1   force =    -0.00566303    0.06811845  -40.09693649
     atom   14 type  1   force =     0.02213956    0.01869822  -40.06370238
     atom   15 type  1   force =    -0.01647278    0.01203347  -40.05232153
     atom   16 type  1   force =    -0.03408356   -0.02480322  -40.06342537
     atom   17 type  1   force =    -0.00246144   -0.07396328  -40.13736928
     atom   18 type  1   force =     0.03654792   -0.03299506  -40.06841527
     atom   19 type  1   force =    -0.28835486    0.41211509   31.29165700
     atom   20 type  1   force =     0.23076501    0.45286465   31.18970965
     atom   21 type  1   force =     0.05648664    0.10710243   31.70300411
     atom   22 type  1   force =    -0.00181434    0.06071304   31.77252371
     atom   23 type  1   force =    -0.12689813   -0.26522841   31.55534055
     atom   24 type  1   force =     0.12863606   -0.31427069   31.56404283
     atom   25 type  1   force =    -0.36575355   -0.09256464   31.41772196
     atom   26 type  1   force =    -0.04881124   -0.22396404   30.46972077
     atom   27 type  1   force =     0.41615064   -0.14093768   31.30347747
     atom   28 type  1   force =    -4.60142784    1.20429875   98.89044917
     atom   29 type  1   force =     3.51396783    0.87977428   97.86159112
     atom   30 type  1   force =     0.59705412    0.06569007  103.91262167
     atom   31 type  1   force =    -0.14212055    2.64481124  103.35977715
     atom   32 type  1   force =     0.66221396    0.79335037  104.16576319
     atom   33 type  1   force =    -0.49305436    0.41134623  104.39746159
     atom   34 type  1   force =    -1.14643503   -0.86052480  104.11181429
     atom   35 type  1   force =     0.01010364   -3.86084932  101.69370609
     atom   36 type  1   force =     1.15761519   -1.13417389  104.10220875
     atom   37 type  2   force =     1.28286459    0.31727874   51.30968244
     atom   38 type  3   force =    -1.98973215   -0.74103505   89.78552990
     atom   39 type  4   force =     1.14854787    0.28420225   15.27981331
     The local contribution  to forces
     atom    1 type  1   force =     0.00350836   -0.00630305  111.24357320
     atom    2 type  1   force =    -0.00357454   -0.01146157  111.24604752
     atom    3 type  1   force =     0.00054537   -0.00080145  111.23220302
     atom    4 type  1   force =    -0.00028606   -0.00221849  111.23240991
     atom    5 type  1   force =     0.00174830    0.00497419  111.23714028
     atom    6 type  1   force =    -0.00114519    0.00529977  111.23873166
     atom    7 type  1   force =     0.00895640    0.00230987  111.24246121
     atom    8 type  1   force =     0.00372809    0.00527760  111.26025292
     atom    9 type  1   force =    -0.01283819    0.00403403  111.24547740
     atom   10 type  1   force =     0.06100720   -0.01738493   40.16598777
     atom   11 type  1   force =    -0.05231437   -0.01385281   40.17927316
     atom   12 type  1   force =    -0.00866758   -0.00488647   40.06115738
     atom   13 type  1   force =     0.00516506   -0.06577594   40.09136873
     atom   14 type  1   force =    -0.02253637   -0.01709999   40.05493067
     atom   15 type  1   force =     0.01761623   -0.01147497   40.04409027
     atom   16 type  1   force =     0.03438536    0.02452951   40.05962566
     atom   17 type  1   force =     0.00021261    0.07402330   40.12959288
     atom   18 type  1   force =    -0.03434975    0.03217566   40.06173621
     atom   19 type  1   force =     0.28740423   -0.41326213  -31.28412778
     atom   20 type  1   force =    -0.23152263   -0.46660041  -31.17194227
     atom   21 type  1   force =    -0.05372682   -0.10696046  -31.69461943
     atom   22 type  1   force =     0.00058910   -0.06230756  -31.76568672
     atom   23 type  1   force =     0.12715139    0.26432013  -31.54458587
     atom   24 type  1   force =    -0.12751250    0.31377714  -31.55604325
     atom   25 type  1   force =     0.36683251    0.09527042  -31.40542359
     atom   26 type  1   force =     0.05634753    0.23195521  -30.45501331
     atom   27 type  1   force =    -0.42978345    0.14749410  -31.28745146
     atom   28 type  1   force =     4.52765708   -1.18474638  -99.00799559
     atom   29 type  1   force =    -3.43516554   -0.86162793  -97.88882635
     atom   30 type  1   force =    -0.59089643   -0.06823446 -104.03164382
     atom   31 type  1   force =     0.13372751   -2.60953822 -103.50772566
     atom   32 type  1   force =    -0.66071642   -0.77446157 -104.30034759
     atom   33 type  1   force =     0.49392291   -0.41077342 -104.51404788
     atom   34 type  1   force =     1.14281486    0.85832599 -104.23561495
     atom   35 type  1   force =    -0.01286332    3.80345831 -101.83928347
     atom   36 type  1   force =    -1.15376612    1.11462276 -104.23862256
     atom   37 type  2   force =    -1.23655325   -0.25637274  -51.71797977
     atom   38 type  3   force =     1.48428540    0.56009273  -87.14560287
     atom   39 type  4   force =    -1.11070572   -0.27528640  -15.26645491
     The core correction contribution to forces
     atom    1 type  1   force =    -0.00005836    0.00005666    0.00983922
     atom    2 type  1   force =     0.00003967   -0.00021998    0.01019673
     atom    3 type  1   force =     0.00027354    0.00005486    0.00974922
     atom    4 type  1   force =     0.00009781   -0.00011785    0.01022668
     atom    5 type  1   force =     0.00018217   -0.00003243    0.01003870
     atom    6 type  1   force =    -0.00000399   -0.00004533    0.00986707
     atom    7 type  1   force =     0.00001796    0.00006376    0.01016175
     atom    8 type  1   force =     0.00028514    0.00033094    0.00994779
     atom    9 type  1   force =    -0.00037583   -0.00002952    0.01026703
     atom   10 type  1   force =    -0.00018070    0.00011931   -0.00194005
     atom   11 type  1   force =     0.00010937    0.00015303   -0.00162945
     atom   12 type  1   force =     0.00008687    0.00013591   -0.00175796
     atom   13 type  1   force =    -0.00033303    0.00018763   -0.00180930
     atom   14 type  1   force =     0.00015319    0.00004128   -0.00191274
     atom   15 type  1   force =     0.00019700   -0.00005342   -0.00171135
     atom   16 type  1   force =    -0.00017163   -0.00000907   -0.00187067
     atom   17 type  1   force =    -0.00013847   -0.00003217   -0.00186930
     atom   18 type  1   force =     0.00008115   -0.00020079   -0.00178725
     atom   19 type  1   force =    -0.00001721    0.00051403    0.00110637
     atom   20 type  1   force =    -0.00020081    0.00083046    0.00010062
     atom   21 type  1   force =     0.00050265    0.00011335    0.00189654
     atom   22 type  1   force =     0.00019092    0.00019007    0.00199973
     atom   23 type  1   force =    -0.00020811    0.00009631    0.00192214
     atom   24 type  1   force =     0.00047000   -0.00052551    0.00134452
     atom   25 type  1   force =     0.00038294   -0.00026670    0.00188195
     atom   26 type  1   force =    -0.00094778   -0.00070496    0.00056300
     atom   27 type  1   force =     0.00067972   -0.00037624    0.00076921
     atom   28 type  1   force =     0.01034587   -0.00191861   -0.00442940
     atom   29 type  1   force =    -0.00910814   -0.00166040    0.00333895
     atom   30 type  1   force =    -0.00709244    0.00075139   -0.00666448
     atom   31 type  1   force =     0.00099576   -0.00617684   -0.00743530
     atom   32 type  1   force =    -0.00135398   -0.00541153   -0.00706800
     atom   33 type  1   force =     0.00017013   -0.00090658   -0.01037242
     atom   34 type  1   force =     0.00098803    0.00111587   -0.00944304
     atom   35 type  1   force =     0.00052724    0.00830530   -0.00575253
     atom   36 type  1   force =    -0.00183919    0.00466087   -0.00747471
     atom   37 type  2   force =     0.00022981    0.00087373   -0.00070134
     atom   38 type  3   force =    -0.00390012   -0.00129967    0.01942400
     atom   39 type  4   force =     0.00000000    0.00000000    0.00000000
     The Hubbard contrib.    to forces
     atom    1 type  1   force =     0.00000000    0.00000000    0.00000000
     atom    2 type  1   force =     0.00000000    0.00000000    0.00000000
     atom    3 type  1   force =     0.00000000    0.00000000    0.00000000
     atom    4 type  1   force =     0.00000000    0.00000000    0.00000000
     atom    5 type  1   force =     0.00000000    0.00000000    0.00000000
     atom    6 type  1   force =     0.00000000    0.00000000    0.00000000
     atom    7 type  1   force =     0.00000000    0.00000000    0.00000000
     atom    8 type  1   force =     0.00000000    0.00000000    0.00000000
     atom    9 type  1   force =     0.00000000    0.00000000    0.00000000
     atom   10 type  1   force =     0.00000000    0.00000000    0.00000000
     atom   11 type  1   force =     0.00000000    0.00000000    0.00000000
     atom   12 type  1   force =     0.00000000    0.00000000    0.00000000
     atom   13 type  1   force =     0.00000000    0.00000000    0.00000000
     atom   14 type  1   force =     0.00000000    0.00000000    0.00000000
     atom   15 type  1   force =     0.00000000    0.00000000    0.00000000
     atom   16 type  1   force =     0.00000000    0.00000000    0.00000000
     atom   17 type  1   force =     0.00000000    0.00000000    0.00000000
     atom   18 type  1   force =     0.00000000    0.00000000    0.00000000
     atom   19 type  1   force =     0.00000000    0.00000000    0.00000000
     atom   20 type  1   force =     0.00000000    0.00000000    0.00000000
     atom   21 type  1   force =     0.00000000    0.00000000    0.00000000
     atom   22 type  1   force =     0.00000000    0.00000000    0.00000000
     atom   23 type  1   force =     0.00000000    0.00000000    0.00000000
     atom   24 type  1   force =     0.00000000    0.00000000    0.00000000
     atom   25 type  1   force =     0.00000000    0.00000000    0.00000000
     atom   26 type  1   force =     0.00000000    0.00000000    0.00000000
     atom   27 type  1   force =     0.00000000    0.00000000    0.00000000
     atom   28 type  1   force =     0.00000000    0.00000000    0.00000000
     atom   29 type  1   force =     0.00000000    0.00000000    0.00000000
     atom   30 type  1   force =     0.00000000    0.00000000    0.00000000
     atom   31 type  1   force =     0.00000000    0.00000000    0.00000000
     atom   32 type  1   force =     0.00000000    0.00000000    0.00000000
     atom   33 type  1   force =     0.00000000    0.00000000    0.00000000
     atom   34 type  1   force =     0.00000000    0.00000000    0.00000000
     atom   35 type  1   force =     0.00000000    0.00000000    0.00000000
     atom   36 type  1   force =     0.00000000    0.00000000    0.00000000
     atom   37 type  2   force =     0.00000000    0.00000000    0.00000000
     atom   38 type  3   force =     0.00000000    0.00000000    0.00000000
     atom   39 type  4   force =     0.00000000    0.00000000    0.00000000
     The SCF correction term to forces
     atom    1 type  1   force =    -0.00000000   -0.00000000    0.00000000
     atom    2 type  1   force =     0.00000000   -0.00000000    0.00000000
     atom    3 type  1   force =    -0.00000000   -0.00000000    0.00000000
     atom    4 type  1   force =    -0.00000000   -0.00000000    0.00000000
     atom    5 type  1   force =     0.00000000   -0.00000000    0.00000000
     atom    6 type  1   force =     0.00000000   -0.00000000    0.00000000
     atom    7 type  1   force =    -0.00000000    0.00000000    0.00000000
     atom    8 type  1   force =     0.00000000    0.00000000    0.00000000
     atom    9 type  1   force =    -0.00000000    0.00000000    0.00000000
     atom   10 type  1   force =    -0.00000000    0.00000000    0.00000000
     atom   11 type  1   force =     0.00000000    0.00000000    0.00000000
     atom   12 type  1   force =    -0.00000000    0.00000000    0.00000000
     atom   13 type  1   force =    -0.00000000   -0.00000000    0.00000000
     atom   14 type  1   force =     0.00000000   -0.00000000    0.00000000
     atom   15 type  1   force =    -0.00000000   -0.00000000    0.00000000
     atom   16 type  1   force =    -0.00000000    0.00000000    0.00000000
     atom   17 type  1   force =     0.00000000   -0.00000000    0.00000000
     atom   18 type  1   force =    -0.00000000    0.00000000    0.00000000
     atom   19 type  1   force =    -0.00000000   -0.00000000    0.00000000
     atom   20 type  1   force =     0.00000000   -0.00000000   -0.00000000
     atom   21 type  1   force =     0.00000000    0.00000000   -0.00000000
     atom   22 type  1   force =    -0.00000000   -0.00000000   -0.00000000
     atom   23 type  1   force =     0.00000000   -0.00000000   -0.00000000
     atom   24 type  1   force =     0.00000000   -0.00000000   -0.00000000
     atom   25 type  1   force =     0.00000000    0.00000000    0.00000000
     atom   26 type  1   force =    -0.00000000    0.00000000    0.00000000
     atom   27 type  1   force =     0.00000000    0.00000000   -0.00000000
     atom   28 type  1   force =     0.00000000    0.00000000   -0.00000000
     atom   29 type  1   force =    -0.00000000    0.00000000   -0.00000000
     atom   30 type  1   force =     0.00000000    0.00000000   -0.00000000
     atom   31 type  1   force =    -0.00000000   -0.00000000   -0.00000000
     atom   32 type  1   force =     0.00000000   -0.00000000   -0.00000000
     atom   33 type  1   force =     0.00000000   -0.00000000   -0.00000000
     atom   34 type  1   force =     0.00000000    0.00000000   -0.00000000
     atom   35 type  1   force =    -0.00000000    0.00000000   -0.00000000
     atom   36 type  1   force =     0.00000000   -0.00000000   -0.00000000
     atom   37 type  2   force =    -0.00000532    0.00000310   -0.00001515
     atom   38 type  3   force =    -0.00000083    0.00000186   -0.00002119
     atom   39 type  4   force =     0.00000000    0.00000042   -0.00000309

     Total force =     0.033543     Total SCF correction =     0.000027

     Writing all to output data dir ./pwscf.save/

     init_run     :     11.67s CPU     12.13s WALL (       1 calls)
     electrons    :    989.94s CPU   1007.68s WALL (       1 calls)
     forces       :      3.90s CPU      3.95s WALL (       1 calls)

     Called by init_run:
     wfcinit      :      8.58s CPU      8.93s WALL (       1 calls)
     potinit      :      2.00s CPU      2.08s WALL (       1 calls)
     hinit0       :      0.84s CPU      0.85s WALL (       1 calls)

     Called by electrons:
     c_bands      :    836.64s CPU    852.20s WALL (      58 calls)
     sum_band     :    101.68s CPU    103.01s WALL (      58 calls)
     v_of_rho     :     11.53s CPU     11.69s WALL (      59 calls)
     newd         :      3.11s CPU      3.18s WALL (      59 calls)
     PAW_pot      :     14.68s CPU     14.85s WALL (      59 calls)
     mix_rho      :     23.66s CPU     23.93s WALL (      58 calls)
     vdW_kernel   :      1.11s CPU      1.11s WALL (       1 calls)

     Called by c_bands:
     init_us_2    :     10.06s CPU     10.24s WALL (    3068 calls)
     init_us_2:cp :     10.04s CPU     10.24s WALL (    3068 calls)
     cegterg      :    807.82s CPU    822.63s WALL (    1509 calls)

     Called by *egterg:
     cdiaghg      :    224.82s CPU    229.70s WALL (    4996 calls)
     h_psi        :    395.00s CPU    402.41s WALL (    5022 calls)
     s_psi        :     41.73s CPU     42.75s WALL (    5022 calls)
     g_psi        :      1.08s CPU      1.11s WALL (    3487 calls)

     Called by h_psi:
     h_psi:calbec :     61.46s CPU     62.88s WALL (    5022 calls)
     vloc_psi     :    288.50s CPU    293.31s WALL (    5022 calls)
     add_vuspsi   :     42.23s CPU     43.35s WALL (    5022 calls)

     General routines
     calbec       :     89.94s CPU     91.70s WALL (    6634 calls)
     fft          :      8.00s CPU      8.12s WALL (    5328 calls)
     ffts         :     12.96s CPU     13.12s WALL (   25051 calls)
     fftw         :    327.76s CPU    333.00s WALL ( 1560878 calls)
     interpolate  :      0.36s CPU      0.36s WALL (     118 calls)

     Parallel routines

     PWSCF        :  16m51.13s CPU  17m14.23s WALL


   This run was terminated on:   8:52:55  14Dec2025            

=------------------------------------------------------------------------------=
   JOB DONE.
=------------------------------------------------------------------------------=
