  37  37   0   0
  0.4190497E+02  0.8468310E-09  0.8468310E-09  0.2496566E-08  0.5000000E-15
  1.000000000000000E-004
  CAR 
 unknown system                          
      8.73121191     -9.88786864  301     -0.07187800      1.00000000
     -9.888  0.0000E+00  0.0000E+00
     -9.826  0.0000E+00  0.0000E+00
     -9.764  0.0000E+00  0.0000E+00
     -9.702 -0.5111E-28 -0.3172E-29
     -9.640 -0.7830E-24 -0.4860E-25
     -9.578 -0.5515E-20 -0.3423E-21
     -9.515 -0.1783E-16 -0.1107E-17
     -9.453 -0.2563E-13 -0.1592E-14
     -9.391 -0.1719E-10 -0.1069E-11
     -9.329 -0.5238E-08 -0.3262E-09
     -9.267 -0.7179E-06 -0.4488E-07
     -9.205 -0.4357E-04 -0.2749E-05
     -9.143 -0.1134E-02 -0.7312E-04
     -9.081 -0.1165E-01 -0.7961E-03
     -9.019 -0.3375E-01 -0.2891E-02
     -8.957  0.6864E-01  0.1369E-02
     -8.895  0.3510E+00  0.2315E-01
     -8.833  0.6552E+00  0.6382E-01
     -8.771  0.2242E+01  0.2030E+00
     -8.709  0.3821E+01  0.4401E+00
     -8.647  0.1987E+01  0.5635E+00
     -8.585 -0.1259E+00  0.5556E+00
     -8.522  0.3473E+00  0.5772E+00
     -8.460  0.2797E+01  0.7508E+00
     -8.398  0.3778E+01  0.9853E+00
     -8.336  0.3559E+01  0.1206E+01
     -8.274  0.3666E+01  0.1434E+01
     -8.212  0.1607E+01  0.1533E+01
     -8.150 -0.8129E-01  0.1528E+01
     -8.088 -0.3660E+00  0.1506E+01
     -8.026 -0.2694E+00  0.1489E+01
     -7.964  0.2482E+01  0.1643E+01
     -7.902  0.7159E+01  0.2087E+01
     -7.840  0.5638E+01  0.2437E+01
     -7.778  0.9360E+00  0.2495E+01
     -7.716  0.1441E+01  0.2585E+01
     -7.654  0.4104E+01  0.2839E+01
     -7.592  0.3667E+01  0.3067E+01
     -7.529  0.3502E+01  0.3284E+01
     -7.467  0.2931E+01  0.3466E+01
     -7.405  0.5617E+00  0.3501E+01
     -7.343  0.2213E+01  0.3638E+01
     -7.281  0.7778E+01  0.4121E+01
     -7.219  0.1108E+02  0.4808E+01
     -7.157  0.1066E+02  0.5470E+01
     -7.095  0.6145E+01  0.5852E+01
     -7.033  0.2050E+01  0.5979E+01
     -6.971  0.3028E+01  0.6167E+01
     -6.909  0.4799E+01  0.6465E+01
     -6.847  0.4192E+01  0.6725E+01
     -6.785  0.1990E+01  0.6848E+01
     -6.723  0.3539E+01  0.7068E+01
     -6.661  0.1063E+02  0.7728E+01
     -6.598  0.1579E+02  0.8707E+01
     -6.536  0.1855E+02  0.9859E+01
     -6.474  0.1547E+02  0.1082E+02
     -6.412  0.7808E+01  0.1130E+02
     -6.350  0.6707E+01  0.1172E+02
     -6.288  0.1273E+02  0.1251E+02
     -6.226  0.1880E+02  0.1368E+02
     -6.164  0.2516E+02  0.1524E+02
     -6.102  0.3403E+02  0.1735E+02
     -6.040  0.3445E+02  0.1949E+02
     -5.978  0.3020E+02  0.2136E+02
     -5.916  0.3167E+02  0.2333E+02
     -5.854  0.3475E+02  0.2549E+02
     -5.792  0.3097E+02  0.2741E+02
     -5.730  0.2557E+02  0.2899E+02
     -5.668  0.3091E+02  0.3091E+02
     -5.605  0.3902E+02  0.3333E+02
     -5.543  0.4270E+02  0.3598E+02
     -5.481  0.4680E+02  0.3889E+02
     -5.419  0.5714E+02  0.4243E+02
     -5.357  0.6272E+02  0.4633E+02
     -5.295  0.5943E+02  0.5002E+02
     -5.233  0.5190E+02  0.5324E+02
     -5.171  0.4590E+02  0.5609E+02
     -5.109  0.4430E+02  0.5884E+02
     -5.047  0.5957E+02  0.6253E+02
     -4.985  0.7040E+02  0.6690E+02
     -4.923  0.4664E+02  0.6980E+02
     -4.861  0.2522E+02  0.7136E+02
     -4.799  0.3484E+02  0.7352E+02
     -4.737  0.4435E+02  0.7628E+02
     -4.675  0.2974E+02  0.7812E+02
     -4.612  0.1968E+02  0.7934E+02
     -4.550  0.3166E+02  0.8131E+02
     -4.488  0.5276E+02  0.8458E+02
     -4.426  0.6373E+02  0.8854E+02
     -4.364  0.5782E+02  0.9213E+02
     -4.302  0.4832E+02  0.9513E+02
     -4.240  0.4617E+02  0.9799E+02
     -4.178  0.4448E+02  0.1008E+03
     -4.116  0.5113E+02  0.1039E+03
     -4.054  0.6063E+02  0.1077E+03
     -3.992  0.5131E+02  0.1109E+03
     -3.930  0.4104E+02  0.1134E+03
     -3.868  0.3997E+02  0.1159E+03
     -3.806  0.3761E+02  0.1182E+03
     -3.744  0.3688E+02  0.1205E+03
     -3.682  0.5199E+02  0.1238E+03
     -3.619  0.6498E+02  0.1278E+03
     -3.557  0.6099E+02  0.1316E+03
     -3.495  0.5651E+02  0.1351E+03
     -3.433  0.6348E+02  0.1390E+03
     -3.371  0.7557E+02  0.1437E+03
     -3.309  0.7715E+02  0.1485E+03
     -3.247  0.7082E+02  0.1529E+03
     -3.185  0.6869E+02  0.1572E+03
     -3.123  0.8144E+02  0.1622E+03
     -3.061  0.8596E+02  0.1675E+03
     -2.999  0.7642E+02  0.1723E+03
     -2.937  0.7726E+02  0.1771E+03
     -2.875  0.7643E+02  0.1818E+03
     -2.813  0.7983E+02  0.1868E+03
     -2.751  0.9845E+02  0.1929E+03
     -2.688  0.1071E+03  0.1995E+03
     -2.626  0.8882E+02  0.2051E+03
     -2.564  0.6376E+02  0.2090E+03
     -2.502  0.6301E+02  0.2129E+03
     -2.440  0.6385E+02  0.2169E+03
     -2.378  0.4862E+02  0.2199E+03
     -2.316  0.3202E+02  0.2219E+03
     -2.254  0.2647E+02  0.2235E+03
     -2.192  0.3082E+02  0.2254E+03
     -2.130  0.4117E+02  0.2280E+03
     -2.068  0.5929E+02  0.2317E+03
     -2.006  0.8219E+02  0.2368E+03
     -1.944  0.9172E+02  0.2425E+03
     -1.882  0.8193E+02  0.2476E+03
     -1.820  0.6334E+02  0.2515E+03
     -1.758  0.4733E+02  0.2544E+03
     -1.695  0.4429E+02  0.2572E+03
     -1.633  0.4632E+02  0.2600E+03
     -1.571  0.5234E+02  0.2633E+03
     -1.509  0.5868E+02  0.2669E+03
     -1.447  0.5796E+02  0.2705E+03
     -1.385  0.5876E+02  0.2742E+03
     -1.323  0.5990E+02  0.2779E+03
     -1.261  0.5271E+02  0.2812E+03
     -1.199  0.5237E+02  0.2844E+03
     -1.137  0.7046E+02  0.2888E+03
     -1.075  0.8424E+02  0.2940E+03
     -1.013  0.8547E+02  0.2993E+03
     -0.951  0.7267E+02  0.3038E+03
     -0.889  0.5798E+02  0.3074E+03
     -0.827  0.5701E+02  0.3110E+03
     -0.765  0.5157E+02  0.3142E+03
     -0.702  0.4197E+02  0.3168E+03
     -0.640  0.4986E+02  0.3199E+03
     -0.578  0.6362E+02  0.3238E+03
     -0.516  0.6210E+02  0.3277E+03
     -0.454  0.5976E+02  0.3314E+03
     -0.392  0.6742E+02  0.3356E+03
     -0.330  0.8446E+02  0.3408E+03
     -0.268  0.9368E+02  0.3466E+03
     -0.206  0.7349E+02  0.3512E+03
     -0.144  0.5780E+02  0.3548E+03
     -0.082  0.8423E+02  0.3600E+03
     -0.020  0.9533E+02  0.3659E+03
      0.042  0.5614E+02  0.3694E+03
      0.104  0.3350E+02  0.3715E+03
      0.166  0.5249E+02  0.3747E+03
      0.228  0.5621E+02  0.3782E+03
      0.291  0.4254E+02  0.3809E+03
      0.353  0.3681E+02  0.3832E+03
      0.415  0.2641E+02  0.3848E+03
      0.477  0.1390E+02  0.3857E+03
      0.539  0.5752E+01  0.3860E+03
      0.601  0.3222E+01  0.3862E+03
      0.663  0.5051E+01  0.3865E+03
      0.725  0.1085E+02  0.3872E+03
      0.787  0.1451E+02  0.3881E+03
      0.849  0.1046E+02  0.3887E+03
      0.911  0.7848E+01  0.3892E+03
      0.973  0.1151E+02  0.3899E+03
      1.035  0.9953E+01  0.3906E+03
      1.097  0.4592E+01  0.3909E+03
      1.159  0.5383E+01  0.3912E+03
      1.222  0.1052E+02  0.3918E+03
      1.284  0.1204E+02  0.3926E+03
      1.346  0.1105E+02  0.3933E+03
      1.408  0.9408E+01  0.3939E+03
      1.470  0.1444E+02  0.3948E+03
      1.532  0.2665E+02  0.3964E+03
      1.594  0.2558E+02  0.3980E+03
      1.656  0.1858E+02  0.3991E+03
      1.718  0.1602E+02  0.4001E+03
      1.780  0.8688E+01  0.4007E+03
      1.842  0.1521E+01  0.4008E+03
      1.904  0.4000E+01  0.4010E+03
      1.966  0.7952E+01  0.4015E+03
      2.028  0.6305E+01  0.4019E+03
      2.090  0.3306E+01  0.4021E+03
      2.152  0.3916E+01  0.4024E+03
      2.215  0.8982E+01  0.4029E+03
      2.277  0.1148E+02  0.4036E+03
      2.339  0.1216E+02  0.4044E+03
      2.401  0.1579E+02  0.4054E+03
      2.463  0.2181E+02  0.4067E+03
      2.525  0.1879E+02  0.4079E+03
      2.587  0.9191E+01  0.4085E+03
      2.649  0.6572E+01  0.4089E+03
      2.711  0.8792E+01  0.4094E+03
      2.773  0.1485E+02  0.4103E+03
      2.835  0.1829E+02  0.4115E+03
      2.897  0.1454E+02  0.4124E+03
      2.959  0.1028E+02  0.4130E+03
      3.021  0.8188E+01  0.4135E+03
      3.083  0.1341E+02  0.4143E+03
      3.145  0.1577E+02  0.4153E+03
      3.208  0.1097E+02  0.4160E+03
      3.270  0.8337E+01  0.4165E+03
      3.332  0.6506E+01  0.4169E+03
      3.394  0.4575E+01  0.4172E+03
      3.456  0.5834E+01  0.4176E+03
      3.518  0.8111E+01  0.4181E+03
      3.580  0.1057E+02  0.4187E+03
      3.642  0.1650E+02  0.4198E+03
      3.704  0.2238E+02  0.4211E+03
      3.766  0.1911E+02  0.4223E+03
      3.828  0.9839E+01  0.4229E+03
      3.890  0.4334E+01  0.4232E+03
      3.952  0.4596E+01  0.4235E+03
      4.014  0.7116E+01  0.4239E+03
      4.076  0.8564E+01  0.4245E+03
      4.139  0.7610E+01  0.4249E+03
      4.201  0.4436E+01  0.4252E+03
      4.263  0.3019E+01  0.4254E+03
      4.325  0.7134E+01  0.4258E+03
      4.387  0.1903E+02  0.4270E+03
      4.449  0.2607E+02  0.4286E+03
      4.511  0.1722E+02  0.4297E+03
      4.573  0.8174E+01  0.4302E+03
      4.635  0.8495E+01  0.4307E+03
      4.697  0.1169E+02  0.4315E+03
      4.759  0.1305E+02  0.4323E+03
      4.821  0.9955E+01  0.4329E+03
      4.883  0.6219E+01  0.4333E+03
      4.945  0.7443E+01  0.4337E+03
      5.007  0.1336E+02  0.4346E+03
      5.069  0.1154E+02  0.4353E+03
      5.132  0.6427E+01  0.4357E+03
      5.194  0.9133E+01  0.4363E+03
      5.256  0.1402E+02  0.4371E+03
      5.318  0.1351E+02  0.4380E+03
      5.380  0.7276E+01  0.4384E+03
      5.442  0.8523E+01  0.4389E+03
      5.504  0.1867E+02  0.4401E+03
      5.566  0.2291E+02  0.4415E+03
      5.628  0.2128E+02  0.4428E+03
      5.690  0.2394E+02  0.4443E+03
      5.752  0.2656E+02  0.4460E+03
      5.814  0.2059E+02  0.4473E+03
      5.876  0.1380E+02  0.4481E+03
      5.938  0.1715E+02  0.4492E+03
      6.000  0.2780E+02  0.4509E+03
      6.062  0.3187E+02  0.4529E+03
      6.125  0.2113E+02  0.4542E+03
      6.187  0.1283E+02  0.4550E+03
      6.249  0.1819E+02  0.4561E+03
      6.311  0.2704E+02  0.4578E+03
      6.373  0.2971E+02  0.4596E+03
      6.435  0.1895E+02  0.4608E+03
      6.497  0.1171E+02  0.4615E+03
      6.559  0.2054E+02  0.4628E+03
      6.621  0.2992E+02  0.4647E+03
      6.683  0.2906E+02  0.4665E+03
      6.745  0.2543E+02  0.4681E+03
      6.807  0.1905E+02  0.4692E+03
      6.869  0.1437E+02  0.4701E+03
      6.931  0.1806E+02  0.4713E+03
      6.993  0.1787E+02  0.4724E+03
      7.055  0.1269E+02  0.4731E+03
      7.118  0.1666E+02  0.4742E+03
      7.180  0.2492E+02  0.4757E+03
      7.242  0.2485E+02  0.4773E+03
      7.304  0.1469E+02  0.4782E+03
      7.366  0.4605E+01  0.4785E+03
      7.428  0.1060E+01  0.4785E+03
      7.490  0.4362E+01  0.4788E+03
      7.552  0.7805E+01  0.4793E+03
      7.614  0.6705E+01  0.4797E+03
      7.676  0.3416E+01  0.4799E+03
      7.738  0.1040E+01  0.4800E+03
      7.800  0.2892E+00  0.4800E+03
      7.862  0.1935E-01  0.4800E+03
      7.924 -0.4061E-01  0.4800E+03
      7.986 -0.1200E-01  0.4800E+03
      8.049 -0.1141E-02  0.4800E+03
      8.111 -0.4364E-04  0.4800E+03
      8.173 -0.7182E-06  0.4800E+03
      8.235 -0.5239E-08  0.4800E+03
      8.297 -0.1719E-10  0.4800E+03
      8.359 -0.2547E-13  0.4800E+03
      8.421  0.0000E+00  0.4800E+03
      8.483  0.0000E+00  0.4800E+03
      8.545  0.0000E+00  0.4800E+03
      8.607  0.0000E+00  0.4800E+03
      8.669  0.0000E+00  0.4800E+03
      8.731  0.0000E+00  0.4800E+03
