   37   37    1    1
  0.4190497E+02  0.8468310E-09  0.8468310E-09  0.2496566E-08  0.5000000E-15
  1.000000000000000E-004
  CAR 
 unknown system                          
    361     13    240
 
  0.1276756E-14  0.1276756E-14  0.1276756E-14  0.4000000E-01
      1         -8.887869   1.000000
      2         -7.668081   1.000000
      3         -6.753170   1.000000
      4         -6.493418   1.000000
      5         -6.469543   1.000000
      6         -6.456225   1.000000
      7         -6.449869   1.000000
      8         -6.448165   1.000000
      9         -6.435578   1.000000
     10         -6.427961   1.000000
     11         -6.092371   1.000000
     12         -5.917397   1.000000
     13         -5.912262   1.000000
     14         -5.903380   1.000000
     15         -5.896598   1.000000
     16         -5.893668   1.000000
     17         -5.777390   1.000000
     18         -5.457645   1.000000
     19         -5.455416   1.000000
     20         -5.448956   1.000000
     21         -5.447405   1.000000
     22         -5.444189   1.000000
     23         -5.345783   1.000000
     24         -5.226011   1.000000
     25         -5.223051   1.000000
     26         -5.221291   1.000000
     27         -5.217484   1.000000
     28         -5.211421   1.000000
     29         -5.106332   1.000000
     30         -5.028959   1.000000
     31         -5.020921   1.000000
     32         -5.015793   1.000000
     33         -5.012432   1.000000
     34         -5.011031   1.000000
     35         -4.967197   1.000000
     36         -4.962622   1.000000
     37         -4.952805   1.000000
     38         -4.950030   1.000000
     39         -4.922425   1.000000
     40         -4.910128   1.000000
     41         -4.704777   1.000000
     42         -4.378057   1.000000
     43         -4.377365   1.000000
     44         -4.341434   1.000000
     45         -4.339817   1.000000
     46         -4.320731   1.000000
     47         -4.319523   1.000000
     48         -4.305601   1.000000
     49         -4.289698   1.000000
     50         -4.287356   1.000000
     51         -4.206711   1.000000
     52         -4.134946   1.000000
     53         -4.126123   1.000000
     54         -4.044019   1.000000
     55         -4.019111   1.000000
     56         -3.590907   1.000000
     57         -3.569032   1.000000
     58         -3.565462   1.000000
     59         -3.557102   1.000000
     60         -3.554839   1.000000
     61         -3.499075   1.000000
     62         -3.485261   1.000000
     63         -3.382963   1.000000
     64         -3.372472   1.000000
     65         -3.370839   1.000000
     66         -3.370791   1.000000
     67         -3.363406   1.000000
     68         -3.360548   1.000000
     69         -3.348770   1.000000
     70         -3.319210   1.000000
     71         -3.306084   1.000000
     72         -3.300900   1.000000
     73         -3.296315   1.000000
     74         -3.289879   1.000000
     75         -3.264884   1.000000
     76         -3.259440   1.000000
     77         -3.252367   1.000000
     78         -3.157788   1.000000
     79         -3.144465   1.000000
     80         -3.140593   1.000000
     81         -3.135516   1.000000
     82         -3.132151   1.000000
     83         -3.081181   1.000000
     84         -2.938858   1.000000
     85         -2.932953   1.000000
     86         -2.926608   1.000000
     87         -2.919481   1.000000
     88         -2.910357   1.000000
     89         -2.896214   1.000000
     90         -2.895348   1.000000
     91         -2.887934   1.000000
     92         -2.840649   1.000000
     93         -2.816547   1.000000
     94         -2.782116   1.000000
     95         -2.772962   1.000000
     96         -2.737161   1.000000
     97         -2.735353   1.000000
     98         -2.689654   1.000000
     99         -2.685719   1.000000
    100         -2.683641   1.000000
    101         -2.620534   1.000000
    102         -2.534118   1.000000
    103         -2.519218   1.000000
    104         -2.516865   1.000000
    105         -2.504696   1.000000
    106         -2.500120   1.000000
    107         -2.490997   1.000000
    108         -2.242785   1.000000
    109         -2.024478   1.000000
    110         -2.009538   1.000000
    111         -1.996714   1.000000
    112         -1.992749   1.000000
    113         -1.985025   1.000000
    114         -1.981614   1.000000
    115         -1.978770   1.000000
    116         -1.962061   1.000000
    117         -1.951643   1.000000
    118         -1.950059   1.000000
    119         -1.944184   1.000000
    120         -1.876225   1.000000
    121         -1.860030   1.000000
    122         -1.823841   1.000000
    123         -1.728924   1.000000
    124         -1.717105   1.000000
    125         -1.712062   1.000000
    126         -1.708150   1.000000
    127         -1.703668   1.000000
    128         -1.618093   1.000000
    129         -1.582076   1.000000
    130         -1.533279   1.000000
    131         -1.531923   1.000000
    132         -1.519143   1.000000
    133         -1.491107   1.000000
    134         -1.340267   1.000000
    135         -1.278209   1.000000
    136         -1.267346   1.000000
    137         -1.260436   1.000000
    138         -1.252143   1.000000
    139         -1.242586   1.000000
    140         -1.203790   1.000000
    141         -1.174952   1.000000
    142         -1.161935   1.000000
    143         -1.031286   1.000000
    144         -1.028664   1.000000
    145         -1.023540   1.000000
    146         -1.016113   1.000000
    147         -1.012599   1.000000
    148         -0.930500   1.000000
    149         -0.861671   1.000000
    150         -0.856189   1.000000
    151         -0.843379   1.000000
    152         -0.829778   1.000000
    153         -0.828355   1.000000
    154         -0.813439   1.000000
    155         -0.809808   1.000000
    156         -0.802919   1.000000
    157         -0.800688   1.000000
    158         -0.796744   1.000000
    159         -0.794785   1.000000
    160         -0.725391   1.000000
    161         -0.704062   1.000000
    162         -0.689413   1.000000
    163         -0.671731   1.000000
    164         -0.662064   1.000000
    165         -0.650232   1.000000
    166         -0.648123   1.000000
    167         -0.633779   1.000000
    168         -0.596020   1.000000
    169         -0.592081   1.000000
    170         -0.562795   1.000000
    171         -0.558317   1.000000
    172         -0.552251   1.000000
    173         -0.543169   1.000000
    174         -0.540768   1.000000
    175         -0.539406   1.000000
    176         -0.457950   1.000000
    177         -0.444940   1.000001
    178         -0.439661   1.000001
    179         -0.438353   1.000001
    180         -0.429074   1.000003
    181         -0.422796   1.000004
    182         -0.420933   1.000005
    183         -0.352214   1.000269
    184         -0.329480   1.000819
    185         -0.318639   1.001337
    186         -0.317853   1.001383
    187         -0.307641   1.002136
    188         -0.302718   1.002610
    189         -0.114253   0.825395
    190         -0.100684   0.732921
    191         -0.017188   0.105236
    192         -0.013623   0.087970
    193          0.004117   0.020920
    194          0.009334   0.006917
    195          0.011870   0.000975
    196          0.015573  -0.006732
    197          0.434940  -0.000000
    198          0.814999  -0.000000
    199          0.865751  -0.000000
    200          0.873579  -0.000000
    201          0.900464  -0.000000
    202          0.905771  -0.000000
    203          0.908852  -0.000000
    204          2.633257  -0.000000
    205          3.147583   0.000000
    206          3.174116   0.000000
    207          3.199410   0.000000
    208          3.217050   0.000000
    209          3.228887   0.000000
    210          4.454480   0.000000
    211          4.753432   0.000000
    212          4.768982   0.000000
    213          4.817846   0.000000
    214          4.822703   0.000000
    215          4.830160   0.000000
    216          4.881609   0.000000
    217          5.018308   0.000000
    218          5.124560   0.000000
    219          5.480600   0.000000
    220          5.510229   0.000000
    221          5.797214   0.000000
    222          5.807456   0.000000
    223          5.847271   0.000000
    224          5.856894   0.000000
    225          5.871972   0.000000
    226          6.150650   0.000000
    227          6.397680   0.000000
    228          6.624422   0.000000
    229          6.625711   0.000000
    230          6.628657   0.000000
    231          6.801921   0.000000
    232          6.923598   0.000000
    233          7.121665   0.000000
    234          7.140040   0.000000
    235          7.160722   0.000000
    236          7.165457   0.000000
    237          7.173068   0.000000
    238          7.188752   0.000000
    239          7.295325   0.000000
    240          7.731212   0.000000
 
  0.2000000E+00  0.1278043E-14  0.1276756E-14  0.8000000E-01
      1         -8.739381   1.000000
      2         -7.525207   1.000000
      3         -6.965780   1.000000
      4         -6.671306   1.000000
      5         -6.556271   1.000000
      6         -6.527826   1.000000
      7         -6.352363   1.000000
      8         -6.263297   1.000000
      9         -6.221835   1.000000
     10         -6.213765   1.000000
     11         -6.091744   1.000000
     12         -6.009620   1.000000
     13         -5.966942   1.000000
     14         -5.841258   1.000000
     15         -5.831488   1.000000
     16         -5.822524   1.000000
     17         -5.683125   1.000000
     18         -5.535899   1.000000
     19         -5.419531   1.000000
     20         -5.412089   1.000000
     21         -5.404444   1.000000
     22         -5.386581   1.000000
     23         -5.330255   1.000000
     24         -5.302342   1.000000
     25         -5.272013   1.000000
     26         -5.226370   1.000000
     27         -5.212916   1.000000
     28         -5.208566   1.000000
     29         -5.146956   1.000000
     30         -5.115637   1.000000
     31         -5.108041   1.000000
     32         -5.028983   1.000000
     33         -5.016571   1.000000
     34         -5.007615   1.000000
     35         -5.006738   1.000000
     36         -4.860734   1.000000
     37         -4.807989   1.000000
     38         -4.779333   1.000000
     39         -4.766901   1.000000
     40         -4.752885   1.000000
     41         -4.674389   1.000000
     42         -4.496778   1.000000
     43         -4.494399   1.000000
     44         -4.457320   1.000000
     45         -4.413709   1.000000
     46         -4.394814   1.000000
     47         -4.389541   1.000000
     48         -4.325883   1.000000
     49         -4.212086   1.000000
     50         -4.203596   1.000000
     51         -4.118444   1.000000
     52         -4.108136   1.000000
     53         -4.074318   1.000000
     54         -4.052753   1.000000
     55         -4.030164   1.000000
     56         -3.833163   1.000000
     57         -3.741319   1.000000
     58         -3.732477   1.000000
     59         -3.679160   1.000000
     60         -3.663269   1.000000
     61         -3.605115   1.000000
     62         -3.585053   1.000000
     63         -3.558873   1.000000
     64         -3.549197   1.000000
     65         -3.530821   1.000000
     66         -3.521123   1.000000
     67         -3.493902   1.000000
     68         -3.446087   1.000000
     69         -3.401421   1.000000
     70         -3.367498   1.000000
     71         -3.360923   1.000000
     72         -3.327588   1.000000
     73         -3.265376   1.000000
     74         -3.252978   1.000000
     75         -3.252600   1.000000
     76         -3.180127   1.000000
     77         -3.172085   1.000000
     78         -3.149302   1.000000
     79         -3.132236   1.000000
     80         -3.096856   1.000000
     81         -3.084337   1.000000
     82         -3.073946   1.000000
     83         -3.025843   1.000000
     84         -2.984912   1.000000
     85         -2.963371   1.000000
     86         -2.956508   1.000000
     87         -2.938740   1.000000
     88         -2.934185   1.000000
     89         -2.915300   1.000000
     90         -2.893609   1.000000
     91         -2.858642   1.000000
     92         -2.822034   1.000000
     93         -2.806423   1.000000
     94         -2.784705   1.000000
     95         -2.768952   1.000000
     96         -2.754753   1.000000
     97         -2.725570   1.000000
     98         -2.723527   1.000000
     99         -2.696487   1.000000
    100         -2.691082   1.000000
    101         -2.603459   1.000000
    102         -2.546406   1.000000
    103         -2.541561   1.000000
    104         -2.515823   1.000000
    105         -2.501981   1.000000
    106         -2.495374   1.000000
    107         -2.492536   1.000000
    108         -2.489180   1.000000
    109         -2.440462   1.000000
    110         -2.428161   1.000000
    111         -2.418208   1.000000
    112         -2.411911   1.000000
    113         -2.243236   1.000000
    114         -2.078798   1.000000
    115         -2.057665   1.000000
    116         -2.025752   1.000000
    117         -1.990809   1.000000
    118         -1.988531   1.000000
    119         -1.975310   1.000000
    120         -1.961816   1.000000
    121         -1.935589   1.000000
    122         -1.859843   1.000000
    123         -1.790656   1.000000
    124         -1.779342   1.000000
    125         -1.741067   1.000000
    126         -1.665742   1.000000
    127         -1.645142   1.000000
    128         -1.614982   1.000000
    129         -1.581634   1.000000
    130         -1.568719   1.000000
    131         -1.535818   1.000000
    132         -1.533410   1.000000
    133         -1.512405   1.000000
    134         -1.435798   1.000000
    135         -1.433940   1.000000
    136         -1.388694   1.000000
    137         -1.384816   1.000000
    138         -1.371523   1.000000
    139         -1.320546   1.000000
    140         -1.189226   1.000000
    141         -1.170412   1.000000
    142         -1.158599   1.000000
    143         -1.141533   1.000000
    144         -1.135176   1.000000
    145         -1.121087   1.000000
    146         -1.070009   1.000000
    147         -1.028887   1.000000
    148         -1.002402   1.000000
    149         -0.995690   1.000000
    150         -0.980920   1.000000
    151         -0.958855   1.000000
    152         -0.911993   1.000000
    153         -0.903887   1.000000
    154         -0.889461   1.000000
    155         -0.846454   1.000000
    156         -0.782459   1.000000
    157         -0.773231   1.000000
    158         -0.753882   1.000000
    159         -0.724532   1.000000
    160         -0.652329   1.000000
    161         -0.631988   1.000000
    162         -0.630738   1.000000
    163         -0.595600   1.000000
    164         -0.583868   1.000000
    165         -0.561219   1.000000
    166         -0.541371   1.000000
    167         -0.484547   1.000000
    168         -0.464362   1.000000
    169         -0.415069   1.000007
    170         -0.396457   1.000022
    171         -0.388908   1.000035
    172         -0.382567   1.000051
    173         -0.353427   1.000252
    174         -0.348640   1.000323
    175         -0.342467   1.000440
    176         -0.336957   1.000575
    177         -0.328649   1.000851
    178         -0.269129   1.008728
    179         -0.260890   1.011216
    180         -0.120542   0.862673
    181         -0.116672   0.840179
    182         -0.095712   0.695484
    183         -0.083492   0.597555
    184         -0.079004   0.560135
    185         -0.065972   0.450114
    186         -0.033020   0.197064
    187         -0.020995   0.125094
    188         -0.011489   0.078246
    189          0.008732   0.008409
    190          0.063850  -0.033213
    191          0.110798  -0.013424
    192          0.137489  -0.005838
    193          0.178133  -0.001157
    194          0.295291  -0.000001
    195          0.299514  -0.000001
    196          0.314989  -0.000000
    197          0.356833  -0.000000
    198          0.656493  -0.000000
    199          0.757320  -0.000000
    200          1.212357  -0.000000
    201          1.476708  -0.000000
    202          1.487764  -0.000000
    203          1.606623  -0.000000
    204          2.349009  -0.000000
    205          2.741513   0.000000
    206          2.914085   0.000000
    207          3.476471   0.000000
    208          3.658998   0.000000
    209          3.660334   0.000000
    210          3.751632   0.000000
    211          3.988315   0.000000
    212          4.360141   0.000000
    213          4.618890   0.000000
    214          4.709279   0.000000
    215          4.958276   0.000000
    216          4.992296   0.000000
    217          4.999180   0.000000
    218          5.143740   0.000000
    219          5.246668   0.000000
    220          5.468194   0.000000
    221          5.640071   0.000000
    222          5.729916   0.000000
    223          5.780648   0.000000
    224          5.909703   0.000000
    225          6.100488   0.000000
    226          6.215948   0.000000
    227          6.268356   0.000000
    228          6.326397   0.000000
    229          6.343667   0.000000
    230          6.666590   0.000000
    231          6.693934   0.000000
    232          6.720802   0.000000
    233          6.791600   0.000000
    234          6.856475   0.000000
    235          6.928688   0.000000
    236          7.063891   0.000000
    237          7.221645   0.000000
    238          7.494105   0.000000
    239          7.513607   0.000000
    240          7.628955   0.000000
 
  0.2000000E+00  0.2000000E+00  0.1276756E-14  0.8000000E-01
      1         -8.739760   1.000000
      2         -7.527676   1.000000
      3         -6.975875   1.000000
      4         -6.659636   1.000000
      5         -6.557330   1.000000
      6         -6.532258   1.000000
      7         -6.353027   1.000000
      8         -6.267464   1.000000
      9         -6.222462   1.000000
     10         -6.210500   1.000000
     11         -6.116848   1.000000
     12         -6.001878   1.000000
     13         -5.916663   1.000000
     14         -5.846707   1.000000
     15         -5.829871   1.000000
     16         -5.824431   1.000000
     17         -5.716408   1.000000
     18         -5.528631   1.000000
     19         -5.417458   1.000000
     20         -5.410915   1.000000
     21         -5.404492   1.000000
     22         -5.367933   1.000000
     23         -5.326600   1.000000
     24         -5.297393   1.000000
     25         -5.270400   1.000000
     26         -5.240528   1.000000
     27         -5.218569   1.000000
     28         -5.210995   1.000000
     29         -5.153317   1.000000
     30         -5.112190   1.000000
     31         -5.102555   1.000000
     32         -5.032720   1.000000
     33         -5.014175   1.000000
     34         -5.006476   1.000000
     35         -5.001009   1.000000
     36         -4.860503   1.000000
     37         -4.804781   1.000000
     38         -4.781041   1.000000
     39         -4.766583   1.000000
     40         -4.751902   1.000000
     41         -4.679977   1.000000
     42         -4.495774   1.000000
     43         -4.486304   1.000000
     44         -4.458278   1.000000
     45         -4.415592   1.000000
     46         -4.399577   1.000000
     47         -4.386740   1.000000
     48         -4.322193   1.000000
     49         -4.207348   1.000000
     50         -4.177843   1.000000
     51         -4.125909   1.000000
     52         -4.110562   1.000000
     53         -4.083661   1.000000
     54         -4.051934   1.000000
     55         -4.038200   1.000000
     56         -3.826404   1.000000
     57         -3.735774   1.000000
     58         -3.731433   1.000000
     59         -3.671989   1.000000
     60         -3.649915   1.000000
     61         -3.619117   1.000000
     62         -3.581118   1.000000
     63         -3.569211   1.000000
     64         -3.542691   1.000000
     65         -3.527720   1.000000
     66         -3.523820   1.000000
     67         -3.492403   1.000000
     68         -3.445678   1.000000
     69         -3.402976   1.000000
     70         -3.375028   1.000000
     71         -3.357336   1.000000
     72         -3.348252   1.000000
     73         -3.279339   1.000000
     74         -3.265919   1.000000
     75         -3.254210   1.000000
     76         -3.181410   1.000000
     77         -3.170424   1.000000
     78         -3.150148   1.000000
     79         -3.132423   1.000000
     80         -3.086960   1.000000
     81         -3.065292   1.000000
     82         -3.059014   1.000000
     83         -3.036812   1.000000
     84         -2.997432   1.000000
     85         -2.963501   1.000000
     86         -2.957521   1.000000
     87         -2.935528   1.000000
     88         -2.930054   1.000000
     89         -2.908804   1.000000
     90         -2.893576   1.000000
     91         -2.863971   1.000000
     92         -2.816521   1.000000
     93         -2.796480   1.000000
     94         -2.792543   1.000000
     95         -2.773260   1.000000
     96         -2.753723   1.000000
     97         -2.726814   1.000000
     98         -2.715828   1.000000
     99         -2.707419   1.000000
    100         -2.688806   1.000000
    101         -2.607149   1.000000
    102         -2.557057   1.000000
    103         -2.535561   1.000000
    104         -2.520860   1.000000
    105         -2.514400   1.000000
    106         -2.504044   1.000000
    107         -2.494818   1.000000
    108         -2.483378   1.000000
    109         -2.442394   1.000000
    110         -2.427454   1.000000
    111         -2.422986   1.000000
    112         -2.414012   1.000000
    113         -2.170447   1.000000
    114         -2.106771   1.000000
    115         -2.058670   1.000000
    116         -2.017241   1.000000
    117         -2.000751   1.000000
    118         -1.990888   1.000000
    119         -1.979241   1.000000
    120         -1.945134   1.000000
    121         -1.941885   1.000000
    122         -1.884720   1.000000
    123         -1.807026   1.000000
    124         -1.787222   1.000000
    125         -1.731908   1.000000
    126         -1.668334   1.000000
    127         -1.648663   1.000000
    128         -1.611699   1.000000
    129         -1.584567   1.000000
    130         -1.576862   1.000000
    131         -1.539431   1.000000
    132         -1.530356   1.000000
    133         -1.521647   1.000000
    134         -1.445038   1.000000
    135         -1.420331   1.000000
    136         -1.391460   1.000000
    137         -1.379630   1.000000
    138         -1.373680   1.000000
    139         -1.323040   1.000000
    140         -1.194218   1.000000
    141         -1.178051   1.000000
    142         -1.169562   1.000000
    143         -1.149262   1.000000
    144         -1.135270   1.000000
    145         -1.112769   1.000000
    146         -1.073005   1.000000
    147         -1.029106   1.000000
    148         -1.004448   1.000000
    149         -0.986146   1.000000
    150         -0.977196   1.000000
    151         -0.931640   1.000000
    152         -0.909265   1.000000
    153         -0.903786   1.000000
    154         -0.897906   1.000000
    155         -0.831116   1.000000
    156         -0.787125   1.000000
    157         -0.771512   1.000000
    158         -0.751925   1.000000
    159         -0.712368   1.000000
    160         -0.668213   1.000000
    161         -0.633748   1.000000
    162         -0.621064   1.000000
    163         -0.609344   1.000000
    164         -0.592186   1.000000
    165         -0.569471   1.000000
    166         -0.539897   1.000000
    167         -0.481086   1.000000
    168         -0.466917   1.000000
    169         -0.430371   1.000002
    170         -0.399944   1.000018
    171         -0.387717   1.000037
    172         -0.379375   1.000061
    173         -0.350769   1.000289
    174         -0.347047   1.000350
    175         -0.342911   1.000430
    176         -0.337637   1.000557
    177         -0.325615   1.000978
    178         -0.274166   1.007420
    179         -0.268134   1.009006
    180         -0.138392   0.947110
    181         -0.119800   0.858474
    182         -0.095238   0.691831
    183         -0.079937   0.567953
    184         -0.064334   0.436356
    185         -0.058644   0.389087
    186         -0.027262   0.160892
    187         -0.013092   0.085506
    188          0.006260   0.014870
    189          0.012629  -0.000696
    190          0.080684  -0.026496
    191          0.111862  -0.013036
    192          0.133039  -0.006798
    193          0.173533  -0.001418
    194          0.297806  -0.000001
    195          0.303812  -0.000001
    196          0.311478  -0.000000
    197          0.353976  -0.000000
    198          0.687754  -0.000000
    199          0.758382  -0.000000
    200          1.210511  -0.000000
    201          1.466251  -0.000000
    202          1.484630  -0.000000
    203          1.607964  -0.000000
    204          2.325893  -0.000000
    205          2.775206   0.000000
    206          2.915789   0.000000
    207          3.482207   0.000000
    208          3.654149   0.000000
    209          3.664431   0.000000
    210          3.747424   0.000000
    211          3.954665   0.000000
    212          4.363452   0.000000
    213          4.610386   0.000000
    214          4.701987   0.000000
    215          4.966160   0.000000
    216          4.989127   0.000000
    217          5.003756   0.000000
    218          5.178234   0.000000
    219          5.247145   0.000000
    220          5.470654   0.000000
    221          5.635580   0.000000
    222          5.715493   0.000000
    223          5.845422   0.000000
    224          5.909246   0.000000
    225          6.067526   0.000000
    226          6.194610   0.000000
    227          6.264253   0.000000
    228          6.331238   0.000000
    229          6.355627   0.000000
    230          6.568044   0.000000
    231          6.709358   0.000000
    232          6.734770   0.000000
    233          6.785190   0.000000
    234          6.863997   0.000000
    235          6.932487   0.000000
    236          7.063788   0.000000
    237          7.227571   0.000000
    238          7.482529   0.000000
    239          7.539240   0.000000
    240          7.598375   0.000000
 
  0.1276756E-14  0.2000000E+00  0.1276756E-14  0.8000000E-01
      1         -8.739739   1.000000
      2         -7.528072   1.000000
      3         -6.974766   1.000000
      4         -6.656852   1.000000
      5         -6.559461   1.000000
      6         -6.535758   1.000000
      7         -6.352831   1.000000
      8         -6.263561   1.000000
      9         -6.224091   1.000000
     10         -6.212654   1.000000
     11         -6.121101   1.000000
     12         -6.001537   1.000000
     13         -5.908175   1.000000
     14         -5.846550   1.000000
     15         -5.831552   1.000000
     16         -5.822468   1.000000
     17         -5.720121   1.000000
     18         -5.530795   1.000000
     19         -5.415793   1.000000
     20         -5.410398   1.000000
     21         -5.401727   1.000000
     22         -5.364947   1.000000
     23         -5.327212   1.000000
     24         -5.299096   1.000000
     25         -5.270234   1.000000
     26         -5.243873   1.000000
     27         -5.220061   1.000000
     28         -5.208712   1.000000
     29         -5.147444   1.000000
     30         -5.115303   1.000000
     31         -5.101515   1.000000
     32         -5.028683   1.000000
     33         -5.012691   1.000000
     34         -5.006730   1.000000
     35         -5.001658   1.000000
     36         -4.857689   1.000000
     37         -4.804676   1.000000
     38         -4.782442   1.000000
     39         -4.765423   1.000000
     40         -4.757848   1.000000
     41         -4.681321   1.000000
     42         -4.498410   1.000000
     43         -4.488553   1.000000
     44         -4.458404   1.000000
     45         -4.414205   1.000000
     46         -4.399023   1.000000
     47         -4.386278   1.000000
     48         -4.322688   1.000000
     49         -4.209366   1.000000
     50         -4.179285   1.000000
     51         -4.127707   1.000000
     52         -4.110465   1.000000
     53         -4.082318   1.000000
     54         -4.051052   1.000000
     55         -4.036025   1.000000
     56         -3.831085   1.000000
     57         -3.733655   1.000000
     58         -3.732198   1.000000
     59         -3.675923   1.000000
     60         -3.653530   1.000000
     61         -3.623815   1.000000
     62         -3.584554   1.000000
     63         -3.564576   1.000000
     64         -3.540379   1.000000
     65         -3.526520   1.000000
     66         -3.522155   1.000000
     67         -3.492504   1.000000
     68         -3.445213   1.000000
     69         -3.405630   1.000000
     70         -3.382751   1.000000
     71         -3.359605   1.000000
     72         -3.348098   1.000000
     73         -3.267377   1.000000
     74         -3.263431   1.000000
     75         -3.240193   1.000000
     76         -3.181931   1.000000
     77         -3.172573   1.000000
     78         -3.153210   1.000000