unknown system                          
           1
     8.468310    0.000000    0.000000
     4.234155    7.333772    0.000000
     0.000000    0.000000   24.965662
   Pt   H 
    36     1
Direct configuration=     1
   0.00000000  0.00000000  0.34046764
   0.33400137  0.00000000  0.34046764
   0.66800274  0.00000000  0.34046764
   0.00000000  0.33400137  0.34046764
   0.33400137  0.33400137  0.34046764
   0.66800274  0.33400137  0.34046764
   0.00000000  0.66800274  0.34046764
   0.33400137  0.66800274  0.34046764
   0.66800274  0.66800274  0.34046764
   0.11133379  0.11133379  0.43297074
   0.44533516  0.11133379  0.43297074
   0.77933653  0.11133379  0.43297074
   0.11133379  0.44533516  0.43297074
   0.44533516  0.44533516  0.43297074
   0.77933653  0.44533516  0.43297074
   0.11133379  0.77933653  0.43297074
   0.44533516  0.77933653  0.43297074
   0.77933653  0.77933653  0.43297074
   0.89115887  0.22489581  0.52549996
   0.22390047  0.22324676  0.52532399
   0.55717018  0.22364350  0.52449417
   0.89125881  0.55503468  0.52541298
   0.22391153  0.55625534  0.52451357
   0.55747610  0.55667429  0.52441717
   0.89096209  0.89012917  0.52425814
   0.22419064  0.89029013  0.52459457
   0.55743152  0.88993364  0.52444752
   0.00236640  0.00024892  0.61752259
   0.33954506  0.99750475  0.61850921
   0.67041541  0.00070798  0.61770640
   0.00442994  0.33318999  0.62157897
   0.33906563  0.33456623  0.61869678
   0.66941832  0.33430244  0.61774985
   0.00240551  0.66918298  0.61754337
   0.33667303  0.66736157  0.61752185
   0.66969948  0.66807807  0.61774751
   0.14784943  0.26552514  0.67022044
