
     Program PWSCF v.7.1 starts on 22Feb2025 at 22: 1:55 
        Git branch: heads/qe-7.1
        Last git commit: 48ba0178f8fede6d020eb786884699a9f063f55d-dirty
        Last git commit date: Fri Jan 27 14:22:33 2023 +0000
        Last git commit subject: Merge branch 'fix_hubbard' into 'develop'

     This program is part of the open-source Quantum ESPRESSO suite
     for quantum simulation of materials; please cite
         "P. Giannozzi et al., J. Phys.:Condens. Matter 21 395502 (2009);
         "P. Giannozzi et al., J. Phys.:Condens. Matter 29 465901 (2017);
         "P. Giannozzi et al., J. Chem. Phys. 152 154105 (2020);
          URL http://www.quantum-espresso.org", 
     in publications or presentations arising from this work. More details at
     http://www.quantum-espresso.org/quote

     Parallel version (MPI), running on    48 processors

     MPI processes distributed on     1 nodes
     17303 MiB available memory on the printing compute node when the environment starts

     Reading input from espresso.pwi
Warning: card &CELL ignored
Warning: card / ignored
Warning: card &FCP ignored
Warning: card / ignored
Warning: card &RISM ignored
Warning: card / ignored

     Current dimensions of program PWSCF are:
     Max number of different atomic species (ntypx) = 10
     Max number of k-points (npk) =  40000
     Max angular momentum in pseudopotentials (lmaxx) =  4
     file Pt.pbe-n-kjpaw_psl.1.0.0.UPF: wavefunction(s)  6S 5D renormalized
     file H.pbe-kjpaw_psl.1.0.0.UPF: wavefunction(s)  1S renormalized

     **************************************************************************
     Initializing libbeef V0.1.2 with the BEEF-vdW functional.
     Citation: Wellendorff et al., PRB 85, 235149 (2012).
     **************************************************************************


     IMPORTANT: XC functional enforced from input :
     Exchange-correlation= BEEF-VDW
                           (   1   4  43  14   2   0   0)
     Any further DFT definition will be discarded
     Please, verify this is what you really want


     R & G space division:  proc/nbgrp/npool/nimage =      48
     Subspace diagonalization in iterative solution of the eigenvalue problem:
     one sub-group per band group will be used
     custom distributed-memory algorithm (size of sub-group:  2*  2 procs)


     Parallelization info
     --------------------
     sticks:   dense  smooth     PW     G-vecs:    dense   smooth      PW
     Min         151      59     16                29407     7165    1028
     Max         152      60     17                29420     7176    1042
     Sum        7267    2839    769              1411785   344073   49691

     Using Slab Decomposition



     bravais-lattice index     =            0
     lattice parameter (alat)  =      16.0349  a.u.
     unit-cell volume          =   10068.6169 (a.u.)^3
     number of atoms/cell      =           37
     number of atomic types    =            2
     number of electrons       =       361.00
     number of Kohn-Sham states=          217
     kinetic-energy cutoff     =      40.0000  Ry
     charge density cutoff     =     410.0000  Ry
     scf convergence threshold =      1.0E-06
     mixing beta               =       0.7000
     number of iterations used =            8  local-TF  mixing
     Exchange-correlation= BEEF-VDW
                           (   1   4  43  14   2   0   0)

     celldm(1)=  16.034858  celldm(2)=   0.000000  celldm(3)=   0.000000
     celldm(4)=   0.000000  celldm(5)=   0.000000  celldm(6)=   0.000000

     crystal axes: (cart. coord. in units of alat)
               a(1) = (   1.000000   0.000000   0.000000 )  
               a(2) = (   0.500000   0.866025   0.000000 )  
               a(3) = (   0.000000   0.000000   2.819966 )  

     reciprocal axes: (cart. coord. in units 2 pi/alat)
               b(1) = (  1.000000 -0.577350  0.000000 )  
               b(2) = (  0.000000  1.154701  0.000000 )  
               b(3) = (  0.000000  0.000000  0.354614 )  


     PseudoPot. # 1 for Pt read from file:
     /users/kbadger1/espresso/pseudo/pslibrary.1.0.0/pbe/PSEUDOPOTENTIALS/Pt.pbe-n-kjpaw_psl.1.0.0.UPF
     MD5 check sum: 2e24a0b5bf98a4ed1a57fa81bca8c143
     Pseudo is Projector augmented-wave + core cor, Zval = 10.0
     Generated using 'atomic' code by A. Dal Corso  v.7.0
     Shape of augmentation charge: PSQ
     Using radial grid of 1277 points,  6 beta functions with: 
                l(1) =   0
                l(2) =   0
                l(3) =   1
                l(4) =   1
                l(5) =   2
                l(6) =   2
     Q(r) pseudized with 0 coefficients 


     PseudoPot. # 2 for H  read from file:
     /users/kbadger1/espresso/pseudo/pslibrary.1.0.0/pbe/PSEUDOPOTENTIALS/H.pbe-kjpaw_psl.1.0.0.UPF
     MD5 check sum: fe4c6fa958fa6d3815bf5d2419cbf1df
     Pseudo is Projector augmented-wave, Zval =  1.0
     Generated using 'atomic' code by A. Dal Corso  v.7.0
     Shape of augmentation charge: PSQ
     Using radial grid of  929 points,  2 beta functions with: 
                l(1) =   0
                l(2) =   0
     Q(r) pseudized with 0 coefficients 


     atomic species   valence    mass     pseudopotential
        Pt            10.00   195.08400     Pt( 1.00)
        H              1.00     1.00800     H ( 1.00)

     No symmetry found



   Cartesian axes

     site n.     atom                  positions (alat units)
         1           Pt  tau(   1) = (   0.0000000   0.0000000   1.0017346  )
         2           Pt  tau(   2) = (   0.3333333   0.0000000   1.0017346  )
         3           Pt  tau(   3) = (   0.6666667   0.0000000   1.0017346  )
         4           Pt  tau(   4) = (   0.1666667   0.2886751   1.0017346  )
         5           Pt  tau(   5) = (   0.5000000   0.2886751   1.0017346  )
         6           Pt  tau(   6) = (   0.8333333   0.2886751   1.0017346  )
         7           Pt  tau(   7) = (   0.3333333   0.5773503   1.0017346  )
         8           Pt  tau(   8) = (   0.6666667   0.5773503   1.0017346  )
         9           Pt  tau(   9) = (   1.0000000   0.5773503   1.0017346  )
        10           Pt  tau(  10) = (   0.1666667   0.0962250   1.2739001  )
        11           Pt  tau(  11) = (   0.5000000   0.0962250   1.2739001  )
        12           Pt  tau(  12) = (   0.8333333   0.0962250   1.2739001  )
        13           Pt  tau(  13) = (   0.3333333   0.3849002   1.2739001  )
        14           Pt  tau(  14) = (   0.6666667   0.3849002   1.2739001  )
        15           Pt  tau(  15) = (   1.0000000   0.3849002   1.2739001  )
        16           Pt  tau(  16) = (   0.5000000   0.6735753   1.2739001  )
        17           Pt  tau(  17) = (   0.8333333   0.6735753   1.2739001  )
        18           Pt  tau(  18) = (   1.1666667   0.6735753   1.2739001  )
        19           Pt  tau(  19) = (   0.0014131   0.1931115   1.5437166  )
        20           Pt  tau(  20) = (   0.3336270   0.1926234   1.5452342  )
        21           Pt  tau(  21) = (   0.6675373   0.1927512   1.5424174  )
        22           Pt  tau(  22) = (   0.1670832   0.4802330   1.5443719  )
        23           Pt  tau(  23) = (   0.5006920   0.4817392   1.5424081  )
        24           Pt  tau(  24) = (   0.8340383   0.4815396   1.5427188  )
        25           Pt  tau(  25) = (   0.3335424   0.7699307   1.5417013  )
        26           Pt  tau(  26) = (   0.6679425   0.7707041   1.5437259  )
        27           Pt  tau(  27) = (   0.9994296   0.7706192   1.5443767  )
        28           Pt  tau(  28) = (  -0.0009335  -0.0005248   1.8155485  )
        29           Pt  tau(  29) = (   0.3372885  -0.0003412   1.8258023  )
        30           Pt  tau(  30) = (   0.6691248   0.0008882   1.8168305  )
        31           Pt  tau(  31) = (   0.1683459   0.2922793   1.8257833  )
        32           Pt  tau(  32) = (   0.5063375   0.2923473   1.8167347  )
        33           Pt  tau(  33) = (   0.8356067   0.2897862   1.8170585  )
        34           Pt  tau(  34) = (   0.3353315   0.5790510   1.8168164  )
        35           Pt  tau(  35) = (   0.6687596   0.5787759   1.8170589  )
        36           Pt  tau(  36) = (   1.0019460   0.5784793   1.8173457  )
        37           H   tau(  37) = (   0.2707427   0.1563269   1.9443412  )

     number of k points=    13  Marzari-Vanderbilt smearing, width (Ry)=  0.0200
                       cart. coord. in units 2pi/alat
        k(    1) = (   0.0000000   0.0000000   0.0000000), wk =   0.0800000
        k(    2) = (   0.0000000   0.2309401   0.0000000), wk =   0.1600000
        k(    3) = (   0.0000000   0.4618802   0.0000000), wk =   0.1600000
        k(    4) = (   0.2000000  -0.1154701   0.0000000), wk =   0.1600000
        k(    5) = (   0.2000000   0.1154701   0.0000000), wk =   0.1600000
        k(    6) = (   0.2000000   0.3464102   0.0000000), wk =   0.1600000
        k(    7) = (   0.2000000  -0.5773503   0.0000000), wk =   0.1600000
        k(    8) = (   0.2000000  -0.3464102   0.0000000), wk =   0.1600000
        k(    9) = (   0.4000000  -0.2309401   0.0000000), wk =   0.1600000
        k(   10) = (   0.4000000  -0.0000000   0.0000000), wk =   0.1600000
        k(   11) = (   0.4000000   0.2309401   0.0000000), wk =   0.1600000
        k(   12) = (   0.4000000  -0.6928203   0.0000000), wk =   0.1600000
        k(   13) = (   0.4000000  -0.4618802   0.0000000), wk =   0.1600000

     Dense  grid:  1411785 G-vectors     FFT dimensions: ( 108, 108, 300)

     Smooth grid:   344073 G-vectors     FFT dimensions: (  72,  72, 192)

     Estimated max dynamical RAM per process >     203.68 MB

     Estimated total dynamical RAM >       9.55 GB

     Initial potential from superposition of free atoms

     starting charge     360.9939, renormalised to     361.0000

     negative rho (up, down):  3.372E-03 0.000E+00


     %%%%%%%%%%%%%%%%%%%%%%%%%%%%%%%%%%%%%%%%%%%%%%%%%%%%%%%%%%%%%%%%%%%%%%%%
     %                                                                      %
     % You are using vdW-DF, which was implemented by the Thonhauser group. %
     % Please cite the following two papers that made this development      %
     % possible and the two reviews that describe the various versions:     %
     %                                                                      %
     %   T. Thonhauser et al., PRL 115, 136402 (2015).                      %
     %   T. Thonhauser et al., PRB 76, 125112 (2007).                       %
     %   K. Berland et al., Rep. Prog. Phys. 78, 066501 (2015).             %
     %   D.C. Langreth et al., J. Phys.: Condens. Matter 21, 084203 (2009). %
     %                                                                      %
     % If you are calculating stress with vdW-DF, please also cite:         %
     %                                                                      %
     %   R. Sabatini et al., J. Phys.: Condens. Matter 24, 424209 (2012).   %
     %                                                                      %
     %%%%%%%%%%%%%%%%%%%%%%%%%%%%%%%%%%%%%%%%%%%%%%%%%%%%%%%%%%%%%%%%%%%%%%%%

     %%%%%%%%%%%%%%%%%%%%%%%%%%%%%%%%%%%%%%%%%%%%%%%%%%%%%%%%%%%%%%%%%%%%%%%%
     %                                                                      %
     %  vdW-DF NEWS:                                                        %
     %                                                                      %
     %  * vdW-DF3 is now available. DOI: 10.1021/acs.jctc.0c00471           %
     %    use with input_dft = 'vdW-DF3-opt1' or 'vdW-DF3-opt2'             %
     %                                                                      %
     %  * Unscreened and range-separated hybrid vdW-DF-cx functionals       %
     %    DOI: 10.1063/1.4986522 and 10.1088/1361-648X/ac2ad2               %
     %    use with input_dft = 'vdW-DF-cx0'    and 'vdW-DF-ahcx'            %
     %  * Unscreened and range-separated hybrid vdW-DF2-b86r functionals    %
     %    DOI: 10.1063/1.4986522 and DOI: 10.1103/PhysRevX.12.041003        %
     %    use with input_dft = 'vdW-DF2-br0' and 'vdW-DF2-ahbr'             %
     %                                                                      %
     %%%%%%%%%%%%%%%%%%%%%%%%%%%%%%%%%%%%%%%%%%%%%%%%%%%%%%%%%%%%%%%%%%%%%%%%


     Starting wfcs are  325 randomized atomic wfcs
     Checking if some PAW data can be deallocated... 

     total cpu time spent up to now is       11.0 secs

     per-process dynamical memory:   207.7 Mb

     Self-consistent Calculation

     iteration #  1     ecut=    40.00 Ry     beta= 0.70
     Davidson diagonalization with overlap
     ethr =  1.00E-02,  avg # of iterations =  2.0

     Threshold (ethr) on eigenvalues was too large:
     Diagonalizing with lowered threshold

     Davidson diagonalization with overlap
     ethr =  3.74E-04,  avg # of iterations =  3.8

     negative rho (up, down):  1.777E-02 0.000E+00

     total cpu time spent up to now is       46.0 secs

     total energy              =  -27755.28276729 Ry
     estimated scf accuracy    <       1.55194063 Ry

     iteration #  2     ecut=    40.00 Ry     beta= 0.70
     Davidson diagonalization with overlap
     ethr =  4.30E-04,  avg # of iterations =  2.0

     negative rho (up, down):  1.593E-02 0.000E+00

     total cpu time spent up to now is       63.1 secs

     total energy              =  -27755.38130326 Ry
     estimated scf accuracy    <       0.81358240 Ry

     iteration #  3     ecut=    40.00 Ry     beta= 0.70
     Davidson diagonalization with overlap
     ethr =  2.25E-04,  avg # of iterations =  2.0

     negative rho (up, down):  1.055E-02 0.000E+00

     total cpu time spent up to now is       76.7 secs

     total energy              =  -27755.43315780 Ry
     estimated scf accuracy    <       0.09428029 Ry

     iteration #  4     ecut=    40.00 Ry     beta= 0.70
     Davidson diagonalization with overlap
     c_bands:  2 eigenvalues not converged
     c_bands:  1 eigenvalues not converged
     ethr =  2.61E-05,  avg # of iterations = 13.7

     negative rho (up, down):  7.754E-03 0.000E+00

     total cpu time spent up to now is      113.9 secs

     total energy              =  -27755.48280463 Ry
     estimated scf accuracy    <       0.08604759 Ry

     iteration #  5     ecut=    40.00 Ry     beta= 0.70
     Davidson diagonalization with overlap
     c_bands:  1 eigenvalues not converged
     ethr =  2.38E-05,  avg # of iterations =  3.1

     negative rho (up, down):  3.456E-03 0.000E+00

     total cpu time spent up to now is      132.2 secs

     total energy              =  -27755.48266978 Ry
     estimated scf accuracy    <       0.03017991 Ry

     iteration #  6     ecut=    40.00 Ry     beta= 0.70
     Davidson diagonalization with overlap
     c_bands:  1 eigenvalues not converged
     c_bands:  1 eigenvalues not converged
     c_bands:  1 eigenvalues not converged
     ethr =  8.36E-06,  avg # of iterations =  8.2

     negative rho (up, down):  1.658E-03 0.000E+00

     total cpu time spent up to now is      155.4 secs

     total energy              =  -27755.48485800 Ry
     estimated scf accuracy    <       0.00249398 Ry

     iteration #  7     ecut=    40.00 Ry     beta= 0.70
     Davidson diagonalization with overlap
     c_bands:  2 eigenvalues not converged
     c_bands:  1 eigenvalues not converged
     ethr =  6.91E-07,  avg # of iterations = 14.1

     negative rho (up, down):  1.273E-03 0.000E+00

     total cpu time spent up to now is      192.9 secs

     total energy              =  -27755.48538700 Ry
     estimated scf accuracy    <       0.00192341 Ry

     iteration #  8     ecut=    40.00 Ry     beta= 0.70
     Davidson diagonalization with overlap
     ethr =  5.33E-07,  avg # of iterations =  2.7

     negative rho (up, down):  1.108E-03 0.000E+00

     total cpu time spent up to now is      212.0 secs

     total energy              =  -27755.48553664 Ry
     estimated scf accuracy    <       0.00021301 Ry

     iteration #  9     ecut=    40.00 Ry     beta= 0.70
     Davidson diagonalization with overlap
     ethr =  5.90E-08,  avg # of iterations =  5.1

     negative rho (up, down):  8.966E-04 0.000E+00

     total cpu time spent up to now is      243.8 secs

     total energy              =  -27755.48565425 Ry
     estimated scf accuracy    <       0.00008644 Ry

     iteration # 10     ecut=    40.00 Ry     beta= 0.70
     Davidson diagonalization with overlap
     c_bands:  1 eigenvalues not converged
     ethr =  2.39E-08,  avg # of iterations =  5.5

     negative rho (up, down):  8.763E-04 0.000E+00

     total cpu time spent up to now is      273.0 secs

     total energy              =  -27755.48567320 Ry
     estimated scf accuracy    <       0.00008621 Ry

     iteration # 11     ecut=    40.00 Ry     beta= 0.70
     Davidson diagonalization with overlap
     ethr =  2.39E-08,  avg # of iterations =  1.2

     negative rho (up, down):  9.614E-04 0.000E+00

     total cpu time spent up to now is      286.9 secs

     total energy              =  -27755.48567733 Ry
     estimated scf accuracy    <       0.00005581 Ry

     iteration # 12     ecut=    40.00 Ry     beta= 0.70
     Davidson diagonalization with overlap
     ethr =  1.55E-08,  avg # of iterations =  1.5

     negative rho (up, down):  1.189E-03 0.000E+00

     total cpu time spent up to now is      305.8 secs

     total energy              =  -27755.48568375 Ry
     estimated scf accuracy    <       0.00001939 Ry

     iteration # 13     ecut=    40.00 Ry     beta= 0.70
     Davidson diagonalization with overlap
     ethr =  5.37E-09,  avg # of iterations =  2.1

     negative rho (up, down):  1.656E-03 0.000E+00

     total cpu time spent up to now is      321.6 secs

     total energy              =  -27755.48568893 Ry
     estimated scf accuracy    <       0.00001152 Ry

     iteration # 14     ecut=    40.00 Ry     beta= 0.70
     Davidson diagonalization with overlap
     ethr =  3.19E-09,  avg # of iterations =  1.9

     negative rho (up, down):  1.994E-03 0.000E+00

     total cpu time spent up to now is      340.0 secs

     total energy              =  -27755.48569212 Ry
     estimated scf accuracy    <       0.00000674 Ry

     iteration # 15     ecut=    40.00 Ry     beta= 0.70
     Davidson diagonalization with overlap
     ethr =  1.87E-09,  avg # of iterations =  2.0

     negative rho (up, down):  2.714E-03 0.000E+00

     total cpu time spent up to now is      355.5 secs

     total energy              =  -27755.48568971 Ry
     estimated scf accuracy    <       0.00000595 Ry

     iteration # 16     ecut=    40.00 Ry     beta= 0.70
     Davidson diagonalization with overlap
     ethr =  1.65E-09,  avg # of iterations =  1.3

     negative rho (up, down):  2.862E-03 0.000E+00

     total cpu time spent up to now is      374.0 secs

     total energy              =  -27755.48568949 Ry
     estimated scf accuracy    <       0.00000110 Ry

     iteration # 17     ecut=    40.00 Ry     beta= 0.70
     Davidson diagonalization with overlap
     ethr =  3.05E-10,  avg # of iterations =  4.2

     negative rho (up, down):  3.161E-03 0.000E+00

     total cpu time spent up to now is      402.4 secs

     End of self-consistent calculation

          k = 0.0000 0.0000 0.0000 ( 42913 PWs)   bands (ev):

    -6.3068  -5.1493  -4.4063  -3.8901  -3.8829  -3.8701  -3.8679  -3.8586
    -3.8508  -3.8477  -3.5439  -3.3203  -3.3195  -3.3113  -3.3017  -3.3012
    -3.2267  -2.8517  -2.8508  -2.8505  -2.8432  -2.8385  -2.7381  -2.6331
    -2.6290  -2.6283  -2.6245  -2.6163  -2.5143  -2.4057  -2.4041  -2.4037
    -2.3958  -2.3955  -2.3900  -2.3781  -2.3685  -2.3647  -2.3444  -2.3359
    -1.9576  -1.7859  -1.7854  -1.7618  -1.7460  -1.7198  -1.7072  -1.7012
    -1.6890  -1.6884  -1.5653  -1.5466  -1.5463  -1.4495  -1.4384  -0.9810
    -0.9713  -0.9621  -0.9597  -0.9461  -0.8955  -0.8799  -0.7853  -0.7848
    -0.7819  -0.7736  -0.7637  -0.7624  -0.7497  -0.7301  -0.7208  -0.7185
    -0.7154  -0.7109  -0.6850  -0.6779  -0.6712  -0.5599  -0.5511  -0.5449
    -0.5415  -0.5332  -0.5133  -0.3847  -0.3640  -0.3632  -0.3482  -0.3443
    -0.3367  -0.2985  -0.2875  -0.2264  -0.2088  -0.1963  -0.1703  -0.1260
    -0.1243  -0.0856  -0.0851  -0.0734  -0.0052   0.0648   0.0747   0.0794
     0.0832   0.0898   0.1011   0.3412   0.5511   0.5757   0.5794   0.5847
     0.5862   0.6007   0.6210   0.6351   0.6396   0.6449   0.6624   0.7209
     0.7338   0.7823   0.8617   0.8767   0.8808   0.8850   0.9003   0.9779
     1.0087   1.0458   1.0576   1.0591   1.0682   1.2780   1.2982   1.3091
     1.3221   1.3267   1.3271   1.3774   1.3998   1.5231   1.5421   1.5640
     1.5693   1.5717   1.5726   1.6940   1.7120   1.7291   1.7438   1.7541
     1.7544   1.7581   1.7663   1.7787   1.7832   1.7854   1.7883   1.8548
     1.8878   1.8941   1.8966   1.9168   1.9194   1.9435   1.9448   1.9880
     1.9994   2.0184   2.0279   2.0291   2.0474   2.0628   2.0639   2.1262
     2.1335   2.1369   2.1532   2.1583   2.1592   2.2068   2.2343   2.2457
     2.2567   2.2577   2.2703   2.2734   2.4609   2.4652   2.5600   2.5633
     2.5736   2.5838   2.5892   2.5910   3.1055   3.4147   3.4268   3.4609
     3.4720   3.4822   3.4822   5.3786   5.7182   5.7660   5.7869   5.8114
     5.8171   7.1288   7.3143   7.3773   7.3993   7.4025   7.4041   7.5377
     7.6331

          k = 0.0000 0.2309 0.0000 ( 42996 PWs)   bands (ev):

    -6.1598  -5.0188  -4.4078  -4.3029  -3.9790  -3.9644  -3.7476  -3.6714
    -3.6376  -3.6265  -3.5082  -3.4096  -3.3836  -3.2517  -3.2389  -3.2324
    -3.1345  -2.9441  -2.8179  -2.8127  -2.8005  -2.7872  -2.7272  -2.6985
    -2.6678  -2.6394  -2.6305  -2.5965  -2.5634  -2.5319  -2.5270  -2.4325
    -2.4222  -2.4031  -2.3854  -2.2604  -2.2014  -2.1914  -2.1796  -2.1457
    -1.9812  -1.9051  -1.8998  -1.8521  -1.8212  -1.7977  -1.7859  -1.7055
    -1.6066  -1.5665  -1.5316  -1.5105  -1.4773  -1.4555  -1.4396  -1.2417
    -1.1476  -1.1434  -1.0820  -1.0576  -1.0201  -0.9911  -0.9594  -0.9486
    -0.9301  -0.9219  -0.8677  -0.8571  -0.8032  -0.7741  -0.7631  -0.7417
    -0.6788  -0.6671  -0.6505  -0.5988  -0.5943  -0.5743  -0.5355  -0.4987
    -0.4910  -0.4755  -0.4685  -0.3905  -0.3816  -0.3715  -0.3654  -0.3522
    -0.3111  -0.2865  -0.2640  -0.2313  -0.2057  -0.2010  -0.1834  -0.1575
    -0.1329  -0.1113  -0.0951  -0.0878  -0.0093   0.0447   0.0671   0.0804
     0.0871   0.0927   0.1009   0.1234   0.1601   0.1652   0.1817   0.1978
     0.3865   0.5014   0.5448   0.5783   0.5866   0.5990   0.6081   0.6294
     0.6384   0.7422   0.7981   0.8082   0.8860   0.9391   0.9480   0.9614
     0.9898   1.0126   1.0418   1.0636   1.0792   1.1515   1.1751   1.1895
     1.2019   1.2102   1.2960   1.3907   1.4155   1.4212   1.4310   1.4460
     1.4649   1.5171   1.5511   1.5793   1.5938   1.6065   1.6517   1.6720
     1.6858   1.6955   1.7649   1.7913   1.8074   1.8270   1.8575   1.9331
     1.9581   1.9623   1.9797   1.9919   2.0190   2.0316   2.1006   2.1130
     2.1582   2.1719   2.1770   2.1939   2.2199   2.2262   2.2367   2.2431
     2.2465   2.3068   2.3114   2.4452   2.4624   2.4740   2.4882   2.5041
     2.5089   2.5400   2.5605   2.5774   2.5903   2.6580   2.6955   2.7188
     2.7744   2.8777   2.8868   2.8990   2.9319   3.2645   3.3297   3.8305
     4.0511   4.0786   4.1875   4.9782   5.3681   5.4962   6.1241   6.2116
     6.2305   6.3418   6.5898   6.9888   7.1728   7.3403   7.5240   7.5791
     7.6333

          k = 0.0000 0.4619 0.0000 ( 43046 PWs)   bands (ev):

    -5.7368  -5.1036  -4.6807  -4.2023  -4.0137  -3.9893  -3.7858  -3.6440
    -3.4892  -3.3644  -3.2920  -3.2861  -3.2364  -3.1252  -3.0785  -3.0645
    -3.0597  -3.0336  -2.9110  -2.9007  -2.8895  -2.8508  -2.8423  -2.8154
    -2.7268  -2.7178  -2.7138  -2.6829  -2.4547  -2.4504  -2.4401  -2.4387
    -2.4266  -2.3425  -2.2044  -2.1938  -2.1710  -2.1535  -2.1371  -2.0536
    -1.9465  -1.8704  -1.8642  -1.8434  -1.8050  -1.7901  -1.7470  -1.7263
    -1.7078  -1.6767  -1.6471  -1.6009  -1.5003  -1.4933  -1.4616  -1.3953
    -1.3471  -1.3197  -1.2822  -1.2681  -1.2218  -1.1234  -1.0618  -1.0560
    -1.0426  -1.0073  -0.9529  -0.9411  -0.8915  -0.8127  -0.8074  -0.7993
    -0.7522  -0.6852  -0.6805  -0.6664  -0.6576  -0.6357  -0.5905  -0.5751
    -0.5596  -0.5535  -0.5417  -0.5382  -0.5288  -0.4974  -0.4586  -0.4029
    -0.3962  -0.3810  -0.3697  -0.3602  -0.3239  -0.2407  -0.2126  -0.1854
    -0.1440  -0.1332  -0.1114  -0.0899  -0.0592  -0.0527   0.0328   0.0697
     0.0873   0.1071   0.1444   0.1780   0.2249   0.3181   0.3398   0.4105
     0.4296   0.4777   0.4913   0.5237   0.5301   0.5372   0.5389   0.5967
     0.6222   0.6446   0.6499   0.6607   0.6827   0.7027   0.7152   0.7415
     0.7481   0.8697   0.8853   0.8962   0.9557   0.9800   1.0671   1.0824
     1.1607   1.1900   1.2322   1.2834   1.3476   1.3627   1.4098   1.4190
     1.4491   1.4669   1.4927   1.5157   1.5620   1.5688   1.6170   1.6554
     1.6761   1.7129   1.7318   1.7422   1.7540   1.7913   1.8819   1.9274
     1.9878   2.0043   2.0229   2.0322   2.0764   2.1269   2.1394   2.1956
     2.2130   2.2336   2.2405   2.2919   2.3186   2.3373   2.3429   2.4506
     2.4615   2.4751   2.4897   2.4944   2.4990   2.5179   2.5220   2.7011
     2.7217   2.7327   2.7441   2.7475   2.9059   2.9574   3.1595   3.3365
     3.3798   3.5763   3.7750   3.7891   4.0745   4.1725   4.2827   4.4797
     4.7681   4.9978   5.0050   5.0892   5.2169   5.2593   5.3460   5.3915
     5.6051   5.6560   6.1909   6.2855   6.6904   6.8243   7.1530   7.3064
     7.7120

          k = 0.2000-0.1155 0.0000 ( 42996 PWs)   bands (ev):

    -6.1598  -5.0188  -4.4079  -4.3029  -3.9789  -3.9644  -3.7476  -3.6714
    -3.6376  -3.6264  -3.5081  -3.4096  -3.3836  -3.2518  -3.2389  -3.2324
    -3.1345  -2.9441  -2.8179  -2.8127  -2.8006  -2.7872  -2.7272  -2.6985
    -2.6678  -2.6394  -2.6305  -2.5965  -2.5634  -2.5319  -2.5270  -2.4325
    -2.4222  -2.4031  -2.3854  -2.2604  -2.2014  -2.1914  -2.1796  -2.1457
    -1.9812  -1.9051  -1.8998  -1.8521  -1.8212  -1.7977  -1.7859  -1.7055
    -1.6066  -1.5665  -1.5317  -1.5105  -1.4773  -1.4555  -1.4396  -1.2417
    -1.1476  -1.1434  -1.0819  -1.0576  -1.0201  -0.9911  -0.9594  -0.9487
    -0.9301  -0.9219  -0.8677  -0.8571  -0.8032  -0.7741  -0.7631  -0.7417
    -0.6788  -0.6672  -0.6506  -0.5988  -0.5943  -0.5743  -0.5355  -0.4987
    -0.4910  -0.4755  -0.4685  -0.3905  -0.3816  -0.3715  -0.3654  -0.3522
    -0.3111  -0.2865  -0.2640  -0.2313  -0.2057  -0.2010  -0.1834  -0.1575
    -0.1330  -0.1113  -0.0951  -0.0878  -0.0093   0.0447   0.0672   0.0804
     0.0871   0.0927   0.1009   0.1234   0.1601   0.1652   0.1817   0.1978
     0.3865   0.5014   0.5448   0.5783   0.5865   0.5990   0.6081   0.6294
     0.6384   0.7422   0.7981   0.8082   0.8860   0.9390   0.9480   0.9614
     0.9898   1.0126   1.0417   1.0636   1.0792   1.1515   1.1751   1.1895
     1.2019   1.2102   1.2960   1.3907   1.4155   1.4212   1.4310   1.4460
     1.4649   1.5171   1.5511   1.5793   1.5939   1.6065   1.6517   1.6720
     1.6858   1.6955   1.7649   1.7913   1.8074   1.8270   1.8575   1.9331
     1.9581   1.9623   1.9797   1.9918   2.0190   2.0316   2.1006   2.1130
     2.1582   2.1719   2.1770   2.1939   2.2199   2.2262   2.2368   2.2431
     2.2465   2.3068   2.3114   2.4452   2.4624   2.4740   2.4882   2.5041
     2.5089   2.5400   2.5605   2.5774   2.5904   2.6580   2.6955   2.7188
     2.7744   2.8778   2.8868   2.8990   2.9319   3.2645   3.3297   3.8305
     4.0511   4.0786   4.1875   4.9781   5.3681   5.4962   6.1240   6.2116
     6.2305   6.3418   6.5898   6.9888   7.1728   7.3402   7.5240   7.5791
     7.6333

          k = 0.2000 0.1155 0.0000 ( 42996 PWs)   bands (ev):

    -6.1609  -5.0301  -4.4589  -4.2485  -3.9812  -3.9748  -3.7482  -3.6781
    -3.6270  -3.6257  -3.5519  -3.4042  -3.2914  -3.2541  -3.2356  -3.2354
    -3.2000  -2.9398  -2.8159  -2.8150  -2.7995  -2.7375  -2.7260  -2.6837
    -2.6676  -2.6566  -2.6417  -2.6325  -2.5311  -2.5275  -2.4963  -2.4282
    -2.4213  -2.3889  -2.3817  -2.2300  -2.1996  -2.1871  -2.1842  -2.1663
    -1.9574  -1.9030  -1.8973  -1.8570  -1.8223  -1.8144  -1.7870  -1.7280
    -1.6087  -1.5760  -1.5321  -1.5223  -1.4670  -1.4476  -1.4252  -1.2372
    -1.1438  -1.1427  -1.0749  -1.0581  -1.0221  -0.9853  -0.9738  -0.9482
    -0.9312  -0.9181  -0.8976  -0.8503  -0.7877  -0.7732  -0.7628  -0.7558
    -0.6877  -0.6784  -0.6663  -0.5997  -0.5836  -0.5745  -0.5357  -0.4824
    -0.4817  -0.4729  -0.4693  -0.3896  -0.3870  -0.3698  -0.3557  -0.3524
    -0.2977  -0.2927  -0.2674  -0.2431  -0.2073  -0.1976  -0.1907  -0.1538
    -0.1424  -0.1156  -0.1003  -0.0932  -0.0089   0.0508   0.0589   0.0594
     0.0762   0.0872   0.1067   0.1099   0.1498   0.1711   0.1733   0.1884
     0.4182   0.4990   0.5357   0.5606   0.5921   0.6040   0.6068   0.6325
     0.6483   0.6896   0.7782   0.8035   0.8890   0.9358   0.9465   0.9715
     0.9788   0.9991   1.0385   1.0647   1.0656   1.1636   1.1826   1.1923
     1.2060   1.2136   1.3727   1.3830   1.4116   1.4138   1.4238   1.4446
     1.4698   1.5278   1.5364   1.5578   1.5988   1.6005   1.6586   1.6682
     1.6834   1.6866   1.7672   1.7833   1.8161   1.8300   1.8812   1.9194
     1.9266   1.9637   1.9753   1.9792   2.0213   2.0367   2.0989   2.1112
     2.1633   2.1675   2.1835   2.2130   2.2150   2.2323   2.2361   2.2431
     2.2466   2.3036   2.3078   2.4489   2.4576   2.4694   2.4996   2.5131
     2.5164   2.5441   2.5808   2.5824   2.5927   2.6756   2.6916   2.7172
     2.7784   2.8818   2.8837   2.8948   2.9349   3.2847   3.3203   3.8427
     4.0338   4.0754   4.1968   4.9370   5.4446   5.4939   6.0832   6.2139
     6.2634   6.3302   6.5323   6.9750   7.1754   7.3257   7.5578   7.5841
     7.6339

          k = 0.2000 0.3464 0.0000 ( 43046 PWs)   bands (ev):

    -5.8764  -4.8427  -4.6318  -4.6174  -4.1708  -3.5528  -3.5487  -3.5418
    -3.5206  -3.4821  -3.4801  -3.4660  -3.3712  -3.3562  -3.1675  -2.9835
    -2.9765  -2.9640  -2.9584  -2.8938  -2.8748  -2.7386  -2.7232  -2.7166
    -2.7101  -2.6288  -2.6141  -2.5707  -2.5640  -2.5536  -2.4919  -2.4783
    -2.4546  -2.4030  -2.3949  -2.3163  -2.1359  -2.0402  -1.9687  -1.9559
    -1.9423  -1.9177  -1.9083  -1.9008  -1.8452  -1.8276  -1.7701  -1.6813
    -1.6724  -1.6419  -1.5687  -1.5423  -1.4932  -1.4858  -1.4533  -1.3972
    -1.3725  -1.2349  -1.2099  -1.1982  -1.1245  -1.1044  -1.0886  -1.0836
    -1.0584  -1.0135  -0.9868  -0.8678  -0.8503  -0.8349  -0.8230  -0.7848
    -0.7608  -0.7238  -0.7076  -0.6883  -0.6541  -0.5665  -0.5510  -0.5324
    -0.5183  -0.5143  -0.5077  -0.4800  -0.4581  -0.4411  -0.4024  -0.3896
    -0.3597  -0.3428  -0.2751  -0.2674  -0.2328  -0.2059  -0.1788  -0.1664
    -0.1523  -0.1217  -0.1081  -0.1019  -0.0969  -0.0806  -0.0694  -0.0555
    -0.0142   0.0023   0.0833   0.1034   0.1509   0.2075   0.2293   0.2320
     0.2502   0.4226   0.4373   0.4595   0.5639   0.5750   0.6103   0.6177
     0.6462   0.6494   0.6869   0.6949   0.7259   0.7377   0.7596   0.8249
     0.9291   0.9593   1.0018   1.0087   1.0406   1.0557   1.0818   1.1332
     1.1906   1.2299   1.2536   1.3029   1.3126   1.3556   1.3941   1.4400
     1.4534   1.4686   1.5182   1.5338   1.5466   1.5610   1.5713   1.5778
     1.5948   1.6026   1.6178   1.7065   1.7627   1.8050   1.9218   1.9426
     1.9656   2.0913   2.1069   2.1203   2.1274   2.1940   2.2320   2.2528
     2.2585   2.2775   2.3023   2.3152   2.3268   2.3327   2.3451   2.3869
     2.3991   2.4192   2.4856   2.5109   2.5219   2.5449   2.5540   2.6004
     2.7207   2.7482   2.7874   2.8042   2.8563   2.8688   2.8759   2.9723
     3.0188   3.3424   3.5350   3.5475   3.9535   4.0845   4.0936   4.1029
     4.5710   4.7928   4.8155   4.9952   5.0155   5.0606   5.6625   6.0839
     6.2052   6.2262   6.3989   6.6384   6.9297   6.9899   7.0004   7.0258
     7.0514

          k = 0.2000-0.5774 0.0000 ( 43014 PWs)   bands (ev):

    -5.3563  -5.3242  -4.7637  -4.4897  -4.0863  -3.8515  -3.5447  -3.4905
    -3.4033  -3.3727  -3.2663  -3.2577  -3.1574  -3.1521  -3.0558  -3.0328
    -3.0257  -2.9975  -2.9949  -2.9801  -2.8637  -2.8280  -2.8237  -2.7972
    -2.7788  -2.7643  -2.7008  -2.6265  -2.5669  -2.4723  -2.4312  -2.4266
    -2.4060  -2.3857  -2.3446  -2.2957  -2.1863  -2.1710  -2.1022  -1.9963
    -1.9839  -1.9178  -1.8495  -1.8352  -1.7903  -1.7416  -1.6668  -1.6199
    -1.5891  -1.5763  -1.5581  -1.5166  -1.5075  -1.4692  -1.3869  -1.3715
    -1.3509  -1.3447  -1.3361  -1.3294  -1.2765  -1.2604  -1.2312  -1.1368
    -1.0960  -1.0656  -1.0472  -0.9554  -0.9199  -0.9053  -0.8739  -0.8521
    -0.8224  -0.7970  -0.7464  -0.7348  -0.7163  -0.6962  -0.6601  -0.6111
    -0.5994  -0.5700  -0.5156  -0.4887  -0.4830  -0.4715  -0.4042  -0.3422
    -0.3123  -0.2922  -0.2796  -0.2516  -0.2266  -0.2208  -0.2138  -0.1812
    -0.1639  -0.1476  -0.1367  -0.1072  -0.0841  -0.0720  -0.0608  -0.0588
    -0.0502  -0.0358   0.0057   0.0304   0.0519   0.2191   0.2659   0.3366
     0.3539   0.3861   0.4505   0.4724   0.4857   0.5037   0.5485   0.5630
     0.5721   0.5770   0.6456   0.6794   0.7046   0.7246   0.7721   0.7815
     0.8424   0.8525   0.9029   1.0379   1.0589   1.0995   1.1151   1.1363
     1.1758   1.2056   1.2343   1.2485   1.2608   1.2749   1.2945   1.3060
     1.3986   1.4181   1.4335   1.4578   1.4887   1.5142   1.5336   1.5466
     1.5527   1.6885   1.7192   1.7733   1.8419   1.8608   1.9424   1.9580
     1.9975   2.0626   2.0795   2.0886   2.1699   2.1810   2.2578   2.2788
     2.3037   2.3074   2.3138   2.3422   2.3593   2.3971   2.4642   2.4712
     2.4943   2.5087   2.5199   2.5246   2.5324   2.6003   2.6992   2.7315
     2.7368   2.7453   2.7504   2.8101   2.8442   2.9329   3.0525   3.7350
     3.8969   3.9118   4.0895   4.1538   4.2241   4.2849   4.2897   4.6284
     4.8725   4.9061   5.1033   5.3580   5.3747   5.4658   5.5001   5.6566
     5.7680   5.8406   5.8906   6.1584   6.2997   6.3333   6.7703   6.9663
     6.9923

          k = 0.2000-0.3464 0.0000 ( 43046 PWs)   bands (ev):

    -5.8731  -4.8068  -4.6369  -4.6152  -4.1653  -3.5521  -3.5445  -3.5420
    -3.5298  -3.4928  -3.4813  -3.4594  -3.3689  -3.3572  -3.2004  -2.9707
    -2.9688  -2.9613  -2.9444  -2.8920  -2.8700  -2.7367  -2.7263  -2.7194
    -2.7070  -2.6786  -2.6170  -2.5774  -2.5619  -2.5506  -2.5262  -2.4821
    -2.4535  -2.4207  -2.4016  -2.3118  -2.2611  -2.0547  -1.9688  -1.9638
    -1.9257  -1.9159  -1.9020  -1.8961  -1.8442  -1.8194  -1.7752  -1.6772
    -1.6670  -1.6070  -1.5614  -1.5124  -1.4897  -1.4875  -1.4510  -1.3974
    -1.3859  -1.2246  -1.2155  -1.2024  -1.1311  -1.1071  -1.0907  -1.0760
    -1.0357  -1.0121  -1.0066  -0.8563  -0.8366  -0.8330  -0.8199  -0.7868
    -0.7652  -0.7209  -0.6961  -0.6881  -0.6489  -0.5766  -0.5493  -0.5388
    -0.5199  -0.5084  -0.5032  -0.4708  -0.4493  -0.4407  -0.3889  -0.3735
    -0.3529  -0.3155  -0.2689  -0.2566  -0.2311  -0.2021  -0.1803  -0.1688
    -0.1535  -0.1149  -0.1042  -0.0923  -0.0863  -0.0772  -0.0718  -0.0608
    -0.0302   0.0143   0.0933   0.1277   0.1518   0.1770   0.2293   0.2409
     0.2521   0.4242   0.4343   0.5070   0.5727   0.5786   0.5967   0.6153
     0.6291   0.6479   0.6768   0.7003   0.7248   0.7394   0.7672   0.8207
     0.8820   0.9627   1.0035   1.0097   1.0337   1.0649   1.1033   1.1329
     1.1907   1.2232   1.2388   1.2670   1.3251   1.3407   1.3948   1.4508
     1.4656   1.4768   1.5103   1.5218   1.5531   1.5581   1.5695   1.5858
     1.5977   1.5993   1.6233   1.7174   1.7777   1.8114   1.9227   1.9364
     1.9660   2.0681   2.1191   2.1225   2.1267   2.2133   2.2294   2.2491
     2.2644   2.2819   2.3030   2.3126   2.3310   2.3359   2.3483   2.3879
     2.4033   2.4107   2.4862   2.5149   2.5179   2.5438   2.5550   2.6012
     2.7229   2.7612   2.7870   2.7920   2.8534   2.8702   2.8792   3.0005
     3.0183   3.2935   3.5065   3.5596   3.8971   4.0844   4.0935   4.1082
     4.5836   4.8027   4.8079   4.9610   5.0077   5.0663   5.6359   6.0538
     6.2034   6.2468   6.4471   6.6931   6.9374   6.9826   7.0113   7.0214
     7.0507

          k = 0.4000-0.2309 0.0000 ( 43046 PWs)   bands (ev):

    -5.7368  -5.1036  -4.6807  -4.2023  -4.0137  -3.9893  -3.7858  -3.6440
    -3.4892  -3.3645  -3.2920  -3.2861  -3.2364  -3.1252  -3.0785  -3.0645
    -3.0597  -3.0336  -2.9110  -2.9006  -2.8895  -2.8509  -2.8424  -2.8154
    -2.7267  -2.7178  -2.7138  -2.6829  -2.4546  -2.4504  -2.4401  -2.4387
    -2.4265  -2.3425  -2.2044  -2.1938  -2.1710  -2.1535  -2.1371  -2.0536
    -1.9465  -1.8704  -1.8642  -1.8434  -1.8050  -1.7901  -1.7470  -1.7262
    -1.7078  -1.6767  -1.6472  -1.6009  -1.5002  -1.4933  -1.4616  -1.3953
    -1.3471  -1.3196  -1.2822  -1.2681  -1.2218  -1.1233  -1.0618  -1.0560
    -1.0426  -1.0074  -0.9529  -0.9411  -0.8915  -0.8128  -0.8074  -0.7994
    -0.7522  -0.6852  -0.6805  -0.6664  -0.6576  -0.6357  -0.5905  -0.5751
    -0.5596  -0.5535  -0.5417  -0.5382  -0.5288  -0.4974  -0.4587  -0.4029
    -0.3962  -0.3810  -0.3697  -0.3601  -0.3240  -0.2407  -0.2126  -0.1854
    -0.1441  -0.1332  -0.1114  -0.0899  -0.0593  -0.0527   0.0328   0.0697
     0.0874   0.1071   0.1444   0.1780   0.2249   0.3181   0.3399   0.4105
     0.4296   0.4777   0.4913   0.5237   0.5301   0.5372   0.5389   0.5967
     0.6222   0.6446   0.6499   0.6607   0.6827   0.7026   0.7152   0.7415
     0.7482   0.8696   0.8853   0.8962   0.9557   0.9800   1.0671   1.0824
     1.1607   1.1900   1.2322   1.2835   1.3476   1.3627   1.4098   1.4190
     1.4491   1.4669   1.4927   1.5157   1.5620   1.5688   1.6170   1.6554
     1.6761   1.7129   1.7318   1.7422   1.7540   1.7913   1.8819   1.9274
     1.9878   2.0043   2.0229   2.0321   2.0764   2.1269   2.1394   2.1956
     2.2130   2.2336   2.2405   2.2919   2.3186   2.3373   2.3429   2.4506
     2.4615   2.4751   2.4897   2.4944   2.4990   2.5180   2.5220   2.7011
     2.7217   2.7327   2.7441   2.7476   2.9059   2.9574   3.1595   3.3365
     3.3798   3.5763   3.7750   3.7891   4.0745   4.1726   4.2826   4.4797
     4.7681   4.9978   5.0050   5.0892   5.2169   5.2593   5.3460   5.3915
     5.6051   5.6560   6.1909   6.2855   6.6904   6.8243   7.1530   7.3064
     7.7120

          k = 0.4000-0.0000 0.0000 ( 43046 PWs)   bands (ev):

    -5.8764  -4.8427  -4.6318  -4.6174  -4.1708  -3.5528  -3.5487  -3.5418
    -3.5206  -3.4821  -3.4801  -3.4659  -3.3712  -3.3562  -3.1675  -2.9835
    -2.9765  -2.9639  -2.9584  -2.8939  -2.8747  -2.7386  -2.7232  -2.7166
    -2.7101  -2.6288  -2.6141  -2.5708  -2.5640  -2.5536  -2.4919  -2.4783
    -2.4546  -2.4030  -2.3949  -2.3163  -2.1359  -2.0401  -1.9687  -1.9559
    -1.9423  -1.9177  -1.9083  -1.9008  -1.8452  -1.8276  -1.7701  -1.6813
    -1.6724  -1.6419  -1.5687  -1.5423  -1.4932  -1.4858  -1.4533  -1.3972
    -1.3725  -1.2349  -1.2099  -1.1982  -1.1244  -1.1043  -1.0886  -1.0837
    -1.0584  -1.0135  -0.9868  -0.8679  -0.8503  -0.8349  -0.8230  -0.7848
    -0.7608  -0.7238  -0.7076  -0.6884  -0.6542  -0.5665  -0.5510  -0.5324
    -0.5183  -0.5143  -0.5077  -0.4800  -0.4582  -0.4411  -0.4025  -0.3896
    -0.3597  -0.3428  -0.2750  -0.2674  -0.2328  -0.2059  -0.1788  -0.1664
    -0.1523  -0.1217  -0.1080  -0.1018  -0.0968  -0.0806  -0.0694  -0.0555
    -0.0141   0.0022   0.0833   0.1034   0.1509   0.2075   0.2293   0.2320
     0.2502   0.4226   0.4373   0.4595   0.5639   0.5750   0.6103   0.6176
     0.6462   0.6494   0.6869   0.6949   0.7259   0.7376   0.7595   0.8250
     0.9291   0.9593   1.0018   1.0086   1.0406   1.0557   1.0818   1.1332
     1.1906   1.2299   1.2536   1.3029   1.3126   1.3555   1.3942   1.4400
     1.4533   1.4686   1.5182   1.5338   1.5466   1.5610   1.5713   1.5778
     1.5948   1.6026   1.6178   1.7065   1.7627   1.8050   1.9218   1.9425
     1.9656   2.0913   2.1069   2.1203   2.1274   2.1940   2.2320   2.2528
     2.2585   2.2775   2.3023   2.3152   2.3268   2.3327   2.3451   2.3868
     2.3991   2.4192   2.4855   2.5109   2.5219   2.5449   2.5540   2.6004
     2.7208   2.7482   2.7875   2.8042   2.8563   2.8688   2.8759   2.9723
     3.0188   3.3424   3.5350   3.5475   3.9535   4.0845   4.0937   4.1030
     4.5710   4.7928   4.8155   4.9952   5.0155   5.0606   5.6625   6.0839
     6.2052   6.2262   6.3989   6.6384   6.9296   6.9898   7.0004   7.0258
     7.0515

          k = 0.4000 0.2309 0.0000 ( 43046 PWs)   bands (ev):

    -5.7424  -5.1256  -4.7113  -4.1998  -4.0162  -4.0082  -3.7724  -3.6259
    -3.4889  -3.3635  -3.2854  -3.2843  -3.2135  -3.1213  -3.1056  -3.0691
    -3.0647  -3.0536  -2.9160  -2.9013  -2.8981  -2.8545  -2.8467  -2.7998
    -2.7366  -2.7137  -2.7120  -2.4696  -2.4540  -2.4446  -2.4437  -2.4304
    -2.4254  -2.2552  -2.2016  -2.1768  -2.1704  -2.1435  -2.1396  -2.0402
    -1.9641  -1.8676  -1.8593  -1.8480  -1.8357  -1.7871  -1.7809  -1.7147
    -1.7120  -1.6661  -1.6439  -1.6417  -1.5035  -1.4836  -1.4615  -1.4305
    -1.3396  -1.3092  -1.2725  -1.2682  -1.2186  -1.1216  -1.0571  -1.0511
    -1.0497  -1.0114  -0.9614  -0.9427  -0.9177  -0.8253  -0.8203  -0.8117
    -0.7777  -0.6906  -0.6868  -0.6604  -0.6589  -0.6400  -0.5996  -0.5652
    -0.5627  -0.5512  -0.5473  -0.5410  -0.5259  -0.4916  -0.4548  -0.3985
    -0.3903  -0.3858  -0.3717  -0.3439  -0.3303  -0.2813  -0.2205  -0.1900
    -0.1636  -0.1294  -0.1056  -0.0913  -0.0864  -0.0744   0.0310   0.0584
     0.0865   0.0868   0.1499   0.1702   0.1831   0.3147   0.3554   0.3802
     0.4192   0.4657   0.5084   0.5184   0.5366   0.5448   0.5504   0.5756
     0.6180   0.6473   0.6477   0.6732   0.6738   0.7001   0.7160   0.7458
     0.7726   0.8566   0.8672   0.8878   0.9609   1.0025   1.0749   1.0847
     1.1691   1.1924   1.2337   1.3000   1.3323   1.3683   1.3798   1.4165
     1.4592   1.4597   1.4998   1.5159   1.5581   1.5718   1.6063   1.6648
     1.6690   1.7082   1.7260   1.7397   1.7493   1.7972   1.8805   1.9104
     1.9514   2.0018   2.0088   2.0351   2.0882   2.1237   2.1348   2.2054
     2.2165   2.2336   2.2354   2.3104   2.3154   2.3305   2.3410   2.4492
     2.4610   2.4801   2.4831   2.4960   2.5044   2.5248   2.5304   2.7025
     2.7343   2.7401   2.7468   2.7497   2.9112   2.9581   3.2273   3.3302
     3.3949   3.5482   3.7822   3.7859   4.0959   4.1750   4.2741   4.5205
     4.8302   5.0028   5.0048   5.0655   5.2118   5.2384   5.3852   5.3984
     5.6001   5.6589   6.1563   6.2999   6.6592   6.8104   7.2125   7.2849
     7.7645

          k = 0.4000-0.6928 0.0000 ( 43014 PWs)   bands (ev):

    -5.3686  -5.3296  -4.7394  -4.5521  -4.0839  -3.8089  -3.5570  -3.4964
    -3.4011  -3.3765  -3.2697  -3.2608  -3.1614  -3.1525  -3.0591  -3.0340
    -3.0200  -3.0002  -2.9925  -2.9771  -2.8510  -2.8282  -2.8171  -2.8083
    -2.7855  -2.7793  -2.6649  -2.5805  -2.5506  -2.4419  -2.4234  -2.4164
    -2.4074  -2.3762  -2.3070  -2.2837  -2.1847  -2.1753  -2.0837  -1.9952
    -1.9841  -1.9463  -1.8429  -1.8242  -1.7826  -1.7712  -1.6738  -1.6239
    -1.5975  -1.5764  -1.5590  -1.5099  -1.4927  -1.4604  -1.3871  -1.3797
    -1.3614  -1.3411  -1.3337  -1.3263  -1.2964  -1.2546  -1.2135  -1.1310
    -1.1225  -1.0764  -1.0389  -0.9687  -0.9118  -0.9065  -0.8986  -0.8487
    -0.8322  -0.8190  -0.7603  -0.7289  -0.7218  -0.6943  -0.6604  -0.6299
    -0.5840  -0.5737  -0.5311  -0.4846  -0.4799  -0.4673  -0.4156  -0.3557
    -0.3101  -0.2994  -0.2810  -0.2728  -0.2254  -0.2201  -0.2069  -0.1946
    -0.1802  -0.1672  -0.1369  -0.1056  -0.0793  -0.0780  -0.0670  -0.0595
    -0.0464  -0.0388  -0.0128   0.0361   0.0446   0.2325   0.2531   0.3413
     0.3596   0.4100   0.4543   0.4734   0.4914   0.5113   0.5525   0.5681
     0.5816   0.5868   0.6408   0.6946   0.7041   0.7425   0.7685   0.7785
     0.8374   0.8455   0.8790   0.9622   1.0546   1.1042   1.1111   1.1448
     1.1854   1.2083   1.2321   1.2412   1.2651   1.2686   1.2960   1.3072
     1.3941   1.4346   1.4434   1.4692   1.4799   1.5060   1.5257   1.5355
     1.5471   1.6998   1.7320   1.7751   1.8125   1.8767   1.9490   1.9609
     2.0355   2.0528   2.0766   2.0925   2.1533   2.1926   2.2559   2.2786
     2.2865   2.3019   2.3143   2.3321   2.3664   2.3985   2.4665   2.4723
     2.4894   2.5013   2.5217   2.5276   2.5335   2.5998   2.7122   2.7348
     2.7437   2.7465   2.7501   2.8066   2.8519   2.9205   3.0129   3.7788
     3.8954   3.9106   4.1025   4.1474   4.2648   4.2831   4.2921   4.6467
     4.8512   4.9131   5.1618   5.3495   5.3849   5.4366   5.5096   5.7295
     5.7370   5.8093   5.9046   6.1473   6.2587   6.3466   6.7924   6.9406
     6.9875

          k = 0.4000-0.4619 0.0000 ( 43014 PWs)   bands (ev):

    -5.3563  -5.3242  -4.7637  -4.4897  -4.0863  -3.8515  -3.5447  -3.4905
    -3.4033  -3.3727  -3.2663  -3.2577  -3.1574  -3.1521  -3.0558  -3.0328
    -3.0257  -2.9975  -2.9949  -2.9801  -2.8637  -2.8280  -2.8237  -2.7972
    -2.7788  -2.7644  -2.7008  -2.6265  -2.5669  -2.4723  -2.4312  -2.4266
    -2.4060  -2.3857  -2.3446  -2.2958  -2.1862  -2.1710  -2.1022  -1.9963
    -1.9839  -1.9178  -1.8495  -1.8352  -1.7903  -1.7416  -1.6669  -1.6199
    -1.5891  -1.5763  -1.5581  -1.5166  -1.5075  -1.4692  -1.3869  -1.3715
    -1.3509  -1.3446  -1.3361  -1.3294  -1.2765  -1.2603  -1.2313  -1.1368
    -1.0960  -1.0656  -1.0472  -0.9554  -0.9199  -0.9054  -0.8739  -0.8521
    -0.8224  -0.7970  -0.7464  -0.7348  -0.7163  -0.6962  -0.6601  -0.6111
    -0.5994  -0.5700  -0.5157  -0.4886  -0.4830  -0.4715  -0.4042  -0.3423
    -0.3123  -0.2921  -0.2796  -0.2516  -0.2266  -0.2208  -0.2138  -0.1813
    -0.1639  -0.1476  -0.1367  -0.1072  -0.0840  -0.0720  -0.0609  -0.0588
    -0.0502  -0.0358   0.0057   0.0304   0.0520   0.2191   0.2659   0.3366
     0.3539   0.3861   0.4505   0.4724   0.4857   0.5038   0.5485   0.5630
     0.5722   0.5770   0.6456   0.6793   0.7046   0.7246   0.7721   0.7815
     0.8424   0.8525   0.9029   1.0379   1.0589   1.0995   1.1151   1.1362
     1.1758   1.2056   1.2343   1.2485   1.2608   1.2749   1.2945   1.3060
     1.3986   1.4181   1.4335   1.4578   1.4887   1.5142   1.5336   1.5466
     1.5527   1.6885   1.7192   1.7733   1.8419   1.8608   1.9424   1.9580
     1.9975   2.0626   2.0795   2.0886   2.1699   2.1810   2.2578   2.2788
     2.3037   2.3074   2.3138   2.3421   2.3593   2.3971   2.4642   2.4712
     2.4942   2.5087   2.5199   2.5246   2.5324   2.6003   2.6992   2.7315
     2.7368   2.7453   2.7504   2.8101   2.8442   2.9329   3.0525   3.7350
     3.8969   3.9118   4.0895   4.1538   4.2241   4.2849   4.2897   4.6284
     4.8725   4.9061   5.1033   5.3580   5.3747   5.4658   5.5001   5.6567
     5.7680   5.8406   5.8906   6.1584   6.2997   6.3333   6.7703   6.9658
     6.9910

     the Fermi energy is     2.5135 ev

!    total energy              =  -27755.48568801 Ry
     total all-electron energy =  -1326642.251105 Ry
     estimated scf accuracy    <       0.00000054 Ry
     smearing contrib. (-TS)   =       0.00300285 Ry
     internal energy E=F+TS    =  -27755.48869086 Ry

     The total energy is F=E-TS. E is the sum of the following terms:
     one-electron contribution =  -20680.27899844 Ry
     hartree contribution      =   10647.25224362 Ry
     xc contribution           =    -890.71724403 Ry
     ewald contribution        =    8642.23661526 Ry
     one-center paw contrib.   =  -25473.98130726 Ry

     convergence has been achieved in  17 iterations

     negative rho (up, down):  3.161E-03 0.000E+00

     Forces acting on atoms (cartesian axes, Ry/au):

     atom    1 type  1   force =    -0.00020067   -0.00012773   -0.00310924
     atom    2 type  1   force =     0.00007358   -0.00004325   -0.00310052
     atom    3 type  1   force =    -0.00035506    0.00062279   -0.00373569
     atom    4 type  1   force =     0.00000788    0.00008866   -0.00310579
     atom    5 type  1   force =    -0.00027831   -0.00015123   -0.00345390
     atom    6 type  1   force =    -0.00028583   -0.00021048   -0.00353469
     atom    7 type  1   force =     0.00037076   -0.00062772   -0.00373483
     atom    8 type  1   force =    -0.00033389   -0.00014217   -0.00353345
     atom    9 type  1   force =     0.00010820    0.00006282   -0.00307214
     atom   10 type  1   force =     0.00026974    0.00014345    0.00612475
     atom   11 type  1   force =    -0.00008042   -0.00091758    0.00456299
     atom   12 type  1   force =     0.00010145    0.00005182    0.00157082
     atom   13 type  1   force =    -0.00082624    0.00039478    0.00453914
     atom   14 type  1   force =     0.00008969    0.00006000    0.00264676
     atom   15 type  1   force =     0.00107701    0.00026098    0.00526314
     atom   16 type  1   force =     0.00010464    0.00006825    0.00156724
     atom   17 type  1   force =     0.00075716    0.00081687    0.00527791
     atom   18 type  1   force =    -0.00011041   -0.00005406    0.00043007
     atom   19 type  1   force =     0.00007521    0.00003105   -0.00000724
     atom   20 type  1   force =    -0.00000820   -0.00001611   -0.00005402
     atom   21 type  1   force =    -0.00001206    0.00001774   -0.00008232
     atom   22 type  1   force =     0.00005118    0.00003743   -0.00002120
     atom   23 type  1   force =     0.00001963   -0.00001359   -0.00006723
     atom   24 type  1   force =     0.00009602    0.00006564   -0.00002606
     atom   25 type  1   force =     0.00008343    0.00004076   -0.00004861
     atom   26 type  1   force =     0.00007403    0.00003644   -0.00002779
     atom   27 type  1   force =     0.00004523    0.00002569   -0.00003029
     atom   28 type  1   force =     0.00014003    0.00006776   -0.00017102
     atom   29 type  1   force =     0.00015770    0.00023866   -0.00004712
     atom   30 type  1   force =     0.00011770    0.00018565   -0.00028535
     atom   31 type  1   force =     0.00028303    0.00001771   -0.00002075
     atom   32 type  1   force =     0.00016121    0.00008535   -0.00030253
     atom   33 type  1   force =     0.00013432   -0.00001811   -0.00027691
     atom   34 type  1   force =     0.00021860    0.00001459   -0.00026938
     atom   35 type  1   force =     0.00004908    0.00013238   -0.00028203
     atom   36 type  1   force =     0.00020754    0.00013323   -0.00028592
     atom   37 type  2   force =    -0.00238298   -0.00137847    0.00070318
     The non-local contrib.  to forces
     atom    1 type  1   force =    -0.00057659   -0.00034151   -0.01765365
     atom    2 type  1   force =    -0.00043922    0.00068633   -0.01817900
     atom    3 type  1   force =     0.00128507   -0.00088037   -0.01841252
     atom    4 type  1   force =     0.00038067   -0.00072177   -0.01818332
     atom    5 type  1   force =    -0.00021871   -0.00011595   -0.01756077
     atom    6 type  1   force =    -0.00013547    0.00027209   -0.01809532
     atom    7 type  1   force =    -0.00011019    0.00154700   -0.01841558
     atom    8 type  1   force =     0.00015785   -0.00025305   -0.01809413
     atom    9 type  1   force =    -0.00024464   -0.00013819   -0.01843642
     atom   10 type  1   force =     0.00008025    0.00003874    0.00065542
     atom   11 type  1   force =    -0.00033014    0.00063050    0.00114794
     atom   12 type  1   force =     0.00145973    0.00122310   -0.00019961
     atom   13 type  1   force =     0.00039076   -0.00059535    0.00113040
     atom   14 type  1   force =     0.00065212    0.00038630   -0.00046249
     atom   15 type  1   force =    -0.00038934    0.00012840    0.00035368
     atom   16 type  1   force =     0.00179472    0.00065408   -0.00020137
     atom   17 type  1   force =    -0.00008821   -0.00039004    0.00036484
     atom   18 type  1   force =    -0.00148021   -0.00084618    0.00039963
     atom   19 type  1   force =    -0.00283116   -0.00123127    0.00113567
     atom   20 type  1   force =     0.00119706    0.00068235    0.00743045
     atom   21 type  1   force =     0.00155263    0.00078820    0.00199668
     atom   22 type  1   force =     0.00129279    0.00361674   -0.00069530
     atom   23 type  1   force =     0.00146674    0.00095518    0.00201316
     atom   24 type  1   force =    -0.00118600   -0.00067481    0.00349686
     atom   25 type  1   force =     0.00079361    0.00045052    0.00442681
     atom   26 type  1   force =    -0.00247471   -0.00184898    0.00111614
     atom   27 type  1   force =     0.00376659   -0.00069021   -0.00070012
     atom   28 type  1   force =     0.01835903    0.01058164    0.02557936
     atom   29 type  1   force =    -0.01127051    0.02170869   -0.00779506
     atom   30 type  1   force =     0.00014452    0.00050673    0.01589242
     atom   31 type  1   force =     0.01316390   -0.02060912   -0.00778037
     atom   32 type  1   force =    -0.03033457   -0.01752451    0.02851117
     atom   33 type  1   force =    -0.00075644    0.00047622    0.01578169
     atom   34 type  1   force =     0.00050296   -0.00013051    0.01589612
     atom   35 type  1   force =     0.00002925   -0.00089024    0.01577696
     atom   36 type  1   force =    -0.00078600   -0.00045040    0.01671083
     atom   37 type  2   force =    -0.00316132   -0.00182604   -0.02303851
     The ionic contribution  to forces
     atom    1 type  1   force =     0.00788037    0.00453530  -93.41802870
     atom    2 type  1   force =     0.00133219    0.00535733  -93.40202506
     atom    3 type  1   force =    -0.00924352   -0.00340297  -93.41691211
     atom    4 type  1   force =     0.00531821   -0.00154637  -93.40207447
     atom    5 type  1   force =    -0.01125914   -0.00652457  -93.41288161
     atom    6 type  1   force =     0.00599514    0.00045732  -93.42274877
     atom    7 type  1   force =    -0.00756503   -0.00627694  -93.41694800
     atom    8 type  1   force =     0.00341460    0.00499001  -93.42273649
     atom    9 type  1   force =     0.00419334    0.00244986  -93.40852408
     atom   10 type  1   force =     0.05716181    0.03276875  -31.48300096
     atom   11 type  1   force =    -0.08061632   -0.01017807  -31.48373526
     atom   12 type  1   force =     0.04027935    0.02430040  -31.58078529
     atom   13 type  1   force =    -0.04915982   -0.06488016  -31.48390409
     atom   14 type  1   force =    -0.00726862   -0.00436944  -31.60419999
     atom   15 type  1   force =     0.06260702    0.00803563  -31.53661028
     atom   16 type  1   force =     0.04136803    0.02312780  -31.58068193
     atom   17 type  1   force =     0.03817048    0.05047840  -31.53633559
     atom   18 type  1   force =    -0.07847203   -0.04510344  -31.48905811
     atom   19 type  1   force =     0.13626154    0.00881961   31.17582652
     atom   20 type  1   force =    -0.06772054   -0.03920111   31.55824856
     atom   21 type  1   force =    -0.04922556   -0.05346068   30.77469365
     atom   22 type  1   force =     0.01881109   -0.02132685   31.19955847
     atom   23 type  1   force =    -0.07086722   -0.01592793   30.77288580
     atom   24 type  1   force =     0.04828928    0.02783574   30.87316623
     atom   25 type  1   force =    -0.04136855   -0.02395224   30.60780076
     atom   26 type  1   force =     0.07574078    0.11362316   31.17758208
     atom   27 type  1   force =    -0.00913687    0.02692092   31.20052465
     atom   28 type  1   force =     0.03693397    0.02106547   92.23116467
     atom   29 type  1   force =     0.22707416   -0.84131955   92.83083772
     atom   30 type  1   force =     0.05305644    0.01087507   92.59087103
     atom   31 type  1   force =    -0.61523762    0.61778519   92.82814969
     atom   32 type  1   force =     0.09048048    0.05205153   92.27654422
     atom   33 type  1   force =     0.03871118   -0.01481430   92.65305813
     atom   34 type  1   force =     0.03547160    0.04028378   92.58887639
     atom   35 type  1   force =     0.00632329    0.04092045   92.65308088
     atom   36 type  1   force =    -0.02829189   -0.01678698   92.60241681
     atom   37 type  2   force =     0.09055837    0.05238986   11.90590451
     The local contribution  to forces
     atom    1 type  1   force =    -0.00746496   -0.00426632   93.41475561
     atom    2 type  1   force =    -0.00086600   -0.00612697   93.39926362
     atom    3 type  1   force =     0.00761948    0.00495676   93.41367605
     atom    4 type  1   force =    -0.00577890    0.00231925   93.39932977
     atom    5 type  1   force =     0.01127841    0.00649691   93.40915423
     atom    6 type  1   force =    -0.00611665   -0.00085372   93.41956425
     atom    7 type  1   force =     0.00806576    0.00411066   93.41372250
     atom    8 type  1   force =    -0.00378544   -0.00491108   93.41953850
     atom    9 type  1   force =    -0.00390170   -0.00228633   93.40616531
     atom   10 type  1   force =    -0.05691033   -0.03258768   31.48685960
     atom   11 type  1   force =     0.08078996    0.00859955   31.48552734
     atom   12 type  1   force =    -0.04157415   -0.02533770   31.58057338
     atom   13 type  1   force =     0.04782513    0.06580631   31.48573424
     atom   14 type  1   force =     0.00678415    0.00405029   31.60530334
     atom   15 type  1   force =    -0.06110777   -0.00792479   31.53976838
     atom   16 type  1   force =    -0.04293921   -0.02370418   31.58048066
     atom   17 type  1   force =    -0.03731474   -0.04926387   31.53946490
     atom   18 type  1   force =     0.07969521    0.04579253   31.48760715
     atom   19 type  1   force =    -0.13313226   -0.00745940  -31.17485035
     atom   20 type  1   force =     0.06644735    0.03851331  -31.56341733
     atom   21 type  1   force =     0.04772553    0.05264707  -30.77511072
     atom   22 type  1   force =    -0.02001747    0.01777044  -31.19705033
     atom   23 type  1   force =     0.06936813    0.01500250  -30.77330415
     atom   24 type  1   force =    -0.04697276   -0.02713788  -30.87510770
     atom   25 type  1   force =     0.04051638    0.02346453  -30.61063317
     atom   26 type  1   force =    -0.07304447   -0.11155770  -31.17659743
     atom   27 type  1   force =     0.00550192   -0.02620809  -31.19800761
     atom   28 type  1   force =    -0.05420833   -0.03101601  -92.24015939
     atom   29 type  1   force =    -0.21294025    0.81194081  -92.81255941
     atom   30 type  1   force =    -0.05340858   -0.01097651  -92.58988152
     atom   31 type  1   force =     0.59684014   -0.59083800  -92.80989391
     atom   32 type  1   force =    -0.06035947   -0.03466534  -92.28904638
     atom   33 type  1   force =    -0.03732716    0.01432844  -92.65196959
     atom   34 type  1   force =    -0.03576639   -0.04054697  -92.58788506
     atom   35 type  1   force =    -0.00604773   -0.03949430  -92.65197227
     atom   36 type  1   force =     0.02919048    0.01728105  -92.60217590
     atom   37 type  2   force =    -0.08978013   -0.05194292  -11.88204555
     The core correction contribution to forces
     atom    1 type  1   force =    -0.00001995   -0.00001162    0.01728699
     atom    2 type  1   force =     0.00002274   -0.00001396    0.01726104
     atom    3 type  1   force =    -0.00001114    0.00000316    0.01739531
     atom    4 type  1   force =    -0.00000052    0.00002678    0.01726095
     atom    5 type  1   force =    -0.00000439   -0.00000255    0.01730867
     atom    6 type  1   force =    -0.00001784   -0.00002897    0.01724726
     atom    7 type  1   force =    -0.00000289   -0.00001125    0.01739519
     atom    8 type  1   force =    -0.00003388   -0.00000066    0.01724741
     atom    9 type  1   force =    -0.00004203   -0.00002425    0.01718638
     atom   10 type  1   force =    -0.00012637   -0.00007242    0.00102999
     atom   11 type  1   force =     0.00013479    0.00007118    0.00103775
     atom   12 type  1   force =    -0.00005849   -0.00005491    0.00140276
     atom   13 type  1   force =     0.00012986    0.00008152    0.00103843
     atom   14 type  1   force =     0.00000954    0.00000616    0.00141649
     atom   15 type  1   force =    -0.00013306    0.00002687    0.00117567
     atom   16 type  1   force =    -0.00007722   -0.00002458    0.00140242
     atom   17 type  1   force =    -0.00004264   -0.00012922    0.00117466
     atom   18 type  1   force =     0.00013614    0.00007838    0.00092424
     atom   19 type  1   force =    -0.00025233   -0.00003244   -0.00235606
     atom   20 type  1   force =     0.00004108    0.00002326   -0.00252280
     atom   21 type  1   force =    -0.00000381    0.00009626   -0.00194115
     atom   22 type  1   force =    -0.00009192   -0.00007811   -0.00203710
     atom   23 type  1   force =     0.00008199   -0.00005131   -0.00194316
     atom   24 type  1   force =    -0.00000827   -0.00000405   -0.00187032
     atom   25 type  1   force =     0.00016969    0.00009864   -0.00189429
     atom   26 type  1   force =    -0.00015336   -0.00020243   -0.00235447
     atom   27 type  1   force =    -0.00011376   -0.00003967   -0.00203709
     atom   28 type  1   force =    -0.00100879   -0.00058121   -0.01614641
     atom   29 type  1   force =    -0.00265145    0.00775009   -0.01002346
     atom   30 type  1   force =     0.00036302   -0.00023642   -0.01652394
     atom   31 type  1   force =     0.00538672   -0.00617266   -0.01002255
     atom   32 type  1   force =     0.00044729    0.00026007   -0.01571604
     atom   33 type  1   force =    -0.00046368    0.00001524   -0.01654158
     atom   34 type  1   force =    -0.00002096    0.00043262   -0.01652385
     atom   35 type  1   force =    -0.00021875   -0.00040992   -0.01654147
     atom   36 type  1   force =     0.00008859    0.00005199   -0.01661866
     atom   37 type  2   force =     0.00000000    0.00000000    0.00000000
     The Hubbard contrib.    to forces
     atom    1 type  1   force =     0.00000000    0.00000000    0.00000000
     atom    2 type  1   force =     0.00000000    0.00000000    0.00000000
     atom    3 type  1   force =     0.00000000    0.00000000    0.00000000
     atom    4 type  1   force =     0.00000000    0.00000000    0.00000000
     atom    5 type  1   force =     0.00000000    0.00000000    0.00000000
     atom    6 type  1   force =     0.00000000    0.00000000    0.00000000
     atom    7 type  1   force =     0.00000000    0.00000000    0.00000000
     atom    8 type  1   force =     0.00000000    0.00000000    0.00000000
     atom    9 type  1   force =     0.00000000    0.00000000    0.00000000
     atom   10 type  1   force =     0.00000000    0.00000000    0.00000000
     atom   11 type  1   force =     0.00000000    0.00000000    0.00000000
     atom   12 type  1   force =     0.00000000    0.00000000    0.00000000
     atom   13 type  1   force =     0.00000000    0.00000000    0.00000000
     atom   14 type  1   force =     0.00000000    0.00000000    0.00000000
     atom   15 type  1   force =     0.00000000    0.00000000    0.00000000
     atom   16 type  1   force =     0.00000000    0.00000000    0.00000000
     atom   17 type  1   force =     0.00000000    0.00000000    0.00000000
     atom   18 type  1   force =     0.00000000    0.00000000    0.00000000
     atom   19 type  1   force =     0.00000000    0.00000000    0.00000000
     atom   20 type  1   force =     0.00000000    0.00000000    0.00000000
     atom   21 type  1   force =     0.00000000    0.00000000    0.00000000
     atom   22 type  1   force =     0.00000000    0.00000000    0.00000000
     atom   23 type  1   force =     0.00000000    0.00000000    0.00000000
     atom   24 type  1   force =     0.00000000    0.00000000    0.00000000
     atom   25 type  1   force =     0.00000000    0.00000000    0.00000000
     atom   26 type  1   force =     0.00000000    0.00000000    0.00000000
     atom   27 type  1   force =     0.00000000    0.00000000    0.00000000
     atom   28 type  1   force =     0.00000000    0.00000000    0.00000000
     atom   29 type  1   force =     0.00000000    0.00000000    0.00000000
     atom   30 type  1   force =     0.00000000    0.00000000    0.00000000
     atom   31 type  1   force =     0.00000000    0.00000000    0.00000000
     atom   32 type  1   force =     0.00000000    0.00000000    0.00000000
     atom   33 type  1   force =     0.00000000    0.00000000    0.00000000
     atom   34 type  1   force =     0.00000000    0.00000000    0.00000000
     atom   35 type  1   force =     0.00000000    0.00000000    0.00000000
     atom   36 type  1   force =     0.00000000    0.00000000    0.00000000
     atom   37 type  2   force =     0.00000000    0.00000000    0.00000000
     The SCF correction term to forces
     atom    1 type  1   force =    -0.00000000   -0.00000000    0.00000000
     atom    2 type  1   force =     0.00000000    0.00000000    0.00000000
     atom    3 type  1   force =    -0.00000000   -0.00000000    0.00000000
     atom    4 type  1   force =     0.00000000    0.00000000    0.00000000
     atom    5 type  1   force =    -0.00000000   -0.00000000    0.00000000
     atom    6 type  1   force =    -0.00000000   -0.00000000    0.00000000
     atom    7 type  1   force =    -0.00000000    0.00000000    0.00000000
     atom    8 type  1   force =    -0.00000000    0.00000000    0.00000000
     atom    9 type  1   force =     0.00000000    0.00000000    0.00000000
     atom   10 type  1   force =     0.00000000   -0.00000000    0.00000000
     atom   11 type  1   force =    -0.00000000   -0.00000000    0.00000000
     atom   12 type  1   force =    -0.00000000   -0.00000000    0.00000000
     atom   13 type  1   force =    -0.00000000   -0.00000000    0.00000000
     atom   14 type  1   force =    -0.00000000   -0.00000000    0.00000000
     atom   15 type  1   force =     0.00000000   -0.00000000    0.00000000
     atom   16 type  1   force =    -0.00000000    0.00000000    0.00000000
     atom   17 type  1   force =     0.00000000    0.00000000    0.00000000
     atom   18 type  1   force =     0.00000000    0.00000000    0.00000000
     atom   19 type  1   force =     0.00002922   -0.00006563    0.00029751
     atom   20 type  1   force =     0.00002665   -0.00003409    0.00026763
     atom   21 type  1   force =    -0.00006104   -0.00005329    0.00033976
     atom   22 type  1   force =     0.00005649    0.00005504    0.00026358
     atom   23 type  1   force =    -0.00003020    0.00000779    0.00034166
     atom   24 type  1   force =    -0.00002642    0.00004646    0.00034941
     atom   25 type  1   force =    -0.00002791   -0.00002086    0.00031180
     atom   26 type  1   force =     0.00000559    0.00002221    0.00028642
     atom   27 type  1   force =     0.00002716    0.00004258    0.00025042
     atom   28 type  1   force =     0.00006395    0.00001769   -0.00054872
     atom   29 type  1   force =    -0.00005445    0.00015846   -0.00044639
     atom   30 type  1   force =    -0.00003790    0.00001660   -0.00058282
     atom   31 type  1   force =     0.00012967   -0.00014787   -0.00041308
     atom   32 type  1   force =    -0.00007272   -0.00003658   -0.00053496
     atom   33 type  1   force =    -0.00002976   -0.00002388   -0.00054503
     atom   34 type  1   force =     0.00003118   -0.00002451   -0.00057245
     atom   35 type  1   force =    -0.00003718    0.00000621   -0.00056560
     atom   36 type  1   force =     0.00000617    0.00003740   -0.00055847
     atom   37 type  2   force =    -0.00000010    0.00000045   -0.00005674

     Total force =     0.003011     Total SCF correction =     0.001870
     SCF correction compared to forces is large: reduce conv_thr to get better values

     Writing all to output data dir ./pwscf.save/

     init_run     :     10.49s CPU     10.82s WALL (       1 calls)
     electrons    :    367.47s CPU    391.63s WALL (       1 calls)
     forces       :      4.36s CPU      5.23s WALL (       1 calls)

     Called by init_run:
     wfcinit      :      6.11s CPU      6.30s WALL (       1 calls)
     potinit      :      3.01s CPU      3.08s WALL (       1 calls)
     hinit0       :      0.81s CPU      0.83s WALL (       1 calls)

     Called by electrons:
     c_bands      :    305.43s CPU    320.25s WALL (      18 calls)
     sum_band     :     39.79s CPU     42.53s WALL (      18 calls)
     v_of_rho     :     11.07s CPU     14.52s WALL (      18 calls)
     newd         :      3.23s CPU      5.45s WALL (      18 calls)
     PAW_pot      :      4.08s CPU      4.20s WALL (      18 calls)
     mix_rho      :      5.76s CPU      6.38s WALL (      18 calls)
     vdW_kernel   :      1.67s CPU      1.68s WALL (       1 calls)

     Called by c_bands:
     init_us_2    :      2.32s CPU      2.56s WALL (     494 calls)
     init_us_2:cp :      2.32s CPU      2.56s WALL (     494 calls)
     cegterg      :    298.48s CPU    311.49s WALL (     234 calls)

     Called by *egterg:
     cdiaghg      :     68.58s CPU     70.30s WALL (    1212 calls)
     h_psi        :    128.95s CPU    134.20s WALL (    1238 calls)
     s_psi        :     17.38s CPU     18.35s WALL (    1238 calls)
     g_psi        :      0.87s CPU      0.89s WALL (     991 calls)

     Called by h_psi:
     h_psi:calbec :     21.52s CPU     22.27s WALL (    1238 calls)
     vloc_psi     :     87.58s CPU     91.56s WALL (    1238 calls)
     add_vuspsi   :     17.85s CPU     18.15s WALL (    1238 calls)

     General routines
     calbec       :     31.23s CPU     32.16s WALL (    1524 calls)
     fft          :      8.79s CPU     10.91s WALL (    1194 calls)
     ffts         :      2.90s CPU      3.08s WALL (    4588 calls)
     fftw         :     91.26s CPU     95.40s WALL (  311094 calls)
     interpolate  :      0.61s CPU      0.66s WALL (      18 calls)

     Parallel routines

     PWSCF        :   6m23.97s CPU   6m52.35s WALL


   This run was terminated on:  22: 8:47  22Feb2025            

=------------------------------------------------------------------------------=
   JOB DONE.
=------------------------------------------------------------------------------=
