  37  37   0   0
  0.4190497E+02  0.8468310E-09  0.8468310E-09  0.2496566E-08  0.5000000E-15
  1.000000000000000E-004
  CAR 
 unknown system                          
      8.68414204     -9.88977908  301     -0.07338084      1.00000000
     -9.890  0.0000E+00  0.0000E+00
     -9.828  0.0000E+00  0.0000E+00
     -9.766  0.0000E+00  0.0000E+00
     -9.704 -0.4763E-28 -0.2949E-29
     -9.642 -0.7175E-24 -0.4443E-25
     -9.580 -0.4988E-20 -0.3089E-21
     -9.518 -0.1598E-16 -0.9896E-18
     -9.456 -0.2283E-13 -0.1414E-14
     -9.394 -0.1530E-10 -0.9489E-12
     -9.333 -0.4674E-08 -0.2903E-09
     -9.271 -0.6447E-06 -0.4021E-07
     -9.209 -0.3956E-04 -0.2490E-05
     -9.147 -0.1046E-02 -0.6728E-04
     -9.085 -0.1102E-01 -0.7494E-03
     -9.023 -0.3370E-01 -0.2836E-02
     -8.961  0.6055E-01  0.9128E-03
     -8.899  0.3419E+00  0.2208E-01
     -8.837  0.6292E+00  0.6103E-01
     -8.775  0.2142E+01  0.1937E+00
     -8.713  0.3820E+01  0.4302E+00
     -8.652  0.2122E+01  0.5615E+00
     -8.590 -0.7625E-01  0.5568E+00
     -8.528  0.2537E+00  0.5725E+00
     -8.466  0.2665E+01  0.7375E+00
     -8.404  0.3792E+01  0.9723E+00
     -8.342  0.3539E+01  0.1191E+01
     -8.280  0.3718E+01  0.1422E+01
     -8.218  0.1774E+01  0.1531E+01
     -8.156 -0.2823E-01  0.1530E+01
     -8.094 -0.3551E+00  0.1508E+01
     -8.032 -0.3217E+00  0.1488E+01
     -7.970  0.2121E+01  0.1619E+01
     -7.909  0.6918E+01  0.2047E+01
     -7.847  0.6036E+01  0.2421E+01
     -7.785  0.1184E+01  0.2494E+01
     -7.723  0.1176E+01  0.2567E+01
     -7.661  0.3960E+01  0.2812E+01
     -7.599  0.3696E+01  0.3041E+01
     -7.537  0.3334E+01  0.3248E+01
     -7.475  0.3224E+01  0.3447E+01
     -7.413  0.8306E+00  0.3499E+01
     -7.351  0.1555E+01  0.3595E+01
     -7.289  0.7054E+01  0.4032E+01
     -7.228  0.1118E+02  0.4724E+01
     -7.166  0.1092E+02  0.5400E+01
     -7.104  0.6684E+01  0.5814E+01
     -7.042  0.2479E+01  0.5967E+01
     -6.980  0.2805E+01  0.6141E+01
     -6.918  0.4348E+01  0.6410E+01
     -6.856  0.4185E+01  0.6669E+01
     -6.794  0.2530E+01  0.6826E+01
     -6.732  0.3121E+01  0.7019E+01
     -6.670  0.9529E+01  0.7609E+01
     -6.608  0.1510E+02  0.8544E+01
     -6.546  0.1792E+02  0.9653E+01
     -6.485  0.1640E+02  0.1067E+02
     -6.423  0.9264E+01  0.1124E+02
     -6.361  0.6910E+01  0.1167E+02
     -6.299  0.1222E+02  0.1243E+02
     -6.237  0.1692E+02  0.1347E+02
     -6.175  0.2248E+02  0.1487E+02
     -6.113  0.3229E+02  0.1687E+02
     -6.051  0.3534E+02  0.1905E+02
     -5.989  0.3212E+02  0.2104E+02
     -5.927  0.3175E+02  0.2301E+02
     -5.865  0.3361E+02  0.2509E+02
     -5.804  0.3184E+02  0.2706E+02
     -5.742  0.2670E+02  0.2871E+02
     -5.680  0.3025E+02  0.3059E+02
     -5.618  0.3841E+02  0.3296E+02
     -5.556  0.4215E+02  0.3557E+02
     -5.494  0.4512E+02  0.3837E+02
     -5.432  0.5552E+02  0.4181E+02
     -5.370  0.6391E+02  0.4576E+02
     -5.308  0.6139E+02  0.4956E+02
     -5.246  0.5097E+02  0.5272E+02
     -5.184  0.4426E+02  0.5546E+02
     -5.122  0.4400E+02  0.5818E+02
     -5.061  0.5801E+02  0.6177E+02
     -4.999  0.7327E+02  0.6631E+02
     -4.937  0.5205E+02  0.6953E+02
     -4.875  0.2477E+02  0.7107E+02
     -4.813  0.3064E+02  0.7296E+02
     -4.751  0.4554E+02  0.7578E+02
     -4.689  0.3483E+02  0.7794E+02
     -4.627  0.2040E+02  0.7920E+02
     -4.565  0.2686E+02  0.8086E+02
     -4.503  0.4662E+02  0.8375E+02
     -4.441  0.6135E+02  0.8755E+02
     -4.380  0.5926E+02  0.9122E+02
     -4.318  0.4843E+02  0.9422E+02
     -4.256  0.4208E+02  0.9682E+02
     -4.194  0.4234E+02  0.9944E+02
     -4.132  0.5396E+02  0.1028E+03
     -4.070  0.6269E+02  0.1067E+03
     -4.008  0.5392E+02  0.1100E+03
     -3.946  0.4487E+02  0.1128E+03
     -3.884  0.4269E+02  0.1154E+03
     -3.822  0.3915E+02  0.1178E+03
     -3.760  0.3595E+02  0.1201E+03
     -3.698  0.4935E+02  0.1231E+03
     -3.637  0.6331E+02  0.1270E+03
     -3.575  0.5946E+02  0.1307E+03
     -3.513  0.5505E+02  0.1341E+03
     -3.451  0.6104E+02  0.1379E+03
     -3.389  0.7289E+02  0.1424E+03
     -3.327  0.7592E+02  0.1471E+03
     -3.265  0.6987E+02  0.1515E+03
     -3.203  0.6798E+02  0.1557E+03
     -3.141  0.8082E+02  0.1607E+03
     -3.079  0.8909E+02  0.1662E+03
     -3.017  0.8008E+02  0.1711E+03
     -2.956  0.7720E+02  0.1759E+03
     -2.894  0.7571E+02  0.1806E+03
     -2.832  0.7616E+02  0.1853E+03
     -2.770  0.9403E+02  0.1911E+03
     -2.708  0.1066E+03  0.1977E+03
     -2.646  0.9540E+02  0.2037E+03
     -2.584  0.6931E+02  0.2079E+03
     -2.522  0.6096E+02  0.2117E+03
     -2.460  0.6641E+02  0.2158E+03
     -2.398  0.5617E+02  0.2193E+03
     -2.336  0.3543E+02  0.2215E+03
     -2.274  0.2515E+02  0.2231E+03
     -2.213  0.2868E+02  0.2248E+03
     -2.151  0.3698E+02  0.2271E+03
     -2.089  0.5199E+02  0.2303E+03
     -2.027  0.7529E+02  0.2350E+03
     -1.965  0.9151E+02  0.2407E+03
     -1.903  0.8759E+02  0.2461E+03
     -1.841  0.6975E+02  0.2504E+03
     -1.779  0.5068E+02  0.2535E+03
     -1.717  0.4408E+02  0.2563E+03
     -1.655  0.4519E+02  0.2591E+03
     -1.593  0.5029E+02  0.2622E+03
     -1.532  0.5742E+02  0.2657E+03
     -1.470  0.5714E+02  0.2693E+03
     -1.408  0.5724E+02  0.2728E+03
     -1.346  0.6101E+02  0.2766E+03
     -1.284  0.5576E+02  0.2801E+03
     -1.222  0.5027E+02  0.2832E+03
     -1.160  0.6371E+02  0.2871E+03
     -1.098  0.8117E+02  0.2921E+03
     -1.036  0.8665E+02  0.2975E+03
     -0.974  0.7894E+02  0.3024E+03
     -0.912  0.6127E+02  0.3062E+03
     -0.850  0.5595E+02  0.3096E+03
     -0.789  0.5508E+02  0.3131E+03
     -0.727  0.4498E+02  0.3158E+03
     -0.665  0.4451E+02  0.3186E+03
     -0.603  0.5993E+02  0.3223E+03
     -0.541  0.6427E+02  0.3263E+03
     -0.479  0.5906E+02  0.3299E+03
     -0.417  0.6320E+02  0.3339E+03
     -0.355  0.7834E+02  0.3387E+03
     -0.293  0.9389E+02  0.3445E+03
     -0.231  0.8393E+02  0.3497E+03
     -0.169  0.5881E+02  0.3534E+03
     -0.108  0.7047E+02  0.3577E+03
     -0.046  0.9739E+02  0.3638E+03
      0.016  0.7409E+02  0.3683E+03
      0.078  0.3644E+02  0.3706E+03
      0.140  0.4374E+02  0.3733E+03
      0.202  0.5825E+02  0.3769E+03
      0.264  0.4650E+02  0.3798E+03
      0.326  0.3915E+02  0.3822E+03
      0.388  0.3226E+02  0.3842E+03
      0.450  0.1875E+02  0.3854E+03
      0.512  0.7453E+01  0.3858E+03
      0.574  0.2510E+01  0.3860E+03
      0.635  0.4237E+01  0.3862E+03
      0.697  0.8939E+01  0.3868E+03
      0.759  0.1413E+02  0.3877E+03
      0.821  0.1313E+02  0.3885E+03
      0.883  0.8301E+01  0.3890E+03
      0.945  0.1005E+02  0.3896E+03
      1.007  0.1156E+02  0.3903E+03
      1.069  0.5520E+01  0.3907E+03
      1.131  0.3596E+01  0.3909E+03
      1.193  0.8955E+01  0.3915E+03
      1.255  0.1260E+02  0.3922E+03
      1.316  0.1190E+02  0.3930E+03
      1.378  0.1044E+02  0.3936E+03
      1.440  0.1047E+02  0.3943E+03
      1.502  0.2159E+02  0.3956E+03
      1.564  0.2792E+02  0.3973E+03
      1.626  0.2092E+02  0.3986E+03
      1.688  0.1694E+02  0.3997E+03
      1.750  0.1311E+02  0.4005E+03
      1.812  0.4070E+01  0.4007E+03
      1.874  0.1858E+01  0.4009E+03
      1.936  0.6745E+01  0.4013E+03
      1.998  0.7526E+01  0.4017E+03
      2.059  0.4572E+01  0.4020E+03
      2.121  0.3379E+01  0.4022E+03
      2.183  0.6718E+01  0.4027E+03
      2.245  0.1014E+02  0.4033E+03
      2.307  0.1093E+02  0.4040E+03
      2.369  0.1376E+02  0.4048E+03
      2.431  0.1923E+02  0.4060E+03
      2.493  0.2213E+02  0.4074E+03
      2.555  0.1399E+02  0.4082E+03
      2.617  0.6623E+01  0.4086E+03
      2.679  0.7056E+01  0.4091E+03
      2.740  0.1129E+02  0.4098E+03
      2.802  0.1770E+02  0.4109E+03
      2.864  0.1741E+02  0.4120E+03
      2.926  0.1253E+02  0.4127E+03
      2.988  0.8486E+01  0.4133E+03
      3.050  0.1047E+02  0.4139E+03
      3.112  0.1535E+02  0.4149E+03
      3.174  0.1277E+02  0.4156E+03
      3.236  0.9348E+01  0.4162E+03
      3.298  0.7954E+01  0.4167E+03
      3.360  0.5228E+01  0.4170E+03
      3.422  0.4774E+01  0.4173E+03
      3.483  0.7218E+01  0.4178E+03
      3.545  0.8967E+01  0.4183E+03
      3.607  0.1248E+02  0.4191E+03
      3.669  0.1989E+02  0.4203E+03
      3.731  0.2231E+02  0.4217E+03
      3.793  0.1525E+02  0.4227E+03
      3.855  0.6805E+01  0.4231E+03
      3.917  0.3786E+01  0.4233E+03
      3.979  0.5020E+01  0.4236E+03
      4.041  0.7451E+01  0.4241E+03
      4.103  0.8872E+01  0.4246E+03
      4.164  0.6920E+01  0.4251E+03
      4.226  0.3534E+01  0.4253E+03
      4.288  0.3913E+01  0.4255E+03
      4.350  0.1129E+02  0.4262E+03
      4.412  0.2334E+02  0.4277E+03
      4.474  0.2403E+02  0.4292E+03
      4.536  0.1311E+02  0.4300E+03
      4.598  0.7791E+01  0.4305E+03
      4.660  0.9618E+01  0.4311E+03
      4.722  0.1228E+02  0.4318E+03
      4.784  0.1183E+02  0.4326E+03
      4.846  0.8005E+01  0.4330E+03
      4.907  0.6253E+01  0.4334E+03
      4.969  0.1087E+02  0.4341E+03
      5.031  0.1420E+02  0.4350E+03
      5.093  0.8768E+01  0.4355E+03
      5.155  0.7552E+01  0.4360E+03
      5.217  0.1297E+02  0.4368E+03
      5.279  0.1547E+02  0.4378E+03
      5.341  0.1110E+02  0.4384E+03
      5.403  0.6365E+01  0.4388E+03
      5.465  0.1166E+02  0.4396E+03
      5.527  0.2031E+02  0.4408E+03
      5.588  0.2139E+02  0.4421E+03
      5.650  0.2117E+02  0.4435E+03
      5.712  0.2452E+02  0.4450E+03
      5.774  0.2383E+02  0.4464E+03
      5.836  0.1697E+02  0.4475E+03
      5.898  0.1459E+02  0.4484E+03
      5.960  0.2345E+02  0.4499E+03
      6.022  0.3311E+02  0.4519E+03
      6.084  0.2830E+02  0.4537E+03
      6.146  0.1399E+02  0.4545E+03
      6.208  0.1123E+02  0.4552E+03
      6.270  0.2047E+02  0.4565E+03
      6.331  0.3048E+02  0.4584E+03
      6.393  0.2742E+02  0.4601E+03
      6.455  0.1498E+02  0.4610E+03
      6.517  0.1323E+02  0.4618E+03
      6.579  0.2318E+02  0.4633E+03
      6.641  0.2951E+02  0.4651E+03
      6.703  0.2995E+02  0.4669E+03
      6.765  0.2678E+02  0.4686E+03
      6.827  0.1729E+02  0.4697E+03
      6.889  0.1175E+02  0.4704E+03
      6.951  0.1625E+02  0.4714E+03
      7.012  0.1861E+02  0.4725E+03
      7.074  0.1576E+02  0.4735E+03
      7.136  0.1782E+02  0.4746E+03
      7.198  0.2369E+02  0.4761E+03
      7.260  0.2256E+02  0.4775E+03
      7.322  0.1267E+02  0.4783E+03
      7.384  0.3652E+01  0.4785E+03
      7.446  0.1553E+01  0.4786E+03
      7.508  0.4683E+01  0.4789E+03
      7.570  0.7205E+01  0.4793E+03
      7.632  0.6898E+01  0.4798E+03
      7.694  0.3568E+01  0.4800E+03
      7.755  0.5991E+00  0.4800E+03
      7.817 -0.1614E+00  0.4800E+03
      7.879 -0.8830E-01  0.4800E+03
      7.941 -0.1541E-01  0.4800E+03
      8.003 -0.1193E-02  0.4800E+03
      8.065 -0.4173E-04  0.4800E+03
      8.127 -0.6592E-06  0.4800E+03
      8.189 -0.4718E-08  0.4800E+03
      8.251 -0.1536E-10  0.4800E+03
      8.313 -0.2295E-13  0.4800E+03
      8.375  0.0000E+00  0.4800E+03
      8.436  0.0000E+00  0.4800E+03
      8.498  0.0000E+00  0.4800E+03
      8.560  0.0000E+00  0.4800E+03
      8.622  0.0000E+00  0.4800E+03
      8.684  0.0000E+00  0.4800E+03
