   37   37    1    1
  0.4190497E+02  0.8468310E-09  0.8468310E-09  0.2496566E-08  0.5000000E-15
  1.000000000000000E-004
  CAR 
 unknown system                          
    361     13    240
 
  0.1276756E-14  0.1276756E-14  0.1276756E-14  0.4000000E-01
      1         -8.889779   1.000000
      2         -7.666498   1.000000
      3         -6.756093   1.000000
      4         -6.497030   1.000000
      5         -6.468395   1.000000
      6         -6.460738   1.000000
      7         -6.453639   1.000000
      8         -6.448922   1.000000
      9         -6.438278   1.000000
     10         -6.431691   1.000000
     11         -6.050061   1.000000
     12         -5.917300   1.000000
     13         -5.914662   1.000000
     14         -5.909000   1.000000
     15         -5.901557   1.000000
     16         -5.899146   1.000000
     17         -5.769079   1.000000
     18         -5.469474   1.000000
     19         -5.454776   1.000000
     20         -5.451590   1.000000
     21         -5.449183   1.000000
     22         -5.443906   1.000000
     23         -5.353971   1.000000
     24         -5.233779   1.000000
     25         -5.226227   1.000000
     26         -5.225633   1.000000
     27         -5.220159   1.000000
     28         -5.216238   1.000000
     29         -5.118892   1.000000
     30         -5.028307   1.000000
     31         -5.022248   1.000000
     32         -5.020796   1.000000
     33         -5.017724   1.000000
     34         -5.009227   1.000000
     35         -4.974599   1.000000
     36         -4.965539   1.000000
     37         -4.957424   1.000000
     38         -4.952452   1.000000
     39         -4.926794   1.000000
     40         -4.910388   1.000000
     41         -4.712255   1.000000
     42         -4.378173   1.000000
     43         -4.375760   1.000000
     44         -4.357798   1.000000
     45         -4.344175   1.000000
     46         -4.322840   1.000000
     47         -4.313905   1.000000
     48         -4.301729   1.000000
     49         -4.294887   1.000000
     50         -4.292140   1.000000
     51         -4.155076   1.000000
     52         -4.136517   1.000000
     53         -4.110254   1.000000
     54         -4.047537   1.000000
     55         -3.997653   1.000000
     56         -3.594156   1.000000
     57         -3.579417   1.000000
     58         -3.566838   1.000000
     59         -3.561192   1.000000
     60         -3.559203   1.000000
     61         -3.502868   1.000000
     62         -3.493044   1.000000
     63         -3.379225   1.000000
     64         -3.375107   1.000000
     65         -3.373323   1.000000
     66         -3.369762   1.000000
     67         -3.364058   1.000000
     68         -3.359291   1.000000
     69         -3.346582   1.000000
     70         -3.327969   1.000000
     71         -3.311020   1.000000
     72         -3.304630   1.000000
     73         -3.301360   1.000000
     74         -3.287717   1.000000
     75         -3.265805   1.000000
     76         -3.263579   1.000000
     77         -3.235920   1.000000
     78         -3.156071   1.000000
     79         -3.151828   1.000000
     80         -3.149190   1.000000
     81         -3.137352   1.000000
     82         -3.130119   1.000000
     83         -3.116901   1.000000
     84         -2.940806   1.000000
     85         -2.933595   1.000000
     86         -2.927733   1.000000
     87         -2.925147   1.000000
     88         -2.908582   1.000000
     89         -2.901924   1.000000
     90         -2.895473   1.000000
     91         -2.891619   1.000000
     92         -2.837015   1.000000
     93         -2.816522   1.000000
     94         -2.776923   1.000000
     95         -2.760017   1.000000
     96         -2.740312   1.000000
     97         -2.732349   1.000000
     98         -2.711390   1.000000
     99         -2.690479   1.000000
    100         -2.685059   1.000000
    101         -2.629834   1.000000
    102         -2.534174   1.000000
    103         -2.524895   1.000000
    104         -2.512603   1.000000
    105         -2.504486   1.000000
    106         -2.499804   1.000000
    107         -2.493891   1.000000
    108         -2.223993   1.000000
    109         -2.032293   1.000000
    110         -2.004843   1.000000
    111         -1.996525   1.000000
    112         -1.994900   1.000000
    113         -1.989326   1.000000
    114         -1.988934   1.000000
    115         -1.982941   1.000000
    116         -1.968851   1.000000
    117         -1.953204   1.000000
    118         -1.949079   1.000000
    119         -1.942469   1.000000
    120         -1.877304   1.000000
    121         -1.859613   1.000000
    122         -1.814711   1.000000
    123         -1.734609   1.000000
    124         -1.729133   1.000000
    125         -1.712951   1.000000
    126         -1.708923   1.000000
    127         -1.705936   1.000000
    128         -1.598411   1.000000
    129         -1.594778   1.000000
    130         -1.534896   1.000000
    131         -1.533634   1.000000
    132         -1.515401   1.000000
    133         -1.496934   1.000000
    134         -1.344733   1.000000
    135         -1.285593   1.000000
    136         -1.266863   1.000000
    137         -1.264683   1.000000
    138         -1.250779   1.000000
    139         -1.243255   1.000000
    140         -1.203923   1.000000
    141         -1.177934   1.000000
    142         -1.158543   1.000000
    143         -1.035430   1.000000
    144         -1.029067   1.000000
    145         -1.021469   1.000000
    146         -1.018162   1.000000
    147         -1.014062   1.000000
    148         -0.957024   1.000000
    149         -0.869104   1.000000
    150         -0.860792   1.000000
    151         -0.840688   1.000000
    152         -0.834231   1.000000
    153         -0.828427   1.000000
    154         -0.813492   1.000000
    155         -0.810935   1.000000
    156         -0.805447   1.000000
    157         -0.802468   1.000000
    158         -0.797796   1.000000
    159         -0.793333   1.000000
    160         -0.724869   1.000000
    161         -0.703257   1.000000
    162         -0.686362   1.000000
    163         -0.674627   1.000000
    164         -0.664143   1.000000
    165         -0.658346   1.000000
    166         -0.647107   1.000000
    167         -0.633500   1.000000
    168         -0.598631   1.000000
    169         -0.590718   1.000000
    170         -0.565477   1.000000
    171         -0.557966   1.000000
    172         -0.554231   1.000000
    173         -0.542233   1.000000
    174         -0.541745   1.000000
    175         -0.538859   1.000000
    176         -0.457227   1.000000
    177         -0.444210   1.000001
    178         -0.439328   1.000001
    179         -0.435932   1.000002
    180         -0.434654   1.000002
    181         -0.421167   1.000005
    182         -0.418054   1.000006
    183         -0.353578   1.000271
    184         -0.330244   1.000848
    185         -0.322457   1.001207
    186         -0.320386   1.001322
    187         -0.308478   1.002196
    188         -0.303401   1.002697
    189         -0.115686   0.824961
    190         -0.105352   0.755842
    191         -0.023027   0.127965
    192         -0.013535   0.080679
    193          0.001698   0.023634
    194          0.010417   0.000865
    195          0.011185  -0.000823
    196          0.014381  -0.007328
    197          0.442181  -0.000000
    198          0.814061  -0.000000
    199          0.864535  -0.000000
    200          0.880132  -0.000000
    201          0.896969  -0.000000
    202          0.904863  -0.000000
    203          0.906002  -0.000000
    204          2.645738  -0.000000
    205          3.152512   0.000000
    206          3.167875   0.000000
    207          3.201281   0.000000
    208          3.213623   0.000000
    209          3.228501   0.000000
    210          4.458068   0.000000
    211          4.750399   0.000000
    212          4.778313   0.000000
    213          4.815524   0.000000
    214          4.821387   0.000000
    215          4.823112   0.000000
    216          4.870353   0.000000
    217          4.990133   0.000000
    218          5.108897   0.000000
    219          5.481420   0.000000
    220          5.510918   0.000000
    221          5.800626   0.000000
    222          5.808252   0.000000
    223          5.845076   0.000000
    224          5.854323   0.000000
    225          5.864470   0.000000
    226          6.166288   0.000000
    227          6.433033   0.000000
    228          6.610428   0.000000
    229          6.623481   0.000000
    230          6.627082   0.000000
    231          6.800620   0.000000
    232          6.920976   0.000000
    233          7.116799   0.000000
    234          7.127280   0.000000
    235          7.158170   0.000000
    236          7.161450   0.000000
    237          7.162993   0.000000
    238          7.177736   0.000000
    239          7.296796   0.000000
    240          7.684142   0.000000
 
  0.2000000E+00  0.1278043E-14  0.1276756E-14  0.8000000E-01
      1         -8.741628   1.000000
      2         -7.525741   1.000000
      3         -6.980125   1.000000
      4         -6.654420   1.000000
      5         -6.559152   1.000000
      6         -6.533829   1.000000
      7         -6.354701   1.000000
      8         -6.273157   1.000000
      9         -6.227635   1.000000
     10         -6.213925   1.000000
     11         -6.098083   1.000000
     12         -6.002495   1.000000
     13         -5.909665   1.000000
     14         -5.841675   1.000000
     15         -5.837571   1.000000
     16         -5.828505   1.000000
     17         -5.711551   1.000000
     18         -5.538085   1.000000
     19         -5.419955   1.000000
     20         -5.412568   1.000000
     21         -5.409187   1.000000
     22         -5.367726   1.000000
     23         -5.329145   1.000000
     24         -5.308548   1.000000
     25         -5.273901   1.000000
     26         -5.248117   1.000000
     27         -5.224189   1.000000
     28         -5.208395   1.000000
     29         -5.148881   1.000000
     30         -5.114452   1.000000
     31         -5.104390   1.000000
     32         -5.033626   1.000000
     33         -5.016154   1.000000
     34         -5.008976   1.000000
     35         -5.003474   1.000000
     36         -4.864094   1.000000
     37         -4.807242   1.000000
     38         -4.790878   1.000000
     39         -4.774478   1.000000
     40         -4.751992   1.000000
     41         -4.673277   1.000000
     42         -4.499406   1.000000
     43         -4.494823   1.000000
     44         -4.467277   1.000000
     45         -4.421003   1.000000
     46         -4.409558   1.000000
     47         -4.389533   1.000000
     48         -4.304410   1.000000
     49         -4.216520   1.000000
     50         -4.152952   1.000000
     51         -4.122675   1.000000
     52         -4.115605   1.000000
     53         -4.081975   1.000000
     54         -4.056141   1.000000
     55         -3.993755   1.000000
     56         -3.834048   1.000000
     57         -3.739987   1.000000
     58         -3.727774   1.000000
     59         -3.680703   1.000000
     60         -3.662608   1.000000
     61         -3.638870   1.000000
     62         -3.587153   1.000000
     63         -3.567231   1.000000
     64         -3.549130   1.000000
     65         -3.529589   1.000000
     66         -3.520574   1.000000
     67         -3.468351   1.000000
     68         -3.452069   1.000000
     69         -3.409656   1.000000
     70         -3.375451   1.000000
     71         -3.364254   1.000000
     72         -3.330584   1.000000
     73         -3.269205   1.000000
     74         -3.262159   1.000000
     75         -3.251296   1.000000
     76         -3.182495   1.000000
     77         -3.179502   1.000000
     78         -3.143197   1.000000
     79         -3.133515   1.000000
     80         -3.094620   1.000000
     81         -3.079684   1.000000
     82         -3.069991   1.000000
     83         -3.030845   1.000000
     84         -2.999851   1.000000
     85         -2.967703   1.000000
     86         -2.954229   1.000000
     87         -2.940399   1.000000
     88         -2.934322   1.000000
     89         -2.917886   1.000000
     90         -2.900970   1.000000
     91         -2.860737   1.000000
     92         -2.815657   1.000000
     93         -2.803379   1.000000
     94         -2.789429   1.000000
     95         -2.780166   1.000000
     96         -2.763287   1.000000
     97         -2.752769   1.000000
     98         -2.717093   1.000000
     99         -2.704893   1.000000
    100         -2.679177   1.000000
    101         -2.610041   1.000000
    102         -2.554194   1.000000
    103         -2.538145   1.000000
    104         -2.527645   1.000000
    105         -2.509286   1.000000
    106         -2.503761   1.000000
    107         -2.497329   1.000000
    108         -2.483547   1.000000
    109         -2.448082   1.000000
    110         -2.428972   1.000000
    111         -2.423344   1.000000
    112         -2.413313   1.000000
    113         -2.212682   1.000000
    114         -2.096658   1.000000
    115         -2.052472   1.000000
    116         -2.008089   1.000000
    117         -2.003526   1.000000
    118         -1.984715   1.000000
    119         -1.979459   1.000000
    120         -1.956750   1.000000
    121         -1.940540   1.000000
    122         -1.893571   1.000000
    123         -1.809546   1.000000
    124         -1.785602   1.000000
    125         -1.726856   1.000000
    126         -1.667419   1.000000
    127         -1.649257   1.000000
    128         -1.603385   1.000000
    129         -1.594752   1.000000
    130         -1.574980   1.000000
    131         -1.538028   1.000000
    132         -1.525442   1.000000
    133         -1.520920   1.000000
    134         -1.440670   1.000000
    135         -1.411213   1.000000
    136         -1.396517   1.000000
    137         -1.383405   1.000000
    138         -1.374960   1.000000
    139         -1.296260   1.000000
    140         -1.193040   1.000000
    141         -1.176872   1.000000
    142         -1.167964   1.000000
    143         -1.149547   1.000000
    144         -1.135907   1.000000
    145         -1.121624   1.000000
    146         -1.075463   1.000000
    147         -1.035681   1.000000
    148         -1.010026   1.000000
    149         -0.990278   1.000000
    150         -0.980079   1.000000
    151         -0.948980   1.000000
    152         -0.913472   1.000000
    153         -0.908077   1.000000
    154         -0.895915   1.000000
    155         -0.848638   1.000000
    156         -0.790950   1.000000
    157         -0.770955   1.000000
    158         -0.753976   1.000000
    159         -0.716958   1.000000
    160         -0.662833   1.000000
    161         -0.638957   1.000000
    162         -0.624146   1.000000
    163         -0.607946   1.000000
    164         -0.589184   1.000000
    165         -0.562036   1.000000
    166         -0.541220   1.000000
    167         -0.484716   1.000000
    168         -0.464822   1.000000
    169         -0.418217   1.000006
    170         -0.400629   1.000019
    171         -0.390476   1.000035
    172         -0.378990   1.000068
    173         -0.353771   1.000268
    174         -0.348272   1.000355
    175         -0.341873   1.000487
    176         -0.336988   1.000617
    177         -0.328728   1.000909
    178         -0.273291   1.008018
    179         -0.264644   1.010493
    180         -0.135329   0.928565
    181         -0.121070   0.857142
    182         -0.100854   0.723054
    183         -0.082721   0.578664
    184         -0.072746   0.494626
    185         -0.066189   0.439309
    186         -0.035697   0.204808
    187         -0.014462   0.084896
    188         -0.006663   0.052110
    189          0.006927   0.009170
    190          0.081391  -0.025483
    191          0.112196  -0.012382
    192          0.130255  -0.007096
    193          0.174512  -0.001272
    194          0.292888  -0.000001
    195          0.304480  -0.000001
    196          0.312003  -0.000000
    197          0.359644  -0.000000
    198          0.673418  -0.000000
    199          0.751446  -0.000000
    200          1.221291  -0.000000
    201          1.467510  -0.000000
    202          1.484867  -0.000000
    203          1.609171  -0.000000
    204          2.332652  -0.000000
    205          2.783156   0.000000
    206          2.911099   0.000000
    207          3.474017   0.000000
    208          3.653176   0.000000
    209          3.668936   0.000000
    210          3.747060   0.000000
    211          3.951398   0.000000
    212          4.372689   0.000000
    213          4.611122   0.000000
    214          4.693746   0.000000
    215          4.960832   0.000000
    216          4.980964   0.000000
    217          5.003150   0.000000
    218          5.179816   0.000000
    219          5.232208   0.000000
    220          5.462635   0.000000
    221          5.621090   0.000000
    222          5.717592   0.000000
    223          5.820542   0.000000
    224          5.917358   0.000000
    225          6.057329   0.000000
    226          6.214928   0.000000
    227          6.280730   0.000000
    228          6.323983   0.000000
    229          6.346876   0.000000
    230          6.609913   0.000000
    231          6.694329   0.000000
    232          6.727182   0.000000
    233          6.779586   0.000000
    234          6.822206   0.000000
    235          6.932560   0.000000
    236          7.054060   0.000000
    237          7.226387   0.000000
    238          7.476488   0.000000
    239          7.572755   0.000000
    240          7.607993   0.000000
 
  0.2000000E+00  0.2000000E+00  0.1276756E-14  0.8000000E-01
      1         -8.741691   1.000000
      2         -7.525857   1.000000
      3         -6.981399   1.000000
      4         -6.655836   1.000000
      5         -6.559268   1.000000
      6         -6.530125   1.000000
      7         -6.355068   1.000000
      8         -6.276819   1.000000
      9         -6.223928   1.000000
     10         -6.213685   1.000000
     11         -6.097842   1.000000
     12         -6.001413   1.000000
     13         -5.909124   1.000000
     14         -5.845129   1.000000
     15         -5.839859   1.000000
     16         -5.827889   1.000000
     17         -5.710893   1.000000
     18         -5.536267   1.000000
     19         -5.420183   1.000000
     20         -5.411856   1.000000
     21         -5.409017   1.000000
     22         -5.368946   1.000000
     23         -5.329190   1.000000
     24         -5.310441   1.000000
     25         -5.273506   1.000000
     26         -5.246159   1.000000
     27         -5.225329   1.000000
     28         -5.211112   1.000000
     29         -5.150767   1.000000
     30         -5.112444   1.000000
     31         -5.102421   1.000000
     32         -5.037275   1.000000
     33         -5.016486   1.000000
     34         -5.007972   1.000000
     35         -5.003025   1.000000
     36         -4.864191   1.000000
     37         -4.807026   1.000000
     38         -4.788917   1.000000
     39         -4.776057   1.000000
     40         -4.748315   1.000000
     41         -4.672834   1.000000
     42         -4.498950   1.000000
     43         -4.492648   1.000000
     44         -4.466185   1.000000
     45         -4.421700   1.000000
     46         -4.409604   1.000000
     47         -4.389115   1.000000
     48         -4.306850   1.000000
     49         -4.214804   1.000000
     50         -4.152759   1.000000
     51         -4.122013   1.000000
     52         -4.116852   1.000000
     53         -4.083036   1.000000
     54         -4.055747   1.000000
     55         -3.992717   1.000000
     56         -3.829774   1.000000
     57         -3.739426   1.000000
     58         -3.729395   1.000000
     59         -3.677331   1.000000
     60         -3.657824   1.000000
     61         -3.636339   1.000000
     62         -3.581567   1.000000
     63         -3.572414   1.000000
     64         -3.552321   1.000000
     65         -3.531549   1.000000
     66         -3.521827   1.000000
     67         -3.468977   1.000000
     68         -3.451276   1.000000
     69         -3.406300   1.000000
     70         -3.372615   1.000000
     71         -3.359502   1.000000
     72         -3.332377   1.000000
     73         -3.277376   1.000000
     74         -3.267691   1.000000
     75         -3.261826   1.000000
     76         -3.182557   1.000000
     77         -3.175160   1.000000
     78         -3.142634   1.000000
     79         -3.134968   1.000000
     80         -3.090660   1.000000
     81         -3.071697   1.000000
     82         -3.065709   1.000000
     83         -3.038762   1.000000
     84         -2.999844   1.000000
     85         -2.967937   1.000000
     86         -2.954282   1.000000
     87         -2.939786   1.000000
     88         -2.934650   1.000000
     89         -2.916325   1.000000
     90         -2.901396   1.000000
     91         -2.860572   1.000000
     92         -2.816824   1.000000
     93         -2.800808   1.000000
     94         -2.791506   1.000000
     95         -2.777770   1.000000
     96         -2.764368   1.000000
     97         -2.753659   1.000000
     98         -2.715803   1.000000
     99         -2.708471   1.000000
    100         -2.683039   1.000000
    101         -2.610558   1.000000
    102         -2.554334   1.000000
    103         -2.538812   1.000000
    104         -2.526409   1.000000
    105         -2.513894   1.000000
    106         -2.502069   1.000000
    107         -2.499798   1.000000
    108         -2.482277   1.000000
    109         -2.443825   1.000000
    110         -2.430206   1.000000
    111         -2.424716   1.000000
    112         -2.413414   1.000000
    113         -2.208013   1.000000
    114         -2.094164   1.000000
    115         -2.054282   1.000000
    116         -2.010363   1.000000
    117         -2.001875   1.000000
    118         -1.985422   1.000000
    119         -1.981222   1.000000
    120         -1.957190   1.000000
    121         -1.940484   1.000000
    122         -1.894238   1.000000
    123         -1.810276   1.000000
    124         -1.787969   1.000000
    125         -1.728742   1.000000
    126         -1.671611   1.000000
    127         -1.650676   1.000000
    128         -1.601148   1.000000
    129         -1.588362   1.000000
    130         -1.582553   1.000000
    131         -1.540294   1.000000
    132         -1.526649   1.000000
    133         -1.522315   1.000000
    134         -1.441753   1.000000
    135         -1.409225   1.000000
    136         -1.394208   1.000000
    137         -1.382111   1.000000
    138         -1.376965   1.000000
    139         -1.296044   1.000000
    140         -1.191962   1.000000
    141         -1.178266   1.000000
    142         -1.168527   1.000000
    143         -1.150134   1.000000
    144         -1.134290   1.000000
    145         -1.123515   1.000000
    146         -1.071905   1.000000
    147         -1.034647   1.000000
    148         -1.008242   1.000000
    149         -0.990301   1.000000
    150         -0.979264   1.000000
    151         -0.949291   1.000000
    152         -0.913718   1.000000
    153         -0.904560   1.000000
    154         -0.897912   1.000000
    155         -0.846764   1.000000
    156         -0.791753   1.000000
    157         -0.770877   1.000000
    158         -0.752962   1.000000
    159         -0.716136   1.000000
    160         -0.664539   1.000000
    161         -0.640101   1.000000
    162         -0.625195   1.000000
    163         -0.609783   1.000000
    164         -0.590528   1.000000
    165         -0.566495   1.000000
    166         -0.542830   1.000000
    167         -0.484614   1.000000
    168         -0.464431   1.000000
    169         -0.416952   1.000007
    170         -0.400542   1.000019
    171         -0.391772   1.000032
    172         -0.378444   1.000070
    173         -0.352068   1.000293
    174         -0.348674   1.000348
    175         -0.340983   1.000509
    176         -0.339238   1.000554
    177         -0.326478   1.001007
    178         -0.276476   1.007224
    179         -0.268510   1.009327
    180         -0.135494   0.929271
    181         -0.125176   0.879799
    182         -0.099914   0.716015
    183         -0.081224   0.566148
    184         -0.070053   0.471857
    185         -0.062136   0.405504
    186         -0.033824   0.192517
    187         -0.011342   0.071048
    188         -0.003247   0.039660
    189          0.011300  -0.001072
    190          0.080496  -0.025895
    191          0.112654  -0.012222
    192          0.129780  -0.007209
    193          0.173711  -0.001317
    194          0.294556  -0.000001
    195          0.306006  -0.000001
    196          0.312314  -0.000000
    197          0.355280  -0.000000
    198          0.678308  -0.000000
    199          0.757086  -0.000000
    200          1.219698  -0.000000
    201          1.466376  -0.000000
    202          1.483356  -0.000000
    203          1.607007  -0.000000
    204          2.328357  -0.000000
    205          2.786696   0.000000
    206          2.915205   0.000000
    207          3.474728   0.000000
    208          3.653165   0.000000
    209          3.666965   0.000000
    210          3.747107   0.000000
    211          3.952285   0.000000
    212          4.370411   0.000000
    213          4.610232   0.000000
    214          4.688986   0.000000
    215          4.961674   0.000000
    216          4.979854   0.000000
    217          5.004697   0.000000
    218          5.179939   0.000000
    219          5.232581   0.000000
    220          5.466550   0.000000
    221          5.621473   0.000000
    222          5.715141   0.000000
    223          5.821397   0.000000
    224          5.921695   0.000000
    225          6.058113   0.000000
    226          6.213301   0.000000
    227          6.280830   0.000000
    228          6.326511   0.000000
    229          6.350501   0.000000
    230          6.611343   0.000000
    231          6.695055   0.000000
    232          6.726142   0.000000
    233          6.777744   0.000000
    234          6.823174   0.000000
    235          6.932695   0.000000
    236          7.052471   0.000000
    237          7.219716   0.000000
    238          7.474431   0.000000
    239          7.570931   0.000000
    240          7.606247   0.000000
 
  0.1276756E-14  0.2000000E+00  0.1276756E-14  0.8000000E-01
      1         -8.741235   1.000000
      2         -7.523359   1.000000
      3         -6.963235   1.000000
      4         -6.685317   1.000000
      5         -6.564205   1.000000
      6         -6.513219   1.000000
      7         -6.354404   1.000000
      8         -6.265283   1.000000
      9         -6.235868   1.000000
     10         -6.217297   1.000000
     11         -6.070196   1.000000
     12         -6.004618   1.000000
     13         -5.948743   1.000000
     14         -5.845922   1.000000
     15         -5.842666   1.000000
     16         -5.825322   1.000000
     17         -5.687751   1.000000
     18         -5.525657   1.000000
     19         -5.420123   1.000000
     20         -5.417748   1.000000
     21         -5.403963   1.000000
     22         -5.392630   1.000000
     23         -5.337346   1.000000
     24         -5.300796   1.000000
     25         -5.278639   1.000000
     26         -5.225406   1.000000
     27         -5.220658   1.000000
     28         -5.215121   1.000000
     29         -5.174037   1.000000
     30         -5.123234   1.000000
     31         -5.092828   1.000000
     32         -5.030966   1.000000
     33         -5.022612   1.000000
     34         -5.008084   1.000000
     35         -5.006306   1.000000
     36         -4.877309   1.000000
     37         -4.809632   1.000000
     38         -4.787074   1.000000
     39         -4.768266   1.000000
     40         -4.764945   1.000000
     41         -4.660066   1.000000
     42         -4.502454   1.000000
     43         -4.495516   1.000000
     44         -4.430581   1.000000
     45         -4.423165   1.000000
     46         -4.401566   1.000000
     47         -4.388311   1.000000
     48         -4.301479   1.000000
     49         -4.208464   1.000000
     50         -4.189378   1.000000
     51         -4.125064   1.000000
     52         -4.120587   1.000000
     53         -4.065092   1.000000
     54         -4.052918   1.000000
     55         -4.013039   1.000000
     56         -3.832948   1.000000
     57         -3.738515   1.000000
     58         -3.733584   1.000000
     59         -3.688648   1.000000
     60         -3.663502   1.000000
     61         -3.631132   1.000000
     62         -3.587361   1.000000
     63         -3.564291   1.000000
     64         -3.556832   1.000000
     65         -3.526264   1.000000
     66         -3.525290   1.000000
     67         -3.455868   1.000000
     68         -3.448313   1.000000
     69         -3.399816   1.000000
     70         -3.364832   1.000000
     71         -3.362192   1.000000
     72         -3.338999   1.000000
     73         -3.274124   1.000000
     74         -3.259615   1.000000
     75         -3.254402   1.000000
     76         -3.186525   1.000000
     77         -3.178720   1.000000
     78         -3.162573   1.000000