unknown system                          
           1
     8.468310    0.000000    0.000000
     4.234155    7.333772    0.000000
     0.000000    0.000000   24.965662
   Pt   H 
    36     1
Direct configuration=     1
   0.00000000  0.00000000  0.34046764
   0.33400137  0.00000000  0.34046764
   0.66800274  0.00000000  0.34046764
   0.00000000  0.33400137  0.34046764
   0.33400137  0.33400137  0.34046764
   0.66800274  0.33400137  0.34046764
   0.00000000  0.66800274  0.34046764
   0.33400137  0.66800274  0.34046764
   0.66800274  0.66800274  0.34046764
   0.11133379  0.11133379  0.43297074
   0.44533516  0.11133379  0.43297074
   0.77933653  0.11133379  0.43297074
   0.11133379  0.44533516  0.43297074
   0.44533516  0.44533516  0.43297074
   0.77933653  0.44533516  0.43297074
   0.11133379  0.77933653  0.43297074
   0.44533516  0.77933653  0.43297074
   0.77933653  0.77933653  0.43297074
   0.89036490  0.22408406  0.52509470
   0.22294068  0.22400753  0.52503546
   0.55697407  0.22349912  0.52415879
   0.89193779  0.55377711  0.52618253
   0.22357993  0.55717782  0.52431715
   0.55686985  0.55730158  0.52426669
   0.89057334  0.89001478  0.52461221
   0.22329865  0.89098109  0.52476316
   0.55701960  0.88998821  0.52449822
   0.99969982  0.00038113  0.61823476
   0.33822390  0.00042573  0.61825360
   0.66777027  0.00290755  0.61776897
   0.00065907  0.33676562  0.62158975
   0.33565440  0.33627919  0.61748253
   0.66615506  0.33651498  0.61747111
   0.00145734  0.66958416  0.61793123
   0.33494346  0.66856809  0.61746600
   0.66744448  0.66979364  0.61788051
   0.07140187  0.19396049  0.67021351
