
     Program PWSCF v.7.1 starts on 17Dec2025 at  9:22:19 
        Git branch: heads/qe-7.1
        Last git commit: 48ba0178f8fede6d020eb786884699a9f063f55d-dirty
        Last git commit date: Fri Jan 27 14:22:33 2023 +0000
        Last git commit subject: Merge branch 'fix_hubbard' into 'develop'

     This program is part of the open-source Quantum ESPRESSO suite
     for quantum simulation of materials; please cite
         "P. Giannozzi et al., J. Phys.:Condens. Matter 21 395502 (2009);
         "P. Giannozzi et al., J. Phys.:Condens. Matter 29 465901 (2017);
         "P. Giannozzi et al., J. Chem. Phys. 152 154105 (2020);
          URL http://www.quantum-espresso.org", 
     in publications or presentations arising from this work. More details at
     http://www.quantum-espresso.org/quote

     Parallel version (MPI), running on    96 processors

     MPI processes distributed on     2 nodes
     49038 MiB available memory on the printing compute node when the environment starts

     Reading input from espresso.pwi
Warning: card &CELL ignored
Warning: card / ignored
Warning: card &FCP ignored
Warning: card / ignored
Warning: card &RISM ignored
Warning: card / ignored

     Current dimensions of program PWSCF are:
     Max number of different atomic species (ntypx) = 10
     Max number of k-points (npk) =  40000
     Max angular momentum in pseudopotentials (lmaxx) =  4
     file Co.pbe-n-kjpaw_psl.1.0.0.UPF: wavefunction(s)  4S 3D renormalized
     file C.pbe-n-kjpaw_psl.1.0.0.UPF: wavefunction(s)  2S 2P renormalized
     file O.pbe-nl-kjpaw_psl.1.0.0.UPF: wavefunction(s)  2S 2P renormalized
     file H.pbe-kjpaw_psl.1.0.0.UPF: wavefunction(s)  1S renormalized

     **************************************************************************
     Initializing libbeef V0.1.2 with the BEEF-vdW functional.
     Citation: Wellendorff et al., PRB 85, 235149 (2012).
     **************************************************************************


     IMPORTANT: XC functional enforced from input :
     Exchange-correlation= BEEF-VDW
                           (   1   4  43  14   2   0   0)
     Any further DFT definition will be discarded
     Please, verify this is what you really want


     R & G space division:  proc/nbgrp/npool/nimage =      96
     Subspace diagonalization in iterative solution of the eigenvalue problem:
     one sub-group per band group will be used
     custom distributed-memory algorithm (size of sub-group:  2*  2 procs)


     Parallelization info
     --------------------
     sticks:   dense  smooth     PW     G-vecs:    dense   smooth      PW
     Min          43      28      7                 7829     4248     595
     Max          44      29      8                 7845     4281     630
     Sum        4153    2773    757               752179   409445   59217

     Using Slab Decomposition



     bravais-lattice index     =            0
     lattice parameter (alat)  =      14.1729  a.u.
     unit-cell volume          =    8574.3059 (a.u.)^3
     number of atoms/cell      =           39
     number of atomic types    =            4
     number of electrons       =       335.00
     number of Kohn-Sham states=          202
     kinetic-energy cutoff     =      50.0000  Ry
     charge density cutoff     =     300.0000  Ry
     scf convergence threshold =      1.0E-08
     mixing beta               =       0.7000
     number of iterations used =            8  local-TF  mixing
     Exchange-correlation= BEEF-VDW
                           (   1   4  43  14   2   0   0)

     celldm(1)=  14.172946  celldm(2)=   0.000000  celldm(3)=   0.000000
     celldm(4)=   0.000000  celldm(5)=   0.000000  celldm(6)=   0.000000

     crystal axes: (cart. coord. in units of alat)
               a(1) = (   1.000000   0.000000   0.000000 )  
               a(2) = (   0.500000   0.866025   0.000000 )  
               a(3) = (   0.000000   0.000000   3.477667 )  

     reciprocal axes: (cart. coord. in units 2 pi/alat)
               b(1) = (  1.000000 -0.577350  0.000000 )  
               b(2) = (  0.000000  1.154701  0.000000 )  
               b(3) = (  0.000000  0.000000  0.287549 )  


     PseudoPot. # 1 for Co read from file:
     /users/kbadger1/espresso/pseudo/pslibrary.1.0.0/pbe/PSEUDOPOTENTIALS/Co.pbe-n-kjpaw_psl.1.0.0.UPF
     MD5 check sum: 88af6ec42553d4236c267fdfcb472151
     Pseudo is Projector augmented-wave + core cor, Zval =  9.0
     Generated using 'atomic' code by A. Dal Corso  v.7.0
     Shape of augmentation charge: PSQ
     Using radial grid of 1193 points,  6 beta functions with: 
                l(1) =   0
                l(2) =   0
                l(3) =   1
                l(4) =   1
                l(5) =   2
                l(6) =   2
     Q(r) pseudized with 0 coefficients 


     PseudoPot. # 2 for C  read from file:
     /users/kbadger1/espresso/pseudo/pslibrary.1.0.0/pbe/PSEUDOPOTENTIALS/C.pbe-n-kjpaw_psl.1.0.0.UPF
     MD5 check sum: 6408e75cdba28732cea38a4db8498ce4
     Pseudo is Projector augmented-wave + core cor, Zval =  4.0
     Generated using 'atomic' code by A. Dal Corso  v.7.0
     Shape of augmentation charge: PSQ
     Using radial grid of 1073 points,  4 beta functions with: 
                l(1) =   0
                l(2) =   0
                l(3) =   1
                l(4) =   1
     Q(r) pseudized with 0 coefficients 


     PseudoPot. # 3 for O  read from file:
     /users/kbadger1/espresso/pseudo/pslibrary.1.0.0/pbe/PSEUDOPOTENTIALS/O.pbe-nl-kjpaw_psl.1.0.0.UPF
     MD5 check sum: f0439fab3598ca4e468f064226030408
     Pseudo is Projector augmented-wave + core cor, Zval =  6.0
     Generated using 'atomic' code by A. Dal Corso  v.7.0
     Shape of augmentation charge: PSQ
     Using radial grid of 1095 points,  4 beta functions with: 
                l(1) =   0
                l(2) =   0
                l(3) =   1
                l(4) =   1
     Q(r) pseudized with 0 coefficients 


     PseudoPot. # 4 for H  read from file:
     /users/kbadger1/espresso/pseudo/pslibrary.1.0.0/pbe/PSEUDOPOTENTIALS/H.pbe-kjpaw_psl.1.0.0.UPF
     MD5 check sum: fe4c6fa958fa6d3815bf5d2419cbf1df
     Pseudo is Projector augmented-wave, Zval =  1.0
     Generated using 'atomic' code by A. Dal Corso  v.7.0
     Shape of augmentation charge: PSQ
     Using radial grid of  929 points,  2 beta functions with: 
                l(1) =   0
                l(2) =   0
     Q(r) pseudized with 0 coefficients 


     atomic species   valence    mass     pseudopotential
        Co             9.00    58.93319     Co( 1.00)
        C              4.00    12.01100     C ( 1.00)
        O              6.00    15.99900     O ( 1.00)
        H              1.00     1.00800     H ( 1.00)

     Starting magnetic structure 
     atomic species   magnetization
        Co           1.000
        C            1.000
        O            0.000
        H            0.000

     No symmetry found



   Cartesian axes

     site n.     atom                  positions (alat units)
         1           Co  tau(   1) = (   0.0000000   0.1924501   1.3333333  )
         2           Co  tau(   2) = (   0.3333333   0.1924501   1.3333333  )
         3           Co  tau(   3) = (   0.6666667   0.1924501   1.3333333  )
         4           Co  tau(   4) = (   0.1666667   0.4811252   1.3333333  )
         5           Co  tau(   5) = (   0.5000000   0.4811252   1.3333333  )
         6           Co  tau(   6) = (   0.8333333   0.4811252   1.3333333  )
         7           Co  tau(   7) = (   0.3333333   0.7698004   1.3333333  )
         8           Co  tau(   8) = (   0.6666667   0.7698004   1.3333333  )
         9           Co  tau(   9) = (   1.0000000   0.7698004   1.3333333  )
        10           Co  tau(  10) = (   0.0000000   0.0000000   1.6036667  )
        11           Co  tau(  11) = (   0.3333333   0.0000000   1.6036667  )
        12           Co  tau(  12) = (   0.6666667   0.0000000   1.6036667  )
        13           Co  tau(  13) = (   0.1666667   0.2886751   1.6036667  )
        14           Co  tau(  14) = (   0.5000000   0.2886751   1.6036667  )
        15           Co  tau(  15) = (   0.8333333   0.2886751   1.6036667  )
        16           Co  tau(  16) = (   0.3333333   0.5773503   1.6036667  )
        17           Co  tau(  17) = (   0.6666667   0.5773503   1.6036667  )
        18           Co  tau(  18) = (   1.0000000   0.5773503   1.6036667  )
        19           Co  tau(  19) = (   0.0000000   0.1924501   1.8740000  )
        20           Co  tau(  20) = (   0.3333333   0.1924501   1.8740000  )
        21           Co  tau(  21) = (   0.6666667   0.1924501   1.8740000  )
        22           Co  tau(  22) = (   0.1666667   0.4811252   1.8740000  )
        23           Co  tau(  23) = (   0.5000000   0.4811252   1.8740000  )
        24           Co  tau(  24) = (   0.8333333   0.4811252   1.8740000  )
        25           Co  tau(  25) = (   0.3333333   0.7698004   1.8740000  )
        26           Co  tau(  26) = (   0.6666667   0.7698004   1.8740000  )
        27           Co  tau(  27) = (   1.0000000   0.7698004   1.8740000  )
        28           Co  tau(  28) = (   0.0000000   0.0000000   2.1443333  )
        29           Co  tau(  29) = (   0.3333333   0.0000000   2.1443333  )
        30           Co  tau(  30) = (   0.6666667   0.0000000   2.1443333  )
        31           Co  tau(  31) = (   0.1666667   0.2886751   2.1443333  )
        32           Co  tau(  32) = (   0.5000000   0.2886751   2.1443333  )
        33           Co  tau(  33) = (   0.8333333   0.2886751   2.1443333  )
        34           Co  tau(  34) = (   0.3333333   0.5773503   2.1443333  )
        35           Co  tau(  35) = (   0.6666667   0.5773503   2.1443333  )
        36           Co  tau(  36) = (   1.0000000   0.5773503   2.1443333  )
        37           C   tau(  37) = (   0.1676957  -0.0193482   2.3325572  )
        38           O   tau(  38) = (   0.1188877  -0.0295677   2.4833426  )
        39           H   tau(  39) = (   0.4168071  -0.0076518   2.3318236  )

     number of k points=    13  Marzari-Vanderbilt smearing, width (Ry)=  0.0010
                       cart. coord. in units 2pi/alat
        k(    1) = (   0.0000000   0.0000000   0.0000000), wk =   0.0400000
        k(    2) = (   0.0000000   0.2309401   0.0000000), wk =   0.0800000
        k(    3) = (   0.0000000   0.4618802   0.0000000), wk =   0.0800000
        k(    4) = (   0.2000000  -0.1154701   0.0000000), wk =   0.0800000
        k(    5) = (   0.2000000   0.1154701   0.0000000), wk =   0.0800000
        k(    6) = (   0.2000000   0.3464102   0.0000000), wk =   0.0800000
        k(    7) = (   0.2000000  -0.5773503   0.0000000), wk =   0.0800000
        k(    8) = (   0.2000000  -0.3464102   0.0000000), wk =   0.0800000
        k(    9) = (   0.4000000  -0.2309401   0.0000000), wk =   0.0800000
        k(   10) = (   0.4000000   0.0000000   0.0000000), wk =   0.0800000
        k(   11) = (   0.4000000   0.2309401   0.0000000), wk =   0.0800000
        k(   12) = (   0.4000000  -0.6928203   0.0000000), wk =   0.0800000
        k(   13) = (   0.4000000  -0.4618802   0.0000000), wk =   0.0800000

     Dense  grid:   752179 G-vectors     FFT dimensions: (  80,  80, 288)

     Smooth grid:   409445 G-vectors     FFT dimensions: (  64,  64, 225)

     Estimated max dynamical RAM per process >      99.02 MB

     Estimated total dynamical RAM >       9.28 GB
     Generating pointlists ...
     new r_m :   0.0847 (alat units)  1.2007 (a.u.) for type    1
     new r_m :   0.0655 (alat units)  0.9285 (a.u.) for type    2
     new r_m :   0.0655 (alat units)  0.9285 (a.u.) for type    3
     new r_m :   0.0847 (alat units)  1.2007 (a.u.) for type    4

     Initial potential from superposition of free atoms

     starting charge     334.9897, renormalised to     335.0000

     negative rho (up, down):  3.052E-03 4.601E-04


     %%%%%%%%%%%%%%%%%%%%%%%%%%%%%%%%%%%%%%%%%%%%%%%%%%%%%%%%%%%%%%%%%%%%%%%%
     %                                                                      %
     % You are using vdW-DF, which was implemented by the Thonhauser group. %
     % Please cite the following two papers that made this development      %
     % possible and the two reviews that describe the various versions:     %
     %                                                                      %
     %   T. Thonhauser et al., PRL 115, 136402 (2015).                      %
     %   T. Thonhauser et al., PRB 76, 125112 (2007).                       %
     %   K. Berland et al., Rep. Prog. Phys. 78, 066501 (2015).             %
     %   D.C. Langreth et al., J. Phys.: Condens. Matter 21, 084203 (2009). %
     %                                                                      %
     % If you are calculating stress with vdW-DF, please also cite:         %
     %                                                                      %
     %   R. Sabatini et al., J. Phys.: Condens. Matter 24, 424209 (2012).   %
     %   C.M. Frostenson et al., Electr. Struct. 4, 014001 (2022).          %
     %                                                                      %
     %%%%%%%%%%%%%%%%%%%%%%%%%%%%%%%%%%%%%%%%%%%%%%%%%%%%%%%%%%%%%%%%%%%%%%%%

     %%%%%%%%%%%%%%%%%%%%%%%%%%%%%%%%%%%%%%%%%%%%%%%%%%%%%%%%%%%%%%%%%%%%%%%%
     %                                                                      %
     %  vdW-DF NEWS:                                                        %
     %                                                                      %
     %  * vdW-DF3 is now available. DOI: 10.1021/acs.jctc.0c00471           %
     %    use with input_dft = 'vdW-DF3-opt1' or 'vdW-DF3-opt2'             %
     %                                                                      %
     %  * Unscreened and range-separated hybrid vdW-DF-cx functionals       %
     %    DOI: 10.1063/1.4986522 and 10.1088/1361-648X/ac2ad2               %
     %    use with input_dft = 'vdW-DF-cx0'    and 'vdW-DF-ahcx'            %
     %  * Unscreened and range-separated hybrid vdW-DF2-b86r functionals    %
     %    DOI: 10.1063/1.4986522 and DOI: 10.1103/PhysRevX.12.041003        %
     %    use with input_dft = 'vdW-DF2-br0' and 'vdW-DF2-ahbr'             %
     %                                                                      %
     %%%%%%%%%%%%%%%%%%%%%%%%%%%%%%%%%%%%%%%%%%%%%%%%%%%%%%%%%%%%%%%%%%%%%%%%


     Starting wfcs are  333 randomized atomic wfcs
     Checking if some PAW data can be deallocated... 

     total cpu time spent up to now is       16.7 secs

     per-process dynamical memory:   230.0 Mb

     Self-consistent Calculation

     iteration #  1     ecut=    50.00 Ry     beta= 0.70
     Davidson diagonalization with overlap
     ethr =  1.00E-02,  avg # of iterations =  2.0

     negative rho (up, down):  3.255E-05 8.654E-08

     total cpu time spent up to now is       39.5 secs

     total energy              =   -6053.06024040 Ry
     estimated scf accuracy    <      39.33920073 Ry

     total magnetization       =    69.00 Bohr mag/cell
     absolute magnetization    =    81.21 Bohr mag/cell

     iteration #  2     ecut=    50.00 Ry     beta= 0.70
     Davidson diagonalization with overlap
     ethr =  1.00E-02,  avg # of iterations =  1.0

     negative rho (up, down):  4.783E-06 3.388E-08

     total cpu time spent up to now is       54.4 secs

     total energy              =   -6052.54921593 Ry
     estimated scf accuracy    <      24.79188760 Ry

     total magnetization       =    68.69 Bohr mag/cell
     absolute magnetization    =    76.58 Bohr mag/cell

     iteration #  3     ecut=    50.00 Ry     beta= 0.70
     Davidson diagonalization with overlap
     ethr =  7.40E-03,  avg # of iterations =  1.1

     negative rho (up, down):  4.760E-08 0.000E+00

     total cpu time spent up to now is       73.2 secs

     total energy              =   -6055.10250554 Ry
     estimated scf accuracy    <      84.81593340 Ry

     total magnetization       =    66.44 Bohr mag/cell
     absolute magnetization    =    73.65 Bohr mag/cell

     iteration #  4     ecut=    50.00 Ry     beta= 0.70
     Davidson diagonalization with overlap
     ethr =  7.40E-03,  avg # of iterations =  1.0

     negative rho (up, down):  1.010E-08 0.000E+00

     total cpu time spent up to now is       87.7 secs

     total energy              =   -6056.37709502 Ry
     estimated scf accuracy    <       5.14752681 Ry

     total magnetization       =    60.33 Bohr mag/cell
     absolute magnetization    =    70.09 Bohr mag/cell

     iteration #  5     ecut=    50.00 Ry     beta= 0.70
     Davidson diagonalization with overlap
     ethr =  1.54E-03,  avg # of iterations =  1.3

     total cpu time spent up to now is      107.3 secs

     total energy              =   -6056.39611168 Ry
     estimated scf accuracy    <       2.28557287 Ry

     total magnetization       =    59.86 Bohr mag/cell
     absolute magnetization    =    69.25 Bohr mag/cell

     iteration #  6     ecut=    50.00 Ry     beta= 0.70
     Davidson diagonalization with overlap
     ethr =  6.82E-04,  avg # of iterations =  1.7

     total cpu time spent up to now is      122.1 secs

     total energy              =   -6056.50074349 Ry
     estimated scf accuracy    <       0.55368563 Ry

     total magnetization       =    59.70 Bohr mag/cell
     absolute magnetization    =    68.80 Bohr mag/cell

     iteration #  7     ecut=    50.00 Ry     beta= 0.70
     Davidson diagonalization with overlap
     ethr =  1.65E-04,  avg # of iterations =  6.4

     total cpu time spent up to now is      146.8 secs

     total energy              =   -6056.54518429 Ry
     estimated scf accuracy    <       0.92792644 Ry

     total magnetization       =    59.84 Bohr mag/cell
     absolute magnetization    =    68.56 Bohr mag/cell

     iteration #  8     ecut=    50.00 Ry     beta= 0.70
     Davidson diagonalization with overlap
     ethr =  1.65E-04,  avg # of iterations =  1.7

     total cpu time spent up to now is      165.5 secs

     total energy              =   -6056.56000375 Ry
     estimated scf accuracy    <       0.13020840 Ry

     total magnetization       =    59.98 Bohr mag/cell
     absolute magnetization    =    68.51 Bohr mag/cell

     iteration #  9     ecut=    50.00 Ry     beta= 0.70
     Davidson diagonalization with overlap
     c_bands:  1 eigenvalues not converged
     c_bands:  1 eigenvalues not converged
     c_bands:  2 eigenvalues not converged
     ethr =  3.89E-05,  avg # of iterations = 10.2

     total cpu time spent up to now is      197.7 secs

     total energy              =   -6056.56663607 Ry
     estimated scf accuracy    <       0.18909641 Ry

     total magnetization       =    60.28 Bohr mag/cell
     absolute magnetization    =    68.36 Bohr mag/cell

     iteration # 10     ecut=    50.00 Ry     beta= 0.70
     Davidson diagonalization with overlap
     ethr =  3.89E-05,  avg # of iterations =  2.8

     total cpu time spent up to now is      216.9 secs

     total energy              =   -6056.57417009 Ry
     estimated scf accuracy    <       0.18936056 Ry

     total magnetization       =    60.31 Bohr mag/cell
     absolute magnetization    =    68.25 Bohr mag/cell

     iteration # 11     ecut=    50.00 Ry     beta= 0.70
     Davidson diagonalization with overlap
     ethr =  3.89E-05,  avg # of iterations =  1.6

     total cpu time spent up to now is      232.3 secs

     total energy              =   -6056.56623268 Ry
     estimated scf accuracy    <       0.11768290 Ry

     total magnetization       =    60.28 Bohr mag/cell
     absolute magnetization    =    68.14 Bohr mag/cell

     iteration # 12     ecut=    50.00 Ry     beta= 0.70
     Davidson diagonalization with overlap
     ethr =  3.51E-05,  avg # of iterations =  2.0

     negative rho (up, down):  3.539E-08 0.000E+00

     total cpu time spent up to now is      252.5 secs

     total energy              =   -6056.56951102 Ry
     estimated scf accuracy    <       0.08296215 Ry

     total magnetization       =    60.28 Bohr mag/cell
     absolute magnetization    =    67.96 Bohr mag/cell

     iteration # 13     ecut=    50.00 Ry     beta= 0.70
     Davidson diagonalization with overlap
     ethr =  2.48E-05,  avg # of iterations =  1.2

     total cpu time spent up to now is      266.6 secs

     total energy              =   -6056.57188174 Ry
     estimated scf accuracy    <       0.09013523 Ry

     total magnetization       =    60.29 Bohr mag/cell
     absolute magnetization    =    67.91 Bohr mag/cell

     iteration # 14     ecut=    50.00 Ry     beta= 0.70
     Davidson diagonalization with overlap
     ethr =  2.48E-05,  avg # of iterations =  1.3

     total cpu time spent up to now is      284.7 secs

     total energy              =   -6056.56575743 Ry
     estimated scf accuracy    <       0.08740803 Ry

     total magnetization       =    60.28 Bohr mag/cell
     absolute magnetization    =    67.95 Bohr mag/cell

     iteration # 15     ecut=    50.00 Ry     beta= 0.70
     Davidson diagonalization with overlap
     ethr =  2.48E-05,  avg # of iterations =  1.4

     negative rho (up, down):  2.064E-03 1.370E-03

     total cpu time spent up to now is      300.4 secs

     total energy              =   -6056.56241408 Ry
     estimated scf accuracy    <       0.08402579 Ry

     total magnetization       =    60.30 Bohr mag/cell
     absolute magnetization    =    67.96 Bohr mag/cell

     iteration # 16     ecut=    50.00 Ry     beta= 0.70
     Davidson diagonalization with overlap
     ethr =  2.48E-05,  avg # of iterations =  1.9

     negative rho (up, down):  8.192E-03 7.002E-03

     total cpu time spent up to now is      319.6 secs

     total energy              =   -6056.56166736 Ry
     estimated scf accuracy    <       0.09398063 Ry

     total magnetization       =    60.29 Bohr mag/cell
     absolute magnetization    =    67.81 Bohr mag/cell

     iteration # 17     ecut=    50.00 Ry     beta= 0.70
     Davidson diagonalization with overlap
     ethr =  2.48E-05,  avg # of iterations =  1.1

     negative rho (up, down):  2.675E-02 2.493E-02

     total cpu time spent up to now is      336.9 secs

     total energy              =   -6056.55836620 Ry
     estimated scf accuracy    <       0.05553083 Ry

     total magnetization       =    60.28 Bohr mag/cell
     absolute magnetization    =    67.76 Bohr mag/cell

     iteration # 18     ecut=    50.00 Ry     beta= 0.70
     Davidson diagonalization with overlap
     c_bands:  4 eigenvalues not converged
     c_bands:  2 eigenvalues not converged
     ethr =  1.66E-05,  avg # of iterations =  3.0

     negative rho (up, down):  2.192E-02 2.041E-02

     total cpu time spent up to now is      354.2 secs

     total energy              =   -6056.55791197 Ry
     estimated scf accuracy    <       0.01350864 Ry

     total magnetization       =    60.29 Bohr mag/cell
     absolute magnetization    =    67.71 Bohr mag/cell

     iteration # 19     ecut=    50.00 Ry     beta= 0.70
     Davidson diagonalization with overlap
     c_bands:  1 eigenvalues not converged
     c_bands:  1 eigenvalues not converged
     c_bands:  1 eigenvalues not converged
     c_bands:  2 eigenvalues not converged
     c_bands:  3 eigenvalues not converged
     c_bands:  2 eigenvalues not converged
     c_bands:  1 eigenvalues not converged
     c_bands:  3 eigenvalues not converged
     c_bands:  2 eigenvalues not converged
     ethr =  4.03E-06,  avg # of iterations = 10.7

     negative rho (up, down):  2.196E-02 2.045E-02

     total cpu time spent up to now is      383.3 secs

     total energy              =   -6056.55729414 Ry
     estimated scf accuracy    <       0.04450206 Ry

     total magnetization       =    60.37 Bohr mag/cell
     absolute magnetization    =    67.80 Bohr mag/cell

     iteration # 20     ecut=    50.00 Ry     beta= 0.70
     Davidson diagonalization with overlap
     ethr =  4.03E-06,  avg # of iterations =  3.2

     negative rho (up, down):  3.374E-02 3.200E-02

     total cpu time spent up to now is      403.2 secs

     total energy              =   -6056.55798928 Ry
     estimated scf accuracy    <       0.01048643 Ry

     total magnetization       =    60.41 Bohr mag/cell
     absolute magnetization    =    67.82 Bohr mag/cell

     iteration # 21     ecut=    50.00 Ry     beta= 0.70
     Davidson diagonalization with overlap
     c_bands:  2 eigenvalues not converged
     ethr =  3.13E-06,  avg # of iterations =  2.6

     negative rho (up, down):  2.172E-02 2.039E-02

     total cpu time spent up to now is      420.4 secs

     total energy              =   -6056.55666820 Ry
     estimated scf accuracy    <       0.01513985 Ry

     total magnetization       =    60.45 Bohr mag/cell
     absolute magnetization    =    67.84 Bohr mag/cell

     iteration # 22     ecut=    50.00 Ry     beta= 0.70
     Davidson diagonalization with overlap
     ethr =  3.13E-06,  avg # of iterations =  1.5

     negative rho (up, down):  2.295E-02 2.162E-02

     total cpu time spent up to now is      438.9 secs

     total energy              =   -6056.55671275 Ry
     estimated scf accuracy    <       0.01132051 Ry

     total magnetization       =    60.52 Bohr mag/cell
     absolute magnetization    =    67.93 Bohr mag/cell

     iteration # 23     ecut=    50.00 Ry     beta= 0.70
     Davidson diagonalization with overlap
     ethr =  3.13E-06,  avg # of iterations =  1.1

     negative rho (up, down):  1.040E-02 9.684E-03

     total cpu time spent up to now is      452.9 secs

     total energy              =   -6056.55621027 Ry
     estimated scf accuracy    <       0.00755720 Ry

     total magnetization       =    60.51 Bohr mag/cell
     absolute magnetization    =    67.92 Bohr mag/cell

     iteration # 24     ecut=    50.00 Ry     beta= 0.70
     Davidson diagonalization with overlap
     ethr =  2.26E-06,  avg # of iterations =  1.7

     negative rho (up, down):  8.870E-03 8.225E-03

     total cpu time spent up to now is      472.2 secs

     total energy              =   -6056.55642784 Ry
     estimated scf accuracy    <       0.00194769 Ry

     total magnetization       =    60.55 Bohr mag/cell
     absolute magnetization    =    67.99 Bohr mag/cell

     iteration # 25     ecut=    50.00 Ry     beta= 0.70
     Davidson diagonalization with overlap
     ethr =  5.81E-07,  avg # of iterations =  3.2

     negative rho (up, down):  6.049E-03 5.436E-03

     total cpu time spent up to now is      493.6 secs

     total energy              =   -6056.55663624 Ry
     estimated scf accuracy    <       0.00073709 Ry

     total magnetization       =    60.57 Bohr mag/cell
     absolute magnetization    =    68.01 Bohr mag/cell

     iteration # 26     ecut=    50.00 Ry     beta= 0.70
     Davidson diagonalization with overlap
     c_bands:  1 eigenvalues not converged
     ethr =  2.20E-07,  avg # of iterations =  4.3

     negative rho (up, down):  6.007E-03 5.369E-03

     total cpu time spent up to now is      511.0 secs

     total energy              =   -6056.55665775 Ry
     estimated scf accuracy    <       0.00083215 Ry

     total magnetization       =    60.60 Bohr mag/cell
     absolute magnetization    =    68.04 Bohr mag/cell

     iteration # 27     ecut=    50.00 Ry     beta= 0.70
     Davidson diagonalization with overlap
     ethr =  2.20E-07,  avg # of iterations =  1.4

     negative rho (up, down):  4.500E-03 3.789E-03

     total cpu time spent up to now is      529.7 secs

     total energy              =   -6056.55664739 Ry
     estimated scf accuracy    <       0.00022847 Ry

     total magnetization       =    60.59 Bohr mag/cell
     absolute magnetization    =    68.03 Bohr mag/cell

     iteration # 28     ecut=    50.00 Ry     beta= 0.70
     Davidson diagonalization with overlap
     c_bands:  1 eigenvalues not converged
     ethr =  6.82E-08,  avg # of iterations =  4.0

     negative rho (up, down):  3.207E-03 2.376E-03

     total cpu time spent up to now is      552.1 secs

     total energy              =   -6056.55673007 Ry
     estimated scf accuracy    <       0.00031509 Ry

     total magnetization       =    60.58 Bohr mag/cell
     absolute magnetization    =    68.03 Bohr mag/cell

     iteration # 29     ecut=    50.00 Ry     beta= 0.70
     Davidson diagonalization with overlap
     ethr =  6.82E-08,  avg # of iterations =  1.4

     negative rho (up, down):  2.715E-03 1.725E-03

     total cpu time spent up to now is      566.6 secs

     total energy              =   -6056.55681077 Ry
     estimated scf accuracy    <       0.00015631 Ry

     total magnetization       =    60.58 Bohr mag/cell
     absolute magnetization    =    68.02 Bohr mag/cell

     iteration # 30     ecut=    50.00 Ry     beta= 0.70
     Davidson diagonalization with overlap
     ethr =  4.67E-08,  avg # of iterations =  1.8

     negative rho (up, down):  2.646E-03 1.555E-03

     total cpu time spent up to now is      585.8 secs

     total energy              =   -6056.55684811 Ry
     estimated scf accuracy    <       0.00009338 Ry

     total magnetization       =    60.58 Bohr mag/cell
     absolute magnetization    =    68.03 Bohr mag/cell

     iteration # 31     ecut=    50.00 Ry     beta= 0.70
     Davidson diagonalization with overlap
     ethr =  2.79E-08,  avg # of iterations =  2.3

     negative rho (up, down):  2.616E-03 1.509E-03

     total cpu time spent up to now is      602.3 secs

     total energy              =   -6056.55685657 Ry
     estimated scf accuracy    <       0.00004004 Ry

     total magnetization       =    60.59 Bohr mag/cell
     absolute magnetization    =    68.03 Bohr mag/cell

     iteration # 32     ecut=    50.00 Ry     beta= 0.70
     Davidson diagonalization with overlap
     c_bands:  1 eigenvalues not converged
     ethr =  1.20E-08,  avg # of iterations =  3.9

     negative rho (up, down):  2.612E-03 1.512E-03

     total cpu time spent up to now is      624.1 secs

     total energy              =   -6056.55685930 Ry
     estimated scf accuracy    <       0.00003931 Ry

     total magnetization       =    60.59 Bohr mag/cell
     absolute magnetization    =    68.03 Bohr mag/cell

     iteration # 33     ecut=    50.00 Ry     beta= 0.70
     Davidson diagonalization with overlap
     ethr =  1.17E-08,  avg # of iterations =  1.6

     negative rho (up, down):  2.690E-03 1.605E-03

     total cpu time spent up to now is      642.8 secs

     total energy              =   -6056.55685947 Ry
     estimated scf accuracy    <       0.00002876 Ry

     total magnetization       =    60.58 Bohr mag/cell
     absolute magnetization    =    68.03 Bohr mag/cell

     iteration # 34     ecut=    50.00 Ry     beta= 0.70
     Davidson diagonalization with overlap
     ethr =  8.59E-09,  avg # of iterations =  1.7

     negative rho (up, down):  2.753E-03 1.679E-03

     total cpu time spent up to now is      657.9 secs

     total energy              =   -6056.55686014 Ry
     estimated scf accuracy    <       0.00002808 Ry

     total magnetization       =    60.58 Bohr mag/cell
     absolute magnetization    =    68.02 Bohr mag/cell

     iteration # 35     ecut=    50.00 Ry     beta= 0.70
     Davidson diagonalization with overlap
     ethr =  8.38E-09,  avg # of iterations =  1.5

     negative rho (up, down):  2.577E-03 1.465E-03

     total cpu time spent up to now is      677.7 secs

     total energy              =   -6056.55685710 Ry
     estimated scf accuracy    <       0.00003822 Ry

     total magnetization       =    60.58 Bohr mag/cell
     absolute magnetization    =    68.02 Bohr mag/cell

     iteration # 36     ecut=    50.00 Ry     beta= 0.70
     Davidson diagonalization with overlap
     ethr =  8.38E-09,  avg # of iterations =  1.7

     negative rho (up, down):  2.773E-03 1.720E-03

     total cpu time spent up to now is      692.6 secs

     total energy              =   -6056.55685695 Ry
     estimated scf accuracy    <       0.00008639 Ry

     total magnetization       =    60.58 Bohr mag/cell
     absolute magnetization    =    68.02 Bohr mag/cell

     iteration # 37     ecut=    50.00 Ry     beta= 0.70
     Davidson diagonalization with overlap
     ethr =  8.38E-09,  avg # of iterations =  1.5

     negative rho (up, down):  2.660E-03 1.579E-03

     total cpu time spent up to now is      711.9 secs

     total energy              =   -6056.55686039 Ry
     estimated scf accuracy    <       0.00001795 Ry

     total magnetization       =    60.58 Bohr mag/cell
     absolute magnetization    =    68.02 Bohr mag/cell

     iteration # 38     ecut=    50.00 Ry     beta= 0.70
     Davidson diagonalization with overlap
     ethr =  5.36E-09,  avg # of iterations =  1.2

     negative rho (up, down):  2.666E-03 1.596E-03

     total cpu time spent up to now is      730.7 secs

     total energy              =   -6056.55686025 Ry
     estimated scf accuracy    <       0.00001469 Ry

     total magnetization       =    60.58 Bohr mag/cell
     absolute magnetization    =    68.02 Bohr mag/cell

     iteration # 39     ecut=    50.00 Ry     beta= 0.70
     Davidson diagonalization with overlap
     ethr =  4.39E-09,  avg # of iterations =  1.3

     negative rho (up, down):  2.624E-03 1.554E-03

     total cpu time spent up to now is      745.1 secs

     total energy              =   -6056.55686036 Ry
     estimated scf accuracy    <       0.00000653 Ry

     total magnetization       =    60.58 Bohr mag/cell
     absolute magnetization    =    68.02 Bohr mag/cell

     iteration # 40     ecut=    50.00 Ry     beta= 0.70
     Davidson diagonalization with overlap
     c_bands:  1 eigenvalues not converged
     ethr =  1.95E-09,  avg # of iterations =  3.0

     negative rho (up, down):  2.553E-03 1.475E-03

     total cpu time spent up to now is      765.1 secs

     total energy              =   -6056.55686053 Ry
     estimated scf accuracy    <       0.00000204 Ry

     total magnetization       =    60.58 Bohr mag/cell
     absolute magnetization    =    68.02 Bohr mag/cell

     iteration # 41     ecut=    50.00 Ry     beta= 0.70
     Davidson diagonalization with overlap
     c_bands:  1 eigenvalues not converged
     ethr =  6.09E-10,  avg # of iterations =  5.8

     negative rho (up, down):  2.543E-03 1.466E-03

     total cpu time spent up to now is      789.4 secs

     total energy              =   -6056.55686066 Ry
     estimated scf accuracy    <       0.00000230 Ry

     total magnetization       =    60.58 Bohr mag/cell
     absolute magnetization    =    68.02 Bohr mag/cell

     iteration # 42     ecut=    50.00 Ry     beta= 0.70
     Davidson diagonalization with overlap
     ethr =  6.09E-10,  avg # of iterations =  1.3

     negative rho (up, down):  2.429E-03 1.346E-03

     total cpu time spent up to now is      803.9 secs

     total energy              =   -6056.55686073 Ry
     estimated scf accuracy    <       0.00000092 Ry

     total magnetization       =    60.58 Bohr mag/cell
     absolute magnetization    =    68.02 Bohr mag/cell

     iteration # 43     ecut=    50.00 Ry     beta= 0.70
     Davidson diagonalization with overlap
     ethr =  2.76E-10,  avg # of iterations =  2.6

     negative rho (up, down):  2.456E-03 1.373E-03

     total cpu time spent up to now is      823.7 secs

     total energy              =   -6056.55686069 Ry
     estimated scf accuracy    <       0.00000191 Ry

     total magnetization       =    60.58 Bohr mag/cell
     absolute magnetization    =    68.02 Bohr mag/cell

     iteration # 44     ecut=    50.00 Ry     beta= 0.70
     Davidson diagonalization with overlap
     ethr =  2.76E-10,  avg # of iterations =  1.7

     negative rho (up, down):  2.380E-03 1.296E-03

     total cpu time spent up to now is      838.8 secs

     total energy              =   -6056.55686071 Ry
     estimated scf accuracy    <       0.00000194 Ry

     total magnetization       =    60.58 Bohr mag/cell
     absolute magnetization    =    68.02 Bohr mag/cell

     iteration # 45     ecut=    50.00 Ry     beta= 0.70
     Davidson diagonalization with overlap
     ethr =  2.76E-10,  avg # of iterations =  1.2

     negative rho (up, down):  2.342E-03 1.257E-03

     total cpu time spent up to now is      857.6 secs

     total energy              =   -6056.55686073 Ry
     estimated scf accuracy    <       0.00000071 Ry

     total magnetization       =    60.58 Bohr mag/cell
     absolute magnetization    =    68.02 Bohr mag/cell

     iteration # 46     ecut=    50.00 Ry     beta= 0.70
     Davidson diagonalization with overlap
     ethr =  2.11E-10,  avg # of iterations =  1.9

     negative rho (up, down):  2.347E-03 1.261E-03

     total cpu time spent up to now is      872.7 secs

     total energy              =   -6056.55686073 Ry
     estimated scf accuracy    <       0.00000172 Ry

     total magnetization       =    60.58 Bohr mag/cell
     absolute magnetization    =    68.02 Bohr mag/cell

     iteration # 47     ecut=    50.00 Ry     beta= 0.70
     Davidson diagonalization with overlap
     ethr =  2.11E-10,  avg # of iterations =  1.2

     negative rho (up, down):  2.258E-03 1.174E-03

     total cpu time spent up to now is      891.3 secs

     total energy              =   -6056.55686066 Ry
     estimated scf accuracy    <       0.00000145 Ry

     total magnetization       =    60.58 Bohr mag/cell
     absolute magnetization    =    68.02 Bohr mag/cell

     iteration # 48     ecut=    50.00 Ry     beta= 0.70
     Davidson diagonalization with overlap
     ethr =  2.11E-10,  avg # of iterations =  1.2

     negative rho (up, down):  2.254E-03 1.169E-03

     total cpu time spent up to now is      910.0 secs

     total energy              =   -6056.55686069 Ry
     estimated scf accuracy    <       0.00000020 Ry

     total magnetization       =    60.58 Bohr mag/cell
     absolute magnetization    =    68.02 Bohr mag/cell

     iteration # 49     ecut=    50.00 Ry     beta= 0.70
     Davidson diagonalization with overlap
     c_bands:  1 eigenvalues not converged
     ethr =  6.00E-11,  avg # of iterations =  2.3

     negative rho (up, down):  2.251E-03 1.167E-03

     total cpu time spent up to now is      925.5 secs

     total energy              =   -6056.55686069 Ry
     estimated scf accuracy    <       0.00000012 Ry

     total magnetization       =    60.58 Bohr mag/cell
     absolute magnetization    =    68.02 Bohr mag/cell

     iteration # 50     ecut=    50.00 Ry     beta= 0.70
     Davidson diagonalization with overlap
     ethr =  3.52E-11,  avg # of iterations =  3.7

     negative rho (up, down):  2.257E-03 1.172E-03

     total cpu time spent up to now is      946.6 secs

     total energy              =   -6056.55686069 Ry
     estimated scf accuracy    <       0.00000041 Ry

     total magnetization       =    60.58 Bohr mag/cell
     absolute magnetization    =    68.02 Bohr mag/cell

     iteration # 51     ecut=    50.00 Ry     beta= 0.70
     Davidson diagonalization with overlap
     ethr =  3.52E-11,  avg # of iterations =  1.5

     negative rho (up, down):  2.245E-03 1.161E-03

     total cpu time spent up to now is      961.6 secs

     total energy              =   -6056.55686069 Ry
     estimated scf accuracy    <       0.00000014 Ry

     total magnetization       =    60.58 Bohr mag/cell
     absolute magnetization    =    68.02 Bohr mag/cell

     iteration # 52     ecut=    50.00 Ry     beta= 0.70
     Davidson diagonalization with overlap
     ethr =  3.52E-11,  avg # of iterations =  1.0

     negative rho (up, down):  2.236E-03 1.152E-03

     total cpu time spent up to now is      981.0 secs

     total energy              =   -6056.55686068 Ry
     estimated scf accuracy    <       0.00000004 Ry

     total magnetization       =    60.58 Bohr mag/cell
     absolute magnetization    =    68.02 Bohr mag/cell

     iteration # 53     ecut=    50.00 Ry     beta= 0.70
     Davidson diagonalization with overlap
     ethr =  1.15E-11,  avg # of iterations =  3.3

     negative rho (up, down):  2.246E-03 1.162E-03

     total cpu time spent up to now is     1001.6 secs

     total energy              =   -6056.55686070 Ry
     estimated scf accuracy    <       0.00000002 Ry

     total magnetization       =    60.58 Bohr mag/cell
     absolute magnetization    =    68.02 Bohr mag/cell

     iteration # 54     ecut=    50.00 Ry     beta= 0.70
     Davidson diagonalization with overlap
     ethr =  5.43E-12,  avg # of iterations =  3.8

     negative rho (up, down):  2.242E-03 1.158E-03

     total cpu time spent up to now is     1018.9 secs

     total energy              =   -6056.55686069 Ry
     estimated scf accuracy    <       0.00000002 Ry

     total magnetization       =    60.58 Bohr mag/cell
     absolute magnetization    =    68.02 Bohr mag/cell

     iteration # 55     ecut=    50.00 Ry     beta= 0.70
     Davidson diagonalization with overlap
     ethr =  5.43E-12,  avg # of iterations =  1.5

     negative rho (up, down):  2.242E-03 1.159E-03

     Magnetic moment per site  (integrated on atomic sphere of radius R)
     atom   1 (R=0.085)  charge=  5.3781  magn=  1.5892
     atom   2 (R=0.085)  charge=  5.3803  magn=  1.5834
     atom   3 (R=0.085)  charge=  5.3800  magn=  1.5920
     atom   4 (R=0.085)  charge=  5.3800  magn=  1.5955
     atom   5 (R=0.085)  charge=  5.3803  magn=  1.5934
     atom   6 (R=0.085)  charge=  5.3800  magn=  1.5902
     atom   7 (R=0.085)  charge=  5.3785  magn=  1.5889
     atom   8 (R=0.085)  charge=  5.3792  magn=  1.5764
     atom   9 (R=0.085)  charge=  5.3803  magn=  1.5853
     atom  10 (R=0.085)  charge=  5.3723  magn=  1.5298
     atom  11 (R=0.085)  charge=  5.3741  magn=  1.5190
     atom  12 (R=0.085)  charge=  5.3739  magn=  1.5367
     atom  13 (R=0.085)  charge=  5.3732  magn=  1.5391
     atom  14 (R=0.085)  charge=  5.3739  magn=  1.5366
     atom  15 (R=0.085)  charge=  5.3734  magn=  1.5310
     atom  16 (R=0.085)  charge=  5.3733  magn=  1.5248
     atom  17 (R=0.085)  charge=  5.3734  magn=  1.5361
     atom  18 (R=0.085)  charge=  5.3740  magn=  1.5326
     atom  19 (R=0.085)  charge=  5.3723  magn=  1.5284
     atom  20 (R=0.085)  charge=  5.3729  magn=  1.5163
     atom  21 (R=0.085)  charge=  5.3725  magn=  1.5452
     atom  22 (R=0.085)  charge=  5.3736  magn=  1.5284
     atom  23 (R=0.085)  charge=  5.3734  magn=  1.5223
     atom  24 (R=0.085)  charge=  5.3735  magn=  1.5318
     atom  25 (R=0.085)  charge=  5.3718  magn=  1.5139
     atom  26 (R=0.085)  charge=  5.3707  magn=  1.5329
     atom  27 (R=0.085)  charge=  5.3725  magn=  1.5197
     atom  28 (R=0.085)  charge=  5.3882  magn=  1.2239
     atom  29 (R=0.085)  charge=  5.3794  magn=  0.7364
     atom  30 (R=0.085)  charge=  5.3794  magn=  1.5734
     atom  31 (R=0.085)  charge=  5.3826  magn=  1.5984
     atom  32 (R=0.085)  charge=  5.3801  magn=  1.6095
     atom  33 (R=0.085)  charge=  5.3784  magn=  1.6069
     atom  34 (R=0.085)  charge=  5.3793  magn=  1.6115
     atom  35 (R=0.085)  charge=  5.3845  magn=  1.5677
     atom  36 (R=0.085)  charge=  5.3809  magn=  1.6125
     atom  37 (R=0.066)  charge=  1.0469  magn= -0.0183
     atom  38 (R=0.066)  charge=  2.9257  magn= -0.0297
     atom  39 (R=0.085)  charge=  0.7063  magn= -0.0133

     total cpu time spent up to now is     1038.4 secs

     End of self-consistent calculation

 ------ SPIN UP ------------


          k = 0.0000 0.0000 0.0000 ( 51087 PWs)   bands (ev):

   -22.0605  -9.3817  -7.6107  -6.4093  -6.0488  -5.8387  -5.4580  -4.8099
    -4.7804  -4.7787  -4.7760  -4.7585  -4.7505  -4.7202  -4.4127  -4.2517
    -4.2460  -4.2428  -4.2188  -4.2037  -4.1940  -3.7887  -3.7320  -3.7239
    -3.7179  -3.7064  -3.6735  -3.6209  -3.5968  -3.5954  -3.5870  -3.5851
    -3.5495  -3.5204  -3.5147  -3.3634  -3.2126  -3.2093  -3.2049  -3.2026
    -3.1482  -3.1434  -3.1399  -3.1316  -3.1303  -3.1212  -3.1176  -3.0994
    -2.9778  -2.9750  -2.9071  -2.9063  -2.8982  -2.8964  -2.8879  -2.8740
    -2.8712  -2.8683  -2.8676  -2.8458  -2.7712  -2.7654  -2.7575  -2.7486
    -2.6815  -2.6469  -2.2593  -2.2319  -2.2271  -2.2228  -2.2212  -2.1254
    -2.1003  -2.0972  -2.0787  -2.0731  -2.0625  -2.0494  -2.0478  -2.0432
    -2.0022  -1.9952  -1.9876  -1.9505  -1.9488  -1.9368  -1.9239  -1.9183
    -1.9132  -1.9110  -1.9029  -1.8972  -1.8964  -1.8731  -1.8706  -1.8648
    -1.8634  -1.8588  -1.8578  -1.8546  -1.8516  -1.8508  -1.8460  -1.8436
    -1.8278  -1.8263  -1.7938  -1.7738  -1.7608  -1.6958  -1.6892  -1.5807
    -1.5288  -1.4072  -1.4048  -1.4031  -1.3975  -1.3943  -1.3745  -1.3651
    -1.3613  -1.3529  -1.3374  -1.3106  -1.3073  -1.2257  -1.1888  -1.1853
    -1.1574  -1.1465  -1.0583  -1.0082  -0.9849  -0.9767  -0.9678  -0.9456
    -0.9245  -0.9227  -0.9111  -0.9071  -0.8978  -0.8525  -0.8008  -0.7766
    -0.6992  -0.6690  -0.6630  -0.6601  -0.6436  -0.6199  -0.6013  -0.5997
    -0.5958  -0.5936  -0.5924  -0.5903  -0.5805  -0.5715  -0.5700  -0.5641
    -0.5569  -0.5510  -0.5439  -0.5326  -0.5215  -0.5184  -0.5070  -0.5051
    -0.4924  -0.4809  -0.4765  -0.4734  -0.4645  -0.4541  -0.4493  -0.4449
    -0.4408  -0.4355  -0.4134  -0.3921  -0.3747  -0.3673  -0.3644  -0.3556
    -0.3496  -0.3435  -0.3298  -0.3231  -0.3060  -0.2740  -0.2673  -0.2657
    -0.2643  -0.2509  -0.2047  -0.2002  -0.1921  -0.1836  -0.1504  -0.1243
     0.4632   0.9015

          k = 0.0000 0.2309 0.0000 ( 51134 PWs)   bands (ev):

   -22.0605  -9.3744  -7.4667  -6.3221  -6.0465  -5.8357  -5.5243  -5.4162
    -5.0208  -5.0067  -4.6620  -4.5275  -4.4370  -4.4337  -4.3693  -4.3189
    -4.2666  -4.2530  -4.1680  -4.1152  -4.1073  -3.8537  -3.7636  -3.7312
    -3.6951  -3.6562  -3.6121  -3.6033  -3.6009  -3.5846  -3.5767  -3.5639
    -3.5296  -3.4861  -3.4698  -3.4506  -3.4435  -3.3303  -3.2453  -3.2217
    -3.2188  -3.1683  -3.1638  -3.1581  -3.1409  -3.0653  -3.0368  -3.0276
    -3.0003  -2.9975  -2.9911  -2.9583  -2.9413  -2.8650  -2.8545  -2.8246
    -2.7921  -2.7854  -2.7583  -2.7531  -2.7297  -2.7009  -2.6912  -2.6774
    -2.6579  -2.5946  -2.3489  -2.3423  -2.3209  -2.3170  -2.2860  -2.2021
    -2.1917  -2.1836  -2.1763  -2.1662  -2.1587  -2.1497  -2.1267  -2.0717
    -2.0539  -2.0471  -2.0267  -1.9945  -1.9912  -1.9855  -1.9717  -1.9636
    -1.9507  -1.9444  -1.9407  -1.9352  -1.9301  -1.9068  -1.8851  -1.8546
    -1.8325  -1.8292  -1.7659  -1.7625  -1.7507  -1.7457  -1.7395  -1.7337
    -1.7225  -1.7115  -1.7013  -1.6995  -1.6867  -1.6779  -1.6593  -1.6493
    -1.6301  -1.6245  -1.6018  -1.5317  -1.5254  -1.4592  -1.4380  -1.4275
    -1.4233  -1.4072  -1.4005  -1.3897  -1.3787  -1.3573  -1.3317  -1.2340
    -1.2215  -1.2120  -1.1424  -1.1323  -1.1165  -1.0667  -1.0460  -1.0327
    -1.0153  -0.9466  -0.9344  -0.9144  -0.8922  -0.8878  -0.8607  -0.8453
    -0.8349  -0.8211  -0.8131  -0.7751  -0.7607  -0.7487  -0.7425  -0.7387
    -0.6983  -0.6822  -0.6631  -0.6589  -0.6529  -0.6266  -0.6051  -0.5956
    -0.5861  -0.5790  -0.5739  -0.5634  -0.5433  -0.5378  -0.5249  -0.5018
    -0.4845  -0.4700  -0.4506  -0.4145  -0.4002  -0.3767  -0.3686  -0.3435
    -0.3376  -0.3246  -0.3195  -0.3103  -0.2906  -0.2853  -0.2789  -0.2453
    -0.2058  -0.2011  -0.1896  -0.1686  -0.1628  -0.1472  -0.1262  -0.1063
    -0.0402   0.0186   0.1757   0.1888   0.2888   0.3723   0.4441   0.4665
     0.4877   0.8101

          k = 0.0000 0.4619 0.0000 ( 51204 PWs)   bands (ev):

   -22.0605  -9.3629  -7.0439  -6.3972  -6.1404  -6.0223  -5.6782  -5.3905
    -5.1688  -5.1336  -5.0290  -4.3433  -4.2646  -4.2613  -4.2514  -4.1936
    -4.0871  -4.0768  -4.0339  -3.9507  -3.9416  -3.9380  -3.8856  -3.7702
    -3.7624  -3.7533  -3.7475  -3.7011  -3.6739  -3.6382  -3.6146  -3.5043
    -3.4738  -3.4638  -3.4479  -3.4283  -3.4198  -3.3475  -3.3154  -3.3073
    -3.2979  -3.2905  -3.2495  -3.1666  -3.0958  -3.0830  -3.0009  -2.9975
    -2.9606  -2.9521  -2.9193  -2.9112  -2.9003  -2.8778  -2.8647  -2.8142
    -2.8011  -2.7727  -2.7482  -2.7417  -2.6093  -2.6009  -2.5765  -2.5592
    -2.5290  -2.4901  -2.4630  -2.4551  -2.4344  -2.3792  -2.3211  -2.3190
    -2.3123  -2.3080  -2.2967  -2.2765  -2.2664  -2.2518  -2.2321  -2.2242
    -2.1893  -2.1501  -2.1410  -2.1203  -2.0942  -2.0745  -2.0332  -1.9969
    -1.9879  -1.9821  -1.9599  -1.9389  -1.9307  -1.8893  -1.8777  -1.8681
    -1.8627  -1.8472  -1.8368  -1.8111  -1.7960  -1.7878  -1.7814  -1.7662
    -1.7522  -1.7233  -1.6865  -1.6843  -1.6170  -1.6042  -1.5898  -1.5836
    -1.5541  -1.5339  -1.5142  -1.4824  -1.4681  -1.4493  -1.4451  -1.4378
    -1.4329  -1.4301  -1.4226  -1.4090  -1.4038  -1.3851  -1.3789  -1.3692
    -1.3668  -1.3279  -1.2602  -1.2467  -1.2200  -1.1943  -1.1867  -1.1701
    -1.1347  -1.0835  -1.0725  -1.0660  -1.0517  -1.0164  -0.9770  -0.9401
    -0.9099  -0.9019  -0.8899  -0.8663  -0.8538  -0.8463  -0.8168  -0.7483
    -0.7144  -0.7024  -0.6855  -0.6787  -0.6627  -0.6558  -0.6481  -0.6380
    -0.6266  -0.6146  -0.5244  -0.5165  -0.5043  -0.4956  -0.4874  -0.4766
    -0.4653  -0.4554  -0.4316  -0.4231  -0.3976  -0.3816  -0.3369  -0.3160
    -0.3090  -0.2837  -0.2780  -0.2250  -0.2107  -0.1856  -0.1745  -0.1354
    -0.1056  -0.0942  -0.0911  -0.0738  -0.0659  -0.0608  -0.0519   0.0065
     0.0434   0.0917   0.4783   0.7027   0.9816   1.1562   1.1754   1.4054
     1.5050   1.5519

          k = 0.2000-0.1155 0.0000 ( 51134 PWs)   bands (ev):

   -22.0605  -9.3728  -7.4683  -6.3304  -6.0716  -5.7948  -5.5269  -5.4217
    -5.0190  -5.0088  -4.6623  -4.5242  -4.4381  -4.4325  -4.3718  -4.3217
    -4.2745  -4.2440  -4.1693  -4.1150  -4.1094  -3.8545  -3.7724  -3.7268
    -3.6796  -3.6488  -3.6157  -3.6047  -3.6014  -3.5948  -3.5825  -3.5616
    -3.5278  -3.4890  -3.4703  -3.4525  -3.4451  -3.3457  -3.2408  -3.2253
    -3.2161  -3.1699  -3.1655  -3.1533  -3.1368  -3.0726  -3.0366  -3.0287
    -3.0010  -2.9948  -2.9886  -2.9582  -2.9262  -2.8646  -2.8562  -2.8261
    -2.7906  -2.7641  -2.7583  -2.7538  -2.7272  -2.6990  -2.6902  -2.6785
    -2.6509  -2.6047  -2.3541  -2.3418  -2.3176  -2.3050  -2.2850  -2.2005
    -2.1937  -2.1857  -2.1740  -2.1682  -2.1630  -2.1441  -2.1027  -2.0696
    -2.0598  -2.0472  -2.0271  -1.9930  -1.9903  -1.9845  -1.9814  -1.9567
    -1.9543  -1.9487  -1.9442  -1.9388  -1.9271  -1.9161  -1.8699  -1.8521
    -1.8379  -1.8107  -1.7839  -1.7620  -1.7560  -1.7490  -1.7389  -1.7335
    -1.7250  -1.7138  -1.7042  -1.6988  -1.6933  -1.6819  -1.6570  -1.6470
    -1.6341  -1.6225  -1.6081  -1.5504  -1.5313  -1.4790  -1.4276  -1.4260
    -1.4171  -1.4064  -1.3970  -1.3947  -1.3780  -1.3615  -1.2708  -1.2537
    -1.2264  -1.2053  -1.1452  -1.1343  -1.1091  -1.0786  -1.0509  -1.0401
    -0.9784  -0.9633  -0.9433  -0.9322  -0.9062  -0.8905  -0.8644  -0.8608
    -0.8429  -0.8135  -0.7902  -0.7681  -0.7646  -0.7539  -0.7451  -0.7290
    -0.7055  -0.6720  -0.6624  -0.6584  -0.6399  -0.6134  -0.6008  -0.5943
    -0.5854  -0.5793  -0.5737  -0.5649  -0.5480  -0.5373  -0.5246  -0.5158
    -0.4672  -0.4503  -0.4406  -0.4157  -0.4021  -0.3876  -0.3580  -0.3437
    -0.3364  -0.3241  -0.3150  -0.3108  -0.2918  -0.2840  -0.2797  -0.2387
    -0.2038  -0.1927  -0.1868  -0.1675  -0.1606  -0.1366  -0.1207  -0.1055
    -0.0523  -0.0034   0.1553   0.1890   0.2521   0.3343   0.4372   0.4671
     0.5000   0.7943

          k = 0.2000 0.1155 0.0000 ( 51134 PWs)   bands (ev):

   -22.0605  -9.3728  -7.4684  -6.3306  -6.0741  -5.7923  -5.5226  -5.4263
    -5.0179  -5.0094  -4.6612  -4.5254  -4.4376  -4.4323  -4.3721  -4.3208
    -4.2758  -4.2429  -4.1712  -4.1155  -4.1058  -3.8592  -3.7614  -3.7290
    -3.6832  -3.6516  -3.6128  -3.6059  -3.6002  -3.5976  -3.5756  -3.5673
    -3.5197  -3.4901  -3.4757  -3.4505  -3.4439  -3.3531  -3.2435  -3.2241
    -3.2190  -3.1693  -3.1644  -3.1522  -3.1385  -3.0606  -3.0377  -3.0298
    -2.9999  -2.9936  -2.9869  -2.9517  -2.9444  -2.8655  -2.8575  -2.8254
    -2.7908  -2.7710  -2.7580  -2.7501  -2.7278  -2.6983  -2.6887  -2.6819
    -2.6458  -2.6059  -2.3517  -2.3459  -2.3142  -2.3062  -2.2857  -2.2010
    -2.1956  -2.1872  -2.1743  -2.1701  -2.1578  -2.1407  -2.1110  -2.0693
    -2.0616  -2.0456  -2.0209  -1.9941  -1.9889  -1.9845  -1.9789  -1.9594
    -1.9538  -1.9491  -1.9421  -1.9400  -1.9317  -1.9072  -1.8756  -1.8520
    -1.8384  -1.8171  -1.7735  -1.7619  -1.7573  -1.7446  -1.7368  -1.7334
    -1.7274  -1.7161  -1.7061  -1.6995  -1.6948  -1.6765  -1.6568  -1.6478
    -1.6364  -1.6186  -1.6006  -1.5469  -1.5238  -1.4913  -1.4293  -1.4233
    -1.4138  -1.4059  -1.3997  -1.3928  -1.3771  -1.3640  -1.2790  -1.2406
    -1.2308  -1.2056  -1.1447  -1.1350  -1.1075  -1.0796  -1.0522  -1.0457
    -0.9861  -0.9583  -0.9446  -0.9205  -0.9101  -0.8915  -0.8635  -0.8589
    -0.8400  -0.8109  -0.7977  -0.7671  -0.7648  -0.7537  -0.7524  -0.7308
    -0.7063  -0.6705  -0.6601  -0.6581  -0.6394  -0.6105  -0.6011  -0.5942
    -0.5836  -0.5820  -0.5738  -0.5650  -0.5476  -0.5366  -0.5285  -0.5232
    -0.4655  -0.4482  -0.4399  -0.4171  -0.3997  -0.3937  -0.3566  -0.3442
    -0.3386  -0.3249  -0.3155  -0.3107  -0.2907  -0.2845  -0.2786  -0.2357
    -0.2020  -0.1939  -0.1887  -0.1659  -0.1629  -0.1312  -0.1186  -0.1046
    -0.0517  -0.0045   0.1621   0.1909   0.2293   0.3409   0.4363   0.4647
     0.5011   0.7910

          k = 0.2000 0.3464 0.0000 ( 51202 PWs)   bands (ev):

   -22.0605  -9.3634  -7.1848  -6.2273  -6.1013  -5.8924  -5.7752  -5.6277
    -5.4179  -4.7517  -4.6714  -4.4438  -4.4307  -4.4055  -4.2268  -4.2214
    -4.1293  -4.1222  -4.1114  -3.9910  -3.9752  -3.8619  -3.8402  -3.7811
    -3.7640  -3.7036  -3.6417  -3.6212  -3.5992  -3.5872  -3.5760  -3.5564
    -3.5409  -3.5268  -3.4823  -3.4554  -3.4272  -3.3957  -3.3753  -3.3153
    -3.2444  -3.2257  -3.1632  -3.1505  -3.1233  -3.1014  -3.0644  -3.0069
    -2.9644  -2.9526  -2.9305  -2.9164  -2.9103  -2.8668  -2.8618  -2.8351
    -2.8124  -2.7952  -2.7066  -2.6837  -2.6395  -2.6318  -2.6138  -2.5849
    -2.5609  -2.5521  -2.4581  -2.3847  -2.3731  -2.3467  -2.3253  -2.2992
    -2.2848  -2.2716  -2.2680  -2.2461  -2.2320  -2.2185  -2.2058  -2.2022
    -2.1931  -2.1547  -2.1128  -2.0768  -2.0240  -2.0190  -1.9913  -1.9823
    -1.9732  -1.9428  -1.9347  -1.9146  -1.8992  -1.8750  -1.8616  -1.8581
    -1.8534  -1.8368  -1.8262  -1.8150  -1.8047  -1.7967  -1.7794  -1.7683
    -1.7530  -1.7426  -1.7177  -1.6790  -1.6735  -1.6504  -1.6232  -1.6212
    -1.6121  -1.5897  -1.5793  -1.5457  -1.5229  -1.5109  -1.4937  -1.4638
    -1.4570  -1.4445  -1.4403  -1.4193  -1.4122  -1.3846  -1.3750  -1.3376
    -1.3036  -1.2811  -1.2646  -1.2226  -1.1764  -1.1442  -1.1260  -1.0586
    -1.0286  -1.0113  -1.0070  -0.9890  -0.9840  -0.9760  -0.9514  -0.9462
    -0.9274  -0.9147  -0.8908  -0.8536  -0.8490  -0.8298  -0.8092  -0.7996
    -0.7852  -0.7658  -0.7396  -0.7281  -0.7184  -0.7117  -0.6133  -0.5652
    -0.5621  -0.5372  -0.5266  -0.5153  -0.5052  -0.4971  -0.4771  -0.4700
    -0.4459  -0.4197  -0.3854  -0.3749  -0.3631  -0.3498  -0.3155  -0.3007
    -0.2914  -0.2835  -0.2820  -0.2567  -0.2478  -0.2393  -0.2374  -0.2094
    -0.2019  -0.1302  -0.1130  -0.1083  -0.0655  -0.0591  -0.0421   0.0618
     0.2397   0.2791   0.3211   0.4946   0.5791   0.6859   1.0937   1.1505
     1.3176   1.3845

          k = 0.2000-0.5774 0.0000 ( 51262 PWs)   bands (ev):

   -22.0605  -9.3578  -6.6458  -6.6403  -6.1865  -6.0420  -5.8387  -5.5911
    -5.2296  -5.1809  -4.7604  -4.4259  -4.1869  -4.1449  -4.0685  -4.0385
    -4.0061  -3.9829  -3.9796  -3.9656  -3.9064  -3.8991  -3.8921  -3.8863
    -3.8134  -3.8074  -3.7483  -3.7398  -3.7165  -3.7105  -3.6348  -3.5681
    -3.5579  -3.5400  -3.5317  -3.4661  -3.4026  -3.3854  -3.3048  -3.2694
    -3.2650  -3.2406  -3.1834  -3.1655  -3.1365  -3.1132  -3.0510  -3.0474
    -3.0190  -2.9794  -2.9567  -2.8857  -2.8507  -2.8338  -2.8139  -2.7702
    -2.7602  -2.6906  -2.6757  -2.6616  -2.6563  -2.6401  -2.6216  -2.6066
    -2.5189  -2.4743  -2.4576  -2.4467  -2.4427  -2.3869  -2.3767  -2.3252
    -2.3157  -2.2802  -2.2719  -2.2696  -2.2571  -2.2342  -2.2108  -2.2037
    -2.1899  -2.1796  -2.1568  -2.1357  -2.1328  -2.1087  -2.0598  -2.0374
    -2.0291  -1.9854  -1.9709  -1.9555  -1.9306  -1.9039  -1.8897  -1.8753
    -1.8543  -1.8434  -1.8370  -1.8292  -1.8176  -1.8078  -1.7910  -1.7816
    -1.7241  -1.6992  -1.6906  -1.6818  -1.6680  -1.6647  -1.6580  -1.6508
    -1.6432  -1.6316  -1.6157  -1.5775  -1.5659  -1.5414  -1.5279  -1.4978
    -1.4451  -1.4367  -1.4144  -1.3971  -1.3794  -1.3743  -1.3524  -1.3232
    -1.2961  -1.2776  -1.2503  -1.2185  -1.1863  -1.1446  -1.1331  -1.1191
    -1.0967  -1.0915  -1.0755  -1.0522  -1.0322  -1.0110  -0.9987  -0.9894
    -0.9440  -0.9154  -0.9111  -0.9043  -0.8965  -0.8559  -0.8252  -0.8054
    -0.8012  -0.7921  -0.7705  -0.7651  -0.7470  -0.7298  -0.6878  -0.5751
    -0.5358  -0.5295  -0.5182  -0.5078  -0.4955  -0.4891  -0.4698  -0.4624
    -0.4316  -0.4160  -0.4119  -0.4012  -0.3631  -0.3083  -0.2922  -0.2807
    -0.2674  -0.2563  -0.2381  -0.2271  -0.1930  -0.1823  -0.1766  -0.1597
    -0.1500  -0.0921  -0.0870  -0.0800  -0.0662  -0.0521  -0.0321   0.0166
     0.1948   0.2982   0.5352   0.8611   1.1738   1.2231   1.4003   1.5415
     1.7282   1.7730

          k = 0.2000-0.3464 0.0000 ( 51202 PWs)   bands (ev):

   -22.0605  -9.3635  -7.1846  -6.2279  -6.0958  -5.8944  -5.7791  -5.6283
    -5.4164  -4.7506  -4.6728  -4.4453  -4.4302  -4.4053  -4.2258  -4.2223
    -4.1290  -4.1234  -4.1105  -3.9927  -3.9774  -3.8602  -3.8386  -3.7915
    -3.7598  -3.7027  -3.6410  -3.6166  -3.6022  -3.5890  -3.5812  -3.5551
    -3.5402  -3.5264  -3.4803  -3.4538  -3.4279  -3.3909  -3.3748  -3.3185
    -3.2437  -3.2221  -3.1639  -3.1495  -3.1208  -3.1034  -3.0645  -3.0039
    -2.9622  -2.9543  -2.9301  -2.9184  -2.9101  -2.8687  -2.8552  -2.8330
    -2.8114  -2.8024  -2.7042  -2.6859  -2.6385  -2.6293  -2.6033  -2.5850
    -2.5651  -2.5586  -2.4533  -2.3845  -2.3676  -2.3447  -2.3264  -2.2969
    -2.2833  -2.2757  -2.2707  -2.2453  -2.2291  -2.2217  -2.2074  -2.1989
    -2.1875  -2.1606  -2.1189  -2.0897  -2.0234  -2.0169  -1.9945  -1.9789
    -1.9696  -1.9443  -1.9414  -1.9111  -1.9012  -1.8757  -1.8661  -1.8596
    -1.8475  -1.8362  -1.8329  -1.8146  -1.8031  -1.7976  -1.7817  -1.7650
    -1.7547  -1.7429  -1.7142  -1.6814  -1.6743  -1.6609  -1.6259  -1.6204
    -1.6157  -1.5864  -1.5802  -1.5480  -1.5200  -1.5026  -1.4941  -1.4683
    -1.4518  -1.4470  -1.4372  -1.4188  -1.4123  -1.3869  -1.3757  -1.3328
    -1.3067  -1.2749  -1.2658  -1.2217  -1.1728  -1.1401  -1.1347  -1.0551
    -1.0329  -1.0111  -1.0019  -0.9918  -0.9819  -0.9776  -0.9503  -0.9411
    -0.9300  -0.9154  -0.8913  -0.8527  -0.8419  -0.8329  -0.8104  -0.7926
    -0.7801  -0.7669  -0.7449  -0.7290  -0.7208  -0.7101  -0.6128  -0.5692
    -0.5595  -0.5412  -0.5286  -0.5185  -0.5047  -0.4920  -0.4796  -0.4687
    -0.4461  -0.4141  -0.3777  -0.3743  -0.3645  -0.3523  -0.3180  -0.3002
    -0.2897  -0.2857  -0.2800  -0.2545  -0.2500  -0.2419  -0.2299  -0.2135
    -0.2074  -0.1324  -0.1107  -0.1085  -0.0664  -0.0604  -0.0403   0.0640
     0.2306   0.2801   0.3206   0.5016   0.5730   0.6884   1.1188   1.1563
     1.3078   1.3660

          k = 0.4000-0.2309 0.0000 ( 51204 PWs)   bands (ev):

   -22.0605  -9.3586  -7.0517  -6.4240  -6.1622  -6.0037  -5.6030  -5.4384
    -5.1598  -5.1321  -5.0349  -4.3484  -4.2839  -4.2697  -4.2300  -4.1943
    -4.0832  -4.0765  -4.0488  -3.9560  -3.9427  -3.9358  -3.8481  -3.7721
    -3.7604  -3.7524  -3.7458  -3.7052  -3.6567  -3.6430  -3.6211  -3.5422
    -3.4756  -3.4707  -3.4568  -3.4315  -3.4174  -3.3571  -3.3201  -3.3109
    -3.3009  -3.2938  -3.2513  -3.1753  -3.0885  -3.0687  -2.9945  -2.9818
    -2.9596  -2.9395  -2.9173  -2.9130  -2.8987  -2.8905  -2.8391  -2.8146
    -2.8028  -2.7790  -2.7386  -2.7065  -2.6060  -2.5927  -2.5714  -2.5557
    -2.5226  -2.4878  -2.4675  -2.4527  -2.4331  -2.3774  -2.3197  -2.3183
    -2.3153  -2.3033  -2.2936  -2.2745  -2.2660  -2.2581  -2.2475  -2.1948
    -2.1808  -2.1550  -2.1417  -2.1193  -2.0951  -2.0763  -2.0587  -1.9963
    -1.9898  -1.9860  -1.9587  -1.9451  -1.9188  -1.8859  -1.8771  -1.8734
    -1.8623  -1.8387  -1.8341  -1.8155  -1.8050  -1.7908  -1.7878  -1.7588
    -1.7491  -1.7245  -1.6928  -1.6857  -1.6191  -1.6083  -1.5801  -1.5681
    -1.5571  -1.5362  -1.5254  -1.4789  -1.4673  -1.4546  -1.4489  -1.4393
    -1.4337  -1.4253  -1.4203  -1.4145  -1.4078  -1.4007  -1.3823  -1.3634
    -1.3359  -1.3295  -1.2899  -1.2357  -1.2187  -1.2045  -1.1884  -1.1534
    -1.1485  -1.0957  -1.0777  -1.0652  -1.0513  -1.0183  -0.9979  -0.9626
    -0.9377  -0.9039  -0.8847  -0.8778  -0.8489  -0.8200  -0.7932  -0.7671
    -0.7371  -0.6896  -0.6805  -0.6607  -0.6582  -0.6524  -0.6417  -0.6353
    -0.6147  -0.6096  -0.5235  -0.5096  -0.5065  -0.4976  -0.4810  -0.4734
    -0.4570  -0.4432  -0.4325  -0.4272  -0.3953  -0.3721  -0.3254  -0.3132
    -0.3035  -0.2924  -0.2626  -0.2195  -0.2120  -0.1810  -0.1714  -0.1365
    -0.0964  -0.0893  -0.0850  -0.0680  -0.0653  -0.0608  -0.0462  -0.0040
     0.0433   0.0845   0.4262   0.7263   0.9633   1.1049   1.1703   1.2947
     1.4730   1.5481

          k = 0.4000 0.0000 0.0000 ( 51202 PWs)   bands (ev):

   -22.0605  -9.3608  -7.1897  -6.2407  -6.1290  -5.8765  -5.7361  -5.6173
    -5.4438  -4.7356  -4.6791  -4.4504  -4.4418  -4.3964  -4.2267  -4.2232
    -4.1268  -4.1223  -4.1171  -3.9931  -3.9831  -3.8535  -3.8495  -3.7780
    -3.7338  -3.6867  -3.6420  -3.6375  -3.5967  -3.5920  -3.5775  -3.5676
    -3.5389  -3.5196  -3.5049  -3.4696  -3.4267  -3.3980  -3.3730  -3.3450
    -3.2562  -3.2071  -3.1629  -3.1315  -3.1226  -3.1057  -3.0570  -3.0049
    -2.9711  -2.9398  -2.9317  -2.9247  -2.9035  -2.8698  -2.8479  -2.8430
    -2.8225  -2.7678  -2.7160  -2.6461  -2.6390  -2.6246  -2.6121  -2.5799
    -2.5760  -2.5400  -2.4586  -2.3801  -2.3678  -2.3433  -2.3282  -2.3000
    -2.2847  -2.2753  -2.2686  -2.2460  -2.2328  -2.2209  -2.2153  -2.1968
    -2.1666  -2.1602  -2.1245  -2.0727  -2.0236  -2.0170  -2.0050  -1.9866
    -1.9655  -1.9523  -1.9305  -1.9108  -1.9051  -1.8753  -1.8597  -1.8522
    -1.8441  -1.8422  -1.8336  -1.8142  -1.8081  -1.7920  -1.7853  -1.7704
    -1.7437  -1.7183  -1.6977  -1.6806  -1.6707  -1.6582  -1.6286  -1.6229
    -1.6080  -1.5966  -1.5788  -1.5584  -1.5276  -1.5119  -1.4893  -1.4741
    -1.4584  -1.4514  -1.4375  -1.4212  -1.4103  -1.3987  -1.3792  -1.3505
    -1.2984  -1.2943  -1.2839  -1.2094  -1.1622  -1.1493  -1.1325  -1.0749
    -1.0256  -1.0135  -1.0059  -0.9973  -0.9817  -0.9732  -0.9592  -0.9518
    -0.9305  -0.9093  -0.8879  -0.8486  -0.8336  -0.8258  -0.8044  -0.7981
    -0.7793  -0.7599  -0.7433  -0.7324  -0.7238  -0.7108  -0.6132  -0.5658
    -0.5584  -0.5344  -0.5231  -0.5135  -0.5056  -0.4935  -0.4750  -0.4674
    -0.4534  -0.4133  -0.3948  -0.3740  -0.3608  -0.3433  -0.3050  -0.3004
    -0.2892  -0.2866  -0.2779  -0.2576  -0.2463  -0.2425  -0.2337  -0.2103
    -0.1983  -0.1282  -0.1130  -0.1093  -0.0698  -0.0655  -0.0195   0.0571
     0.2742   0.2821   0.3449   0.4472   0.6015   0.6590   0.9790   1.1679
     1.2655   1.3899

          k = 0.4000 0.2309 0.0000 ( 51204 PWs)   bands (ev):

   -22.0605  -9.3585  -7.0520  -6.4258  -6.1643  -6.0014  -5.5976  -5.4426
    -5.1590  -5.1319  -5.0347  -4.3449  -4.2887  -4.2672  -4.2282  -4.1964
    -4.0829  -4.0760  -4.0455  -3.9533  -3.9435  -3.9377  -3.8522  -3.7667
    -3.7612  -3.7526  -3.7451  -3.7019  -3.6537  -3.6453  -3.6253  -3.5416
    -3.4791  -3.4706  -3.4585  -3.4301  -3.4184  -3.3583  -3.3197  -3.3122
    -3.3026  -3.2925  -3.2578  -3.1611  -3.0858  -3.0663  -2.9927  -2.9830
    -2.9559  -2.9481  -2.9174  -2.9137  -2.9033  -2.8913  -2.8403  -2.8149
    -2.8068  -2.7769  -2.7418  -2.7080  -2.6022  -2.5928  -2.5783  -2.5614
    -2.5281  -2.4814  -2.4658  -2.4551  -2.4433  -2.3759  -2.3230  -2.3170
    -2.3119  -2.3070  -2.2950  -2.2761  -2.2623  -2.2562  -2.2401  -2.1984
    -2.1799  -2.1587  -2.1415  -2.1157  -2.0907  -2.0768  -2.0423  -2.0061
    -1.9888  -1.9836  -1.9570  -1.9429  -1.9143  -1.8864  -1.8805  -1.8692
    -1.8592  -1.8454  -1.8344  -1.8117  -1.8020  -1.7926  -1.7875  -1.7633
    -1.7476  -1.7226  -1.6906  -1.6845  -1.6220  -1.6098  -1.5801  -1.5693
    -1.5532  -1.5405  -1.5191  -1.4777  -1.4649  -1.4568  -1.4481  -1.4417
    -1.4314  -1.4265  -1.4189  -1.4143  -1.4059  -1.3997  -1.3838  -1.3631
    -1.3439  -1.3226  -1.2855  -1.2364  -1.2138  -1.2053  -1.1929  -1.1546
    -1.1387  -1.1050  -1.0801  -1.0638  -1.0537  -1.0144  -0.9992  -0.9619
    -0.9402  -0.9013  -0.8863  -0.8839  -0.8500  -0.8221  -0.7985  -0.7623
    -0.7367  -0.6915  -0.6825  -0.6633  -0.6570  -0.6499  -0.6430  -0.6316
    -0.6186  -0.6131  -0.5195  -0.5136  -0.5077  -0.4915  -0.4790  -0.4680
    -0.4590  -0.4486  -0.4319  -0.4216  -0.4022  -0.3758  -0.3241  -0.3115
    -0.3033  -0.2936  -0.2635  -0.2207  -0.2113  -0.1806  -0.1727  -0.1349
    -0.0956  -0.0902  -0.0860  -0.0669  -0.0650  -0.0610  -0.0442  -0.0006
     0.0426   0.0820   0.4169   0.7534   0.9539   1.0963   1.1728   1.2499
     1.5036   1.5487

          k = 0.4000-0.6928 0.0000 ( 51262 PWs)   bands (ev):

   -22.0605  -9.3551  -6.6801  -6.6308  -6.1589  -6.0388  -5.8966  -5.5018
    -5.2677  -5.1903  -4.7527  -4.4258  -4.2000  -4.1443  -4.0955  -4.0132
    -4.0052  -3.9860  -3.9768  -3.9519  -3.9122  -3.8956  -3.8938  -3.8852
    -3.8264  -3.7762  -3.7461  -3.7404  -3.7169  -3.7056  -3.6223  -3.5721
    -3.5610  -3.5512  -3.5343  -3.4869  -3.4416  -3.3936  -3.2999  -3.2682
    -3.2635  -3.2436  -3.1739  -3.1657  -3.1362  -3.0906  -3.0530  -3.0447
    -3.0320  -2.9734  -2.9565  -2.8868  -2.8482  -2.8271  -2.8077  -2.7644
    -2.7401  -2.6881  -2.6752  -2.6738  -2.6627  -2.6459  -2.6055  -2.5894
    -2.5218  -2.4708  -2.4594  -2.4469  -2.4398  -2.3913  -2.3782  -2.3259
    -2.3136  -2.2792  -2.2757  -2.2631  -2.2513  -2.2397  -2.2056  -2.1968
    -2.1837  -2.1771  -2.1605  -2.1372  -2.1314  -2.0940  -2.0707  -2.0521
    -2.0329  -2.0207  -1.9679  -1.9439  -1.9111  -1.9061  -1.8899  -1.8769
    -1.8517  -1.8506  -1.8285  -1.8203  -1.8188  -1.7920  -1.7840  -1.7681
    -1.7186  -1.6998  -1.6924  -1.6865  -1.6704  -1.6640  -1.6612  -1.6503
    -1.6432  -1.6359  -1.6121  -1.5984  -1.5632  -1.5432  -1.5249  -1.5165
    -1.4536  -1.4467  -1.4232  -1.3937  -1.3773  -1.3665  -1.3519  -1.3326
    -1.2868  -1.2809  -1.2639  -1.2076  -1.1741  -1.1502  -1.1412  -1.1151
    -1.1011  -1.0873  -1.0745  -1.0640  -1.0437  -1.0218  -0.9871  -0.9749
    -0.9397  -0.9288  -0.9159  -0.8998  -0.8870  -0.8600  -0.8278  -0.8235
    -0.7962  -0.7900  -0.7728  -0.7567  -0.7437  -0.7230  -0.6952  -0.5774
    -0.5342  -0.5243  -0.5145  -0.5003  -0.4978  -0.4850  -0.4678  -0.4503
    -0.4363  -0.4200  -0.4185  -0.4083  -0.3469  -0.2979  -0.2854  -0.2799
    -0.2742  -0.2559  -0.2348  -0.2154  -0.1926  -0.1825  -0.1743  -0.1601
    -0.1535  -0.1118  -0.0870  -0.0794  -0.0660  -0.0504  -0.0319   0.0131
     0.1935   0.3173   0.6088   0.8737   0.9955   1.2221   1.3032   1.6245
     1.7176   1.7617

          k = 0.4000-0.4619 0.0000 ( 51262 PWs)   bands (ev):

   -22.0605  -9.3552  -6.6806  -6.6288  -6.1600  -6.0416  -5.8912  -5.5059
    -5.2701  -5.1867  -4.7527  -4.4262  -4.1989  -4.1440  -4.1001  -4.0134
    -4.0046  -3.9852  -3.9791  -3.9524  -3.9106  -3.8950  -3.8937  -3.8857
    -3.8285  -3.7703  -3.7475  -3.7409  -3.7192  -3.7048  -3.6244  -3.5733
    -3.5620  -3.5484  -3.5367  -3.4864  -3.4367  -3.3897  -3.3067  -3.2659
    -3.2624  -3.2401  -3.1748  -3.1633  -3.1374  -3.1118  -3.0536  -3.0438
    -3.0246  -2.9749  -2.9380  -2.8870  -2.8450  -2.8293  -2.8144  -2.7622
    -2.7459  -2.6859  -2.6823  -2.6681  -2.6614  -2.6440  -2.6115  -2.5726
    -2.5201  -2.4654  -2.4584  -2.4502  -2.4447  -2.3898  -2.3720  -2.3252
    -2.3132  -2.2791  -2.2723  -2.2676  -2.2545  -2.2393  -2.2134  -2.1949
    -2.1844  -2.1737  -2.1548  -2.1412  -2.1338  -2.0974  -2.0764  -2.0554
    -2.0366  -2.0282  -1.9612  -1.9485  -1.9183  -1.8962  -1.8801  -1.8761
    -1.8568  -1.8467  -1.8391  -1.8225  -1.8164  -1.7918  -1.7836  -1.7685
    -1.7202  -1.7022  -1.6911  -1.6849  -1.6747  -1.6623  -1.6586  -1.6530
    -1.6389  -1.6354  -1.6121  -1.5927  -1.5576  -1.5488  -1.5263  -1.5157
    -1.4639  -1.4470  -1.4231  -1.3904  -1.3799  -1.3659  -1.3568  -1.3292
    -1.2897  -1.2797  -1.2624  -1.1913  -1.1770  -1.1536  -1.1412  -1.1200
    -1.1035  -1.0903  -1.0693  -1.0603  -1.0392  -1.0215  -0.9924  -0.9800
    -0.9391  -0.9334  -0.9144  -0.9072  -0.8794  -0.8563  -0.8266  -0.8155
    -0.8038  -0.7871  -0.7644  -0.7567  -0.7483  -0.7224  -0.6963  -0.5760
    -0.5350  -0.5221  -0.5116  -0.5059  -0.4927  -0.4860  -0.4767  -0.4508
    -0.4328  -0.4268  -0.4163  -0.3996  -0.3498  -0.3046  -0.2856  -0.2783
    -0.2647  -0.2556  -0.2387  -0.2136  -0.1976  -0.1819  -0.1772  -0.1613
    -0.1514  -0.1049  -0.0853  -0.0804  -0.0672  -0.0505  -0.0308   0.0154
     0.1896   0.3174   0.6007   0.8716   1.0019   1.2227   1.3139   1.6161
     1.7251   1.7648

 ------ SPIN DOWN ----------


          k = 0.0000 0.0000 0.0000 ( 51087 PWs)   bands (ev):

   -22.1253  -9.4545  -7.7443  -6.4850  -6.0777  -5.8384  -5.4900  -4.6178
    -4.5873  -4.5817  -4.5785  -4.5619  -4.5459  -4.4645  -3.7462  -3.7113
    -3.7068  -3.6923  -3.6807  -3.6747  -3.5975  -3.1506  -2.7756  -2.7638
    -2.7579  -2.7501  -2.6897  -2.5709  -2.3158  -2.3045  -2.2991  -2.2903
    -2.2714  -2.2665  -2.1000  -2.0934  -2.0296  -2.0167  -1.9995  -1.9981
    -1.9173  -1.9140  -1.8633  -1.8596  -1.8231  -1.7985  -1.7843  -1.7540
    -1.7329  -1.6990  -1.5322  -1.5233  -1.5021  -1.4866  -1.4703  -1.4687
    -1.4585  -1.4569  -1.4263  -1.4239  -1.3979  -1.3834  -1.3792  -1.3787
    -1.2981  -1.2599  -0.8845  -0.8353  -0.8109  -0.8025  -0.7935  -0.7216
    -0.6306  -0.5971  -0.5175  -0.4960  -0.4839  -0.4768  -0.4684  -0.4583
    -0.4379  -0.4163  -0.3912  -0.3841  -0.3815  -0.3803  -0.3518  -0.3288
    -0.3224  -0.2899  -0.2753  -0.2734  -0.2482  -0.2347  -0.2269  -0.2230
    -0.2184  -0.2087  -0.2008  -0.1967  -0.1925  -0.1896  -0.1414  -0.0911
    -0.0862  -0.0686  -0.0525  -0.0490   0.0188   0.0236   0.0327   0.0344
     0.0389   0.0413   0.0465   0.0603   0.1145   0.1167   0.1671   0.1931
     0.2008   0.2121   0.2192   0.2412   0.2918   0.4232   0.4335   0.4722
     0.4962   0.5107   0.5225   0.5254   0.6043   0.7394   0.8090   0.8428
     0.8613   0.9090   0.9894   1.0392   1.0482   1.0791   1.0883   1.0912
     1.1638   1.2324   1.2372   1.2437   1.2572   1.2660   1.2729   1.2957
     1.3049   1.3275   1.3318   1.3469   1.3556   1.3653   1.3727   1.4042
     1.4119   1.4142   1.4174   1.4298   1.4612   1.4717   1.4830   1.4915
     1.5017   1.5200   1.5251   1.5306   1.5402   1.5464   1.5487   1.5808
     1.5862   1.6067   1.6107   1.6199   1.6267   1.6349   1.6390   1.6726
     1.6748   1.6823   1.6828   1.6890   1.6933   1.6993   1.7065   1.7107
     1.7181   1.7620   1.7640   1.9024   1.9134   1.9158   1.9171   1.9215
     1.9236   1.9929

          k = 0.0000 0.2309 0.0000 ( 51134 PWs)   bands (ev):

   -22.1253  -9.4472  -7.5997  -6.3890  -6.0778  -5.8571  -5.5483  -5.4380
    -4.9593  -4.9429  -4.4535  -4.3254  -4.0372  -4.0295  -3.9330  -3.9107
    -3.7413  -3.5324  -3.3867  -3.3583  -3.2989  -3.1703  -2.8993  -2.7636
    -2.7334  -2.6847  -2.6413  -2.5776  -2.4077  -2.3379  -2.3286  -2.3219
    -2.2919  -2.2828  -2.2397  -2.2353  -2.2024  -2.1874  -2.0642  -2.0514
    -1.9750  -1.9696  -1.9415  -1.8458  -1.8150  -1.7778  -1.7724  -1.6714
    -1.6488  -1.6256  -1.5708  -1.5401  -1.5209  -1.5029  -1.4761  -1.4724
    -1.4666  -1.4583  -1.3729  -1.3526  -1.3370  -1.3232  -1.2869  -1.2418
    -1.2282  -1.1286  -0.9388  -0.8985  -0.8618  -0.8535  -0.8092  -0.7599
    -0.7184  -0.6853  -0.6528  -0.6111  -0.5882  -0.5325  -0.5206  -0.5052
    -0.4588  -0.4474  -0.4412  -0.4349  -0.4219  -0.3990  -0.3817  -0.3518
    -0.3388  -0.2927  -0.2714  -0.2698  -0.2506  -0.2312  -0.2167  -0.1973
    -0.1917  -0.1852  -0.1762  -0.1704  -0.1678  -0.1646  -0.1412  -0.1247
    -0.1031  -0.0841  -0.0771  -0.0664  -0.0373  -0.0218  -0.0128   0.0039
     0.0233   0.0500   0.0695   0.0859   0.1281   0.1430   0.1499   0.1817
     0.2698   0.3028   0.3386   0.3862   0.4028   0.4178   0.4560   0.4682
     0.4786   0.4815   0.4959   0.5052   0.6377   0.7204   0.8069   0.8282
     0.8375   0.8466   0.8609   0.8688   0.9219   0.9389   0.9882   1.0023
     1.0379   1.0529   1.0991   1.1188   1.1409   1.1615   1.1858   1.2363
     1.2493   1.2786   1.2946   1.3158   1.3234   1.3307   1.3696   1.3788
     1.4115   1.4221   1.4571   1.4677   1.4869   1.4983   1.5078   1.5221
     1.5605   1.5729   1.5772   1.5814   1.6064   1.6545   1.6613   1.6712
     1.6761   1.6874   1.7076   1.7268   1.7314   1.7468   1.7543   1.7587
     1.7803   1.8189   1.8246   1.8402   1.8476   1.8541   1.8678   1.8827
     1.9029   1.9066   1.9157   1.9349   2.0021   2.0153   2.0204   2.0726
     2.0970   2.1346

          k = 0.0000 0.4619 0.0000 ( 51204 PWs)   bands (ev):

   -22.1254  -9.4356  -7.1718  -6.4981  -6.1862  -6.0514  -5.7216  -5.4211
    -5.1813  -5.1380  -5.0179  -4.1320  -4.0507  -3.9720  -3.5685  -3.4207
    -3.4109  -3.3018  -3.2521  -3.1301  -3.0218  -2.9681  -2.9409  -2.8157
    -2.8126  -2.7480  -2.6977  -2.6798  -2.6231  -2.5714  -2.5598  -2.5132
    -2.4870  -2.4184  -2.2858  -2.2766  -2.2100  -2.1954  -2.0887  -2.0809
    -2.0655  -2.0558  -2.0438  -1.8282  -1.7816  -1.7704  -1.7320  -1.7254
    -1.5725  -1.5519  -1.5411  -1.5279  -1.5251  -1.4904  -1.4829  -1.4703
    -1.4501  -1.3770  -1.3626  -1.3471  -1.3385  -1.3165  -1.1758  -1.1373
    -1.0546  -0.9999  -0.9329  -0.8960  -0.8784  -0.8443  -0.8297  -0.8114
    -0.7918  -0.7840  -0.7569  -0.7308  -0.6921  -0.6528  -0.6382  -0.6093
    -0.5803  -0.5604  -0.5326  -0.5232  -0.4896  -0.4776  -0.4288  -0.3770
    -0.3602  -0.3294  -0.3267  -0.2914  -0.2694  -0.2489  -0.2144  -0.2015
    -0.1670  -0.1574  -0.1412  -0.1306  -0.1189  -0.1121  -0.0968  -0.0633
    -0.0590  -0.0327  -0.0217  -0.0174  -0.0067   0.0036   0.0221   0.0323
     0.0433   0.0734   0.0960   0.1477   0.1897   0.1936   0.2171   0.2437
     0.2519   0.2691   0.2813   0.3157   0.3519   0.3682   0.3706   0.3987
     0.4327   0.4372   0.4613   0.4723   0.5075   0.5740   0.6389   0.6516
     0.7040   0.7268   0.7730   0.8406   0.8802   0.8989   0.9166   0.9284
     0.9497   0.9696   0.9955   1.0182   1.0339   1.0896   1.1792   1.2205
     1.2337   1.2655   1.2802   1.3078   1.3439   1.3539   1.3794   1.3947
     1.4231   1.4385   1.4487   1.4942   1.5222   1.5375   1.5729   1.5879
     1.5951   1.5984   1.6281   1.6487   1.6643   1.6723   1.6833   1.7085
     1.7181   1.7727   1.7798   1.8197   1.8295   1.8482   1.8559   1.8707
     1.8767   1.9014   1.9059   1.9215   1.9384   1.9450   1.9538   1.9560
     2.0017   2.0371   2.0710   2.1422   2.1674   2.2682   2.5928   2.6655
     2.6895   2.7346

          k = 0.2000-0.1155 0.0000 ( 51134 PWs)   bands (ev):

   -22.1253  -9.4458  -7.6012  -6.3974  -6.1032  -5.8106  -5.5517  -5.4517
    -4.9536  -4.9451  -4.4544  -4.3271  -4.0367  -4.0290  -3.9446  -3.8962
    -3.7461  -3.5366  -3.4010  -3.3581  -3.2662  -3.1486  -2.9379  -2.7603
    -2.7156  -2.7050  -2.6461  -2.5539  -2.4231  -2.3350  -2.3278  -2.3180
    -2.2936  -2.2768  -2.2414  -2.2386  -2.2000  -2.1920  -2.0615  -2.0530
    -1.9759  -1.9724  -1.9408  -1.8320  -1.8038  -1.7797  -1.7586  -1.6781
    -1.6448  -1.6280  -1.5690  -1.5427  -1.5233  -1.4916  -1.4784  -1.4737
    -1.4666  -1.4361  -1.3905  -1.3523  -1.3375  -1.3199  -1.2960  -1.2669
    -1.2139  -1.1298  -0.9404  -0.9005  -0.8647  -0.8571  -0.8175  -0.7573
    -0.7281  -0.7091  -0.6605  -0.6085  -0.5862  -0.5287  -0.5103  -0.4969
    -0.4590  -0.4523  -0.4416  -0.4315  -0.4156  -0.4006  -0.3945  -0.3593
    -0.3157  -0.2876  -0.2724  -0.2692  -0.2605  -0.2391  -0.2088  -0.2024
    -0.1896  -0.1791  -0.1776  -0.1688  -0.1682  -0.1646  -0.1505  -0.1215
    -0.0974  -0.0828  -0.0671  -0.0657  -0.0584  -0.0340  -0.0232   0.0061
     0.0361   0.0481   0.0823   0.0919   0.1198   0.1448   0.1516   0.1823
     0.2695   0.3144   0.3437   0.3786   0.4067   0.4239   0.4480   0.4613
     0.4734   0.4843   0.5004   0.5057   0.6200   0.7432   0.8066   0.8235
     0.8312   0.8463   0.8602   0.8737   0.9135   0.9250   0.9931   1.0145
     1.0406   1.0750   1.1035   1.1332   1.1515   1.1664   1.1900   1.2031
     1.2527   1.2759   1.2935   1.3092   1.3196   1.3316   1.3689   1.3793
     1.3989   1.4214   1.4485   1.4688   1.4848   1.5010   1.5157   1.5473
     1.5615   1.5731   1.5778   1.5814   1.5997   1.6400   1.6591   1.6649
     1.6730   1.6899   1.7047   1.7299   1.7352   1.7448   1.7534   1.7678
     1.7780   1.8214   1.8236   1.8445   1.8487   1.8548   1.8672   1.8818
     1.8933   1.9049   1.9138   1.9221   2.0020   2.0148   2.0241   2.0690
     2.0978   2.1418

          k = 0.2000 0.1155 0.0000 ( 51134 PWs)   bands (ev):

   -22.1253  -9.4457  -7.6013  -6.3979  -6.1055  -5.8073  -5.5462  -5.4578
    -4.9515  -4.9469  -4.4533  -4.3299  -4.0356  -4.0306  -3.9427  -3.8933
    -3.7435  -3.5372  -3.3990  -3.3600  -3.2719  -3.1509  -2.9330  -2.7696
    -2.7188  -2.6872  -2.6546  -2.5534  -2.4277  -2.3359  -2.3282  -2.3187
    -2.2915  -2.2768  -2.2402  -2.2340  -2.1981  -2.1943  -2.0604  -2.0560
    -1.9769  -1.9712  -1.9317  -1.8325  -1.8079  -1.7785  -1.7702  -1.6632
    -1.6533  -1.6310  -1.5665  -1.5474  -1.5229  -1.4918  -1.4789  -1.4733
    -1.4657  -1.4334  -1.3761  -1.3646  -1.3415  -1.3231  -1.2948  -1.2586
    -1.2227  -1.1237  -0.9430  -0.9042  -0.8599  -0.8450  -0.8065  -0.7754
    -0.7343  -0.6972  -0.6508  -0.6118  -0.5862  -0.5317  -0.5166  -0.4847
    -0.4728  -0.4483  -0.4416  -0.4343  -0.4202  -0.4061  -0.3938  -0.3588
    -0.3164  -0.2865  -0.2714  -0.2701  -0.2592  -0.2326  -0.2093  -0.2017
    -0.1894  -0.1820  -0.1758  -0.1704  -0.1678  -0.1671  -0.1365  -0.1218
    -0.0947  -0.0858  -0.0722  -0.0664  -0.0541  -0.0308  -0.0180  -0.0009
     0.0373   0.0434   0.0881   0.1036   0.1109   0.1414   0.1521   0.1835
     0.2584   0.3049   0.3474   0.3739   0.3963   0.4221   0.4458   0.4643
     0.4741   0.4861   0.5012   0.5048   0.6546   0.7303   0.8020   0.8228
     0.8334   0.8407   0.8646   0.8763   0.9026   0.9302   0.9720   1.0040
     1.0265   1.0917   1.1074   1.1319   1.1506   1.1721   1.1886   1.2030
     1.2521   1.2815   1.3059   1.3159   1.3203   1.3302   1.3696   1.3775
     1.4001   1.4209   1.4536   1.4778   1.4832   1.4999   1.5178   1.5354
     1.5612   1.5680   1.5768   1.5833   1.5988   1.6409   1.6541   1.6642
     1.6745   1.6870   1.7085   1.7312   1.7359   1.7477   1.7534   1.7651
     1.7793   1.8215   1.8248   1.8426   1.8471   1.8552   1.8633   1.8809
     1.8963   1.9085   1.9138   1.9201   2.0025   2.0129   2.0232   2.0666
     2.0957   2.1461

          k = 0.2000 0.3464 0.0000 ( 51202 PWs)   bands (ev):

   -22.1254  -9.4363  -7.3149  -6.2757  -6.1460  -5.9725  -5.8352  -5.6497
    -5.4509  -4.7032  -4.5878  -4.2309  -4.2092  -4.1398  -3.4733  -3.3983
    -3.3811  -3.3772  -3.3576  -3.2490  -3.1150  -3.0956  -3.0595  -2.8717
    -2.7127  -2.6403  -2.6256  -2.6043  -2.5375  -2.5269  -2.5131  -2.4325
    -2.4261  -2.4132  -2.3857  -2.3452  -2.2632  -2.2154  -2.0635  -2.0384
    -2.0173  -1.9751  -1.9454  -1.9057  -1.8899  -1.7501  -1.6991  -1.6901
    -1.6505  -1.5626  -1.5299  -1.5201  -1.5018  -1.4947  -1.4795  -1.4649
    -1.4479  -1.4312  -1.3769  -1.3450  -1.3050  -1.2550  -1.1702  -1.1388
    -1.0581  -1.0463  -0.9410  -0.9288  -0.8713  -0.8246  -0.8090  -0.7802
    -0.7695  -0.7432  -0.7297  -0.6856  -0.6574  -0.6383  -0.6220  -0.6090
    -0.5898  -0.5635  -0.5548  -0.5349  -0.5096  -0.4238  -0.4091  -0.3741
    -0.3599  -0.3512  -0.3184  -0.2970  -0.2727  -0.2582  -0.2448  -0.2289
    -0.2129  -0.1974  -0.1867  -0.1621  -0.1545  -0.1356  -0.1187  -0.0879
[...]
     atom    8 type  1   force =    -0.00398892   -0.00147366   -0.10319793
     atom    9 type  1   force =     0.00494404   -0.00074774   -0.10352472
     atom   10 type  1   force =    -0.00026593    0.00016483   -0.00944904
     atom   11 type  1   force =    -0.00020801   -0.00017521   -0.00723227
     atom   12 type  1   force =     0.00053110    0.00056087   -0.00814606
     atom   13 type  1   force =     0.00054365   -0.00174553   -0.01091045
     atom   14 type  1   force =    -0.00051716   -0.00212002   -0.01207143
     atom   15 type  1   force =    -0.00036847   -0.00042870   -0.01343861
     atom   16 type  1   force =    -0.00045228    0.00214921   -0.01651439
     atom   17 type  1   force =     0.00241677    0.00024953   -0.00944891
     atom   18 type  1   force =    -0.00160071    0.00136027   -0.01228751
     atom   19 type  1   force =     0.00297030    0.00330820    0.01069650
     atom   20 type  1   force =    -0.00054744    0.01735984   -0.00266424
     atom   21 type  1   force =    -0.00227524   -0.00104783    0.01570126
     atom   22 type  1   force =    -0.00034183    0.00082436    0.01867687
     atom   23 type  1   force =    -0.00037602   -0.00020529    0.01667135
     atom   24 type  1   force =    -0.00086597    0.00132533    0.01418236
     atom   25 type  1   force =    -0.00348168   -0.00201439    0.00610924
     atom   26 type  1   force =    -0.01007741   -0.00992699   -0.00473454
     atom   27 type  1   force =     0.01516383   -0.00767972   -0.00175581
     atom   28 type  1   force =     0.04642469   -0.00926050    0.12672105
     atom   29 type  1   force =    -0.08126927   -0.01444480    0.07815914
     atom   30 type  1   force =    -0.00397141   -0.00275831    0.12389481
     atom   31 type  1   force =     0.00196132   -0.03039329    0.13819269
     atom   32 type  1   force =     0.00032205   -0.00750377    0.12339083
     atom   33 type  1   force =    -0.00019206   -0.00065116    0.10485807
     atom   34 type  1   force =     0.00115542    0.00236368    0.11256005
     atom   35 type  1   force =     0.00153448    0.04342613    0.14484794
     atom   36 type  1   force =     0.00072421    0.01327909    0.12694350
     atom   37 type  2   force =    -0.05651172   -0.04737035    0.40536237
     atom   38 type  3   force =     0.87113377    0.17467491   -2.57742501
     atom   39 type  4   force =    -0.00963014    0.00070790   -0.02583561
     The ionic contribution  to forces
     atom    1 type  1   force =    -0.00611677    0.00819690 -111.14023384
     atom    2 type  1   force =     0.00554241    0.00861662 -111.14137251
     atom    3 type  1   force =     0.00057434    0.00259874 -111.12922026
     atom    4 type  1   force =     0.00006879    0.00216710 -111.12836913
     atom    5 type  1   force =    -0.00211551   -0.00537443 -111.13240392
     atom    6 type  1   force =     0.00204672   -0.00606761 -111.13253245
     atom    7 type  1   force =    -0.00758470   -0.00249307 -111.13635988
     atom    8 type  1   force =    -0.00064221   -0.00485008 -111.15290423
     atom    9 type  1   force =     0.00822695   -0.00279420 -111.13765674
     atom   10 type  1   force =    -0.06187762    0.00881165  -40.18425331
     atom   11 type  1   force =     0.05667854    0.00842411  -40.19448853
     atom   12 type  1   force =     0.00519041    0.00346567  -40.07235121
     atom   13 type  1   force =    -0.00267932    0.07074821  -40.10824801
     atom   14 type  1   force =     0.02535665    0.02039276  -40.06253118
     atom   15 type  1   force =    -0.02267472    0.01624266  -40.05714229
     atom   16 type  1   force =    -0.03125086   -0.02426923  -40.06402535
     atom   17 type  1   force =    -0.00200407   -0.07500121  -40.13114557
     atom   18 type  1   force =     0.03325810   -0.02881302  -40.06809238
     atom   19 type  1   force =    -0.30961318    0.41937288   31.21288260
     atom   20 type  1   force =     0.27999689    0.44713330   31.16405470
     atom   21 type  1   force =     0.02883540    0.11461622   31.71381791
     atom   22 type  1   force =     0.00301645    0.09171542   31.75255887
     atom   23 type  1   force =    -0.10132670   -0.25537939   31.58910773
     atom   24 type  1   force =     0.09819162   -0.28253873   31.58889308
     atom   25 type  1   force =    -0.37419326   -0.11602132   31.40764463
     atom   26 type  1   force =    -0.03083104   -0.28323411   30.48972107
     atom   27 type  1   force =     0.40654222   -0.14011714   31.33213581
     atom   28 type  1   force =    -4.68688230    0.67333782   98.47249089
     atom   29 type  1   force =     3.90123693    0.65702583   97.72103467
     atom   30 type  1   force =     0.35613794    0.10164445  103.97438948
     atom   31 type  1   force =    -0.03266329    2.93753198  103.04964839
     atom   32 type  1   force =     0.74781230    0.74449950  104.25391771
     atom   33 type  1   force =    -0.69694347    0.57467549  104.31442685
     atom   34 type  1   force =    -1.03319311   -0.85156895  104.12867490
     atom   35 type  1   force =     0.02094967   -3.61065098  102.14608326
     atom   36 type  1   force =     1.04082179   -1.04546790  104.12313848
     atom   37 type  2   force =     2.24523780    0.44288358   51.61761589
     atom   38 type  3   force =    -3.16934151   -0.64272887   89.83408822
     atom   39 type  4   force =     1.30621170    0.02326936   15.28700566
     The local contribution  to forces
     atom    1 type  1   force =     0.00319195   -0.00631248  111.24528726
     atom    2 type  1   force =    -0.00429671   -0.01262898  111.24674291
     atom    3 type  1   force =     0.00151962   -0.00003413  111.23362018
     atom    4 type  1   force =     0.00012136   -0.00274606  111.23485713
     atom    5 type  1   force =     0.00119264    0.00458630  111.23802499
     atom    6 type  1   force =    -0.00095019    0.00368457  111.23970778
     atom    7 type  1   force =     0.00940854    0.00270214  111.24414494
     atom    8 type  1   force =     0.00448279    0.00702495  111.25962643
     atom    9 type  1   force =    -0.01392654    0.00489702  111.24415236
     atom   10 type  1   force =     0.06104121   -0.01025089   40.17320586
     atom   11 type  1   force =    -0.05598182   -0.00904257   40.17955202
     atom   12 type  1   force =    -0.00527521   -0.00434496   40.06194285
     atom   13 type  1   force =     0.00203403   -0.06839277   40.10278368
     atom   14 type  1   force =    -0.02539089   -0.01809055   40.05493433
     atom   15 type  1   force =     0.02353045   -0.01592682   40.04967269
     atom   16 type  1   force =     0.03142207    0.02337419   40.05945102
     atom   17 type  1   force =    -0.00078963    0.07432784   40.12466027
     atom   18 type  1   force =    -0.03058496    0.02819017   40.06095538
     atom   19 type  1   force =     0.30734737   -0.41961120  -31.20604519
     atom   20 type  1   force =    -0.27986244   -0.46230940  -31.14567161
     atom   21 type  1   force =    -0.02567361   -0.11258078  -31.70726939
     atom   22 type  1   force =    -0.00381092   -0.09375781  -31.74573015
     atom   23 type  1   force =     0.10157210    0.25416827  -31.58231372
     atom   24 type  1   force =    -0.09736858    0.28047876  -31.58299321
     atom   25 type  1   force =     0.37508090    0.11710860  -31.39738979
     atom   26 type  1   force =     0.04083871    0.29213516  -30.47453398
     atom   27 type  1   force =    -0.42210706    0.14786937  -31.31497529
     atom   28 type  1   force =     4.60777250   -0.65926346  -98.62012349
     atom   29 type  1   force =    -3.80880602   -0.64298717  -97.75652788
     atom   30 type  1   force =    -0.35056075   -0.09956834 -104.10340513
     atom   31 type  1   force =     0.02622223   -2.89325623 -103.19715761
     atom   32 type  1   force =    -0.74452389   -0.72995191 -104.38705524
     atom   33 type  1   force =     0.69589233   -0.57242482 -104.42960976
     atom   34 type  1   force =     1.03049641    0.84714306 -104.24889091
     atom   35 type  1   force =    -0.02708688    3.55091054 -102.29924706
     atom   36 type  1   force =    -1.03589541    1.02457394 -104.25705595
     atom   37 type  2   force =    -2.19459792   -0.39796396  -52.02887477
     atom   38 type  3   force =     2.32024972    0.46957121  -87.26302411
     atom   39 type  4   force =    -1.27131810   -0.02207485  -15.28372508
     The core correction contribution to forces
     atom    1 type  1   force =    -0.00008120    0.00005717    0.00973845
     atom    2 type  1   force =     0.00008377   -0.00024042    0.01007188
     atom    3 type  1   force =     0.00023437    0.00006261    0.00969745
     atom    4 type  1   force =     0.00011034   -0.00006734    0.01018781
     atom    5 type  1   force =     0.00020189   -0.00002544    0.00995994
     atom    6 type  1   force =     0.00005036   -0.00008299    0.00977182
     atom    7 type  1   force =     0.00006173    0.00009780    0.01016436
     atom    8 type  1   force =     0.00037501    0.00031748    0.00994416
     atom    9 type  1   force =    -0.00049041    0.00005218    0.01015587
     atom   10 type  1   force =    -0.00023465    0.00022192   -0.00183776
     atom   11 type  1   force =     0.00003847    0.00012443   -0.00151210
     atom   12 type  1   force =     0.00012185    0.00005686   -0.00159136
     atom   13 type  1   force =    -0.00039060    0.00025874   -0.00181055
     atom   14 type  1   force =     0.00017096    0.00022369   -0.00189286
     atom   15 type  1   force =     0.00013823   -0.00004041   -0.00165837
     atom   16 type  1   force =    -0.00016682   -0.00008891   -0.00187287
     atom   17 type  1   force =    -0.00024578   -0.00018705   -0.00176009
     atom   18 type  1   force =     0.00012675   -0.00028013   -0.00179562
     atom   19 type  1   force =    -0.00013586    0.00023833    0.00123309
     atom   20 type  1   force =    -0.00007458    0.00063784   -0.00013851
     atom   21 type  1   force =     0.00048692    0.00020263    0.00181727
     atom   22 type  1   force =     0.00029128    0.00023340    0.00213602
     atom   23 type  1   force =    -0.00012896    0.00001182    0.00198777
     atom   24 type  1   force =     0.00039622   -0.00060877    0.00127182
     atom   25 type  1   force =     0.00056145   -0.00020127    0.00198132
     atom   26 type  1   force =    -0.00057576   -0.00044912    0.00069818
     atom   27 type  1   force =     0.00064864   -0.00025313    0.00079741
     atom   28 type  1   force =     0.01055397   -0.00052978   -0.00290843
     atom   29 type  1   force =    -0.01390155   -0.00248276    0.00870529
     atom   30 type  1   force =    -0.00617261   -0.00014701   -0.00700660
     atom   31 type  1   force =     0.00091638   -0.00684362   -0.00722544
     atom   32 type  1   force =    -0.00138370   -0.00408034   -0.00746108
     atom   33 type  1   force =     0.00035906   -0.00085204   -0.01027882
     atom   34 type  1   force =     0.00062445    0.00076004   -0.00944874
     atom   35 type  1   force =     0.00091936    0.00770040   -0.00609023
     atom   36 type  1   force =    -0.00179361    0.00499569   -0.00721263
     atom   37 type  2   force =    -0.00041301    0.00058159   -0.00159166
     atom   38 type  3   force =    -0.00658494   -0.00130212    0.01883581
     atom   39 type  4   force =     0.00000000    0.00000000    0.00000000
     The Hubbard contrib.    to forces
     atom    1 type  1   force =     0.00000000    0.00000000    0.00000000
     atom    2 type  1   force =     0.00000000    0.00000000    0.00000000
     atom    3 type  1   force =     0.00000000    0.00000000    0.00000000
     atom    4 type  1   force =     0.00000000    0.00000000    0.00000000
     atom    5 type  1   force =     0.00000000    0.00000000    0.00000000
     atom    6 type  1   force =     0.00000000    0.00000000    0.00000000
     atom    7 type  1   force =     0.00000000    0.00000000    0.00000000
     atom    8 type  1   force =     0.00000000    0.00000000    0.00000000
     atom    9 type  1   force =     0.00000000    0.00000000    0.00000000
     atom   10 type  1   force =     0.00000000    0.00000000    0.00000000
     atom   11 type  1   force =     0.00000000    0.00000000    0.00000000
     atom   12 type  1   force =     0.00000000    0.00000000    0.00000000
     atom   13 type  1   force =     0.00000000    0.00000000    0.00000000
     atom   14 type  1   force =     0.00000000    0.00000000    0.00000000
     atom   15 type  1   force =     0.00000000    0.00000000    0.00000000
     atom   16 type  1   force =     0.00000000    0.00000000    0.00000000
     atom   17 type  1   force =     0.00000000    0.00000000    0.00000000
     atom   18 type  1   force =     0.00000000    0.00000000    0.00000000
     atom   19 type  1   force =     0.00000000    0.00000000    0.00000000
     atom   20 type  1   force =     0.00000000    0.00000000    0.00000000
     atom   21 type  1   force =     0.00000000    0.00000000    0.00000000
     atom   22 type  1   force =     0.00000000    0.00000000    0.00000000
     atom   23 type  1   force =     0.00000000    0.00000000    0.00000000
     atom   24 type  1   force =     0.00000000    0.00000000    0.00000000
     atom   25 type  1   force =     0.00000000    0.00000000    0.00000000
     atom   26 type  1   force =     0.00000000    0.00000000    0.00000000
     atom   27 type  1   force =     0.00000000    0.00000000    0.00000000
     atom   28 type  1   force =     0.00000000    0.00000000    0.00000000
     atom   29 type  1   force =     0.00000000    0.00000000    0.00000000
     atom   30 type  1   force =     0.00000000    0.00000000    0.00000000
     atom   31 type  1   force =     0.00000000    0.00000000    0.00000000
     atom   32 type  1   force =     0.00000000    0.00000000    0.00000000
     atom   33 type  1   force =     0.00000000    0.00000000    0.00000000
     atom   34 type  1   force =     0.00000000    0.00000000    0.00000000
     atom   35 type  1   force =     0.00000000    0.00000000    0.00000000
     atom   36 type  1   force =     0.00000000    0.00000000    0.00000000
     atom   37 type  2   force =     0.00000000    0.00000000    0.00000000
     atom   38 type  3   force =     0.00000000    0.00000000    0.00000000
     atom   39 type  4   force =     0.00000000    0.00000000    0.00000000
     The SCF correction term to forces
     atom    1 type  1   force =     0.00000000   -0.00000000    0.00000000
     atom    2 type  1   force =     0.00000000   -0.00000000    0.00000000
     atom    3 type  1   force =    -0.00000000   -0.00000000    0.00000000
     atom    4 type  1   force =    -0.00000000    0.00000000    0.00000000
     atom    5 type  1   force =    -0.00000000    0.00000000    0.00000000
     atom    6 type  1   force =     0.00000000    0.00000000    0.00000000
     atom    7 type  1   force =    -0.00000000   -0.00000000    0.00000000
     atom    8 type  1   force =     0.00000000    0.00000000    0.00000000
     atom    9 type  1   force =     0.00000000   -0.00000000    0.00000000
     atom   10 type  1   force =    -0.00000000    0.00000000    0.00000000
     atom   11 type  1   force =     0.00000000    0.00000000    0.00000000
     atom   12 type  1   force =    -0.00000000   -0.00000000    0.00000000
     atom   13 type  1   force =     0.00000000    0.00000000    0.00000000
     atom   14 type  1   force =    -0.00000000   -0.00000000    0.00000000
     atom   15 type  1   force =     0.00000000   -0.00000000    0.00000000
     atom   16 type  1   force =    -0.00000000    0.00000000    0.00000000
     atom   17 type  1   force =     0.00000000    0.00000000    0.00000000
     atom   18 type  1   force =     0.00000000    0.00000000    0.00000000
     atom   19 type  1   force =     0.00000000   -0.00000000    0.00000000
     atom   20 type  1   force =    -0.00000000   -0.00000000    0.00000000
     atom   21 type  1   force =    -0.00000000   -0.00000000    0.00000000
     atom   22 type  1   force =    -0.00000000    0.00000000    0.00000000
     atom   23 type  1   force =    -0.00000000   -0.00000000    0.00000000
     atom   24 type  1   force =     0.00000000    0.00000000    0.00000000
     atom   25 type  1   force =    -0.00000000    0.00000000    0.00000000
     atom   26 type  1   force =     0.00000000    0.00000000    0.00000000
     atom   27 type  1   force =     0.00000000    0.00000000    0.00000000
     atom   28 type  1   force =    -0.00000000    0.00000000    0.00000000
     atom   29 type  1   force =     0.00000000    0.00000000    0.00000000
     atom   30 type  1   force =    -0.00000000   -0.00000000    0.00000000
     atom   31 type  1   force =    -0.00000000   -0.00000000    0.00000000
     atom   32 type  1   force =    -0.00000000   -0.00000000    0.00000000
     atom   33 type  1   force =     0.00000000   -0.00000000    0.00000000
     atom   34 type  1   force =    -0.00000000    0.00000000    0.00000000
     atom   35 type  1   force =     0.00000000    0.00000000    0.00000000
     atom   36 type  1   force =     0.00000000    0.00000000    0.00000000
     atom   37 type  2   force =    -0.00000295    0.00000538    0.00001184
     atom   38 type  3   force =     0.00000002    0.00000365    0.00000736
     atom   39 type  4   force =    -0.00000037   -0.00000006   -0.00000025

     Total force =     0.040557     Total SCF correction =     0.000016

     Writing all to output data dir ./pwscf.save/

     init_run     :     15.73s CPU     16.32s WALL (       1 calls)
     electrons    :   1000.98s CPU   1021.90s WALL (       1 calls)
     forces       :      3.72s CPU      3.81s WALL (       1 calls)

     Called by init_run:
     wfcinit      :      8.65s CPU      9.03s WALL (       1 calls)
     potinit      :      4.41s CPU      4.58s WALL (       1 calls)
     hinit0       :      0.84s CPU      0.86s WALL (       1 calls)

     Called by electrons:
     c_bands      :    846.16s CPU    862.93s WALL (      55 calls)
     sum_band     :    105.86s CPU    108.39s WALL (      55 calls)
     v_of_rho     :     10.19s CPU     10.71s WALL (      56 calls)
     newd         :      8.73s CPU      8.87s WALL (      56 calls)
     PAW_pot      :     15.70s CPU     15.99s WALL (      56 calls)
     mix_rho      :     17.24s CPU     17.77s WALL (      55 calls)
     vdW_kernel   :      1.10s CPU      1.12s WALL (       1 calls)

     Called by c_bands:
     init_us_2    :      9.75s CPU     10.09s WALL (    2912 calls)
     init_us_2:cp :      9.74s CPU     10.08s WALL (    2912 calls)
     cegterg      :    816.68s CPU    832.30s WALL (    1430 calls)

     Called by *egterg:
     cdiaghg      :    216.23s CPU    219.06s WALL (    4890 calls)
     h_psi        :    404.26s CPU    412.88s WALL (    4916 calls)
     s_psi        :     40.90s CPU     41.82s WALL (    4916 calls)
     g_psi        :      1.04s CPU      1.09s WALL (    3460 calls)

     Called by h_psi:
     h_psi:calbec :     56.00s CPU     57.57s WALL (    4916 calls)
     vloc_psi     :    303.81s CPU    309.73s WALL (    4916 calls)
     add_vuspsi   :     41.85s CPU     42.84s WALL (    4916 calls)

     General routines
     calbec       :     82.93s CPU     85.19s WALL (    6450 calls)
     fft          :      8.24s CPU      8.76s WALL (    5061 calls)
     ffts         :     11.41s CPU     11.75s WALL (   23552 calls)
     fftw         :    348.96s CPU    355.82s WALL ( 1479828 calls)
     interpolate  :      2.82s CPU      2.89s WALL (     112 calls)

     Parallel routines

     PWSCF        :  17m 5.78s CPU  17m33.57s WALL


   This run was terminated on:   9:39:53  17Dec2025            

=------------------------------------------------------------------------------=
   JOB DONE.
=------------------------------------------------------------------------------=
