
     Program PWSCF v.7.1 starts on 11Dec2025 at  5:46: 2 
        Git branch: heads/qe-7.1
        Last git commit: 48ba0178f8fede6d020eb786884699a9f063f55d-dirty
        Last git commit date: Fri Jan 27 14:22:33 2023 +0000
        Last git commit subject: Merge branch 'fix_hubbard' into 'develop'

     This program is part of the open-source Quantum ESPRESSO suite
     for quantum simulation of materials; please cite
         "P. Giannozzi et al., J. Phys.:Condens. Matter 21 395502 (2009);
         "P. Giannozzi et al., J. Phys.:Condens. Matter 29 465901 (2017);
         "P. Giannozzi et al., J. Chem. Phys. 152 154105 (2020);
          URL http://www.quantum-espresso.org", 
     in publications or presentations arising from this work. More details at
     http://www.quantum-espresso.org/quote

     Parallel version (MPI), running on    96 processors

     MPI processes distributed on     2 nodes
     54988 MiB available memory on the printing compute node when the environment starts

     Reading input from espresso.pwi
Warning: card &CELL ignored
Warning: card / ignored
Warning: card &FCP ignored
Warning: card / ignored
Warning: card &RISM ignored
Warning: card / ignored

     Current dimensions of program PWSCF are:
     Max number of different atomic species (ntypx) = 10
     Max number of k-points (npk) =  40000
     Max angular momentum in pseudopotentials (lmaxx) =  4
     file Co.pbe-n-kjpaw_psl.1.0.0.UPF: wavefunction(s)  4S 3D renormalized
     file C.pbe-n-kjpaw_psl.1.0.0.UPF: wavefunction(s)  2S 2P renormalized
     file O.pbe-nl-kjpaw_psl.1.0.0.UPF: wavefunction(s)  2S 2P renormalized
     file H.pbe-kjpaw_psl.1.0.0.UPF: wavefunction(s)  1S renormalized

     **************************************************************************
     Initializing libbeef V0.1.2 with the BEEF-vdW functional.
     Citation: Wellendorff et al., PRB 85, 235149 (2012).
     **************************************************************************


     IMPORTANT: XC functional enforced from input :
     Exchange-correlation= BEEF-VDW
                           (   1   4  43  14   2   0   0)
     Any further DFT definition will be discarded
     Please, verify this is what you really want


     R & G space division:  proc/nbgrp/npool/nimage =      96
     Subspace diagonalization in iterative solution of the eigenvalue problem:
     one sub-group per band group will be used
     custom distributed-memory algorithm (size of sub-group:  2*  2 procs)


     Parallelization info
     --------------------
     sticks:   dense  smooth     PW     G-vecs:    dense   smooth      PW
     Min          43      28      7                 7829     4248     595
     Max          44      29      8                 7845     4281     630
     Sum        4153    2773    757               752179   409445   59217

     Using Slab Decomposition



     bravais-lattice index     =            0
     lattice parameter (alat)  =      14.1729  a.u.
     unit-cell volume          =    8574.3059 (a.u.)^3
     number of atoms/cell      =           39
     number of atomic types    =            4
     number of electrons       =       335.00
     number of Kohn-Sham states=          202
     kinetic-energy cutoff     =      50.0000  Ry
     charge density cutoff     =     300.0000  Ry
     scf convergence threshold =      1.0E-08
     mixing beta               =       0.7000
     number of iterations used =            8  local-TF  mixing
     Exchange-correlation= BEEF-VDW
                           (   1   4  43  14   2   0   0)

     celldm(1)=  14.172946  celldm(2)=   0.000000  celldm(3)=   0.000000
     celldm(4)=   0.000000  celldm(5)=   0.000000  celldm(6)=   0.000000

     crystal axes: (cart. coord. in units of alat)
               a(1) = (   1.000000   0.000000   0.000000 )  
               a(2) = (   0.500000   0.866025   0.000000 )  
               a(3) = (   0.000000   0.000000   3.477667 )  

     reciprocal axes: (cart. coord. in units 2 pi/alat)
               b(1) = (  1.000000 -0.577350  0.000000 )  
               b(2) = (  0.000000  1.154701  0.000000 )  
               b(3) = (  0.000000  0.000000  0.287549 )  


     PseudoPot. # 1 for Co read from file:
     /users/kbadger1/espresso/pseudo/pslibrary.1.0.0/pbe/PSEUDOPOTENTIALS/Co.pbe-n-kjpaw_psl.1.0.0.UPF
     MD5 check sum: 88af6ec42553d4236c267fdfcb472151
     Pseudo is Projector augmented-wave + core cor, Zval =  9.0
     Generated using 'atomic' code by A. Dal Corso  v.7.0
     Shape of augmentation charge: PSQ
     Using radial grid of 1193 points,  6 beta functions with: 
                l(1) =   0
                l(2) =   0
                l(3) =   1
                l(4) =   1
                l(5) =   2
                l(6) =   2
     Q(r) pseudized with 0 coefficients 


     PseudoPot. # 2 for C  read from file:
     /users/kbadger1/espresso/pseudo/pslibrary.1.0.0/pbe/PSEUDOPOTENTIALS/C.pbe-n-kjpaw_psl.1.0.0.UPF
     MD5 check sum: 6408e75cdba28732cea38a4db8498ce4
     Pseudo is Projector augmented-wave + core cor, Zval =  4.0
     Generated using 'atomic' code by A. Dal Corso  v.7.0
     Shape of augmentation charge: PSQ
     Using radial grid of 1073 points,  4 beta functions with: 
                l(1) =   0
                l(2) =   0
                l(3) =   1
                l(4) =   1
     Q(r) pseudized with 0 coefficients 


     PseudoPot. # 3 for O  read from file:
     /users/kbadger1/espresso/pseudo/pslibrary.1.0.0/pbe/PSEUDOPOTENTIALS/O.pbe-nl-kjpaw_psl.1.0.0.UPF
     MD5 check sum: f0439fab3598ca4e468f064226030408
     Pseudo is Projector augmented-wave + core cor, Zval =  6.0
     Generated using 'atomic' code by A. Dal Corso  v.7.0
     Shape of augmentation charge: PSQ
     Using radial grid of 1095 points,  4 beta functions with: 
                l(1) =   0
                l(2) =   0
                l(3) =   1
                l(4) =   1
     Q(r) pseudized with 0 coefficients 


     PseudoPot. # 4 for H  read from file:
     /users/kbadger1/espresso/pseudo/pslibrary.1.0.0/pbe/PSEUDOPOTENTIALS/H.pbe-kjpaw_psl.1.0.0.UPF
     MD5 check sum: fe4c6fa958fa6d3815bf5d2419cbf1df
     Pseudo is Projector augmented-wave, Zval =  1.0
     Generated using 'atomic' code by A. Dal Corso  v.7.0
     Shape of augmentation charge: PSQ
     Using radial grid of  929 points,  2 beta functions with: 
                l(1) =   0
                l(2) =   0
     Q(r) pseudized with 0 coefficients 


     atomic species   valence    mass     pseudopotential
        Co             9.00    58.93319     Co( 1.00)
        C              4.00    12.01100     C ( 1.00)
        O              6.00    15.99900     O ( 1.00)
        H              1.00     1.00800     H ( 1.00)

     Starting magnetic structure 
     atomic species   magnetization
        Co           1.000
        C            1.000
        O            0.000
        H            0.000

     No symmetry found



   Cartesian axes

     site n.     atom                  positions (alat units)
         1           Co  tau(   1) = (   0.0000000   0.1924501   1.3333333  )
         2           Co  tau(   2) = (   0.3333333   0.1924501   1.3333333  )
         3           Co  tau(   3) = (   0.6666667   0.1924501   1.3333333  )
         4           Co  tau(   4) = (   0.1666667   0.4811252   1.3333333  )
         5           Co  tau(   5) = (   0.5000000   0.4811252   1.3333333  )
         6           Co  tau(   6) = (   0.8333333   0.4811252   1.3333333  )
         7           Co  tau(   7) = (   0.3333333   0.7698004   1.3333333  )
         8           Co  tau(   8) = (   0.6666667   0.7698004   1.3333333  )
         9           Co  tau(   9) = (   1.0000000   0.7698004   1.3333333  )
        10           Co  tau(  10) = (   0.0000000   0.0000000   1.6036667  )
        11           Co  tau(  11) = (   0.3333333   0.0000000   1.6036667  )
        12           Co  tau(  12) = (   0.6666667   0.0000000   1.6036667  )
        13           Co  tau(  13) = (   0.1666667   0.2886751   1.6036667  )
        14           Co  tau(  14) = (   0.5000000   0.2886751   1.6036667  )
        15           Co  tau(  15) = (   0.8333333   0.2886751   1.6036667  )
        16           Co  tau(  16) = (   0.3333333   0.5773503   1.6036667  )
        17           Co  tau(  17) = (   0.6666667   0.5773503   1.6036667  )
        18           Co  tau(  18) = (   1.0000000   0.5773503   1.6036667  )
        19           Co  tau(  19) = (   0.0000000   0.1924501   1.8740000  )
        20           Co  tau(  20) = (   0.3333333   0.1924501   1.8740000  )
        21           Co  tau(  21) = (   0.6666667   0.1924501   1.8740000  )
        22           Co  tau(  22) = (   0.1666667   0.4811252   1.8740000  )
        23           Co  tau(  23) = (   0.5000000   0.4811252   1.8740000  )
        24           Co  tau(  24) = (   0.8333333   0.4811252   1.8740000  )
        25           Co  tau(  25) = (   0.3333333   0.7698004   1.8740000  )
        26           Co  tau(  26) = (   0.6666667   0.7698004   1.8740000  )
        27           Co  tau(  27) = (   1.0000000   0.7698004   1.8740000  )
        28           Co  tau(  28) = (   0.0000000   0.0000000   2.1443333  )
        29           Co  tau(  29) = (   0.3333333   0.0000000   2.1443333  )
        30           Co  tau(  30) = (   0.6666667   0.0000000   2.1443333  )
        31           Co  tau(  31) = (   0.1666667   0.2886751   2.1443333  )
        32           Co  tau(  32) = (   0.5000000   0.2886751   2.1443333  )
        33           Co  tau(  33) = (   0.8333333   0.2886751   2.1443333  )
        34           Co  tau(  34) = (   0.3333333   0.5773503   2.1443333  )
        35           Co  tau(  35) = (   0.6666667   0.5773503   2.1443333  )
        36           Co  tau(  36) = (   1.0000000   0.5773503   2.1443333  )
        37           C   tau(  37) = (   0.1684162  -0.0441028   2.3331232  )
        38           O   tau(  38) = (   0.1532884  -0.0557899   2.4904940  )
        39           H   tau(  39) = (   0.4867808   0.0526005   2.2878211  )

     number of k points=    13  Marzari-Vanderbilt smearing, width (Ry)=  0.0010
                       cart. coord. in units 2pi/alat
        k(    1) = (   0.0000000   0.0000000   0.0000000), wk =   0.0400000
        k(    2) = (   0.0000000   0.2309401   0.0000000), wk =   0.0800000
        k(    3) = (   0.0000000   0.4618802   0.0000000), wk =   0.0800000
        k(    4) = (   0.2000000  -0.1154701   0.0000000), wk =   0.0800000
        k(    5) = (   0.2000000   0.1154701   0.0000000), wk =   0.0800000
        k(    6) = (   0.2000000   0.3464102   0.0000000), wk =   0.0800000
        k(    7) = (   0.2000000  -0.5773503   0.0000000), wk =   0.0800000
        k(    8) = (   0.2000000  -0.3464102   0.0000000), wk =   0.0800000
        k(    9) = (   0.4000000  -0.2309401   0.0000000), wk =   0.0800000
        k(   10) = (   0.4000000   0.0000000   0.0000000), wk =   0.0800000
        k(   11) = (   0.4000000   0.2309401   0.0000000), wk =   0.0800000
        k(   12) = (   0.4000000  -0.6928203   0.0000000), wk =   0.0800000
        k(   13) = (   0.4000000  -0.4618802   0.0000000), wk =   0.0800000

     Dense  grid:   752179 G-vectors     FFT dimensions: (  80,  80, 288)

     Smooth grid:   409445 G-vectors     FFT dimensions: (  64,  64, 225)

     Estimated max dynamical RAM per process >      99.02 MB

     Estimated total dynamical RAM >       9.28 GB
     Generating pointlists ...
     new r_m :   0.0893 (alat units)  1.2661 (a.u.) for type    1
     new r_m :   0.0654 (alat units)  0.9268 (a.u.) for type    2
     new r_m :   0.0654 (alat units)  0.9268 (a.u.) for type    3
     new r_m :   0.0893 (alat units)  1.2661 (a.u.) for type    4

     Initial potential from superposition of free atoms

     starting charge     334.9897, renormalised to     335.0000

     negative rho (up, down):  3.047E-03 4.516E-04


     %%%%%%%%%%%%%%%%%%%%%%%%%%%%%%%%%%%%%%%%%%%%%%%%%%%%%%%%%%%%%%%%%%%%%%%%
     %                                                                      %
     % You are using vdW-DF, which was implemented by the Thonhauser group. %
     % Please cite the following two papers that made this development      %
     % possible and the two reviews that describe the various versions:     %
     %                                                                      %
     %   T. Thonhauser et al., PRL 115, 136402 (2015).                      %
     %   T. Thonhauser et al., PRB 76, 125112 (2007).                       %
     %   K. Berland et al., Rep. Prog. Phys. 78, 066501 (2015).             %
     %   D.C. Langreth et al., J. Phys.: Condens. Matter 21, 084203 (2009). %
     %                                                                      %
     % If you are calculating stress with vdW-DF, please also cite:         %
     %                                                                      %
     %   R. Sabatini et al., J. Phys.: Condens. Matter 24, 424209 (2012).   %
     %   C.M. Frostenson et al., Electr. Struct. 4, 014001 (2022).          %
     %                                                                      %
     %%%%%%%%%%%%%%%%%%%%%%%%%%%%%%%%%%%%%%%%%%%%%%%%%%%%%%%%%%%%%%%%%%%%%%%%

     %%%%%%%%%%%%%%%%%%%%%%%%%%%%%%%%%%%%%%%%%%%%%%%%%%%%%%%%%%%%%%%%%%%%%%%%
     %                                                                      %
     %  vdW-DF NEWS:                                                        %
     %                                                                      %
     %  * vdW-DF3 is now available. DOI: 10.1021/acs.jctc.0c00471           %
     %    use with input_dft = 'vdW-DF3-opt1' or 'vdW-DF3-opt2'             %
     %                                                                      %
     %  * Unscreened and range-separated hybrid vdW-DF-cx functionals       %
     %    DOI: 10.1063/1.4986522 and 10.1088/1361-648X/ac2ad2               %
     %    use with input_dft = 'vdW-DF-cx0'    and 'vdW-DF-ahcx'            %
     %  * Unscreened and range-separated hybrid vdW-DF2-b86r functionals    %
     %    DOI: 10.1063/1.4986522 and DOI: 10.1103/PhysRevX.12.041003        %
     %    use with input_dft = 'vdW-DF2-br0' and 'vdW-DF2-ahbr'             %
     %                                                                      %
     %%%%%%%%%%%%%%%%%%%%%%%%%%%%%%%%%%%%%%%%%%%%%%%%%%%%%%%%%%%%%%%%%%%%%%%%


     Starting wfcs are  333 randomized atomic wfcs
     Checking if some PAW data can be deallocated... 

     total cpu time spent up to now is       12.2 secs

     per-process dynamical memory:   231.0 Mb

     Self-consistent Calculation

     iteration #  1     ecut=    50.00 Ry     beta= 0.70
     Davidson diagonalization with overlap
     ethr =  1.00E-02,  avg # of iterations =  2.0

     negative rho (up, down):  3.348E-05 8.279E-08

     total cpu time spent up to now is       30.0 secs

     total energy              =   -6053.11949513 Ry
     estimated scf accuracy    <      39.09928142 Ry

     total magnetization       =    69.00 Bohr mag/cell
     absolute magnetization    =    81.21 Bohr mag/cell

     iteration #  2     ecut=    50.00 Ry     beta= 0.70
     Davidson diagonalization with overlap
     ethr =  1.00E-02,  avg # of iterations =  1.0

     negative rho (up, down):  5.276E-06 3.758E-08

     total cpu time spent up to now is       43.9 secs

     total energy              =   -6052.64962788 Ry
     estimated scf accuracy    <      24.44695729 Ry

     total magnetization       =    69.01 Bohr mag/cell
     absolute magnetization    =    76.81 Bohr mag/cell

     iteration #  3     ecut=    50.00 Ry     beta= 0.70
     Davidson diagonalization with overlap
     ethr =  7.30E-03,  avg # of iterations =  1.3

     negative rho (up, down):  3.085E-08 0.000E+00

     total cpu time spent up to now is       57.1 secs

     total energy              =   -6055.19459484 Ry
     estimated scf accuracy    <      85.31967541 Ry

     total magnetization       =    66.12 Bohr mag/cell
     absolute magnetization    =    73.56 Bohr mag/cell

     iteration #  4     ecut=    50.00 Ry     beta= 0.70
     Davidson diagonalization with overlap
     ethr =  7.30E-03,  avg # of iterations =  1.0

     total cpu time spent up to now is       70.8 secs

     total energy              =   -6056.45705091 Ry
     estimated scf accuracy    <       5.52003995 Ry

     total magnetization       =    60.42 Bohr mag/cell
     absolute magnetization    =    70.20 Bohr mag/cell

     iteration #  5     ecut=    50.00 Ry     beta= 0.70
     Davidson diagonalization with overlap
     ethr =  1.65E-03,  avg # of iterations =  1.2

     total cpu time spent up to now is       84.4 secs

     total energy              =   -6056.44676444 Ry
     estimated scf accuracy    <       2.14409243 Ry

     total magnetization       =    60.38 Bohr mag/cell
     absolute magnetization    =    69.73 Bohr mag/cell

     iteration #  6     ecut=    50.00 Ry     beta= 0.70
     Davidson diagonalization with overlap
     ethr =  6.40E-04,  avg # of iterations =  1.7

     total cpu time spent up to now is       98.8 secs

     total energy              =   -6056.55201499 Ry
     estimated scf accuracy    <       0.82402120 Ry

     total magnetization       =    59.88 Bohr mag/cell
     absolute magnetization    =    68.98 Bohr mag/cell

     iteration #  7     ecut=    50.00 Ry     beta= 0.70
     Davidson diagonalization with overlap
     ethr =  2.46E-04,  avg # of iterations =  4.5

     total cpu time spent up to now is      115.9 secs

     total energy              =   -6056.57636252 Ry
     estimated scf accuracy    <       0.62155789 Ry

     total magnetization       =    59.89 Bohr mag/cell
     absolute magnetization    =    68.69 Bohr mag/cell

     iteration #  8     ecut=    50.00 Ry     beta= 0.70
     Davidson diagonalization with overlap
     ethr =  1.86E-04,  avg # of iterations =  1.9

     total cpu time spent up to now is      130.3 secs

     total energy              =   -6056.60279694 Ry
     estimated scf accuracy    <       0.16373868 Ry

     total magnetization       =    59.97 Bohr mag/cell
     absolute magnetization    =    68.58 Bohr mag/cell

     iteration #  9     ecut=    50.00 Ry     beta= 0.70
     Davidson diagonalization with overlap
     c_bands:  1 eigenvalues not converged
     c_bands:  1 eigenvalues not converged
     c_bands:  1 eigenvalues not converged
     ethr =  4.89E-05,  avg # of iterations =  8.7

     total cpu time spent up to now is      152.9 secs

     total energy              =   -6056.60919711 Ry
     estimated scf accuracy    <       0.12422150 Ry

     total magnetization       =    60.28 Bohr mag/cell
     absolute magnetization    =    68.52 Bohr mag/cell

     iteration # 10     ecut=    50.00 Ry     beta= 0.70
     Davidson diagonalization with overlap
     ethr =  3.71E-05,  avg # of iterations =  3.3

     total cpu time spent up to now is      168.7 secs

     total energy              =   -6056.61507433 Ry
     estimated scf accuracy    <       0.14603694 Ry

     total magnetization       =    60.59 Bohr mag/cell
     absolute magnetization    =    68.56 Bohr mag/cell

     iteration # 11     ecut=    50.00 Ry     beta= 0.70
     Davidson diagonalization with overlap
     ethr =  3.71E-05,  avg # of iterations =  1.5

     total cpu time spent up to now is      183.2 secs

     total energy              =   -6056.61058190 Ry
     estimated scf accuracy    <       0.10309456 Ry

     total magnetization       =    60.52 Bohr mag/cell
     absolute magnetization    =    68.44 Bohr mag/cell

     iteration # 12     ecut=    50.00 Ry     beta= 0.70
     Davidson diagonalization with overlap
     ethr =  3.08E-05,  avg # of iterations =  1.9

     total cpu time spent up to now is      197.3 secs

     total energy              =   -6056.61192932 Ry
     estimated scf accuracy    <       0.09314064 Ry

     total magnetization       =    60.39 Bohr mag/cell
     absolute magnetization    =    68.24 Bohr mag/cell

     iteration # 13     ecut=    50.00 Ry     beta= 0.70
     Davidson diagonalization with overlap
     ethr =  2.78E-05,  avg # of iterations =  1.3

     total cpu time spent up to now is      210.8 secs

     total energy              =   -6056.61203125 Ry
     estimated scf accuracy    <       0.10326400 Ry

     total magnetization       =    60.52 Bohr mag/cell
     absolute magnetization    =    68.28 Bohr mag/cell

     iteration # 14     ecut=    50.00 Ry     beta= 0.70
     Davidson diagonalization with overlap
     ethr =  2.78E-05,  avg # of iterations =  1.1

     negative rho (up, down):  2.669E-03 1.687E-03

     total cpu time spent up to now is      224.2 secs

     total energy              =   -6056.60619526 Ry
     estimated scf accuracy    <       0.07958254 Ry

     total magnetization       =    60.49 Bohr mag/cell
     absolute magnetization    =    68.22 Bohr mag/cell

     iteration # 15     ecut=    50.00 Ry     beta= 0.70
     Davidson diagonalization with overlap
     ethr =  2.38E-05,  avg # of iterations =  1.4

     negative rho (up, down):  1.418E-02 1.257E-02

     total cpu time spent up to now is      238.8 secs

     total energy              =   -6056.60270355 Ry
     estimated scf accuracy    <       0.04297293 Ry

     total magnetization       =    60.47 Bohr mag/cell
     absolute magnetization    =    68.21 Bohr mag/cell

     iteration # 16     ecut=    50.00 Ry     beta= 0.70
     Davidson diagonalization with overlap
     c_bands:  1 eigenvalues not converged
     c_bands:  1 eigenvalues not converged
     c_bands:  3 eigenvalues not converged
     ethr =  1.28E-05,  avg # of iterations =  5.2

     negative rho (up, down):  1.672E-02 1.509E-02

     total cpu time spent up to now is      256.0 secs

     total energy              =   -6056.60310951 Ry
     estimated scf accuracy    <       0.02386245 Ry

     total magnetization       =    60.39 Bohr mag/cell
     absolute magnetization    =    68.11 Bohr mag/cell

     iteration # 17     ecut=    50.00 Ry     beta= 0.70
     Davidson diagonalization with overlap
     c_bands:  4 eigenvalues not converged
     c_bands:  2 eigenvalues not converged
     ethr =  7.12E-06,  avg # of iterations =  5.6

     negative rho (up, down):  1.247E-02 1.107E-02

     total cpu time spent up to now is      274.3 secs

     total energy              =   -6056.60298178 Ry
     estimated scf accuracy    <       0.01845288 Ry

     total magnetization       =    60.45 Bohr mag/cell
     absolute magnetization    =    68.12 Bohr mag/cell

     iteration # 18     ecut=    50.00 Ry     beta= 0.70
     Davidson diagonalization with overlap
     c_bands:  2 eigenvalues not converged
     ethr =  5.51E-06,  avg # of iterations =  2.8

     negative rho (up, down):  1.221E-02 1.080E-02

     total cpu time spent up to now is      289.5 secs

     total energy              =   -6056.60266871 Ry
     estimated scf accuracy    <       0.01221052 Ry

     total magnetization       =    60.46 Bohr mag/cell
     absolute magnetization    =    68.12 Bohr mag/cell

     iteration # 19     ecut=    50.00 Ry     beta= 0.70
     Davidson diagonalization with overlap
     c_bands:  1 eigenvalues not converged
     c_bands:  2 eigenvalues not converged
     c_bands:  1 eigenvalues not converged
     c_bands:  1 eigenvalues not converged
     c_bands:  1 eigenvalues not converged
     c_bands:  2 eigenvalues not converged
     ethr =  3.64E-06,  avg # of iterations =  8.1

     negative rho (up, down):  1.201E-02 1.072E-02

     total cpu time spent up to now is      310.1 secs

     total energy              =   -6056.60184186 Ry
     estimated scf accuracy    <       0.01818936 Ry

     total magnetization       =    60.49 Bohr mag/cell
     absolute magnetization    =    68.12 Bohr mag/cell

     iteration # 20     ecut=    50.00 Ry     beta= 0.70
     Davidson diagonalization with overlap
     ethr =  3.64E-06,  avg # of iterations =  2.4

     negative rho (up, down):  1.419E-02 1.332E-02

     total cpu time spent up to now is      324.4 secs

     total energy              =   -6056.59990787 Ry
     estimated scf accuracy    <       0.01015223 Ry

     total magnetization       =    60.46 Bohr mag/cell
     absolute magnetization    =    68.09 Bohr mag/cell

     iteration # 21     ecut=    50.00 Ry     beta= 0.70
     Davidson diagonalization with overlap
     ethr =  3.03E-06,  avg # of iterations =  2.0

     negative rho (up, down):  1.221E-02 1.142E-02

     total cpu time spent up to now is      339.3 secs

     total energy              =   -6056.60011666 Ry
     estimated scf accuracy    <       0.00926289 Ry

     total magnetization       =    60.51 Bohr mag/cell
     absolute magnetization    =    68.09 Bohr mag/cell

     iteration # 22     ecut=    50.00 Ry     beta= 0.70
     Davidson diagonalization with overlap
     ethr =  2.77E-06,  avg # of iterations =  1.2

     negative rho (up, down):  1.551E-02 1.468E-02

     total cpu time spent up to now is      352.6 secs

     total energy              =   -6056.60040781 Ry
     estimated scf accuracy    <       0.00609030 Ry

     total magnetization       =    60.51 Bohr mag/cell
     absolute magnetization    =    68.09 Bohr mag/cell

     iteration # 23     ecut=    50.00 Ry     beta= 0.70
     Davidson diagonalization with overlap
     ethr =  1.82E-06,  avg # of iterations =  1.6

     negative rho (up, down):  1.176E-02 1.100E-02

     total cpu time spent up to now is      367.6 secs

     total energy              =   -6056.60033369 Ry
     estimated scf accuracy    <       0.00227611 Ry

     total magnetization       =    60.50 Bohr mag/cell
     absolute magnetization    =    68.09 Bohr mag/cell

     iteration # 24     ecut=    50.00 Ry     beta= 0.70
     Davidson diagonalization with overlap
     ethr =  6.79E-07,  avg # of iterations =  3.4

     negative rho (up, down):  7.725E-03 6.922E-03

     total cpu time spent up to now is      383.2 secs

     total energy              =   -6056.60009792 Ry
     estimated scf accuracy    <       0.00414202 Ry

     total magnetization       =    60.52 Bohr mag/cell
     absolute magnetization    =    68.10 Bohr mag/cell

     iteration # 25     ecut=    50.00 Ry     beta= 0.70
     Davidson diagonalization with overlap
     ethr =  6.79E-07,  avg # of iterations =  2.0

     negative rho (up, down):  7.713E-03 7.033E-03

     total cpu time spent up to now is      398.1 secs

     total energy              =   -6056.60056649 Ry
     estimated scf accuracy    <       0.00166338 Ry

     total magnetization       =    60.51 Bohr mag/cell
     absolute magnetization    =    68.11 Bohr mag/cell

     iteration # 26     ecut=    50.00 Ry     beta= 0.70
     Davidson diagonalization with overlap
     ethr =  4.97E-07,  avg # of iterations =  1.6

     negative rho (up, down):  6.790E-03 6.100E-03

     total cpu time spent up to now is      412.0 secs

     total energy              =   -6056.60058421 Ry
     estimated scf accuracy    <       0.00149233 Ry

     total magnetization       =    60.52 Bohr mag/cell
     absolute magnetization    =    68.11 Bohr mag/cell

     iteration # 27     ecut=    50.00 Ry     beta= 0.70
     Davidson diagonalization with overlap
     ethr =  4.45E-07,  avg # of iterations =  1.1

     negative rho (up, down):  5.143E-03 4.415E-03

     total cpu time spent up to now is      426.1 secs

     total energy              =   -6056.60055203 Ry
     estimated scf accuracy    <       0.00032904 Ry

     total magnetization       =    60.52 Bohr mag/cell
     absolute magnetization    =    68.11 Bohr mag/cell

     iteration # 28     ecut=    50.00 Ry     beta= 0.70
     Davidson diagonalization with overlap
     c_bands:  1 eigenvalues not converged
     ethr =  9.82E-08,  avg # of iterations =  5.3

     negative rho (up, down):  4.591E-03 3.788E-03

     total cpu time spent up to now is      444.3 secs

     total energy              =   -6056.60067906 Ry
     estimated scf accuracy    <       0.00042663 Ry

     total magnetization       =    60.51 Bohr mag/cell
     absolute magnetization    =    68.10 Bohr mag/cell

     iteration # 29     ecut=    50.00 Ry     beta= 0.70
     Davidson diagonalization with overlap
     ethr =  9.82E-08,  avg # of iterations =  1.7

     negative rho (up, down):  3.883E-03 3.056E-03

     total cpu time spent up to now is      458.7 secs

     total energy              =   -6056.60064805 Ry
     estimated scf accuracy    <       0.00019592 Ry

     total magnetization       =    60.52 Bohr mag/cell
     absolute magnetization    =    68.10 Bohr mag/cell

     iteration # 30     ecut=    50.00 Ry     beta= 0.70
     Davidson diagonalization with overlap
     ethr =  5.85E-08,  avg # of iterations =  2.0

     negative rho (up, down):  3.561E-03 2.547E-03

     total cpu time spent up to now is      472.8 secs

     total energy              =   -6056.60071662 Ry
     estimated scf accuracy    <       0.00016607 Ry

     total magnetization       =    60.52 Bohr mag/cell
     absolute magnetization    =    68.10 Bohr mag/cell

     iteration # 31     ecut=    50.00 Ry     beta= 0.70
     Davidson diagonalization with overlap
     ethr =  4.96E-08,  avg # of iterations =  1.8

     negative rho (up, down):  3.210E-03 2.116E-03

     total cpu time spent up to now is      487.8 secs

     total energy              =   -6056.60072530 Ry
     estimated scf accuracy    <       0.00003475 Ry

     total magnetization       =    60.52 Bohr mag/cell
     absolute magnetization    =    68.10 Bohr mag/cell

     iteration # 32     ecut=    50.00 Ry     beta= 0.70
     Davidson diagonalization with overlap
     ethr =  1.04E-08,  avg # of iterations =  6.4

     negative rho (up, down):  2.936E-03 1.854E-03

     total cpu time spent up to now is      508.6 secs

     total energy              =   -6056.60073049 Ry
     estimated scf accuracy    <       0.00004482 Ry

     total magnetization       =    60.52 Bohr mag/cell
     absolute magnetization    =    68.10 Bohr mag/cell

     iteration # 33     ecut=    50.00 Ry     beta= 0.70
     Davidson diagonalization with overlap
     ethr =  1.04E-08,  avg # of iterations =  2.0

     negative rho (up, down):  2.942E-03 1.900E-03

     total cpu time spent up to now is      523.1 secs

     total energy              =   -6056.60073328 Ry
     estimated scf accuracy    <       0.00005270 Ry

     total magnetization       =    60.52 Bohr mag/cell
     absolute magnetization    =    68.09 Bohr mag/cell

     iteration # 34     ecut=    50.00 Ry     beta= 0.70
     Davidson diagonalization with overlap
     ethr =  1.04E-08,  avg # of iterations =  1.3

     negative rho (up, down):  2.674E-03 1.611E-03

     total cpu time spent up to now is      536.6 secs

     total energy              =   -6056.60073374 Ry
     estimated scf accuracy    <       0.00001240 Ry

     total magnetization       =    60.52 Bohr mag/cell
     absolute magnetization    =    68.09 Bohr mag/cell

     iteration # 35     ecut=    50.00 Ry     beta= 0.70
     Davidson diagonalization with overlap
     ethr =  3.70E-09,  avg # of iterations =  3.8

     negative rho (up, down):  2.728E-03 1.668E-03

     total cpu time spent up to now is      554.0 secs

     total energy              =   -6056.60073448 Ry
     estimated scf accuracy    <       0.00002413 Ry

     total magnetization       =    60.52 Bohr mag/cell
     absolute magnetization    =    68.09 Bohr mag/cell

     iteration # 36     ecut=    50.00 Ry     beta= 0.70
     Davidson diagonalization with overlap
     ethr =  3.70E-09,  avg # of iterations =  1.3

     negative rho (up, down):  2.665E-03 1.634E-03

     total cpu time spent up to now is      567.1 secs

     total energy              =   -6056.60073422 Ry
     estimated scf accuracy    <       0.00001475 Ry

     total magnetization       =    60.52 Bohr mag/cell
     absolute magnetization    =    68.09 Bohr mag/cell

     iteration # 37     ecut=    50.00 Ry     beta= 0.70
     Davidson diagonalization with overlap
     ethr =  3.70E-09,  avg # of iterations =  1.7

     negative rho (up, down):  2.570E-03 1.508E-03

     total cpu time spent up to now is      581.6 secs

     total energy              =   -6056.60073400 Ry
     estimated scf accuracy    <       0.00000683 Ry

     total magnetization       =    60.52 Bohr mag/cell
     absolute magnetization    =    68.09 Bohr mag/cell

     iteration # 38     ecut=    50.00 Ry     beta= 0.70
     Davidson diagonalization with overlap
     ethr =  2.04E-09,  avg # of iterations =  1.6

     negative rho (up, down):  2.454E-03 1.360E-03

     total cpu time spent up to now is      595.2 secs

     total energy              =   -6056.60073377 Ry
     estimated scf accuracy    <       0.00000929 Ry

     total magnetization       =    60.52 Bohr mag/cell
     absolute magnetization    =    68.09 Bohr mag/cell

     iteration # 39     ecut=    50.00 Ry     beta= 0.70
     Davidson diagonalization with overlap
     ethr =  2.04E-09,  avg # of iterations =  1.3

     negative rho (up, down):  2.359E-03 1.266E-03

     total cpu time spent up to now is      609.9 secs

     total energy              =   -6056.60073390 Ry
     estimated scf accuracy    <       0.00000396 Ry

     total magnetization       =    60.52 Bohr mag/cell
     absolute magnetization    =    68.09 Bohr mag/cell

     iteration # 40     ecut=    50.00 Ry     beta= 0.70
     Davidson diagonalization with overlap
     ethr =  1.18E-09,  avg # of iterations =  2.0

     negative rho (up, down):  2.274E-03 1.188E-03

     total cpu time spent up to now is      624.1 secs

     total energy              =   -6056.60073388 Ry
     estimated scf accuracy    <       0.00000189 Ry

     total magnetization       =    60.52 Bohr mag/cell
     absolute magnetization    =    68.09 Bohr mag/cell

     iteration # 41     ecut=    50.00 Ry     beta= 0.70
     Davidson diagonalization with overlap
     ethr =  5.64E-10,  avg # of iterations =  3.0

     negative rho (up, down):  2.311E-03 1.222E-03

     total cpu time spent up to now is      640.2 secs

     total energy              =   -6056.60073401 Ry
     estimated scf accuracy    <       0.00000271 Ry

     total magnetization       =    60.52 Bohr mag/cell
     absolute magnetization    =    68.09 Bohr mag/cell

     iteration # 42     ecut=    50.00 Ry     beta= 0.70
     Davidson diagonalization with overlap
     ethr =  5.64E-10,  avg # of iterations =  1.3

     negative rho (up, down):  2.316E-03 1.227E-03

     total cpu time spent up to now is      653.6 secs

     total energy              =   -6056.60073411 Ry
     estimated scf accuracy    <       0.00000044 Ry

     total magnetization       =    60.52 Bohr mag/cell
     absolute magnetization    =    68.09 Bohr mag/cell

     iteration # 43     ecut=    50.00 Ry     beta= 0.70
     Davidson diagonalization with overlap
     c_bands:  1 eigenvalues not converged
     ethr =  1.31E-10,  avg # of iterations =  5.8

     negative rho (up, down):  2.272E-03 1.182E-03

     total cpu time spent up to now is      673.9 secs

     total energy              =   -6056.60073407 Ry
     estimated scf accuracy    <       0.00000116 Ry

     total magnetization       =    60.52 Bohr mag/cell
     absolute magnetization    =    68.09 Bohr mag/cell

     iteration # 44     ecut=    50.00 Ry     beta= 0.70
     Davidson diagonalization with overlap
     ethr =  1.31E-10,  avg # of iterations =  1.9

     negative rho (up, down):  2.282E-03 1.192E-03

     total cpu time spent up to now is      688.7 secs

     total energy              =   -6056.60073413 Ry
     estimated scf accuracy    <       0.00000018 Ry

     total magnetization       =    60.52 Bohr mag/cell
     absolute magnetization    =    68.09 Bohr mag/cell

     iteration # 45     ecut=    50.00 Ry     beta= 0.70
     Davidson diagonalization with overlap
     ethr =  5.30E-11,  avg # of iterations =  2.3

     negative rho (up, down):  2.270E-03 1.181E-03

     total cpu time spent up to now is      703.5 secs

     total energy              =   -6056.60073413 Ry
     estimated scf accuracy    <       0.00000010 Ry

     total magnetization       =    60.52 Bohr mag/cell
     absolute magnetization    =    68.09 Bohr mag/cell

     iteration # 46     ecut=    50.00 Ry     beta= 0.70
     Davidson diagonalization with overlap
     ethr =  3.02E-11,  avg # of iterations =  2.8

     negative rho (up, down):  2.261E-03 1.173E-03

     total cpu time spent up to now is      719.4 secs

     total energy              =   -6056.60073413 Ry
     estimated scf accuracy    <       0.00000002 Ry

     total magnetization       =    60.52 Bohr mag/cell
     absolute magnetization    =    68.09 Bohr mag/cell

     iteration # 47     ecut=    50.00 Ry     beta= 0.70
     Davidson diagonalization with overlap
     ethr =  6.17E-12,  avg # of iterations =  8.0

     negative rho (up, down):  2.261E-03 1.172E-03

     total cpu time spent up to now is      743.6 secs

     total energy              =   -6056.60073413 Ry
     estimated scf accuracy    <       0.00000003 Ry

     total magnetization       =    60.52 Bohr mag/cell
     absolute magnetization    =    68.09 Bohr mag/cell

     iteration # 48     ecut=    50.00 Ry     beta= 0.70
     Davidson diagonalization with overlap
     ethr =  6.17E-12,  avg # of iterations =  1.1

     negative rho (up, down):  2.261E-03 1.173E-03

     total cpu time spent up to now is      757.4 secs

     total energy              =   -6056.60073414 Ry
     estimated scf accuracy    <       0.00000002 Ry

     total magnetization       =    60.52 Bohr mag/cell
     absolute magnetization    =    68.09 Bohr mag/cell

     iteration # 49     ecut=    50.00 Ry     beta= 0.70
     Davidson diagonalization with overlap
     ethr =  5.40E-12,  avg # of iterations =  1.3

     negative rho (up, down):  2.259E-03 1.171E-03

     total cpu time spent up to now is      771.3 secs

     total energy              =   -6056.60073414 Ry
     estimated scf accuracy    <       0.00000002 Ry

     total magnetization       =    60.52 Bohr mag/cell
     absolute magnetization    =    68.09 Bohr mag/cell

     iteration # 50     ecut=    50.00 Ry     beta= 0.70
     Davidson diagonalization with overlap
     ethr =  5.40E-12,  avg # of iterations =  1.0

     negative rho (up, down):  2.254E-03 1.166E-03

     total cpu time spent up to now is      785.7 secs

     total energy              =   -6056.60073413 Ry
     estimated scf accuracy    <       0.00000002 Ry

     total magnetization       =    60.52 Bohr mag/cell
     absolute magnetization    =    68.09 Bohr mag/cell

     iteration # 51     ecut=    50.00 Ry     beta= 0.70
     Davidson diagonalization with overlap
     ethr =  4.48E-12,  avg # of iterations =  1.2

     negative rho (up, down):  2.251E-03 1.163E-03

     total cpu time spent up to now is      799.5 secs

     total energy              =   -6056.60073413 Ry
     estimated scf accuracy    <       0.00000001 Ry

     total magnetization       =    60.52 Bohr mag/cell
     absolute magnetization    =    68.09 Bohr mag/cell

     iteration # 52     ecut=    50.00 Ry     beta= 0.70
     Davidson diagonalization with overlap
     ethr =  3.10E-12,  avg # of iterations =  1.0

     negative rho (up, down):  2.246E-03 1.158E-03

     Magnetic moment per site  (integrated on atomic sphere of radius R)
     atom   1 (R=0.089)  charge=  5.6196  magn=  1.6414
     atom   2 (R=0.089)  charge=  5.6187  magn=  1.6358
     atom   3 (R=0.089)  charge=  5.6181  magn=  1.6451
     atom   4 (R=0.089)  charge=  5.6180  magn=  1.6508
     atom   5 (R=0.089)  charge=  5.6184  magn=  1.6449
     atom   6 (R=0.089)  charge=  5.6183  magn=  1.6434
     atom   7 (R=0.089)  charge=  5.6194  magn=  1.6437
     atom   8 (R=0.089)  charge=  5.6204  magn=  1.6349
     atom   9 (R=0.089)  charge=  5.6183  magn=  1.6413
     atom  10 (R=0.089)  charge=  5.6163  magn=  1.5805
     atom  11 (R=0.089)  charge=  5.6155  magn=  1.5759
     atom  12 (R=0.089)  charge=  5.6153  magn=  1.5862
     atom  13 (R=0.089)  charge=  5.6145  magn=  1.5892
     atom  14 (R=0.089)  charge=  5.6142  magn=  1.5852
     atom  15 (R=0.089)  charge=  5.6152  magn=  1.5839
     atom  16 (R=0.089)  charge=  5.6148  magn=  1.5782
     atom  17 (R=0.089)  charge=  5.6151  magn=  1.5843
     atom  18 (R=0.089)  charge=  5.6141  magn=  1.5816
     atom  19 (R=0.089)  charge=  5.6159  magn=  1.5696
     atom  20 (R=0.089)  charge=  5.6146  magn=  1.5772
     atom  21 (R=0.089)  charge=  5.6133  magn=  1.6021
     atom  22 (R=0.089)  charge=  5.6141  magn=  1.5767
     atom  23 (R=0.089)  charge=  5.6142  magn=  1.5615
     atom  24 (R=0.089)  charge=  5.6140  magn=  1.5761
     atom  25 (R=0.089)  charge=  5.6152  magn=  1.5470
     atom  26 (R=0.089)  charge=  5.6141  magn=  1.5912
     atom  27 (R=0.089)  charge=  5.6143  magn=  1.5730
     atom  28 (R=0.089)  charge=  5.6296  magn=  1.2796
     atom  29 (R=0.089)  charge=  5.6290  magn=  0.9764
     atom  30 (R=0.089)  charge=  5.6163  magn=  1.5454
     atom  31 (R=0.089)  charge=  5.6199  magn=  1.6723
     atom  32 (R=0.089)  charge=  5.6183  magn=  1.6297
     atom  33 (R=0.089)  charge=  5.6168  magn=  1.6655
     atom  34 (R=0.089)  charge=  5.6167  magn=  1.6778
     atom  35 (R=0.089)  charge=  5.6236  magn=  1.5717
     atom  36 (R=0.089)  charge=  5.6178  magn=  1.6834
     atom  37 (R=0.065)  charge=  1.0432  magn= -0.0203
     atom  38 (R=0.065)  charge=  2.9157  magn= -0.0388
     atom  39 (R=0.089)  charge=  0.8201  magn= -0.0156

     total cpu time spent up to now is      812.6 secs

     End of self-consistent calculation

 ------ SPIN UP ------------


          k = 0.0000 0.0000 0.0000 ( 51087 PWs)   bands (ev):

   -21.9805  -9.1686  -7.6570  -6.5049  -5.8200  -5.6238  -5.3878  -5.0792
    -4.8292  -4.8211  -4.8163  -4.8039  -4.7910  -4.7753  -4.6101  -4.3772
    -4.2872  -4.2869  -4.2643  -4.2534  -4.2377  -4.0740  -3.7724  -3.7706
    -3.7599  -3.7482  -3.7262  -3.6882  -3.6374  -3.6356  -3.6312  -3.6273
    -3.6099  -3.5580  -3.5560  -3.4508  -3.2548  -3.2484  -3.2452  -3.2431
    -3.1887  -3.1838  -3.1786  -3.1757  -3.1717  -3.1644  -3.1573  -3.0994
    -3.0181  -3.0150  -2.9507  -2.9452  -2.9422  -2.9354  -2.9272  -2.9125
    -2.9091  -2.9067  -2.8830  -2.8672  -2.8125  -2.8040  -2.8016  -2.7940
    -2.7356  -2.5915  -2.3110  -2.2719  -2.2708  -2.2666  -2.2647  -2.1639
    -2.1430  -2.1296  -2.1222  -2.1110  -2.1008  -2.0956  -2.0874  -2.0814
    -2.0440  -2.0379  -2.0150  -2.0022  -1.9888  -1.9830  -1.9687  -1.9590
    -1.9570  -1.9479  -1.9426  -1.9362  -1.9255  -1.9153  -1.9109  -1.9000
    -1.8988  -1.8954  -1.8938  -1.8913  -1.8888  -1.8878  -1.8834  -1.8706
    -1.8611  -1.8549  -1.8347  -1.8218  -1.8158  -1.7416  -1.7363  -1.6411
    -1.5385  -1.4513  -1.4473  -1.4456  -1.4392  -1.4333  -1.4205  -1.4046
    -1.3996  -1.3959  -1.3829  -1.3540  -1.3512  -1.2257  -1.2193  -1.2042
    -1.1914  -1.1537  -1.0870  -1.0538  -1.0331  -1.0159  -0.9817  -0.9685
    -0.9643  -0.9611  -0.9527  -0.9358  -0.9116  -0.8933  -0.8388  -0.8163
    -0.7411  -0.7056  -0.7034  -0.7019  -0.6855  -0.6614  -0.6472  -0.6395
    -0.6361  -0.6331  -0.6306  -0.6274  -0.6238  -0.6166  -0.6114  -0.6006
    -0.5999  -0.5908  -0.5809  -0.5681  -0.5648  -0.5586  -0.5470  -0.5413
    -0.5348  -0.5269  -0.5185  -0.5091  -0.5045  -0.4952  -0.4916  -0.4860
    -0.4832  -0.4772  -0.4604  -0.4410  -0.4252  -0.4077  -0.4020  -0.3938
    -0.3928  -0.3833  -0.3800  -0.3686  -0.3630  -0.3228  -0.3146  -0.3080
    -0.3032  -0.3005  -0.2445  -0.2391  -0.2342  -0.2257  -0.2054  -0.1911
     0.4961   0.7496

          k = 0.0000 0.2309 0.0000 ( 51134 PWs)   bands (ev):

   -21.9805  -9.1587  -7.5155  -6.4085  -5.8356  -5.6586  -5.5225  -5.3587
    -5.0936  -5.0321  -4.9822  -4.6419  -4.4842  -4.4747  -4.4576  -4.4066
    -4.3168  -4.2928  -4.2349  -4.1605  -4.1474  -4.0818  -3.8709  -3.7771
    -3.7680  -3.6969  -3.6529  -3.6414  -3.6381  -3.6270  -3.6225  -3.6049
    -3.5899  -3.5287  -3.5144  -3.4918  -3.4890  -3.4149  -3.2681  -3.2630
    -3.2499  -3.2091  -3.2050  -3.1974  -3.1719  -3.1014  -3.0747  -3.0607
    -3.0409  -3.0386  -3.0197  -2.9984  -2.9652  -2.9012  -2.8943  -2.8638
    -2.8354  -2.8266  -2.7985  -2.7940  -2.7702  -2.7330  -2.7271  -2.7167
    -2.6938  -2.5868  -2.3913  -2.3823  -2.3618  -2.3474  -2.3287  -2.2420
    -2.2325  -2.2162  -2.2111  -2.2035  -2.1969  -2.1878  -2.1631  -2.1083
    -2.0982  -2.0858  -2.0654  -2.0324  -2.0251  -2.0191  -2.0095  -2.0024
    -1.9891  -1.9859  -1.9789  -1.9767  -1.9687  -1.9574  -1.9359  -1.8894
    -1.8734  -1.8672  -1.8062  -1.7980  -1.7886  -1.7873  -1.7787  -1.7756
    -1.7626  -1.7556  -1.7471  -1.7429  -1.7368  -1.7149  -1.7042  -1.6863
    -1.6757  -1.6682  -1.6273  -1.5790  -1.5658  -1.4795  -1.4708  -1.4691
    -1.4611  -1.4409  -1.4347  -1.4268  -1.4018  -1.3976  -1.3775  -1.2715
    -1.2507  -1.1962  -1.1855  -1.1689  -1.1550  -1.0977  -1.0833  -1.0750
    -1.0580  -0.9810  -0.9696  -0.9616  -0.9366  -0.9302  -0.8986  -0.8891
    -0.8710  -0.8579  -0.8487  -0.8243  -0.8099  -0.7900  -0.7849  -0.7808
    -0.7221  -0.7097  -0.7032  -0.6988  -0.6838  -0.6664  -0.6428  -0.6289
    -0.6253  -0.6192  -0.6161  -0.6010  -0.5868  -0.5764  -0.5629  -0.5494
    -0.5182  -0.5019  -0.4909  -0.4618  -0.4398  -0.4267  -0.4081  -0.3813
    -0.3774  -0.3639  -0.3596  -0.3461  -0.3296  -0.3217  -0.3162  -0.2833
    -0.2506  -0.2417  -0.2289  -0.2093  -0.2026  -0.1862  -0.1790  -0.1583
    -0.1022  -0.0279   0.1270   0.1461   0.2200   0.2847   0.4058   0.4211
     0.4568   0.7673

          k = 0.0000 0.4619 0.0000 ( 51204 PWs)   bands (ev):

   -21.9805  -9.1432  -7.0982  -6.4583  -6.1466  -5.7732  -5.5929  -5.3664
    -5.2206  -5.1405  -5.0943  -4.8182  -4.3205  -4.3064  -4.2867  -4.2443
    -4.1976  -4.1166  -4.1128  -4.0452  -3.9845  -3.9787  -3.9714  -3.8163
    -3.8014  -3.7978  -3.7876  -3.7851  -3.7250  -3.6829  -3.6771  -3.5444
    -3.5137  -3.5050  -3.4884  -3.4701  -3.4642  -3.4260  -3.3587  -3.3533
    -3.3393  -3.3337  -3.2570  -3.2016  -3.1358  -3.0983  -3.0434  -3.0319
    -3.0014  -2.9808  -2.9573  -2.9423  -2.9371  -2.9203  -2.8999  -2.8509
    -2.8412  -2.8185  -2.7887  -2.7767  -2.6498  -2.6404  -2.6173  -2.6098
    -2.5504  -2.5274  -2.5014  -2.4904  -2.4760  -2.4117  -2.3596  -2.3569
    -2.3522  -2.3430  -2.3371  -2.3154  -2.3025  -2.2843  -2.2695  -2.2578
    -2.2289  -2.1937  -2.1763  -2.1550  -2.1327  -2.1015  -2.0616  -2.0366
    -2.0253  -2.0117  -1.9857  -1.9752  -1.9730  -1.9285  -1.9145  -1.9076
    -1.9022  -1.8886  -1.8713  -1.8488  -1.8407  -1.8318  -1.8276  -1.8072
    -1.7900  -1.7588  -1.7333  -1.7260  -1.6584  -1.6398  -1.6233  -1.6202
    -1.6010  -1.5730  -1.5423  -1.5229  -1.5107  -1.4887  -1.4858  -1.4786
    -1.4765  -1.4666  -1.4558  -1.4461  -1.4419  -1.4342  -1.4213  -1.4119
    -1.4058  -1.3523  -1.2902  -1.2841  -1.2652  -1.2474  -1.2232  -1.2156
    -1.1850  -1.1252  -1.1126  -1.1031  -1.0610  -1.0480  -1.0169  -0.9774
    -0.9626  -0.9491  -0.9274  -0.9088  -0.8960  -0.8789  -0.8560  -0.7695
    -0.7458  -0.7400  -0.7203  -0.7078  -0.7012  -0.6935  -0.6879  -0.6772
    -0.6682  -0.6391  -0.5601  -0.5525  -0.5411  -0.5328  -0.5266  -0.5160
    -0.5039  -0.4911  -0.4677  -0.4597  -0.4496  -0.4242  -0.3731  -0.3553
    -0.3484  -0.3280  -0.3130  -0.2547  -0.2494  -0.2234  -0.2168  -0.1746
    -0.1446  -0.1420  -0.1319  -0.1198  -0.1054  -0.1004  -0.0956  -0.0472
    -0.0015   0.0237   0.4958   0.5801   0.9036   1.1077   1.1343   1.3305
     1.4828   1.4925

          k = 0.2000-0.1155 0.0000 ( 51134 PWs)   bands (ev):

   -21.9805  -9.1570  -7.5166  -6.4091  -5.8559  -5.6653  -5.5083  -5.3498
    -5.0780  -5.0458  -4.9849  -4.6061  -4.5057  -4.4740  -4.4624  -4.4065
    -4.3385  -4.2885  -4.2148  -4.1897  -4.1477  -4.0411  -3.8874  -3.7726
    -3.7609  -3.6956  -3.6591  -3.6429  -3.6378  -3.6339  -3.6229  -3.6061
    -3.5785  -3.5400  -3.5146  -3.4930  -3.4880  -3.4213  -3.2801  -3.2657
    -3.2577  -3.2105  -3.2053  -3.1902  -3.1692  -3.1102  -3.0763  -3.0557
    -3.0406  -3.0336  -3.0266  -2.9939  -2.9565  -2.9030  -2.8941  -2.8708
    -2.8287  -2.8223  -2.7976  -2.7929  -2.7692  -2.7311  -2.7268  -2.7185
    -2.6820  -2.5934  -2.3944  -2.3812  -2.3564  -2.3421  -2.3267  -2.2417
    -2.2345  -2.2202  -2.2149  -2.2030  -2.1960  -2.1814  -2.1545  -2.1054
    -2.1018  -2.0847  -2.0675  -2.0342  -2.0291  -2.0221  -2.0082  -1.9998
    -1.9912  -1.9895  -1.9815  -1.9788  -1.9650  -1.9569  -1.9204  -1.8815
    -1.8765  -1.8585  -1.8115  -1.8025  -1.7955  -1.7851  -1.7784  -1.7769
    -1.7670  -1.7581  -1.7514  -1.7418  -1.7397  -1.7198  -1.7002  -1.6892
    -1.6779  -1.6606  -1.6345  -1.5896  -1.5656  -1.5028  -1.4691  -1.4651
    -1.4506  -1.4471  -1.4355  -1.4306  -1.4100  -1.3835  -1.3194  -1.2790
    -1.2430  -1.2017  -1.1862  -1.1719  -1.1475  -1.1163  -1.0926  -1.0774
    -1.0250  -0.9970  -0.9881  -0.9701  -0.9418  -0.9332  -0.9033  -0.8941
    -0.8780  -0.8525  -0.8358  -0.8148  -0.8086  -0.7962  -0.7873  -0.7728
    -0.7156  -0.7079  -0.7018  -0.6970  -0.6748  -0.6539  -0.6391  -0.6326
    -0.6260  -0.6220  -0.6142  -0.6041  -0.5902  -0.5768  -0.5653  -0.5434
    -0.5079  -0.4936  -0.4828  -0.4617  -0.4456  -0.4347  -0.3998  -0.3838
    -0.3732  -0.3632  -0.3547  -0.3491  -0.3310  -0.3227  -0.3160  -0.2767
    -0.2515  -0.2378  -0.2300  -0.2100  -0.2002  -0.1893  -0.1749  -0.1533
    -0.1065  -0.0377   0.1101   0.1441   0.1834   0.2758   0.3895   0.4209
     0.4592   0.8054

          k = 0.2000 0.1155 0.0000 ( 51134 PWs)   bands (ev):

   -21.9805  -9.1564  -7.5173  -6.4104  -5.8777  -5.6570  -5.4597  -5.3879
    -5.0711  -5.0381  -5.0020  -4.5794  -4.5104  -4.4723  -4.4652  -4.4036
    -4.3392  -4.3048  -4.2168  -4.1889  -4.1501  -4.0297  -3.8894  -3.7782
    -3.7521  -3.6896  -3.6525  -3.6443  -3.6388  -3.6365  -3.6244  -3.6165
    -3.5562  -3.5482  -3.5248  -3.4927  -3.4880  -3.4226  -3.2851  -3.2640
    -3.2611  -3.2103  -3.2078  -3.1943  -3.1638  -3.1091  -3.0796  -3.0523
    -3.0381  -3.0353  -3.0263  -3.0013  -2.9531  -2.9036  -2.8941  -2.8703
    -2.8354  -2.8108  -2.7991  -2.7922  -2.7777  -2.7299  -2.7290  -2.7153
    -2.6679  -2.5965  -2.3922  -2.3802  -2.3554  -2.3422  -2.3294  -2.2414
    -2.2351  -2.2274  -2.2125  -2.2047  -2.1970  -2.1839  -2.1356  -2.1075
    -2.1015  -2.0867  -2.0613  -2.0322  -2.0269  -2.0219  -2.0190  -1.9993
    -1.9925  -1.9881  -1.9828  -1.9792  -1.9668  -1.9509  -1.9321  -1.8854
    -1.8713  -1.8575  -1.8128  -1.8056  -1.7970  -1.7866  -1.7799  -1.7753
    -1.7661  -1.7578  -1.7552  -1.7416  -1.7399  -1.7274  -1.6943  -1.6915
    -1.6763  -1.6681  -1.6316  -1.5907  -1.5712  -1.5140  -1.4714  -1.4635
    -1.4517  -1.4441  -1.4356  -1.4302  -1.4122  -1.3722  -1.2958  -1.2841
    -1.2411  -1.1995  -1.1873  -1.1724  -1.1481  -1.1283  -1.0919  -1.0840
    -1.0176  -0.9939  -0.9849  -0.9618  -0.9461  -0.9355  -0.9033  -0.8982
    -0.8759  -0.8536  -0.8375  -0.8158  -0.8106  -0.7969  -0.7918  -0.7729
    -0.7124  -0.7060  -0.7000  -0.6943  -0.6824  -0.6487  -0.6404  -0.6310
    -0.6265  -0.6200  -0.6141  -0.5989  -0.5884  -0.5773  -0.5687  -0.5553
    -0.5063  -0.4857  -0.4782  -0.4634  -0.4509  -0.4381  -0.3987  -0.3834
    -0.3758  -0.3646  -0.3550  -0.3459  -0.3303  -0.3211  -0.3165  -0.2745
    -0.2452  -0.2379  -0.2284  -0.2086  -0.2017  -0.1742  -0.1598  -0.1544
    -0.1042  -0.0617   0.1105   0.1452   0.1818   0.2688   0.3939   0.4172
     0.4540   0.7496

          k = 0.2000 0.3464 0.0000 ( 51202 PWs)   bands (ev):

   -21.9805  -9.1437  -7.2381  -6.2661  -6.0242  -5.9199  -5.6773  -5.4862
    -5.3570  -5.0178  -4.7347  -4.6255  -4.4835  -4.4685  -4.3188  -4.2613
    -4.2528  -4.1626  -4.1562  -4.0617  -4.0301  -3.9906  -3.8889  -3.8652
    -3.8160  -3.7696  -3.6782  -3.6630  -3.6383  -3.6274  -3.6197  -3.6135
    -3.5804  -3.5726  -3.5332  -3.5089  -3.4695  -3.4327  -3.4280  -3.3782
    -3.2888  -3.2298  -3.2056  -3.1843  -3.1609  -3.1462  -3.0920  -3.0451
    -3.0076  -2.9846  -2.9696  -2.9535  -2.9395  -2.9091  -2.9014  -2.8759
    -2.8620  -2.8376  -2.7499  -2.7156  -2.6810  -2.6601  -2.6486  -2.6287
    -2.6018  -2.5583  -2.4937  -2.4268  -2.4116  -2.3832  -2.3687  -2.3369
    -2.3237  -2.3146  -2.3078  -2.2850  -2.2711  -2.2567  -2.2453  -2.2399
    -2.2307  -2.1804  -2.1544  -2.1133  -2.0613  -2.0560  -2.0319  -2.0178
    -2.0110  -1.9876  -1.9604  -1.9529  -1.9417  -1.9184  -1.9004  -1.8992
    -1.8920  -1.8805  -1.8750  -1.8559  -1.8464  -1.8365  -1.8235  -1.8122
    -1.7959  -1.7845  -1.7570  -1.7172  -1.7091  -1.6705  -1.6647  -1.6615
    -1.6523  -1.6386  -1.6067  -1.5737  -1.5572  -1.5495  -1.5324  -1.4995
    -1.4964  -1.4862  -1.4719  -1.4546  -1.4339  -1.4252  -1.4139  -1.3658
    -1.3513  -1.3250  -1.3077  -1.2361  -1.2148  -1.1849  -1.1682  -1.0942
    -1.0706  -1.0496  -1.0402  -1.0332  -1.0279  -1.0209  -0.9917  -0.9840
    -0.9685  -0.9555  -0.9326  -0.8932  -0.8859  -0.8636  -0.8531  -0.8396
    -0.8149  -0.7973  -0.7835  -0.7695  -0.7583  -0.7436  -0.6263  -0.6025
    -0.5998  -0.5784  -0.5636  -0.5522  -0.5383  -0.5291  -0.5114  -0.5051
    -0.4859  -0.4620  -0.4342  -0.4248  -0.4023  -0.3903  -0.3525  -0.3361
    -0.3260  -0.3240  -0.3194  -0.2948  -0.2853  -0.2769  -0.2722  -0.2570
    -0.2443  -0.1706  -0.1562  -0.1530  -0.1089  -0.1033  -0.0880   0.0377
     0.1554   0.2391   0.2636   0.4290   0.5296   0.6463   1.0094   1.1293
     1.2412   1.4318

          k = 0.2000-0.5774 0.0000 ( 51262 PWs)   bands (ev):

   -21.9805  -9.1366  -6.7235  -6.6767  -6.1374  -6.0117  -5.6975  -5.5267
    -5.2423  -5.1973  -4.8782  -4.6481  -4.4640  -4.2262  -4.1768  -4.0735
    -4.0470  -4.0356  -4.0163  -4.0118  -3.9616  -3.9444  -3.9334  -3.9321
    -3.9062  -3.8509  -3.7855  -3.7786  -3.7573  -3.7537  -3.7053  -3.6102
    -3.6003  -3.5933  -3.5705  -3.5198  -3.4616  -3.4388  -3.3691  -3.3075
    -3.3003  -3.2494  -3.2205  -3.2018  -3.1748  -3.1219  -3.0888  -3.0823
    -3.0446  -3.0211  -2.9942  -2.9274  -2.8932  -2.8647  -2.8556  -2.8134
    -2.8032  -2.7277  -2.7206  -2.7089  -2.6978  -2.6869  -2.6637  -2.6410
    -2.5592  -2.5129  -2.4999  -2.4850  -2.4586  -2.4267  -2.4064  -2.3628
    -2.3590  -2.3184  -2.3093  -2.3060  -2.2965  -2.2763  -2.2505  -2.2485
    -2.2299  -2.2203  -2.2023  -2.1762  -2.1737  -2.1423  -2.0986  -2.0831
    -2.0657  -2.0316  -2.0060  -1.9810  -1.9612  -1.9369  -1.9253  -1.9148
    -1.8975  -1.8865  -1.8806  -1.8712  -1.8585  -1.8346  -1.8298  -1.7948
    -1.7652  -1.7424  -1.7335  -1.7240  -1.7059  -1.7004  -1.6939  -1.6826
    -1.6723  -1.6669  -1.6495  -1.6175  -1.5854  -1.5743  -1.5548  -1.5351
    -1.4800  -1.4765  -1.4522  -1.4342  -1.4196  -1.4082  -1.3943  -1.3737
    -1.3392  -1.3226  -1.2983  -1.2666  -1.2098  -1.1840  -1.1760  -1.1558
    -1.1415  -1.1294  -1.1212  -1.0898  -1.0723  -1.0559  -1.0409  -1.0279
    -0.9805  -0.9640  -0.9489  -0.9412  -0.9268  -0.8782  -0.8689  -0.8515
    -0.8464  -0.8277  -0.8217  -0.8045  -0.7779  -0.7606  -0.7299  -0.5909
    -0.5698  -0.5653  -0.5528  -0.5387  -0.5326  -0.5228  -0.5110  -0.4867
    -0.4692  -0.4558  -0.4470  -0.4403  -0.3970  -0.3487  -0.3272  -0.3202
    -0.3089  -0.2978  -0.2798  -0.2679  -0.2321  -0.2243  -0.2178  -0.2055
    -0.2001  -0.1330  -0.1275  -0.1191  -0.1076  -0.0966  -0.0758  -0.0437
     0.1325   0.2542   0.4845   0.8739   1.0917   1.1780   1.2870   1.5189
     1.6784   1.7263

          k = 0.2000-0.3464 0.0000 ( 51202 PWs)   bands (ev):

   -21.9805  -9.1446  -7.2361  -6.2687  -5.9917  -5.9290  -5.6787  -5.5260
    -5.3422  -5.0051  -4.7067  -4.6776  -4.4795  -4.4678  -4.3128  -4.2627
    -4.2541  -4.1621  -4.1572  -4.0485  -4.0242  -4.0120  -3.8917  -3.8671
    -3.8182  -3.7708  -3.6768  -3.6594  -3.6512  -3.6297  -3.6223  -3.5996
    -3.5805  -3.5740  -3.5352  -3.5093  -3.4711  -3.4286  -3.4169  -3.3836
    -3.2913  -3.2264  -3.2052  -3.1843  -3.1628  -3.1396  -3.0745  -3.0454
    -2.9984  -2.9953  -2.9662  -2.9518  -2.9465  -2.9135  -2.8928  -2.8776
    -2.8583  -2.8391  -2.7484  -2.7276  -2.6834  -2.6667  -2.6435  -2.6276
    -2.6061  -2.5590  -2.4916  -2.4286  -2.4023  -2.3838  -2.3686  -2.3370
    -2.3266  -2.3139  -2.3083  -2.2817  -2.2692  -2.2560  -2.2455  -2.2383
    -2.2290  -2.1855  -2.1533  -2.1321  -2.0629  -2.0574  -2.0315  -2.0174
    -2.0101  -1.9860  -1.9674  -1.9509  -1.9336  -1.9187  -1.9021  -1.8983
    -1.8902  -1.8815  -1.8731  -1.8552  -1.8445  -1.8387  -1.8197  -1.8047
    -1.7957  -1.7913  -1.7669  -1.7154  -1.7115  -1.6760  -1.6649  -1.6567
    -1.6536  -1.6337  -1.5879  -1.5800  -1.5611  -1.5351  -1.5193  -1.5035
    -1.4927  -1.4870  -1.4785  -1.4548  -1.4388  -1.4242  -1.4159  -1.3628
    -1.3523  -1.3159  -1.3028  -1.2489  -1.2118  -1.1792  -1.1606  -1.0969
    -1.0757  -1.0522  -1.0407  -1.0372  -1.0305  -1.0210  -0.9929  -0.9836
    -0.9679  -0.9610  -0.9372  -0.8947  -0.8826  -0.8710  -0.8503  -0.8372
    -0.8147  -0.7969  -0.7768  -0.7686  -0.7558  -0.7457  -0.6222  -0.6131
    -0.5935  -0.5790  -0.5630  -0.5518  -0.5453  -0.5257  -0.5206  -0.5004
    -0.4880  -0.4635  -0.4305  -0.4177  -0.4033  -0.3917  -0.3567  -0.3347
    -0.3275  -0.3228  -0.3184  -0.2957  -0.2870  -0.2778  -0.2700  -0.2576
    -0.2461  -0.1720  -0.1589  -0.1532  -0.1091  -0.1051  -0.0976   0.0524
     0.1388   0.2390   0.2566   0.4573   0.5177   0.6420   1.0299   1.1304
     1.2444   1.3872

          k = 0.4000-0.2309 0.0000 ( 51204 PWs)   bands (ev):

   -21.9805  -9.1386  -7.1031  -6.4611  -6.1524  -5.8379  -5.5331  -5.3727
    -5.1950  -5.1470  -5.0790  -4.8313  -4.3436  -4.3101  -4.2744  -4.2350
    -4.1923  -4.1181  -4.1133  -4.0187  -3.9852  -3.9793  -3.9498  -3.8214
    -3.8014  -3.7911  -3.7884  -3.7846  -3.7143  -3.6857  -3.6767  -3.6104
    -3.5166  -3.5078  -3.4927  -3.4718  -3.4618  -3.4234  -3.3617  -3.3530
    -3.3416  -3.3301  -3.3007  -3.2130  -3.1271  -3.1002  -3.0351  -3.0209
    -2.9983  -2.9775  -2.9574  -2.9435  -2.9334  -2.9236  -2.9037  -2.8564
    -2.8426  -2.8217  -2.7805  -2.7530  -2.6496  -2.6340  -2.6147  -2.5885
    -2.5567  -2.5265  -2.5043  -2.4886  -2.4796  -2.4159  -2.3593  -2.3574
    -2.3553  -2.3424  -2.3333  -2.3131  -2.3007  -2.2919  -2.2691  -2.2399
    -2.2276  -2.1972  -2.1784  -2.1533  -2.1266  -2.1175  -2.0608  -2.0437
    -2.0267  -2.0141  -1.9962  -1.9697  -1.9645  -1.9240  -1.9154  -1.9050
    -1.8996  -1.8794  -1.8706  -1.8500  -1.8431  -1.8399  -1.8310  -1.7985
    -1.7853  -1.7473  -1.7360  -1.7243  -1.6601  -1.6431  -1.6177  -1.6060
    -1.5895  -1.5706  -1.5565  -1.5145  -1.5089  -1.4944  -1.4906  -1.4814
    -1.4703  -1.4655  -1.4594  -1.4505  -1.4418  -1.4322  -1.4133  -1.4031
    -1.3852  -1.3671  -1.3102  -1.2738  -1.2620  -1.2515  -1.2286  -1.2043
    -1.1862  -1.1390  -1.1121  -1.1000  -1.0735  -1.0635  -1.0249  -1.0026
    -0.9818  -0.9467  -0.9294  -0.9178  -0.8914  -0.8634  -0.8361  -0.7905
    -0.7508  -0.7255  -0.7139  -0.7014  -0.6983  -0.6907  -0.6835  -0.6734
    -0.6563  -0.6377  -0.5564  -0.5479  -0.5422  -0.5298  -0.5201  -0.5052
    -0.4988  -0.4801  -0.4719  -0.4657  -0.4453  -0.4254  -0.3649  -0.3528
    -0.3397  -0.3300  -0.3042  -0.2568  -0.2502  -0.2207  -0.2141  -0.1755
    -0.1463  -0.1349  -0.1273  -0.1105  -0.1052  -0.1019  -0.0943  -0.0509
    -0.0014   0.0196   0.4126   0.5991   0.9279   1.0835   1.1270   1.2579
     1.4686   1.5127

          k = 0.4000 0.0000 0.0000 ( 51202 PWs)   bands (ev):

   -21.9805  -9.1408  -7.2410  -6.2598  -6.0604  -5.9143  -5.6772  -5.4600
    -5.3700  -4.9941  -4.7644  -4.5944  -4.4828  -4.4808  -4.3189  -4.2637
    -4.2470  -4.1624  -4.1563  -4.0886  -4.0312  -3.9335  -3.8905  -3.8691
    -3.8118  -3.7725  -3.6806  -3.6730  -3.6386  -3.6316  -3.6223  -3.6069
    -3.5802  -3.5706  -3.5471  -3.5154  -3.4685  -3.4471  -3.4332  -3.3812
    -3.2977  -3.2500  -3.2056  -3.1758  -3.1571  -3.1472  -3.0911  -3.0443
    -3.0141  -2.9739  -2.9699  -2.9581  -2.9332  -2.9084  -2.8913  -2.8812
    -2.8647  -2.8402  -2.7582  -2.6915  -2.6825  -2.6590  -2.6358  -2.6211
    -2.6068  -2.5511  -2.4970  -2.4253  -2.4055  -2.3822  -2.3700  -2.3401
    -2.3253  -2.3162  -2.3097  -2.2915  -2.2682  -2.2580  -2.2510  -2.2386
    -2.2129  -2.1842  -2.1597  -2.1040  -2.0623  -2.0527  -2.0434  -2.0238
    -2.0055  -1.9869  -1.9577  -1.9501  -1.9433  -1.9176  -1.8976  -1.8917
    -1.8855  -1.8841  -1.8759  -1.8560  -1.8524  -1.8347  -1.8186  -1.8131
    -1.7922  -1.7637  -1.7404  -1.7169  -1.7087  -1.6829  -1.6648  -1.6593
    -1.6471  -1.6339  -1.6154  -1.5801  -1.5596  -1.5511  -1.5263  -1.5085
    -1.4982  -1.4881  -1.4755  -1.4650  -1.4462  -1.4311  -1.4151  -1.3638
    -1.3480  -1.3297  -1.3217  -1.2204  -1.2062  -1.1880  -1.1720  -1.0999
    -1.0593  -1.0560  -1.0504  -1.0406  -1.0268  -1.0167  -0.9960  -0.9922
    -0.9730  -0.9472  -0.9325  -0.8901  -0.8718  -0.8595  -0.8523  -0.8377
    -0.8076  -0.8000  -0.7855  -0.7734  -0.7608  -0.7443  -0.6241  -0.6058
    -0.5825  -0.5731  -0.5636  -0.5508  -0.5408  -0.5245  -0.5171  -0.5104
    -0.4874  -0.4632  -0.4389  -0.4229  -0.4023  -0.3842  -0.3438  -0.3327
    -0.3265  -0.3230  -0.3164  -0.2954  -0.2856  -0.2784  -0.2734  -0.2523
    -0.2450  -0.1674  -0.1578  -0.1546  -0.1125  -0.1101  -0.0782   0.0422
     0.2165   0.2370   0.2804   0.3640   0.5404   0.6234   0.9296   1.1319
     1.2277   1.4401

          k = 0.4000 0.2309 0.0000 ( 51204 PWs)   bands (ev):

   -21.9805  -9.1371  -7.1063  -6.4646  -6.1601  -5.8641  -5.4648  -5.3985
    -5.1968  -5.1466  -5.0738  -4.8343  -4.3448  -4.3050  -4.2907  -4.2338
    -4.1857  -4.1186  -4.1146  -4.0067  -3.9852  -3.9792  -3.9166  -3.8296
    -3.8005  -3.7908  -3.7877  -3.7827  -3.6962  -3.6842  -3.6671  -3.6550
    -3.5184  -3.5147  -3.5007  -3.4715  -3.4683  -3.4181  -3.3605  -3.3549
    -3.3413  -3.3308  -3.3006  -3.2140  -3.1316  -3.0908  -3.0381  -3.0140
    -3.0028  -2.9728  -2.9578  -2.9538  -2.9412  -2.9181  -2.8906  -2.8580
    -2.8455  -2.8233  -2.7895  -2.7387  -2.6439  -2.6344  -2.6206  -2.5869
    -2.5609  -2.5235  -2.5010  -2.4980  -2.4839  -2.4149  -2.3617  -2.3573
    -2.3526  -2.3452  -2.3314  -2.3151  -2.2996  -2.2939  -2.2686  -2.2321
    -2.2180  -2.1988  -2.1821  -2.1647  -2.1239  -2.1080  -2.0595  -2.0425
    -2.0287  -2.0166  -1.9983  -1.9809  -1.9579  -1.9238  -1.9172  -1.9066
    -1.8945  -1.8833  -1.8691  -1.8577  -1.8451  -1.8370  -1.8302  -1.8007
    -1.7862  -1.7662  -1.7358  -1.7233  -1.6601  -1.6461  -1.6175  -1.6045
    -1.5841  -1.5707  -1.5499  -1.5108  -1.5082  -1.4981  -1.4904  -1.4833
    -1.4753  -1.4677  -1.4554  -1.4509  -1.4431  -1.4300  -1.4045  -1.3974
    -1.3821  -1.3695  -1.3245  -1.2744  -1.2587  -1.2471  -1.2281  -1.2041
    -1.1853  -1.1366  -1.1149  -1.0988  -1.0812  -1.0538  -1.0398  -1.0021
    -0.9787  -0.9484  -0.9277  -0.9202  -0.8895  -0.8623  -0.8393  -0.8000
    -0.7327  -0.7240  -0.7104  -0.7019  -0.6977  -0.6864  -0.6794  -0.6684
    -0.6612  -0.6559  -0.5554  -0.5489  -0.5437  -0.5295  -0.5200  -0.4997
    -0.4919  -0.4872  -0.4706  -0.4603  -0.4449  -0.4257  -0.3638  -0.3489
    -0.3424  -0.3316  -0.2975  -0.2528  -0.2522  -0.2158  -0.2139  -0.1745
    -0.1492  -0.1336  -0.1296  -0.1077  -0.1052  -0.1001  -0.0809  -0.0590
    -0.0015   0.0213   0.3940   0.6597   0.8830   1.0365   1.1331   1.2084
     1.4790   1.5502

          k = 0.4000-0.6928 0.0000 ( 51262 PWs)   bands (ev):

   -21.9805  -9.1328  -6.7496  -6.6640  -6.1526  -5.9353  -5.8586  -5.4122
    -5.2094  -5.1894  -4.9386  -4.6456  -4.4620  -4.2231  -4.1780  -4.0507
    -4.0455  -4.0222  -4.0145  -3.9905  -3.9616  -3.9382  -3.9334  -3.9288
    -3.9146  -3.8094  -3.7906  -3.7821  -3.7643  -3.7479  -3.7314  -3.6235
    -3.5999  -3.5951  -3.5795  -3.5568  -3.4960  -3.4374  -3.3393  -3.3070
    -3.3036  -3.2801  -3.2097  -3.2001  -3.1731  -3.1268  -3.0890  -3.0867
    -3.0636  -3.0047  -2.9947  -2.9241  -2.8930  -2.8667  -2.8569  -2.8052
    -2.7865  -2.7286  -2.7211  -2.7144  -2.7020  -2.6941  -2.6449  -2.6281
    -2.5537  -2.5084  -2.5006  -2.4841  -2.4727  -2.4354  -2.4162  -2.3607
    -2.3519  -2.3211  -2.3148  -2.2997  -2.2925  -2.2696  -2.2507  -2.2386
    -2.2236  -2.2136  -2.1870  -2.1822  -2.1713  -2.1528  -2.1072  -2.0901
    -2.0757  -2.0503  -2.0079  -1.9733  -1.9575  -1.9360  -1.9226  -1.9156
    -1.8958  -1.8885  -1.8834  -1.8614  -1.8452  -1.8395  -1.8265  -1.7668
    -1.7504  -1.7434  -1.7311  -1.7172  -1.7059  -1.7027  -1.6895  -1.6848
    -1.6794  -1.6709  -1.6486  -1.6413  -1.5912  -1.5699  -1.5635  -1.5318
    -1.5047  -1.4813  -1.4600  -1.4286  -1.4150  -1.4056  -1.3940  -1.3768
    -1.3301  -1.3272  -1.2992  -1.2511  -1.1990  -1.1917  -1.1802  -1.1582
    -1.1386  -1.1249  -1.1175  -1.0963  -1.0874  -1.0630  -1.0409  -1.0150
    -0.9804  -0.9743  -0.9508  -0.9328  -0.9228  -0.8846  -0.8701  -0.8651
    -0.8437  -0.8297  -0.8127  -0.7979  -0.7750  -0.7634  -0.7361  -0.5805
    -0.5670  -0.5596  -0.5514  -0.5409  -0.5374  -0.5203  -0.5131  -0.4776
    -0.4687  -0.4588  -0.4548  -0.4347  -0.3870  -0.3331  -0.3272  -0.3158
    -0.3075  -0.2936  -0.2775  -0.2440  -0.2344  -0.2255  -0.2168  -0.2078
    -0.1996  -0.1808  -0.1272  -0.1209  -0.1071  -0.0982  -0.0746  -0.0420
     0.1525   0.2741   0.5649   0.7902   0.9939   1.1814   1.2350   1.5772
     1.6841   1.7199

          k = 0.4000-0.4619 0.0000 ( 51262 PWs)   bands (ev):

   -21.9805  -9.1338  -6.7413  -6.6658  -6.1498  -5.9793  -5.7839  -5.4569
    -5.2279  -5.1929  -4.9051  -4.6461  -4.4621  -4.2225  -4.1795  -4.0549
    -4.0453  -4.0322  -4.0166  -4.0062  -3.9584  -3.9396  -3.9336  -3.9309
    -3.9123  -3.8359  -3.7865  -3.7814  -3.7591  -3.7543  -3.7094  -3.6169
    -3.6004  -3.5924  -3.5723  -3.5449  -3.4935  -3.4429  -3.3451  -3.3063
    -3.2998  -3.2840  -3.2154  -3.1994  -3.1730  -3.1218  -3.0889  -3.0836
    -3.0517  -3.0164  -2.9891  -2.9241  -2.8958  -2.8725  -2.8519  -2.8099
    -2.7871  -2.7277  -2.7231  -2.7132  -2.7002  -2.6896  -2.6600  -2.6136
    -2.5568  -2.5069  -2.4981  -2.4899  -2.4651  -2.4273  -2.4185  -2.3630
    -2.3548  -2.3203  -2.3091  -2.3021  -2.2931  -2.2723  -2.2537  -2.2430
    -2.2245  -2.2178  -2.2005  -2.1779  -2.1710  -2.1326  -2.1016  -2.0900
    -2.0780  -2.0550  -2.0039  -1.9760  -1.9550  -1.9341  -1.9239  -1.9161
    -1.8958  -1.8874  -1.8776  -1.8692  -1.8508  -1.8330  -1.8255  -1.7708
    -1.7613  -1.7406  -1.7308  -1.7263  -1.7074  -1.7020  -1.6951  -1.6828
    -1.6773  -1.6708  -1.6462  -1.6303  -1.5890  -1.5711  -1.5604  -1.5182
    -1.4961  -1.4848  -1.4677  -1.4275  -1.4155  -1.4032  -1.3971  -1.3720
    -1.3316  -1.3267  -1.3051  -1.2463  -1.2006  -1.1953  -1.1746  -1.1610
    -1.1336  -1.1253  -1.1192  -1.1014  -1.0801  -1.0606  -1.0468  -1.0221
    -0.9803  -0.9776  -0.9525  -0.9359  -0.9199  -0.8831  -0.8664  -0.8572
    -0.8459  -0.8272  -0.8199  -0.7993  -0.7749  -0.7589  -0.7376  -0.5838
    -0.5666  -0.5569  -0.5476  -0.5430  -0.5308  -0.5244  -0.5117  -0.4787
    -0.4720  -0.4638  -0.4515  -0.4357  -0.3883  -0.3413  -0.3263  -0.3192
    -0.3043  -0.2940  -0.2815  -0.2633  -0.2360  -0.2237  -0.2182  -0.2031
    -0.1926  -0.1629  -0.1255  -0.1210  -0.1081  -0.0960  -0.0745  -0.0443
     0.1429   0.2690   0.5195   0.8821   0.9745   1.1807   1.2455   1.5548
     1.6677   1.7297

 ------ SPIN DOWN ----------


          k = 0.0000 0.0000 0.0000 ( 51087 PWs)   bands (ev):

   -22.0655  -9.2506  -7.7904  -6.5785  -5.8110  -5.6476  -5.4232  -4.9608
    -4.6362  -4.6243  -4.6223  -4.5978  -4.5893  -4.5718  -4.1978  -3.7545
    -3.7525  -3.7349  -3.7243  -3.7111  -3.6631  -3.3195  -2.8174  -2.8075
    -2.7967  -2.7938  -2.7246  -2.5837  -2.3525  -2.3398  -2.3344  -2.3301
    -2.3095  -2.2203  -2.1408  -2.1364  -2.0695  -2.0519  -2.0409  -2.0399
    -1.9574  -1.9519  -1.9055  -1.9017  -1.8425  -1.8180  -1.8037  -1.7936
    -1.7554  -1.7318  -1.5572  -1.5501  -1.5361  -1.5299  -1.5194  -1.5167
    -1.5021  -1.5009  -1.4708  -1.4610  -1.4328  -1.4269  -1.4239  -1.4221
    -1.3556  -1.2511  -0.9089  -0.8729  -0.8469  -0.8437  -0.7985  -0.7422
    -0.6515  -0.6329  -0.5453  -0.5349  -0.5266  -0.5189  -0.5075  -0.4921
    -0.4722  -0.4641  -0.4411  -0.4360  -0.4270  -0.4265  -0.3805  -0.3665
    -0.3594  -0.3299  -0.3166  -0.3018  -0.2874  -0.2847  -0.2681  -0.2651
    -0.2591  -0.2523  -0.2420  -0.2376  -0.2365  -0.2347  -0.2054  -0.1536
    -0.1339  -0.1183  -0.1022  -0.0655  -0.0340  -0.0207  -0.0111  -0.0078
    -0.0056  -0.0030   0.0031   0.0567   0.0716   0.0727   0.1206   0.1470
     0.1580   0.1647   0.1732   0.2068   0.2546   0.3820   0.3927   0.4428
     0.4525   0.4656   0.4721   0.4794   0.6099   0.6818   0.7661   0.7986
     0.8157   0.8598   0.9811   1.0032   1.0224   1.0322   1.0416   1.0472
     1.0926   1.1647   1.1898   1.2088   1.2135   1.2224   1.2295   1.2529
     1.2602   1.2722   1.2829   1.3007   1.3151   1.3231   1.3267   1.3603
     1.3620   1.3714   1.3754   1.3867   1.4108   1.4283   1.4328   1.4420
     1.4550   1.4598   1.4757   1.4876   1.4910   1.5019   1.5051   1.5383
     1.5477   1.5637   1.5658   1.5719   1.5792   1.5851   1.5922   1.6291
     1.6355   1.6360   1.6395   1.6439   1.6473   1.6583   1.6665   1.6728
     1.6753   1.7208   1.7215   1.8635   1.8695   1.8715   1.8761   1.8780
     1.8797   2.0580

          k = 0.0000 0.2309 0.0000 ( 51134 PWs)   bands (ev):

   -22.0655  -9.2407  -7.6482  -6.4752  -5.8540  -5.6807  -5.5486  -5.3869
    -5.0374  -4.9760  -4.8372  -4.4605  -4.1028  -4.0730  -4.0521  -3.9470
    -3.8522  -3.7632  -3.4526  -3.3990  -3.3770  -3.2513  -2.9283  -2.8056
    -2.7726  -2.7193  -2.6814  -2.6103  -2.4327  -2.3722  -2.3688  -2.3499
    -2.3275  -2.2860  -2.2817  -2.2756  -2.2303  -2.2016  -2.1043  -2.0976
    -2.0135  -2.0105  -1.9476  -1.8735  -1.8350  -1.8198  -1.8118  -1.7053
    -1.6776  -1.6562  -1.6059  -1.5764  -1.5545  -1.5351  -1.5263  -1.5166
    -1.5078  -1.5005  -1.4099  -1.3979  -1.3840  -1.3675  -1.3290  -1.2867
    -1.2424  -1.1495  -0.9676  -0.9253  -0.8981  -0.8943  -0.8356  -0.7944
    -0.7363  -0.7103  -0.6858  -0.6421  -0.6221  -0.5749  -0.5556  -0.5443
    -0.5090  -0.4985  -0.4852  -0.4805  -0.4691  -0.4442  -0.4149  -0.3864
    -0.3581  -0.3170  -0.3134  -0.3073  -0.2946  -0.2726  -0.2543  -0.2426
    -0.2346  -0.2324  -0.2247  -0.2170  -0.2139  -0.2124  -0.1804  -0.1635
    -0.1464  -0.1314  -0.1195  -0.1069  -0.0847  -0.0715  -0.0558  -0.0327
    -0.0264   0.0017   0.0244   0.0507   0.0963   0.1069   0.1216   0.1386
     0.2300   0.2567   0.2924   0.3458   0.3625   0.3652   0.4218   0.4278
     0.4349   0.4429   0.4503   0.4547   0.5923   0.6983   0.7710   0.7831
     0.7911   0.7944   0.8128   0.8211   0.8785   0.8882   0.9377   0.9623
     1.0084   1.0292   1.0558   1.0693   1.0943   1.1131   1.1400   1.1974
     1.2107   1.2313   1.2465   1.2586   1.2774   1.2841   1.3261   1.3334
     1.3549   1.3741   1.4126   1.4212   1.4383   1.4474   1.4680   1.4792
     1.5135   1.5278   1.5302   1.5331   1.5617   1.6148   1.6182   1.6284
     1.6323   1.6576   1.6599   1.6893   1.6944   1.7026   1.7098   1.7151
     1.7375   1.7795   1.7844   1.7980   1.8013   1.8113   1.8230   1.8389
     1.8600   1.8644   1.8679   1.9051   1.9595   1.9722   1.9731   2.0274
     2.0549   2.1162

          k = 0.0000 0.4619 0.0000 ( 51204 PWs)   bands (ev):

   -22.0655  -9.2251  -7.2255  -6.5578  -6.1975  -5.7918  -5.6455  -5.3968
    -5.2382  -5.1509  -5.0781  -4.6620  -4.1045  -4.0256  -3.8436  -3.4597
    -3.4531  -3.3926  -3.3306  -3.1636  -3.0512  -3.0122  -2.9940  -2.8583
    -2.8532  -2.7924  -2.7435  -2.7071  -2.6338  -2.6158  -2.6088  -2.5511
    -2.5422  -2.3741  -2.3325  -2.3103  -2.2416  -2.2263  -2.1264  -2.1186
    -2.1016  -2.0892  -2.0408  -1.8478  -1.8216  -1.7982  -1.7753  -1.7489
    -1.6030  -1.5955  -1.5814  -1.5700  -1.5561  -1.5324  -1.5271  -1.5051
    -1.4908  -1.4190  -1.4083  -1.3908  -1.3732  -1.3568  -1.2056  -1.1788
    -1.0773  -1.0396  -0.9465  -0.9222  -0.9066  -0.8791  -0.8616  -0.8553
    -0.8355  -0.8172  -0.7935  -0.7720  -0.7223  -0.6899  -0.6672  -0.6407
    -0.6220  -0.6023  -0.5778  -0.5708  -0.5354  -0.5118  -0.4655  -0.4101
    -0.3853  -0.3716  -0.3470  -0.3316  -0.3051  -0.2880  -0.2605  -0.2375
    -0.2106  -0.2004  -0.1892  -0.1806  -0.1631  -0.1613  -0.1245  -0.1088
    -0.0991  -0.0815  -0.0698  -0.0602  -0.0525  -0.0382  -0.0263  -0.0061
     0.0030   0.0271   0.0581   0.1018   0.1464   0.1476   0.1686   0.2085
     0.2110   0.2235   0.2488   0.2730   0.3121   0.3233   0.3355   0.3511
     0.3867   0.4072   0.4178   0.4250   0.4643   0.5316   0.5886   0.5967
     0.6671   0.6879   0.7433   0.7786   0.8321   0.8534   0.8714   0.8879
     0.9137   0.9228   0.9400   0.9791   0.9912   1.0536   1.1683   1.1765
     1.1888   1.2161   1.2349   1.2466   1.2925   1.3084   1.3360   1.3482
     1.3723   1.3857   1.4000   1.4625   1.4760   1.4840   1.5368   1.5435
     1.5533   1.5568   1.5762   1.5925   1.6164   1.6287   1.6382   1.6639
     1.6719   1.7231   1.7436   1.7746   1.7860   1.8015   1.8119   1.8290
     1.8326   1.8617   1.8657   1.8805   1.8957   1.9030   1.9127   1.9149
     1.9603   2.0176   2.0494   2.1122   2.1231   2.2033   2.5522   2.6321
     2.6514   2.7046

          k = 0.2000-0.1155 0.0000 ( 51134 PWs)   bands (ev):

   -22.0655  -9.2391  -7.6492  -6.4766  -5.8790  -5.6766  -5.5291  -5.3893
    -5.0226  -4.9840  -4.8479  -4.4097  -4.1797  -4.0710  -4.0575  -3.9292
    -3.8219  -3.7750  -3.4700  -3.3960  -3.3231  -3.2572  -2.9728  -2.7884
    -2.7696  -2.7406  -2.6836  -2.5810  -2.4549  -2.3706  -2.3673  -2.3573
    -2.3238  -2.2918  -2.2832  -2.2812  -2.2321  -2.1864  -2.1011  -2.0985
    -2.0142  -2.0119  -1.9678  -1.8487  -1.8335  -1.8188  -1.7998  -1.7089
    -1.6759  -1.6517  -1.6088  -1.5713  -1.5599  -1.5350  -1.5240  -1.5200
    -1.5015  -1.4918  -1.4165  -1.3963  -1.3833  -1.3624  -1.3329  -1.2951
    -1.2360  -1.1573  -0.9641  -0.9182  -0.9007  -0.8926  -0.8409  -0.7764
    -0.7691  -0.7180  -0.6842  -0.6415  -0.6232  -0.5804  -0.5513  -0.5413
    -0.5083  -0.5002  -0.4802  -0.4706  -0.4652  -0.4521  -0.4292  -0.3838
    -0.3451  -0.3249  -0.3142  -0.3118  -0.3061  -0.2687  -0.2577  -0.2457
    -0.2365  -0.2257  -0.2223  -0.2163  -0.2132  -0.2108  -0.1864  -0.1636
    -0.1371  -0.1308  -0.1111  -0.1058  -0.0993  -0.0829  -0.0591  -0.0339
    -0.0171  -0.0048   0.0351   0.0646   0.0910   0.1079   0.1120   0.1389
     0.2376   0.2647   0.2974   0.3442   0.3623   0.3721   0.4099   0.4298
     0.4347   0.4408   0.4502   0.4585   0.5859   0.7073   0.7622   0.7792
     0.7915   0.8024   0.8147   0.8301   0.8695   0.8865   0.9391   0.9666
     1.0132   1.0323   1.0590   1.0872   1.1001   1.1217   1.1432   1.1449
     1.2129   1.2329   1.2515   1.2616   1.2738   1.2879   1.3258   1.3339
     1.3501   1.3679   1.4073   1.4265   1.4414   1.4475   1.4726   1.4988
     1.5171   1.5262   1.5319   1.5353   1.5557   1.6033   1.6153   1.6234
     1.6286   1.6541   1.6605   1.6904   1.6981   1.7041   1.7109   1.7189
     1.7362   1.7811   1.7852   1.8004   1.8020   1.8109   1.8210   1.8397
     1.8538   1.8624   1.8678   1.8899   1.9583   1.9713   1.9754   2.0333
     2.0513   2.1067

          k = 0.2000 0.1155 0.0000 ( 51134 PWs)   bands (ev):

   -22.0655  -9.2386  -7.6499  -6.4781  -5.9009  -5.6644  -5.4901  -5.4181
    -5.0159  -4.9835  -4.8647  -4.3605  -4.1987  -4.0746  -4.0577  -3.9626
    -3.8072  -3.7743  -3.4723  -3.4035  -3.3046  -3.2426  -2.9810  -2.8169
    -2.7648  -2.7249  -2.7015  -2.5568  -2.4615  -2.3738  -2.3654  -2.3499
    -2.3339  -2.2987  -2.2849  -2.2800  -2.2435  -2.1704  -2.1000  -2.0981
    -2.0149  -2.0122  -1.9654  -1.8639  -1.8213  -1.8155  -1.7973  -1.6984
    -1.6846  -1.6601  -1.5992  -1.5862  -1.5575  -1.5351  -1.5206  -1.5159
    -1.5128  -1.4666  -1.4352  -1.3917  -1.3830  -1.3622  -1.3330  -1.2926
    -1.2336  -1.1638  -0.9684  -0.9235  -0.9016  -0.8871  -0.8326  -0.8097
    -0.7742  -0.6907  -0.6711  -0.6482  -0.6320  -0.5790  -0.5613  -0.5329
    -0.5119  -0.4977  -0.4816  -0.4720  -0.4679  -0.4488  -0.4392  -0.3705
    -0.3426  -0.3237  -0.3157  -0.3109  -0.3024  -0.2646  -0.2519  -0.2446
    -0.2392  -0.2275  -0.2217  -0.2193  -0.2136  -0.2123  -0.1811  -0.1645
    -0.1450  -0.1298  -0.1122  -0.1077  -0.1004  -0.0775  -0.0582  -0.0422
    -0.0169   0.0024   0.0416   0.0745   0.0837   0.1076   0.1090   0.1390
     0.2131   0.2790   0.3044   0.3390   0.3545   0.3793   0.4108   0.4222
     0.4377   0.4405   0.4538   0.4588   0.6194   0.6832   0.7630   0.7780
     0.7945   0.8003   0.8170   0.8297   0.8641   0.8861   0.9391   0.9606
     0.9827   1.0491   1.0657   1.0830   1.1007   1.1285   1.1412   1.1485
     1.2098   1.2396   1.2513   1.2676   1.2816   1.2827   1.3241   1.3333
     1.3466   1.3738   1.4120   1.4300   1.4370   1.4483   1.4698   1.4961
     1.5132   1.5267   1.5333   1.5436   1.5501   1.5994   1.6094   1.6226
     1.6326   1.6544   1.6602   1.6910   1.6989   1.7055   1.7097   1.7192
     1.7376   1.7812   1.7857   1.7995   1.8011   1.8118   1.8230   1.8378
     1.8553   1.8611   1.8689   1.8798   1.9573   1.9693   1.9769   2.0266
     2.0558   2.1022

          k = 0.2000 0.3464 0.0000 ( 51202 PWs)   bands (ev):

   -22.0655  -9.2258  -7.3677  -6.3174  -6.0917  -6.0012  -5.6895  -5.5291
    -5.3909  -4.9503  -4.6582  -4.4689  -4.2592  -4.2478  -3.8870  -3.4367
    -3.4236  -3.4207  -3.4120  -3.2828  -3.1550  -3.1222  -3.1149  -2.9006
    -2.7560  -2.6835  -2.6740  -2.6442  -2.5822  -2.5619  -2.5583  -2.4737
    -2.4659  -2.4557  -2.4258  -2.3152  -2.2861  -2.2402  -2.0886  -2.0801
    -2.0606  -1.9974  -1.9646  -1.9441  -1.9204  -1.7927  -1.7386  -1.7333
    -1.6410  -1.6106  -1.5645  -1.5601  -1.5479  -1.5374  -1.5177  -1.5037
    -1.4876  -1.4740  -1.4233  -1.3795  -1.3437  -1.2982  -1.1933  -1.1633
    -1.1011  -1.0719  -0.9879  -0.9431  -0.8972  -0.8640  -0.8464  -0.8247
    -0.8102  -0.7727  -0.7502  -0.7183  -0.6987  -0.6805  -0.6629  -0.6462
    -0.6320  -0.6117  -0.5965  -0.5628  -0.5453  -0.4533  -0.4383  -0.4190
    -0.4042  -0.3801  -0.3492  -0.3365  -0.3121  -0.2938  -0.2837  -0.2721
    -0.2596  -0.2435  -0.2287  -0.2068  -0.1962  -0.1782  -0.1638  -0.1301
    -0.1156  -0.1093  -0.1014  -0.0828  -0.0722  -0.0656  -0.0500  -0.0386
     0.0310   0.0485   0.0527   0.0691   0.1648   0.1676   0.2059   0.2309
     0.2512   0.2811   0.3015   0.3200   0.3462   0.3676   0.3770   0.3850
     0.3934   0.4224   0.4390   0.4719   0.5269   0.5995   0.6611   0.6970
     0.7436   0.7782   0.8028   0.8301   0.8418   0.8484   0.8675   0.8872
     0.8960   0.9089   0.9278   0.9440   0.9833   1.0344   1.0808   1.1016
     1.1162   1.1486   1.1566   1.1893   1.2000   1.2505   1.2670   1.3137
     1.3398   1.3896   1.4535   1.4946   1.5084   1.5199   1.5375   1.5476
     1.5666   1.5743   1.5960   1.6022   1.6576   1.6729   1.6807   1.6841
     1.6979   1.7264   1.7388   1.7475   1.7598   1.7758   1.7839   1.8050
     1.8190   1.8221   1.8333   1.8437   1.8573   1.8695   1.9120   1.9403
     1.9495   1.9927   2.0480   2.0803   2.1813   2.2198   2.3468   2.4798
     2.5336   2.5498

          k = 0.2000-0.5774 0.0000 ( 51262 PWs)   bands (ev):

   -22.0655  -9.2187  -6.8346  -6.7978  -6.2090  -6.0550  -5.7252  -5.5809
    -5.2657  -5.2369  -4.8212  -4.4762  -4.3039  -3.7786  -3.4741  -3.4561
    -3.4513  -3.3746  -3.2074  -3.1332  -3.0448  -3.0355  -3.0282  -2.9032
    -2.8983  -2.8858  -2.8656  -2.8589  -2.7508  -2.6113  -2.5257  -2.5080
    -2.4871  -2.4511  -2.4352  -2.4209  -2.3581  -2.3061  -2.2168  -2.0537
    -1.9724  -1.9624  -1.9535  -1.9286  -1.8752  -1.7981  -1.7315  -1.7216
    -1.6805  -1.6703  -1.6588  -1.5588  -1.5228  -1.5018  -1.4962  -1.4863
    -1.4392  -1.3817  -1.3384  -1.3348  -1.2811  -1.2655  -1.2374  -1.1381
    -1.0918  -0.9959  -0.9561  -0.9437  -0.9338  -0.8737  -0.8662  -0.8168
[...]
     atom    8 type  1   force =     0.00026628   -0.00083873   -0.10336215
     atom    9 type  1   force =     0.00211127   -0.00091566   -0.10608942
     atom   10 type  1   force =    -0.00111027    0.00099029   -0.01053157
     atom   11 type  1   force =     0.00071690    0.00042484   -0.00675161
     atom   12 type  1   force =     0.00062961    0.00031610   -0.00915943
     atom   13 type  1   force =     0.00109141   -0.00159651   -0.01174673
     atom   14 type  1   force =    -0.00085534   -0.00106685   -0.01046469
     atom   15 type  1   force =    -0.00070054   -0.00051206   -0.01350010
     atom   16 type  1   force =    -0.00061432    0.00115938   -0.01689374
     atom   17 type  1   force =     0.00201111   -0.00095664   -0.01041870
     atom   18 type  1   force =    -0.00150733    0.00183615   -0.01328515
     atom   19 type  1   force =     0.00188566    0.00475288    0.00936923
     atom   20 type  1   force =    -0.00177314    0.01230738   -0.00153924
     atom   21 type  1   force =    -0.00039891    0.00178256    0.01367994
     atom   22 type  1   force =     0.00044708    0.00028277    0.02002178
     atom   23 type  1   force =    -0.00129640   -0.00033176    0.01023883
     atom   24 type  1   force =     0.00011813    0.00024185    0.01279868
     atom   25 type  1   force =    -0.00214704   -0.00457685   -0.00007867
     atom   26 type  1   force =    -0.00372446   -0.00661598   -0.00096682
     atom   27 type  1   force =     0.00669780   -0.00684025    0.00020076
     atom   28 type  1   force =     0.04974024   -0.01365609    0.09552935
     atom   29 type  1   force =    -0.06319555   -0.01717490    0.05075115
     atom   30 type  1   force =     0.00688081    0.00207199    0.08003743
     atom   31 type  1   force =     0.00436201   -0.02260849    0.13680335
     atom   32 type  1   force =     0.00022951   -0.02243475    0.11951483
     atom   33 type  1   force =    -0.00269696    0.00017828    0.10850705
     atom   34 type  1   force =     0.00113863   -0.00090400    0.11568838
     atom   35 type  1   force =     0.00173011    0.04747483    0.13833876
     atom   36 type  1   force =    -0.00167778    0.01130769    0.12644177
     atom   37 type  2   force =    -0.05015530   -0.07607418    0.42137688
     atom   38 type  3   force =     0.26457205    0.19091773   -2.69155644
     atom   39 type  4   force =    -0.00288912   -0.00299839   -0.02258647
     The ionic contribution  to forces
     atom    1 type  1   force =    -0.00535053    0.00797435 -111.13744516
     atom    2 type  1   force =     0.00370608    0.00881952 -111.14070731
     atom    3 type  1   force =     0.00164444    0.00253569 -111.13009414
     atom    4 type  1   force =    -0.00009871    0.00110402 -111.12722467
     atom    5 type  1   force =    -0.00274187   -0.00481478 -111.13284410
     atom    6 type  1   force =     0.00284058   -0.00662303 -111.13263014
     atom    7 type  1   force =    -0.00656251   -0.00214330 -111.13560561
     atom    8 type  1   force =    -0.00152503   -0.00368104 -111.15188423
     atom    9 type  1   force =     0.00808755   -0.00317146 -111.13868229
     atom   10 type  1   force =    -0.05896512    0.01548278  -40.17082487
     atom   11 type  1   force =     0.04582626    0.01216405  -40.19632144
     atom   12 type  1   force =     0.01313513    0.00183714  -40.08042683
     atom   13 type  1   force =    -0.00856951    0.06650533  -40.09410334
     atom   14 type  1   force =     0.01965157    0.02229998  -40.07176337
     atom   15 type  1   force =    -0.01108019    0.01237349  -40.05423500
     atom   16 type  1   force =    -0.03273282   -0.02411603  -40.06337000
     atom   17 type  1   force =    -0.00344982   -0.07026675  -40.13682433
     atom   18 type  1   force =     0.03618325   -0.03627930  -40.07046592
     atom   19 type  1   force =    -0.26860501    0.39793859   31.33009481
     atom   20 type  1   force =     0.17766279    0.45516813   31.17835718
     atom   21 type  1   force =     0.09039584    0.12276764   31.64728967
     atom   22 type  1   force =    -0.00297730    0.04721134   31.78187828
     atom   23 type  1   force =    -0.13263387   -0.23677464   31.55234847
     atom   24 type  1   force =     0.13561559   -0.31120011   31.56394731
     atom   25 type  1   force =    -0.32734424   -0.09785545   31.42840771
     atom   26 type  1   force =    -0.06917326   -0.20862020   30.50888771
     atom   27 type  1   force =     0.39696811   -0.17309503   31.26295541
     atom   28 type  1   force =    -4.42377509    1.24078436   99.26806660
     atom   29 type  1   force =     3.19141005    0.80887885   98.31987150
     atom   30 type  1   force =     1.08269429   -0.17783661  103.61087706
     atom   31 type  1   force =    -0.20662762    2.52783889  103.47035967
     atom   32 type  1   force =     0.56702501    1.10295057  104.01667800
     atom   33 type  1   force =    -0.34519817    0.39371926  104.42340019
     atom   34 type  1   force =    -1.11299658   -0.82280155  104.16866011
     atom   35 type  1   force =    -0.04017088   -3.79291553  101.64758814
     atom   36 type  1   force =     1.15635114   -1.18166721  104.11834789
     atom   37 type  2   force =     0.59364001    0.37636958   51.11724278
     atom   38 type  3   force =    -1.07119305   -0.76824482   89.64923667
     atom   39 type  4   force =     0.60893348    0.29738326   15.10095758
     The local contribution  to forces
     atom    1 type  1   force =     0.00361277   -0.00668242  111.24359250
     atom    2 type  1   force =    -0.00237515   -0.01129876  111.24859552
     atom    3 type  1   force =    -0.00094678   -0.00189746  111.23376858
     atom    4 type  1   force =    -0.00086209   -0.00185472  111.23265146
     atom    5 type  1   force =     0.00212417    0.00534957  111.23862816
     atom    6 type  1   force =    -0.00130349    0.00436390  111.24085866
     atom    7 type  1   force =     0.00902615    0.00223091  111.24311310
     atom    8 type  1   force =     0.00117116    0.00542890  111.25947298
     atom    9 type  1   force =    -0.01044223    0.00544412  111.24773426
     atom   10 type  1   force =     0.05851894   -0.01791095   40.16123856
     atom   11 type  1   force =    -0.04507091   -0.01293908   40.18202316
     atom   12 type  1   force =    -0.01318196   -0.00220216   40.06971748
     atom   13 type  1   force =     0.00700013   -0.06381567   40.08885425
     atom   14 type  1   force =    -0.01939480   -0.02063564   40.06219007
     atom   15 type  1   force =     0.01257985   -0.01127470   40.04629858
     atom   16 type  1   force =     0.03313078    0.02412886   40.06052617
     atom   17 type  1   force =     0.00093958    0.07038073   40.12985573
     atom   18 type  1   force =    -0.03392235    0.03477936   40.06438702
     atom   19 type  1   force =     0.26805098   -0.39936892  -31.32288990
     atom   20 type  1   force =    -0.17782840   -0.46427369  -31.16296118
     atom   21 type  1   force =    -0.08870809   -0.12434794  -31.63912564
     atom   22 type  1   force =     0.00153050   -0.04857063  -31.77673127
     atom   23 type  1   force =     0.13266894    0.23510369  -31.54006802
     atom   24 type  1   force =    -0.13401653    0.31004749  -31.55627383
     atom   25 type  1   force =     0.32826375    0.10155366  -31.41297795
     atom   26 type  1   force =     0.07354428    0.21582290  -30.49303290
     atom   27 type  1   force =    -0.40435682    0.17851646  -31.24973603
     atom   28 type  1   force =     4.35343836   -1.22411223  -99.36507875
     atom   29 type  1   force =    -3.12800935   -0.79642122  -98.35446712
     atom   30 type  1   force =    -1.07983864    0.17309150 -103.69527756
     atom   31 type  1   force =     0.19742453   -2.49335179 -103.61654019
     atom   32 type  1   force =    -0.56584772   -1.07665049 -104.14032613
     atom   33 type  1   force =     0.34996254   -0.39292178 -104.54214817
     atom   34 type  1   force =     1.10984043    0.82229149 -104.29243790
     atom   35 type  1   force =     0.03678824    3.73516231 -101.79003858
     atom   36 type  1   force =    -1.15036460    1.16144033 -104.25371591
     atom   37 type  2   force =    -0.54353210   -0.30287383  -51.53765620
     atom   38 type  3   force =     0.81282007    0.57723271  -86.97683428
     atom   39 type  4   force =    -0.59564111   -0.28505482  -15.08561095
     The core correction contribution to forces
     atom    1 type  1   force =    -0.00012209   -0.00006629    0.00982403
     atom    2 type  1   force =    -0.00000773   -0.00028090    0.01012012
     atom    3 type  1   force =     0.00027265    0.00000811    0.00984402
     atom    4 type  1   force =     0.00010797   -0.00007458    0.01013338
     atom    5 type  1   force =     0.00017300    0.00005492    0.00998952
     atom    6 type  1   force =    -0.00008605   -0.00008105    0.00987864
     atom    7 type  1   force =     0.00001523    0.00000187    0.01007279
     atom    8 type  1   force =     0.00013404    0.00040396    0.00967678
     atom    9 type  1   force =    -0.00025908   -0.00001561    0.01018396
     atom   10 type  1   force =    -0.00003781    0.00004554   -0.00195122
     atom   11 type  1   force =     0.00010388    0.00015084   -0.00171240
     atom   12 type  1   force =    -0.00007749    0.00023618   -0.00184635
     atom   13 type  1   force =    -0.00040784    0.00021166   -0.00177541
     atom   14 type  1   force =     0.00018645   -0.00002684   -0.00194996
     atom   15 type  1   force =     0.00022907   -0.00002174   -0.00167662
     atom   16 type  1   force =    -0.00008821   -0.00000384   -0.00187524
     atom   17 type  1   force =    -0.00017785    0.00004823   -0.00190905
     atom   18 type  1   force =     0.00010129   -0.00028430   -0.00168291
     atom   19 type  1   force =    -0.00004319    0.00071593    0.00098176
     atom   20 type  1   force =    -0.00029541    0.00088024    0.00026470
     atom   21 type  1   force =     0.00056470    0.00008868    0.00193407
     atom   22 type  1   force =     0.00006573    0.00010708    0.00196863
     atom   23 type  1   force =    -0.00029407    0.00036735    0.00165720
     atom   24 type  1   force =     0.00048626   -0.00055988    0.00137900
     atom   25 type  1   force =     0.00051927   -0.00043009    0.00151304
     atom   26 type  1   force =    -0.00104744   -0.00079048    0.00110424
     atom   27 type  1   force =     0.00076872   -0.00042614    0.00095852
     atom   28 type  1   force =     0.00997514   -0.00221737   -0.00512699
     atom   29 type  1   force =    -0.00322421    0.00059604    0.00114117
     atom   30 type  1   force =    -0.00982845    0.00273725   -0.00552801
     atom   31 type  1   force =     0.00081903   -0.00550645   -0.00760644
     atom   32 type  1   force =    -0.00067532   -0.00793852   -0.00637634
     atom   33 type  1   force =    -0.00028283   -0.00128027   -0.01011298
     atom   34 type  1   force =     0.00104498    0.00130961   -0.00933238
     atom   35 type  1   force =     0.00014635    0.00797815   -0.00574928
     atom   36 type  1   force =    -0.00133834    0.00431830   -0.00769707
     atom   37 type  2   force =     0.00043350    0.00096099   -0.00139854
     atom   38 type  3   force =    -0.00197063   -0.00137172    0.01954273
     atom   39 type  4   force =     0.00000000    0.00000000    0.00000000
     The Hubbard contrib.    to forces
     atom    1 type  1   force =     0.00000000    0.00000000    0.00000000
     atom    2 type  1   force =     0.00000000    0.00000000    0.00000000
     atom    3 type  1   force =     0.00000000    0.00000000    0.00000000
     atom    4 type  1   force =     0.00000000    0.00000000    0.00000000
     atom    5 type  1   force =     0.00000000    0.00000000    0.00000000
     atom    6 type  1   force =     0.00000000    0.00000000    0.00000000
     atom    7 type  1   force =     0.00000000    0.00000000    0.00000000
     atom    8 type  1   force =     0.00000000    0.00000000    0.00000000
     atom    9 type  1   force =     0.00000000    0.00000000    0.00000000
     atom   10 type  1   force =     0.00000000    0.00000000    0.00000000
     atom   11 type  1   force =     0.00000000    0.00000000    0.00000000
     atom   12 type  1   force =     0.00000000    0.00000000    0.00000000
     atom   13 type  1   force =     0.00000000    0.00000000    0.00000000
     atom   14 type  1   force =     0.00000000    0.00000000    0.00000000
     atom   15 type  1   force =     0.00000000    0.00000000    0.00000000
     atom   16 type  1   force =     0.00000000    0.00000000    0.00000000
     atom   17 type  1   force =     0.00000000    0.00000000    0.00000000
     atom   18 type  1   force =     0.00000000    0.00000000    0.00000000
     atom   19 type  1   force =     0.00000000    0.00000000    0.00000000
     atom   20 type  1   force =     0.00000000    0.00000000    0.00000000
     atom   21 type  1   force =     0.00000000    0.00000000    0.00000000
     atom   22 type  1   force =     0.00000000    0.00000000    0.00000000
     atom   23 type  1   force =     0.00000000    0.00000000    0.00000000
     atom   24 type  1   force =     0.00000000    0.00000000    0.00000000
     atom   25 type  1   force =     0.00000000    0.00000000    0.00000000
     atom   26 type  1   force =     0.00000000    0.00000000    0.00000000
     atom   27 type  1   force =     0.00000000    0.00000000    0.00000000
     atom   28 type  1   force =     0.00000000    0.00000000    0.00000000
     atom   29 type  1   force =     0.00000000    0.00000000    0.00000000
     atom   30 type  1   force =     0.00000000    0.00000000    0.00000000
     atom   31 type  1   force =     0.00000000    0.00000000    0.00000000
     atom   32 type  1   force =     0.00000000    0.00000000    0.00000000
     atom   33 type  1   force =     0.00000000    0.00000000    0.00000000
     atom   34 type  1   force =     0.00000000    0.00000000    0.00000000
     atom   35 type  1   force =     0.00000000    0.00000000    0.00000000
     atom   36 type  1   force =     0.00000000    0.00000000    0.00000000
     atom   37 type  2   force =     0.00000000    0.00000000    0.00000000
     atom   38 type  3   force =     0.00000000    0.00000000    0.00000000
     atom   39 type  4   force =     0.00000000    0.00000000    0.00000000
     The SCF correction term to forces
     atom    1 type  1   force =     0.00000000   -0.00000000    0.00000000
     atom    2 type  1   force =    -0.00000000   -0.00000000    0.00000000
     atom    3 type  1   force =    -0.00000000   -0.00000000    0.00000000
     atom    4 type  1   force =     0.00000000   -0.00000000    0.00000000
     atom    5 type  1   force =    -0.00000000   -0.00000000    0.00000000
     atom    6 type  1   force =     0.00000000    0.00000000    0.00000000
     atom    7 type  1   force =     0.00000000   -0.00000000    0.00000000
     atom    8 type  1   force =     0.00000000    0.00000000    0.00000000
     atom    9 type  1   force =    -0.00000000    0.00000000    0.00000000
     atom   10 type  1   force =     0.00000000    0.00000000    0.00000000
     atom   11 type  1   force =    -0.00000000    0.00000000    0.00000000
     atom   12 type  1   force =    -0.00000000    0.00000000    0.00000000
     atom   13 type  1   force =    -0.00000000   -0.00000000    0.00000000
     atom   14 type  1   force =    -0.00000000   -0.00000000    0.00000000
     atom   15 type  1   force =     0.00000000   -0.00000000    0.00000000
     atom   16 type  1   force =    -0.00000000    0.00000000    0.00000000
     atom   17 type  1   force =     0.00000000    0.00000000    0.00000000
     atom   18 type  1   force =    -0.00000000    0.00000000    0.00000000
     atom   19 type  1   force =     0.00000000    0.00000000   -0.00000000
     atom   20 type  1   force =    -0.00000000   -0.00000000   -0.00000000
     atom   21 type  1   force =     0.00000000    0.00000000   -0.00000000
     atom   22 type  1   force =    -0.00000000   -0.00000000   -0.00000000
     atom   23 type  1   force =     0.00000000   -0.00000000   -0.00000000
     atom   24 type  1   force =     0.00000000    0.00000000   -0.00000000
     atom   25 type  1   force =     0.00000000    0.00000000   -0.00000000
     atom   26 type  1   force =     0.00000000    0.00000000   -0.00000000
     atom   27 type  1   force =    -0.00000000   -0.00000000   -0.00000000
     atom   28 type  1   force =     0.00000000    0.00000000   -0.00000000
     atom   29 type  1   force =    -0.00000000    0.00000000   -0.00000000
     atom   30 type  1   force =     0.00000000    0.00000000   -0.00000000
     atom   31 type  1   force =    -0.00000000   -0.00000000   -0.00000000
     atom   32 type  1   force =    -0.00000000    0.00000000   -0.00000000
     atom   33 type  1   force =     0.00000000    0.00000000   -0.00000000
     atom   34 type  1   force =     0.00000000   -0.00000000   -0.00000000
     atom   35 type  1   force =     0.00000000   -0.00000000   -0.00000000
     atom   36 type  1   force =    -0.00000000   -0.00000000   -0.00000000
     atom   37 type  2   force =    -0.00001283    0.00000183    0.00000030
     atom   38 type  3   force =    -0.00000287    0.00000208   -0.00000712
     atom   39 type  4   force =    -0.00000031    0.00000246    0.00000260

     Total force =     0.016459     Total SCF correction =     0.000016

     Writing all to output data dir ./pwscf.save/

     init_run     :     11.49s CPU     11.89s WALL (       1 calls)
     electrons    :    790.36s CPU    800.52s WALL (       1 calls)
     forces       :      3.40s CPU      3.48s WALL (       1 calls)

     Called by init_run:
     wfcinit      :      8.46s CPU      8.75s WALL (       1 calls)
     potinit      :      1.94s CPU      2.03s WALL (       1 calls)
     hinit0       :      0.83s CPU      0.84s WALL (       1 calls)

     Called by electrons:
     c_bands      :    668.98s CPU    677.04s WALL (      52 calls)
     sum_band     :     80.49s CPU     81.50s WALL (      52 calls)
     v_of_rho     :      8.90s CPU      9.37s WALL (      53 calls)
     newd         :      3.04s CPU      3.09s WALL (      53 calls)
     PAW_pot      :     13.11s CPU     13.28s WALL (      53 calls)
     mix_rho      :     17.13s CPU     17.36s WALL (      52 calls)
     vdW_kernel   :      1.07s CPU      1.08s WALL (       1 calls)

     Called by c_bands:
     init_us_2    :      8.78s CPU      8.91s WALL (    2756 calls)
     init_us_2:cp :      8.77s CPU      8.90s WALL (    2756 calls)
     cegterg      :    645.65s CPU    653.15s WALL (    1353 calls)

     Called by *egterg:
     cdiaghg      :    208.53s CPU    209.99s WALL (    4824 calls)
     h_psi        :    289.34s CPU    293.78s WALL (    4850 calls)
     s_psi        :     37.92s CPU     38.33s WALL (    4850 calls)
     g_psi        :      0.92s CPU      0.94s WALL (    3471 calls)

     Called by h_psi:
     h_psi:calbec :     49.97s CPU     50.72s WALL (    4850 calls)
     vloc_psi     :    197.84s CPU    201.09s WALL (    4850 calls)
     add_vuspsi   :     39.27s CPU     39.67s WALL (    4850 calls)

     General routines
     calbec       :     72.86s CPU     73.84s WALL (    6306 calls)
     fft          :      5.81s CPU      6.29s WALL (    4794 calls)
     ffts         :      9.90s CPU     10.04s WALL (   22177 calls)
     fftw         :    224.70s CPU    228.34s WALL ( 1408066 calls)
     interpolate  :      0.39s CPU      0.40s WALL (     106 calls)

     Parallel routines

     PWSCF        :  13m30.95s CPU  13m46.37s WALL


   This run was terminated on:   5:59:48  11Dec2025            

=------------------------------------------------------------------------------=
   JOB DONE.
=------------------------------------------------------------------------------=
