
     Program PWSCF v.7.1 starts on 27Jan2025 at 11:53: 2 
        Git branch: heads/qe-7.1
        Last git commit: 48ba0178f8fede6d020eb786884699a9f063f55d-dirty
        Last git commit date: Fri Jan 27 14:22:33 2023 +0000
        Last git commit subject: Merge branch 'fix_hubbard' into 'develop'

     This program is part of the open-source Quantum ESPRESSO suite
     for quantum simulation of materials; please cite
         "P. Giannozzi et al., J. Phys.:Condens. Matter 21 395502 (2009);
         "P. Giannozzi et al., J. Phys.:Condens. Matter 29 465901 (2017);
         "P. Giannozzi et al., J. Chem. Phys. 152 154105 (2020);
          URL http://www.quantum-espresso.org", 
     in publications or presentations arising from this work. More details at
     http://www.quantum-espresso.org/quote

     Parallel version (MPI), running on    48 processors

     MPI processes distributed on     1 nodes
     278411 MiB available memory on the printing compute node when the environment starts

     Reading input from espresso.pwi
Warning: card &CELL ignored
Warning: card / ignored
Warning: card &FCP ignored
Warning: card / ignored
Warning: card &RISM ignored
Warning: card / ignored

     Current dimensions of program PWSCF are:
     Max number of different atomic species (ntypx) = 10
     Max number of k-points (npk) =  40000
     Max angular momentum in pseudopotentials (lmaxx) =  4
     file Pt.pbe-n-kjpaw_psl.1.0.0.UPF: wavefunction(s)  6S 5D renormalized
     file H.pbe-kjpaw_psl.1.0.0.UPF: wavefunction(s)  1S renormalized

     **************************************************************************
     Initializing libbeef V0.1.2 with the BEEF-vdW functional.
     Citation: Wellendorff et al., PRB 85, 235149 (2012).
     **************************************************************************


     IMPORTANT: XC functional enforced from input :
     Exchange-correlation= BEEF-VDW
                           (   1   4  43  14   2   0   0)
     Any further DFT definition will be discarded
     Please, verify this is what you really want


     R & G space division:  proc/nbgrp/npool/nimage =      48
     Subspace diagonalization in iterative solution of the eigenvalue problem:
     one sub-group per band group will be used
     custom distributed-memory algorithm (size of sub-group:  2*  2 procs)


     Parallelization info
     --------------------
     sticks:   dense  smooth     PW     G-vecs:    dense   smooth      PW
     Min         150      59     16                30552     7447    1068
     Max         151      60     17                30571     7456    1081
     Sum        7243    2839    769              1467143   357639   51591

     Using Slab Decomposition



     bravais-lattice index     =            0
     lattice parameter (alat)  =      16.0028  a.u.
     unit-cell volume          =   10463.1828 (a.u.)^3
     number of atoms/cell      =           37
     number of atomic types    =            2
     number of electrons       =       361.00
     number of Kohn-Sham states=          217
     kinetic-energy cutoff     =      40.0000  Ry
     charge density cutoff     =     410.0000  Ry
     scf convergence threshold =      1.0E-06
     mixing beta               =       0.7000
     number of iterations used =            8  local-TF  mixing
     Exchange-correlation= BEEF-VDW
                           (   1   4  43  14   2   0   0)

     celldm(1)=  16.002787  celldm(2)=   0.000000  celldm(3)=   0.000000
     celldm(4)=   0.000000  celldm(5)=   0.000000  celldm(6)=   0.000000

     crystal axes: (cart. coord. in units of alat)
               a(1) = (   1.000000   0.000000   0.000000 )  
               a(2) = (   0.500000   0.866025   0.000000 )  
               a(3) = (   0.000000   0.000000   2.948128 )  

     reciprocal axes: (cart. coord. in units 2 pi/alat)
               b(1) = (  1.000000 -0.577350  0.000000 )  
               b(2) = (  0.000000  1.154701  0.000000 )  
               b(3) = (  0.000000  0.000000  0.339198 )  


     PseudoPot. # 1 for Pt read from file:
     /users/kbadger1/espresso/pseudo/pslibrary.1.0.0/pbe/PSEUDOPOTENTIALS/Pt.pbe-n-kjpaw_psl.1.0.0.UPF
     MD5 check sum: 2e24a0b5bf98a4ed1a57fa81bca8c143
     Pseudo is Projector augmented-wave + core cor, Zval = 10.0
     Generated using 'atomic' code by A. Dal Corso  v.7.0
     Shape of augmentation charge: PSQ
     Using radial grid of 1277 points,  6 beta functions with: 
                l(1) =   0
                l(2) =   0
                l(3) =   1
                l(4) =   1
                l(5) =   2
                l(6) =   2
     Q(r) pseudized with 0 coefficients 


     PseudoPot. # 2 for H  read from file:
     /users/kbadger1/espresso/pseudo/pslibrary.1.0.0/pbe/PSEUDOPOTENTIALS/H.pbe-kjpaw_psl.1.0.0.UPF
     MD5 check sum: fe4c6fa958fa6d3815bf5d2419cbf1df
     Pseudo is Projector augmented-wave, Zval =  1.0
     Generated using 'atomic' code by A. Dal Corso  v.7.0
     Shape of augmentation charge: PSQ
     Using radial grid of  929 points,  2 beta functions with: 
                l(1) =   0
                l(2) =   0
     Q(r) pseudized with 0 coefficients 


     atomic species   valence    mass     pseudopotential
        Pt            10.00   195.08400     Pt( 1.00)
        H              1.00     1.00800     H ( 1.00)

     No symmetry found



   Cartesian axes

     site n.     atom                  positions (alat units)
         1           Pt  tau(   1) = (   0.0000000   0.0000000   1.0037422  )
         2           Pt  tau(   2) = (   0.3340014   0.0000000   1.0037422  )
         3           Pt  tau(   3) = (   0.6680027   0.0000000   1.0037422  )
         4           Pt  tau(   4) = (   0.1670007   0.2892537   1.0037422  )
         5           Pt  tau(   5) = (   0.5010021   0.2892537   1.0037422  )
         6           Pt  tau(   6) = (   0.8350034   0.2892537   1.0037422  )
         7           Pt  tau(   7) = (   0.3340014   0.5785073   1.0037422  )
         8           Pt  tau(   8) = (   0.6680027   0.5785073   1.0037422  )
         9           Pt  tau(   9) = (   1.0020041   0.5785073   1.0037422  )
        10           Pt  tau(  10) = (   0.1670007   0.0964179   1.2764532  )
        11           Pt  tau(  11) = (   0.5010021   0.0964179   1.2764532  )
        12           Pt  tau(  12) = (   0.8350034   0.0964179   1.2764532  )
        13           Pt  tau(  13) = (   0.3340014   0.3856716   1.2764532  )
        14           Pt  tau(  14) = (   0.6680027   0.3856716   1.2764532  )
        15           Pt  tau(  15) = (   1.0020041   0.3856716   1.2764532  )
        16           Pt  tau(  16) = (   0.5010021   0.6749252   1.2764532  )
        17           Pt  tau(  17) = (   0.8350034   0.6749252   1.2764532  )
        18           Pt  tau(  18) = (   1.1690048   0.6749252   1.2764532  )
        19           Pt  tau(  19) = (   0.0024908   0.1936375   1.5483030  )
        20           Pt  tau(  20) = (   0.3348044   0.1933586   1.5484346  )
        21           Pt  tau(  21) = (   0.6687203   0.1934558   1.5458442  )
        22           Pt  tau(  22) = (   0.1686409   0.4815488   1.5477119  )
        23           Pt  tau(  23) = (   0.5018521   0.4824805   1.5458409  )
        24           Pt  tau(  24) = (   0.8354682   0.4824035   1.5458985  )
        25           Pt  tau(  25) = (   0.3358848   0.7713195   1.5474348  )
        26           Pt  tau(  26) = (   0.6688911   0.7714365   1.5483057  )
        27           Pt  tau(  27) = (   1.0013128   0.7713650   1.5477148  )
        28           Pt  tau(  28) = (  -0.0002411  -0.0000179   1.8260954  )
        29           Pt  tau(  29) = (   0.3402697  -0.0004508   1.8285746  )
        30           Pt  tau(  30) = (   0.6700331   0.0020384   1.8223551  )
        31           Pt  tau(  31) = (   0.1696405   0.2950875   1.8285732  )
        32           Pt  tau(  32) = (   0.5050529   0.2917204   1.8212811  )
        33           Pt  tau(  33) = (   0.8351997   0.2911582   1.8217015  )
        34           Pt  tau(  34) = (   0.3366824   0.5794028   1.8223517  )
        35           Pt  tau(  35) = (   0.6696460   0.5778924   1.8217052  )
        36           Pt  tau(  36) = (   1.0028654   0.5791133   1.8221789  )
        37           H   tau(  37) = (   0.1893584   0.1094479   1.9333766  )

     number of k points=    13  Marzari-Vanderbilt smearing, width (Ry)=  0.0200
                       cart. coord. in units 2pi/alat
        k(    1) = (   0.0000000   0.0000000   0.0000000), wk =   0.0800000
        k(    2) = (   0.0000000   0.2309401   0.0000000), wk =   0.1600000
        k(    3) = (   0.0000000   0.4618802   0.0000000), wk =   0.1600000
        k(    4) = (   0.2000000  -0.1154701   0.0000000), wk =   0.1600000
        k(    5) = (   0.2000000   0.1154701   0.0000000), wk =   0.1600000
        k(    6) = (   0.2000000   0.3464102   0.0000000), wk =   0.1600000
        k(    7) = (   0.2000000  -0.5773503   0.0000000), wk =   0.1600000
        k(    8) = (   0.2000000  -0.3464102   0.0000000), wk =   0.1600000
        k(    9) = (   0.4000000  -0.2309401   0.0000000), wk =   0.1600000
        k(   10) = (   0.4000000   0.0000000   0.0000000), wk =   0.1600000
        k(   11) = (   0.4000000   0.2309401   0.0000000), wk =   0.1600000
        k(   12) = (   0.4000000  -0.6928203   0.0000000), wk =   0.1600000
        k(   13) = (   0.4000000  -0.4618802   0.0000000), wk =   0.1600000

     Dense  grid:  1467143 G-vectors     FFT dimensions: ( 108, 108, 320)

     Smooth grid:   357639 G-vectors     FFT dimensions: (  72,  72, 192)

     Estimated max dynamical RAM per process >     211.30 MB

     Estimated total dynamical RAM >       9.90 GB

     Initial potential from superposition of free atoms

     starting charge     360.9939, renormalised to     361.0000

     negative rho (up, down):  3.564E-03 0.000E+00


     %%%%%%%%%%%%%%%%%%%%%%%%%%%%%%%%%%%%%%%%%%%%%%%%%%%%%%%%%%%%%%%%%%%%%%%%
     %                                                                      %
     % You are using vdW-DF, which was implemented by the Thonhauser group. %
     % Please cite the following two papers that made this development      %
     % possible and the two reviews that describe the various versions:     %
     %                                                                      %
     %   T. Thonhauser et al., PRL 115, 136402 (2015).                      %
     %   T. Thonhauser et al., PRB 76, 125112 (2007).                       %
     %   K. Berland et al., Rep. Prog. Phys. 78, 066501 (2015).             %
     %   D.C. Langreth et al., J. Phys.: Condens. Matter 21, 084203 (2009). %
     %                                                                      %
     % If you are calculating stress with vdW-DF, please also cite:         %
     %                                                                      %
     %   R. Sabatini et al., J. Phys.: Condens. Matter 24, 424209 (2012).   %
     %                                                                      %
     %%%%%%%%%%%%%%%%%%%%%%%%%%%%%%%%%%%%%%%%%%%%%%%%%%%%%%%%%%%%%%%%%%%%%%%%

     %%%%%%%%%%%%%%%%%%%%%%%%%%%%%%%%%%%%%%%%%%%%%%%%%%%%%%%%%%%%%%%%%%%%%%%%
     %                                                                      %
     %  vdW-DF NEWS:                                                        %
     %                                                                      %
     %  * vdW-DF3 is now available. DOI: 10.1021/acs.jctc.0c00471           %
     %    use with input_dft = 'vdW-DF3-opt1' or 'vdW-DF3-opt2'             %
     %                                                                      %
     %  * Unscreened and range-separated hybrid vdW-DF-cx functionals       %
     %    DOI: 10.1063/1.4986522 and 10.1088/1361-648X/ac2ad2               %
     %    use with input_dft = 'vdW-DF-cx0'    and 'vdW-DF-ahcx'            %
     %  * Unscreened and range-separated hybrid vdW-DF2-b86r functionals    %
     %    DOI: 10.1063/1.4986522 and DOI: 10.1103/PhysRevX.12.041003        %
     %    use with input_dft = 'vdW-DF2-br0' and 'vdW-DF2-ahbr'             %
     %                                                                      %
     %%%%%%%%%%%%%%%%%%%%%%%%%%%%%%%%%%%%%%%%%%%%%%%%%%%%%%%%%%%%%%%%%%%%%%%%


     Starting wfcs are  325 randomized atomic wfcs
     Checking if some PAW data can be deallocated... 

     total cpu time spent up to now is       10.9 secs

     per-process dynamical memory:   208.7 Mb

     Self-consistent Calculation

     iteration #  1     ecut=    40.00 Ry     beta= 0.70
     Davidson diagonalization with overlap
     ethr =  1.00E-02,  avg # of iterations =  2.0

     Threshold (ethr) on eigenvalues was too large:
     Diagonalizing with lowered threshold

     Davidson diagonalization with overlap
     ethr =  3.69E-04,  avg # of iterations =  3.8

     negative rho (up, down):  1.781E-02 0.000E+00

     total cpu time spent up to now is       45.7 secs

     total energy              =  -27755.29716239 Ry
     estimated scf accuracy    <       1.53405754 Ry

     iteration #  2     ecut=    40.00 Ry     beta= 0.70
     Davidson diagonalization with overlap
     ethr =  4.25E-04,  avg # of iterations =  2.0

     negative rho (up, down):  1.609E-02 0.000E+00

     total cpu time spent up to now is       62.0 secs

     total energy              =  -27755.39511450 Ry
     estimated scf accuracy    <       0.75857361 Ry

     iteration #  3     ecut=    40.00 Ry     beta= 0.70
     Davidson diagonalization with overlap
     ethr =  2.10E-04,  avg # of iterations =  2.0

     negative rho (up, down):  1.084E-02 0.000E+00

     total cpu time spent up to now is       74.6 secs

     total energy              =  -27755.44643119 Ry
     estimated scf accuracy    <       0.08763150 Ry

     iteration #  4     ecut=    40.00 Ry     beta= 0.70
     Davidson diagonalization with overlap
     c_bands:  2 eigenvalues not converged
     c_bands:  1 eigenvalues not converged
     c_bands:  1 eigenvalues not converged
     c_bands:  1 eigenvalues not converged
     ethr =  2.43E-05,  avg # of iterations = 15.3

     negative rho (up, down):  7.846E-03 0.000E+00

     total cpu time spent up to now is      115.1 secs

     total energy              =  -27755.49381354 Ry
     estimated scf accuracy    <       0.06680311 Ry

     iteration #  5     ecut=    40.00 Ry     beta= 0.70
     Davidson diagonalization with overlap
     c_bands:  1 eigenvalues not converged
     c_bands:  1 eigenvalues not converged
     ethr =  1.85E-05,  avg # of iterations =  6.3

     negative rho (up, down):  3.940E-03 0.000E+00

     total cpu time spent up to now is      129.3 secs

     total energy              =  -27755.49399326 Ry
     estimated scf accuracy    <       0.02611719 Ry

     iteration #  6     ecut=    40.00 Ry     beta= 0.70
     Davidson diagonalization with overlap
     c_bands:  1 eigenvalues not converged
     ethr =  7.23E-06,  avg # of iterations =  8.5

     negative rho (up, down):  2.156E-03 0.000E+00

     total cpu time spent up to now is      149.8 secs

     total energy              =  -27755.49584328 Ry
     estimated scf accuracy    <       0.00240875 Ry

     iteration #  7     ecut=    40.00 Ry     beta= 0.70
     Davidson diagonalization with overlap
     c_bands:  1 eigenvalues not converged
     c_bands:  1 eigenvalues not converged
     ethr =  6.67E-07,  avg # of iterations = 11.3

     negative rho (up, down):  1.716E-03 0.000E+00

     total cpu time spent up to now is      178.1 secs

     total energy              =  -27755.49631141 Ry
     estimated scf accuracy    <       0.00169086 Ry

     iteration #  8     ecut=    40.00 Ry     beta= 0.70
     Davidson diagonalization with overlap
     ethr =  4.68E-07,  avg # of iterations =  2.0

     negative rho (up, down):  1.478E-03 0.000E+00

     total cpu time spent up to now is      192.7 secs

     total energy              =  -27755.49643621 Ry
     estimated scf accuracy    <       0.00019590 Ry

     iteration #  9     ecut=    40.00 Ry     beta= 0.70
     Davidson diagonalization with overlap
     ethr =  5.43E-08,  avg # of iterations =  4.9

     negative rho (up, down):  1.126E-03 0.000E+00

     total cpu time spent up to now is      217.1 secs

     total energy              =  -27755.49650997 Ry
     estimated scf accuracy    <       0.00008274 Ry

     iteration # 10     ecut=    40.00 Ry     beta= 0.70
     Davidson diagonalization with overlap
     ethr =  2.29E-08,  avg # of iterations =  3.8

     negative rho (up, down):  1.059E-03 0.000E+00

     total cpu time spent up to now is      241.4 secs

     total energy              =  -27755.49653326 Ry
     estimated scf accuracy    <       0.00007185 Ry

     iteration # 11     ecut=    40.00 Ry     beta= 0.70
     Davidson diagonalization with overlap
     ethr =  1.99E-08,  avg # of iterations =  1.7

     negative rho (up, down):  1.124E-03 0.000E+00

     total cpu time spent up to now is      253.8 secs

     total energy              =  -27755.49653774 Ry
     estimated scf accuracy    <       0.00004737 Ry

     iteration # 12     ecut=    40.00 Ry     beta= 0.70
     Davidson diagonalization with overlap
     ethr =  1.31E-08,  avg # of iterations =  1.6

     negative rho (up, down):  1.308E-03 0.000E+00

     total cpu time spent up to now is      269.2 secs

     total energy              =  -27755.49654088 Ry
     estimated scf accuracy    <       0.00002004 Ry

     iteration # 13     ecut=    40.00 Ry     beta= 0.70
     Davidson diagonalization with overlap
     ethr =  5.55E-09,  avg # of iterations =  2.3

     negative rho (up, down):  1.719E-03 0.000E+00

     total cpu time spent up to now is      282.3 secs

     total energy              =  -27755.49654318 Ry
     estimated scf accuracy    <       0.00001163 Ry

     iteration # 14     ecut=    40.00 Ry     beta= 0.70
     Davidson diagonalization with overlap
     ethr =  3.22E-09,  avg # of iterations =  2.2

     negative rho (up, down):  1.993E-03 0.000E+00

     total cpu time spent up to now is      298.6 secs

     total energy              =  -27755.49654616 Ry
     estimated scf accuracy    <       0.00000760 Ry

     iteration # 15     ecut=    40.00 Ry     beta= 0.70
     Davidson diagonalization with overlap
     ethr =  2.11E-09,  avg # of iterations =  1.7

     negative rho (up, down):  2.913E-03 0.000E+00

     total cpu time spent up to now is      313.1 secs

     total energy              =  -27755.49654287 Ry
     estimated scf accuracy    <       0.00000666 Ry

     iteration # 16     ecut=    40.00 Ry     beta= 0.70
     Davidson diagonalization with overlap
     ethr =  1.85E-09,  avg # of iterations =  1.8

     negative rho (up, down):  3.353E-03 0.000E+00

     total cpu time spent up to now is      328.5 secs

     End of self-consistent calculation

          k = 0.0000 0.0000 0.0000 ( 44645 PWs)   bands (ev):

    -6.6571  -5.5769  -4.8603  -4.2468  -4.2185  -4.2089  -4.2017  -4.1902
    -4.1874  -4.1804  -3.8690  -3.6636  -3.6588  -3.6548  -3.6546  -3.6466
    -3.5656  -3.2078  -3.2035  -3.1857  -3.1845  -3.1754  -3.0932  -2.9752
    -2.9714  -2.9683  -2.9641  -2.9638  -2.8609  -2.7683  -2.7636  -2.7499
    -2.7494  -2.7353  -2.7146  -2.7031  -2.6954  -2.6923  -2.6653  -2.6630
    -2.3112  -2.1253  -2.1249  -2.0826  -2.0703  -2.0603  -2.0530  -2.0304
    -2.0282  -2.0206  -1.8817  -1.8812  -1.7861  -1.7705  -1.7688  -1.3269
    -1.3232  -1.3146  -1.3050  -1.2979  -1.2526  -1.2111  -1.1210  -1.1145
    -1.1129  -1.1032  -1.0988  -1.0959  -1.0919  -1.0537  -1.0511  -1.0458
    -1.0433  -1.0427  -1.0029  -0.9973  -0.9962  -0.8975  -0.8949  -0.8925
    -0.8873  -0.8833  -0.8737  -0.6833  -0.6685  -0.6649  -0.6616  -0.6614
    -0.6481  -0.6377  -0.6352  -0.5607  -0.5542  -0.4908  -0.4812  -0.4723
    -0.4519  -0.4453  -0.4264  -0.4212  -0.3569  -0.2614  -0.2577  -0.2553
    -0.2407  -0.2405  -0.2317   0.0012   0.2427   0.2583   0.2653   0.2782
     0.2788   0.2882   0.2910   0.2984   0.3120   0.3165   0.3243   0.3829
     0.3871   0.4612   0.5362   0.5393   0.5467   0.5508   0.5636   0.6570
     0.6690   0.7208   0.7227   0.7286   0.7495   0.9764   0.9904   0.9929
     1.0119   1.0150   1.0186   1.0722   1.0865   1.2163   1.2175   1.2362
     1.2374   1.2397   1.2405   1.3603   1.3902   1.4089   1.4221   1.4356
     1.4405   1.4478   1.4493   1.4515   1.4549   1.4577   1.4612   1.5437
     1.5513   1.5710   1.5900   1.5970   1.6143   1.6237   1.6241   1.6728
     1.6886   1.6924   1.7205   1.7214   1.7351   1.7392   1.7451   1.8134
     1.8225   1.8238   1.8319   1.8343   1.8384   1.8853   1.9142   1.9219
     1.9343   1.9364   1.9447   1.9513   2.1351   2.1454   2.2355   2.2383
     2.2389   2.2592   2.2602   2.2630   2.8082   3.0871   3.1005   3.1140
     3.1452   3.1505   3.1534   5.1529   5.3963   5.4070   5.4648   5.4755
     5.4757   6.9801   7.0254   7.0768   7.1118   7.1173   7.1181   7.2166
     7.3277

          k = 0.0000 0.2309 0.0000 ( 44694 PWs)   bands (ev):

    -6.5096  -5.4590  -4.8143  -4.6758  -4.3151  -4.3011  -4.1037  -4.0115
    -3.9707  -3.9624  -3.8508  -3.7467  -3.7083  -3.5917  -3.5866  -3.5746
    -3.4896  -3.2815  -3.1595  -3.1539  -3.1464  -3.1198  -3.0739  -3.0409
    -3.0165  -2.9696  -2.9658  -2.9603  -2.8847  -2.8614  -2.8539  -2.7779
    -2.7648  -2.7472  -2.7405  -2.5939  -2.5444  -2.5225  -2.5151  -2.4881
    -2.3159  -2.2406  -2.2362  -2.1815  -2.1528  -2.1382  -2.1257  -2.0269
    -1.9476  -1.8836  -1.8652  -1.8499  -1.8044  -1.7839  -1.7246  -1.5696
    -1.4741  -1.4678  -1.4255  -1.4121  -1.3807  -1.3279  -1.3028  -1.2949
    -1.2715  -1.2567  -1.1932  -1.1777  -1.1493  -1.1134  -1.0986  -1.0519
    -1.0122  -1.0060  -1.0009  -0.9198  -0.9162  -0.8988  -0.8705  -0.8323
    -0.8257  -0.8087  -0.7761  -0.7350  -0.7024  -0.6899  -0.6815  -0.6794
    -0.6496  -0.6368  -0.5917  -0.5556  -0.5372  -0.5248  -0.5117  -0.5012
    -0.4873  -0.4534  -0.4316  -0.4240  -0.3529  -0.2879  -0.2788  -0.2491
    -0.2395  -0.2356  -0.2295  -0.2183  -0.1765  -0.1691  -0.1548  -0.1407
     0.0707   0.1875   0.2377   0.2512   0.2641   0.2696   0.2785   0.3207
     0.3247   0.3881   0.4687   0.4907   0.5563   0.6093   0.6136   0.6480
     0.6720   0.6823   0.7186   0.7332   0.7434   0.8325   0.8585   0.8671
     0.8774   0.8829   1.0186   1.0810   1.0909   1.0998   1.1152   1.1212
     1.1361   1.1986   1.2259   1.2592   1.2760   1.2818   1.3348   1.3470
     1.3617   1.3724   1.4465   1.4664   1.4909   1.5009   1.5370   1.6029
     1.6336   1.6512   1.6600   1.6720   1.6925   1.7197   1.7840   1.7881
     1.8397   1.8503   1.8680   1.8766   1.8988   1.9097   1.9182   1.9299
     1.9323   1.9866   1.9894   2.1239   2.1317   2.1488   2.1769   2.1841
     2.1885   2.2139   2.2466   2.2524   2.2743   2.3524   2.3762   2.4005
     2.4496   2.5645   2.5683   2.5837   2.6083   2.9532   2.9954   3.5219
     3.7210   3.7470   3.8598   4.6654   5.0816   5.1615   5.8396   5.9266
     5.9381   6.0057   6.2520   6.7248   6.8846   7.0428   7.2597   7.2887
     7.3140

          k = 0.0000 0.4619 0.0000 ( 44748 PWs)   bands (ev):

    -6.0867  -5.4632  -5.1524  -4.5917  -4.3473  -4.3324  -4.1439  -3.9730
    -3.8360  -3.7164  -3.6272  -3.6196  -3.5697  -3.4596  -3.4142  -3.4054
    -3.4007  -3.3910  -3.2553  -3.2306  -3.2239  -3.1859  -3.1781  -3.1592
    -3.0896  -3.0535  -3.0495  -2.9564  -2.8005  -2.7897  -2.7861  -2.7703
    -2.7661  -2.6733  -2.5417  -2.5328  -2.5210  -2.4874  -2.4801  -2.3857
    -2.2797  -2.2149  -2.1952  -2.1853  -2.1593  -2.1289  -2.0811  -2.0562
    -2.0471  -2.0151  -1.9820  -1.8590  -1.8349  -1.8288  -1.8051  -1.7386
    -1.6748  -1.6471  -1.6140  -1.6037  -1.5834  -1.4574  -1.4082  -1.3940
    -1.3910  -1.3723  -1.2920  -1.2825  -1.2455  -1.1587  -1.1422  -1.1301
    -1.0790  -1.0301  -1.0261  -0.9922  -0.9877  -0.9512  -0.9212  -0.9099
    -0.8974  -0.8839  -0.8767  -0.8604  -0.8438  -0.8402  -0.7445  -0.7280
    -0.7178  -0.7039  -0.7003  -0.6917  -0.6657  -0.5603  -0.5268  -0.5149
    -0.4861  -0.4782  -0.4578  -0.4301  -0.3933  -0.3825  -0.3014  -0.2707
    -0.2344  -0.2085  -0.1921  -0.1748  -0.1498  -0.0096   0.0111   0.0782
     0.0985   0.1506   0.1716   0.1975   0.2065   0.2101   0.2159   0.2530
     0.2869   0.3157   0.3256   0.3349   0.3630   0.3847   0.3885   0.4096
     0.4257   0.5268   0.5591   0.5714   0.6376   0.6669   0.7620   0.7640
     0.8586   0.8640   0.9097   0.9580   1.0357   1.0408   1.0893   1.1013
     1.1238   1.1331   1.1667   1.1969   1.2328   1.2415   1.2990   1.3391
     1.3469   1.3909   1.4049   1.4207   1.4307   1.4797   1.5637   1.5993
     1.6702   1.6936   1.7001   1.7147   1.7543   1.8099   1.8164   1.8788
     1.8929   1.8990   1.9140   1.9619   1.9971   2.0064   2.0209   2.1370
     2.1431   2.1570   2.1659   2.1735   2.1770   2.1940   2.2174   2.3929
     2.4073   2.4175   2.4223   2.4291   2.6003   2.6469   2.8921   3.0034
     3.0646   3.2532   3.4770   3.4855   3.7592   3.8646   3.9708   4.1648
     4.4573   4.7062   4.7125   4.7821   4.8965   4.9386   5.0356   5.0614
     5.2987   5.3574   5.8825   5.9749   6.4007   6.5143   6.8707   6.9756
     7.4611

          k = 0.2000-0.1155 0.0000 ( 44694 PWs)   bands (ev):

    -6.5096  -5.4590  -4.8143  -4.6759  -4.3150  -4.3011  -4.1037  -4.0117
    -3.9707  -3.9621  -3.8508  -3.7466  -3.7084  -3.5918  -3.5866  -3.5747
    -3.4896  -3.2814  -3.1594  -3.1539  -3.1464  -3.1199  -3.0738  -3.0409
    -3.0165  -2.9698  -2.9659  -2.9602  -2.8848  -2.8613  -2.8539  -2.7781
    -2.7648  -2.7472  -2.7404  -2.5939  -2.5443  -2.5226  -2.5150  -2.4879
    -2.3159  -2.2405  -2.2361  -2.1815  -2.1528  -2.1382  -2.1257  -2.0269
    -1.9475  -1.8836  -1.8652  -1.8499  -1.8044  -1.7839  -1.7246  -1.5694
    -1.4741  -1.4678  -1.4253  -1.4118  -1.3804  -1.3275  -1.3032  -1.2951
    -1.2718  -1.2568  -1.1932  -1.1777  -1.1490  -1.1134  -1.0985  -1.0519
    -1.0127  -1.0064  -1.0014  -0.9198  -0.9161  -0.8987  -0.8705  -0.8320
    -0.8254  -0.8080  -0.7765  -0.7350  -0.7026  -0.6900  -0.6815  -0.6794
    -0.6495  -0.6369  -0.5917  -0.5557  -0.5374  -0.5247  -0.5116  -0.5013
    -0.4873  -0.4534  -0.4318  -0.4239  -0.3529  -0.2879  -0.2787  -0.2491
    -0.2398  -0.2358  -0.2295  -0.2184  -0.1764  -0.1690  -0.1548  -0.1407
     0.0711   0.1877   0.2376   0.2511   0.2640   0.2696   0.2785   0.3206
     0.3246   0.3881   0.4687   0.4905   0.5561   0.6091   0.6136   0.6485
     0.6716   0.6823   0.7185   0.7332   0.7434   0.8325   0.8585   0.8672
     0.8773   0.8830   1.0185   1.0809   1.0908   1.0997   1.1152   1.1212
     1.1361   1.1986   1.2259   1.2592   1.2761   1.2819   1.3350   1.3471
     1.3617   1.3725   1.4465   1.4665   1.4909   1.5011   1.5369   1.6029
     1.6336   1.6512   1.6600   1.6718   1.6923   1.7197   1.7840   1.7881
     1.8397   1.8503   1.8679   1.8766   1.8988   1.9098   1.9182   1.9298
     1.9325   1.9864   1.9892   2.1237   2.1317   2.1490   2.1769   2.1842
     2.1888   2.2141   2.2468   2.2527   2.2744   2.3523   2.3762   2.4005
     2.4495   2.5645   2.5684   2.5837   2.6081   2.9535   2.9958   3.5218
     3.7210   3.7468   3.8598   4.6651   5.0819   5.1619   5.8396   5.9266
     5.9381   6.0058   6.2518   6.7247   6.8847   7.0422   7.2597   7.2888
     7.3132

          k = 0.2000 0.1155 0.0000 ( 44694 PWs)   bands (ev):

    -6.5103  -5.4648  -4.8317  -4.6578  -4.3143  -4.3022  -4.1042  -4.0173
    -3.9634  -3.9621  -3.8672  -3.7463  -3.6748  -3.5915  -3.5869  -3.5784
    -3.5095  -3.2779  -3.1571  -3.1537  -3.1453  -3.1047  -3.0728  -3.0447
    -3.0149  -2.9819  -2.9688  -2.9632  -2.8667  -2.8590  -2.8533  -2.7789
    -2.7641  -2.7452  -2.7374  -2.5855  -2.5440  -2.5197  -2.5190  -2.4887
    -2.3115  -2.2381  -2.2335  -2.1811  -2.1530  -2.1423  -2.1280  -2.0328
    -1.9479  -1.8841  -1.8641  -1.8521  -1.8025  -1.7841  -1.7145  -1.5635
    -1.4733  -1.4682  -1.4173  -1.4096  -1.3766  -1.3208  -1.3134  -1.2975
    -1.2758  -1.2566  -1.1988  -1.1800  -1.1339  -1.1125  -1.0987  -1.0582
    -1.0258  -1.0146  -1.0077  -0.9195  -0.9108  -0.8989  -0.8711  -0.8244
    -0.8109  -0.8089  -0.7859  -0.7342  -0.7075  -0.6912  -0.6783  -0.6780
    -0.6442  -0.6432  -0.5901  -0.5559  -0.5402  -0.5258  -0.5148  -0.5008
    -0.4963  -0.4565  -0.4316  -0.4220  -0.3551  -0.2860  -0.2750  -0.2570
    -0.2514  -0.2387  -0.2275  -0.2233  -0.1770  -0.1609  -0.1602  -0.1472
     0.0860   0.1876   0.2285   0.2544   0.2580   0.2703   0.2812   0.3185
     0.3265   0.3681   0.4600   0.4864   0.5546   0.6059   0.6096   0.6593
     0.6615   0.6767   0.7152   0.7303   0.7373   0.8304   0.8673   0.8694
     0.8806   0.8840   1.0526   1.0753   1.0868   1.1059   1.1122   1.1184
     1.1323   1.2069   1.2222   1.2527   1.2765   1.2840   1.3324   1.3485
     1.3604   1.3670   1.4450   1.4639   1.4984   1.5018   1.5450   1.6039
     1.6155   1.6481   1.6606   1.6617   1.6901   1.7215   1.7815   1.7905
     1.8462   1.8472   1.8671   1.8851   1.8998   1.9124   1.9168   1.9288
     1.9348   1.9811   1.9851   2.1250   2.1274   2.1524   2.1829   2.1891
     2.1910   2.2175   2.2547   2.2566   2.2776   2.3648   2.3747   2.3987
     2.4506   2.5660   2.5695   2.5828   2.6056   2.9612   2.9966   3.5285
     3.7140   3.7438   3.8618   4.6449   5.1153   5.1644   5.8271   5.9276
     5.9501   6.0020   6.2312   6.7161   6.8827   7.0255   7.2715   7.2952
     7.3121

          k = 0.2000 0.3464 0.0000 ( 44714 PWs)   bands (ev):

    -6.2250  -5.2982  -4.9682  -4.9558  -4.5929  -3.8903  -3.8883  -3.8813
    -3.8679  -3.8338  -3.8140  -3.7927  -3.7050  -3.7004  -3.5255  -3.3204
    -3.3050  -3.2994  -3.2969  -3.2308  -3.2026  -3.0832  -3.0659  -3.0618
    -3.0497  -2.9889  -2.9479  -2.9100  -2.9059  -2.8997  -2.8399  -2.8159
    -2.8054  -2.7467  -2.7384  -2.6457  -2.4931  -2.4040  -2.3144  -2.3081
    -2.2683  -2.2569  -2.2426  -2.2373  -2.1798  -2.1498  -2.1065  -2.0165
    -2.0054  -1.9128  -1.8889  -1.8753  -1.8355  -1.8228  -1.7540  -1.7252
    -1.7091  -1.5671  -1.5443  -1.5203  -1.4695  -1.4551  -1.4209  -1.4113
    -1.4042  -1.3478  -1.3159  -1.2096  -1.1932  -1.1793  -1.1648  -1.1297
    -1.1178  -1.0690  -1.0356  -1.0125  -0.9633  -0.8996  -0.8931  -0.8673
    -0.8502  -0.8308  -0.8179  -0.8015  -0.7836  -0.7619  -0.7427  -0.7231
    -0.7013  -0.6897  -0.5880  -0.5817  -0.5693  -0.5490  -0.5182  -0.5081
    -0.4828  -0.4573  -0.4386  -0.4318  -0.4244  -0.4161  -0.4105  -0.3907
    -0.3529  -0.3355  -0.2464  -0.2181  -0.1835  -0.1156  -0.1006  -0.0897
    -0.0725   0.0991   0.1259   0.1537   0.2252   0.2317   0.2792   0.2882
     0.3138   0.3265   0.3642   0.3783   0.4009   0.4162   0.4284   0.5095
     0.6027   0.6464   0.6672   0.6837   0.7137   0.7323   0.7576   0.8027
     0.8777   0.9129   0.9215   0.9548   1.0022   1.0331   1.0753   1.1205
     1.1268   1.1422   1.2015   1.2152   1.2234   1.2420   1.2465   1.2633
     1.2724   1.2797   1.2885   1.3851   1.4500   1.4823   1.6101   1.6234
     1.6451   1.7729   1.7839   1.8034   1.8092   1.8858   1.9067   1.9290
     1.9426   1.9647   1.9773   1.9902   2.0083   2.0108   2.0214   2.0565
     2.0764   2.0930   2.1662   2.1896   2.2016   2.2324   2.2397   2.2793
     2.4070   2.4364   2.4703   2.4878   2.5405   2.5495   2.5672   2.6566
     2.7099   3.0344   3.2183   3.2462   3.6141   3.7723   3.7800   3.7892
     4.2894   4.4638   4.4852   4.6482   4.7224   4.7466   5.3642   5.8038
     5.8965   5.9153   6.1145   6.3856   6.6169   6.6612   6.6936   6.7173
     7.1174

          k = 0.2000-0.5774 0.0000 ( 44692 PWs)   bands (ev):

    -5.7216  -5.6606  -5.1549  -4.9474  -4.4328  -4.2132  -3.8854  -3.8303
    -3.7534  -3.7046  -3.5984  -3.5928  -3.4979  -3.4918  -3.4054  -3.3813
    -3.3651  -3.3400  -3.3268  -3.3079  -3.1962  -3.1653  -3.1588  -3.1313
    -3.1171  -3.1077  -3.0480  -2.9531  -2.9077  -2.7990  -2.7753  -2.7603
    -2.7470  -2.7303  -2.6968  -2.6418  -2.5208  -2.5129  -2.4159  -2.3317
    -2.3165  -2.2523  -2.1848  -2.1547  -2.1328  -2.0648  -2.0008  -1.9563
    -1.9204  -1.9017  -1.8806  -1.8457  -1.8340  -1.7944  -1.7193  -1.7114
    -1.6900  -1.6805  -1.6702  -1.6647  -1.6097  -1.6023  -1.5812  -1.4786
    -1.4621  -1.3963  -1.3681  -1.3057  -1.2762  -1.2379  -1.2123  -1.1773
    -1.1678  -1.1590  -1.0956  -1.0854  -1.0591  -1.0334  -1.0033  -0.9545
    -0.9370  -0.8490  -0.8380  -0.8292  -0.8191  -0.8120  -0.7318  -0.6725
    -0.6385  -0.6236  -0.6187  -0.5897  -0.5547  -0.5452  -0.5381  -0.5131
    -0.5038  -0.4896  -0.4724  -0.4329  -0.4058  -0.4006  -0.3961  -0.3840
    -0.3737  -0.3724  -0.3293  -0.2988  -0.2751  -0.0846  -0.0612   0.0097
     0.0286   0.0960   0.1291   0.1415   0.1578   0.1838   0.2145   0.2342
     0.2388   0.2526   0.3155   0.3617   0.3790   0.3980   0.4382   0.4562
     0.5110   0.5325   0.5715   0.6654   0.7126   0.7782   0.7923   0.8087
     0.8622   0.8801   0.9094   0.9278   0.9431   0.9478   0.9615   0.9796
     1.0751   1.1073   1.1097   1.1596   1.1690   1.1894   1.1981   1.2242
     1.2321   1.3704   1.4083   1.4556   1.5227   1.5492   1.6256   1.6343
     1.6785   1.7417   1.7555   1.7700   1.8499   1.8558   1.9396   1.9480
     1.9754   1.9872   1.9940   2.0178   2.0346   2.0822   2.1482   2.1524
     2.1745   2.1901   2.1958   2.2074   2.2133   2.2842   2.3862   2.4132
     2.4208   2.4252   2.4325   2.4971   2.5260   2.6228   2.7313   3.4796
     3.5974   3.6199   3.7677   3.8269   3.9166   3.9706   3.9924   4.3190
     4.5696   4.6052   4.7901   5.0450   5.0658   5.1596   5.1934   5.3456
     5.4654   5.5285   5.5731   5.8408   5.9688   6.0311   6.4772   6.6693
     6.7007

          k = 0.2000-0.3464 0.0000 ( 44714 PWs)   bands (ev):

    -6.2230  -5.2833  -4.9693  -4.9560  -4.5949  -3.8871  -3.8826  -3.8822
    -3.8734  -3.8341  -3.8189  -3.7945  -3.7043  -3.6999  -3.5386  -3.3109
    -3.3027  -3.2991  -3.2952  -3.2270  -3.2030  -3.0776  -3.0677  -3.0614
    -3.0528  -3.0014  -2.9499  -2.9139  -2.9047  -2.9011  -2.8496  -2.8170
    -2.8020  -2.7554  -2.7375  -2.6394  -2.5457  -2.4054  -2.3159  -2.3045
    -2.2690  -2.2572  -2.2412  -2.2396  -2.1796  -2.1500  -2.1052  -2.0202
    -2.0029  -1.9171  -1.8783  -1.8667  -1.8343  -1.8259  -1.7406  -1.7306
    -1.7225  -1.5653  -1.5386  -1.5298  -1.4752  -1.4623  -1.4216  -1.4106
    -1.4053  -1.3458  -1.3167  -1.2017  -1.1908  -1.1757  -1.1591  -1.1346
    -1.1131  -1.0683  -1.0335  -1.0108  -0.9625  -0.9037  -0.8913  -0.8661
    -0.8513  -0.8337  -0.8168  -0.7996  -0.7709  -0.7659  -0.7287  -0.7180
    -0.6962  -0.6681  -0.5865  -0.5762  -0.5719  -0.5449  -0.5211  -0.5000
    -0.4880  -0.4580  -0.4321  -0.4300  -0.4225  -0.4162  -0.4105  -0.3916
    -0.3617  -0.3299  -0.2441  -0.2125  -0.1841  -0.1161  -0.0965  -0.0877
    -0.0720   0.1009   0.1176   0.1744   0.2273   0.2343   0.2808   0.2904
     0.3080   0.3237   0.3552   0.3798   0.4017   0.4124   0.4297   0.5041
     0.5954   0.6523   0.6704   0.6800   0.7074   0.7370   0.7666   0.8036
     0.8792   0.9143   0.9186   0.9361   1.0036   1.0286   1.0722   1.1236
     1.1363   1.1464   1.1979   1.2103   1.2281   1.2373   1.2430   1.2656
     1.2717   1.2792   1.2893   1.4001   1.4511   1.4843   1.6147   1.6231
     1.6430   1.7630   1.7920   1.8026   1.8088   1.8873   1.9029   1.9238
     1.9458   1.9668   1.9770   1.9922   2.0108   2.0148   2.0239   2.0598
     2.0787   2.0853   2.1686   2.1923   2.1999   2.2326   2.2413   2.2807
     2.4076   2.4428   2.4647   2.4790   2.5385   2.5501   2.5668   2.6665
     2.7106   3.0217   3.2060   3.2517   3.5907   3.7734   3.7764   3.7889
     4.2917   4.4670   4.4818   4.6345   4.7185   4.7483   5.3489   5.7760
     5.9047   5.9161   6.1355   6.4156   6.6270   6.6590   6.6957   6.7185
     6.7326

          k = 0.4000-0.2309 0.0000 ( 44748 PWs)   bands (ev):

    -6.0867  -5.4632  -5.1524  -4.5917  -4.3472  -4.3323  -4.1440  -3.9732
    -3.8360  -3.7164  -3.6271  -3.6194  -3.5697  -3.4597  -3.4142  -3.4054
    -3.4008  -3.3910  -3.2554  -3.2305  -3.2238  -3.1860  -3.1782  -3.1593
    -3.0897  -3.0535  -3.0494  -2.9565  -2.8005  -2.7897  -2.7860  -2.7702
    -2.7660  -2.6733  -2.5416  -2.5328  -2.5209  -2.4873  -2.4800  -2.3857
    -2.2797  -2.2150  -2.1951  -2.1853  -2.1594  -2.1289  -2.0809  -2.0561
    -2.0472  -2.0152  -1.9821  -1.8588  -1.8348  -1.8286  -1.8050  -1.7386
    -1.6747  -1.6466  -1.6137  -1.6037  -1.5832  -1.4573  -1.4080  -1.3942
    -1.3912  -1.3724  -1.2916  -1.2827  -1.2457  -1.1589  -1.1430  -1.1306
    -1.0790  -1.0300  -1.0261  -0.9922  -0.9876  -0.9511  -0.9211  -0.9097
    -0.8972  -0.8838  -0.8765  -0.8604  -0.8441  -0.8403  -0.7445  -0.7278
    -0.7178  -0.7037  -0.6999  -0.6917  -0.6659  -0.5604  -0.5273  -0.5151
    -0.4866  -0.4784  -0.4574  -0.4301  -0.3938  -0.3829  -0.3015  -0.2707
    -0.2344  -0.2086  -0.1922  -0.1749  -0.1498  -0.0096   0.0113   0.0782
     0.0985   0.1506   0.1717   0.1975   0.2068   0.2105   0.2159   0.2530
     0.2869   0.3159   0.3254   0.3349   0.3630   0.3844   0.3881   0.4095
     0.4262   0.5267   0.5588   0.5713   0.6376   0.6668   0.7618   0.7638
     0.8586   0.8639   0.9099   0.9583   1.0357   1.0407   1.0890   1.1010
     1.1238   1.1333   1.1668   1.1969   1.2330   1.2416   1.2990   1.3392
     1.3471   1.3910   1.4051   1.4206   1.4307   1.4792   1.5636   1.5993
     1.6701   1.6935   1.7000   1.7147   1.7543   1.8099   1.8164   1.8787
     1.8929   1.8989   1.9139   1.9620   1.9968   2.0061   2.0209   2.1369
     2.1432   2.1572   2.1658   2.1736   2.1770   2.1944   2.2177   2.3929
     2.4074   2.4178   2.4226   2.4295   2.6003   2.6469   2.8922   3.0038
     3.0643   3.2530   3.4770   3.4854   3.7592   3.8646   3.9706   4.1651
     4.4575   4.7062   4.7125   4.7820   4.8963   4.9385   5.0358   5.0617
     5.2987   5.3574   5.8823   5.9751   6.4006   6.5142   6.8707   6.9756
     7.4611

          k = 0.4000 0.0000 0.0000 ( 44714 PWs)   bands (ev):

    -6.2250  -5.2982  -4.9683  -4.9558  -4.5930  -3.8903  -3.8883  -3.8814
    -3.8679  -3.8338  -3.8138  -3.7925  -3.7049  -3.7004  -3.5255  -3.3206
    -3.3051  -3.2994  -3.2969  -3.2310  -3.2025  -3.0832  -3.0659  -3.0617
    -3.0496  -2.9889  -2.9476  -2.9099  -2.9058  -2.8996  -2.8399  -2.8158
    -2.8055  -2.7467  -2.7384  -2.6460  -2.4931  -2.4040  -2.3144  -2.3079
    -2.2682  -2.2568  -2.2426  -2.2372  -2.1799  -2.1498  -2.1065  -2.0165
    -2.0053  -1.9127  -1.8889  -1.8754  -1.8354  -1.8229  -1.7540  -1.7252
    -1.7091  -1.5669  -1.5441  -1.5201  -1.4691  -1.4548  -1.4208  -1.4114
    -1.4041  -1.3478  -1.3159  -1.2095  -1.1936  -1.1794  -1.1650  -1.1297
    -1.1180  -1.0689  -1.0355  -1.0126  -0.9634  -0.8994  -0.8930  -0.8672
    -0.8502  -0.8307  -0.8181  -0.8015  -0.7838  -0.7617  -0.7429  -0.7234
    -0.7015  -0.6899  -0.5881  -0.5818  -0.5693  -0.5491  -0.5181  -0.5083
    -0.4831  -0.4571  -0.4384  -0.4318  -0.4244  -0.4162  -0.4105  -0.3908
    -0.3529  -0.3355  -0.2464  -0.2180  -0.1835  -0.1157  -0.1008  -0.0898
    -0.0725   0.0992   0.1260   0.1537   0.2249   0.2318   0.2791   0.2879
     0.3139   0.3266   0.3643   0.3784   0.4010   0.4162   0.4284   0.5099
     0.6024   0.6463   0.6671   0.6836   0.7136   0.7323   0.7575   0.8027
     0.8777   0.9129   0.9214   0.9548   1.0022   1.0330   1.0753   1.1206
     1.1269   1.1422   1.2016   1.2154   1.2234   1.2421   1.2467   1.2633
     1.2724   1.2797   1.2887   1.3849   1.4500   1.4823   1.6101   1.6233
     1.6451   1.7729   1.7839   1.8034   1.8093   1.8857   1.9067   1.9292
     1.9427   1.9648   1.9773   1.9901   2.0082   2.0107   2.0213   2.0564
     2.0763   2.0934   2.1660   2.1897   2.2014   2.2324   2.2398   2.2791
     2.4073   2.4367   2.4706   2.4880   2.5407   2.5495   2.5672   2.6566
     2.7098   3.0342   3.2182   3.2461   3.6142   3.7725   3.7802   3.7894
     4.2894   4.4637   4.4852   4.6482   4.7225   4.7466   5.3643   5.8040
     5.8967   5.9154   6.1144   6.3854   6.6168   6.6597   6.6929   6.7159
     6.7322

          k = 0.4000 0.2309 0.0000 ( 44748 PWs)   bands (ev):

    -6.0901  -5.4787  -5.1574  -4.5888  -4.3471  -4.3359  -4.1375  -3.9722
    -3.8357  -3.7165  -3.6212  -3.6183  -3.5615  -3.4595  -3.4284  -3.4070
    -3.4043  -3.3930  -3.2580  -3.2297  -3.2248  -3.1868  -3.1800  -3.1567
    -3.0902  -3.0515  -3.0483  -2.8900  -2.8014  -2.7935  -2.7789  -2.7678
    -2.7627  -2.6586  -2.5408  -2.5303  -2.5209  -2.4833  -2.4775  -2.3795
    -2.2795  -2.2124  -2.1960  -2.1862  -2.1594  -2.1263  -2.0821  -2.0517
    -2.0496  -2.0157  -1.9843  -1.8657  -1.8321  -1.8277  -1.8052  -1.7472
    -1.6711  -1.6349  -1.6055  -1.6053  -1.5783  -1.4585  -1.4082  -1.3967
    -1.3874  -1.3748  -1.2834  -1.2810  -1.2548  -1.1657  -1.1481  -1.1465
    -1.0890  -1.0310  -1.0245  -0.9871  -0.9869  -0.9539  -0.9264  -0.9011
    -0.8926  -0.8861  -0.8691  -0.8625  -0.8535  -0.8388  -0.7316  -0.7245
    -0.7163  -0.6955  -0.6949  -0.6893  -0.6736  -0.5840  -0.5417  -0.5282
    -0.4994  -0.4767  -0.4507  -0.4347  -0.4126  -0.3996  -0.3108  -0.2765
    -0.2334  -0.2244  -0.1912  -0.1841  -0.1527  -0.0161   0.0193   0.0628
     0.0954   0.1405   0.1852   0.1894   0.2123   0.2193   0.2217   0.2453
     0.2856   0.3208   0.3243   0.3381   0.3559   0.3759   0.3842   0.4108
     0.4426   0.5260   0.5500   0.5641   0.6370   0.6736   0.7612   0.7628
     0.8583   0.8697   0.9199   0.9661   1.0301   1.0449   1.0711   1.0956
     1.1312   1.1328   1.1731   1.1957   1.2322   1.2442   1.2939   1.3446
     1.3462   1.3896   1.4058   1.4241   1.4243   1.4748   1.5571   1.5917
     1.6530   1.6867   1.6912   1.7176   1.7630   1.8066   1.8160   1.8901
     1.8903   1.9012   1.9088   1.9716   1.9938   1.9964   2.0213   2.1377
     2.1415   2.1616   2.1635   2.1766   2.1796   2.2027   2.2217   2.3937
     2.4143   2.4212   2.4296   2.4332   2.5998   2.6460   2.9140   3.0058
     3.0658   3.2411   3.4811   3.4847   3.7712   3.8648   3.9650   4.1854
     4.4885   4.7073   4.7122   4.7732   4.8950   4.9302   5.0539   5.0675
     5.2996   5.3571   5.8677   5.9866   6.3858   6.5075   6.8886   6.9679
     7.4825

          k = 0.4000-0.6928 0.0000 ( 44692 PWs)   bands (ev):

    -5.7294  -5.6637  -5.1423  -4.9689  -4.4311  -4.1977  -3.8926  -3.8350
    -3.7520  -3.7040  -3.5983  -3.5932  -3.4987  -3.4937  -3.4048  -3.3789
    -3.3622  -3.3441  -3.3245  -3.3064  -3.1911  -3.1668  -3.1576  -3.1388
    -3.1165  -3.1115  -3.0365  -2.9405  -2.9037  -2.7923  -2.7722  -2.7531
    -2.7496  -2.7241  -2.6927  -2.6350  -2.5198  -2.5137  -2.4062  -2.3334
    -2.3132  -2.2569  -2.1852  -2.1515  -2.1248  -2.0754  -1.9944  -1.9565
    -1.9306  -1.9018  -1.8828  -1.8395  -1.8275  -1.7807  -1.7184  -1.7138
    -1.6969  -1.6768  -1.6674  -1.6638  -1.6201  -1.5964  -1.5820  -1.4741
    -1.4647  -1.3972  -1.3661  -1.3076  -1.2654  -1.2408  -1.2191  -1.1782
    -1.1770  -1.1706  -1.0991  -1.0889  -1.0600  -1.0347  -1.0035  -0.9564
    -0.9262  -0.8539  -0.8458  -0.8260  -0.8158  -0.8055  -0.7451  -0.6846
    -0.6359  -0.6295  -0.6106  -0.5928  -0.5578  -0.5480  -0.5368  -0.5207
    -0.5106  -0.5071  -0.4768  -0.4184  -0.4083  -0.4060  -0.4026  -0.3815
    -0.3726  -0.3668  -0.3477  -0.2985  -0.2769  -0.0945  -0.0673   0.0113
     0.0316   0.1124   0.1244   0.1346   0.1639   0.1859   0.2175   0.2344
     0.2404   0.2616   0.3225   0.3661   0.3773   0.4003   0.4381   0.4588
     0.5122   0.5270   0.5537   0.6398   0.7172   0.7837   0.7900   0.8145
     0.8631   0.8836   0.9054   0.9273   0.9428   0.9462   0.9638   0.9785
     1.0756   1.1123   1.1152   1.1635   1.1671   1.1828   1.1974   1.2146
     1.2279   1.3809   1.4038   1.4527   1.5107   1.5555   1.6269   1.6384
     1.6922   1.7414   1.7528   1.7728   1.8445   1.8612   1.9361   1.9518
     1.9678   1.9828   1.9909   2.0141   2.0375   2.0849   2.1497   2.1516
     2.1735   2.1883   2.1955   2.2076   2.2135   2.2840   2.3881   2.4165
     2.4262   2.4301   2.4347   2.4965   2.5290   2.6176   2.7134   3.4927
     3.5972   3.6181   3.7714   3.8271   3.9361   3.9701   3.9862   4.3327
     4.5616   4.6120   4.8171   5.0465   5.0646   5.1439   5.2015   5.3746
     5.4649   5.5234   5.5709   5.8428   5.9437   6.0349   6.4887   6.6493
     6.6914

          k = 0.4000-0.4619 0.0000 ( 44692 PWs)   bands (ev):

    -5.7217  -5.6606  -5.1549  -4.9474  -4.4327  -4.2133  -3.8855  -3.8303
    -3.7534  -3.7046  -3.5983  -3.5928  -3.4980  -3.4918  -3.4053  -3.3813
    -3.3651  -3.3400  -3.3267  -3.3078  -3.1964  -3.1654  -3.1588  -3.1314
    -3.1172  -3.1077  -3.0480  -2.9531  -2.9076  -2.7989  -2.7753  -2.7603
    -2.7470  -2.7301  -2.6967  -2.6417  -2.5207  -2.5128  -2.4158  -2.3319
    -2.3163  -2.2524  -2.1848  -2.1546  -2.1328  -2.0649  -2.0010  -1.9564
    -1.9205  -1.9016  -1.8805  -1.8453  -1.8338  -1.7943  -1.7192  -1.7114
    -1.6900  -1.6803  -1.6701  -1.6646  -1.6097  -1.6023  -1.5811  -1.4785
    -1.4622  -1.3963  -1.3680  -1.3058  -1.2757  -1.2381  -1.2126  -1.1773
    -1.1682  -1.1594  -1.0956  -1.0854  -1.0591  -1.0334  -1.0033  -0.9544
    -0.9368  -0.8491  -0.8380  -0.8292  -0.8189  -0.8118  -0.7319  -0.6730
    -0.6387  -0.6232  -0.6185  -0.5895  -0.5548  -0.5454  -0.5382  -0.5138
    -0.5040  -0.4897  -0.4726  -0.4319  -0.4060  -0.4009  -0.3963  -0.3841
    -0.3735  -0.3722  -0.3295  -0.2989  -0.2751  -0.0848  -0.0615   0.0098
     0.0287   0.0960   0.1292   0.1415   0.1579   0.1839   0.2144   0.2341
     0.2387   0.2529   0.3155   0.3618   0.3789   0.3979   0.4381   0.4564
     0.5110   0.5324   0.5712   0.6654   0.7125   0.7782   0.7924   0.8088
     0.8622   0.8801   0.9094   0.9278   0.9431   0.9478   0.9615   0.9797
     1.0752   1.1074   1.1098   1.1596   1.1690   1.1894   1.1981   1.2241
     1.2319   1.3704   1.4080   1.4554   1.5227   1.5492   1.6256   1.6344
     1.6785   1.7417   1.7555   1.7701   1.8498   1.8558   1.9396   1.9479
     1.9753   1.9871   1.9940   2.0178   2.0348   2.0824   2.1481   2.1525
     2.1743   2.1901   2.1957   2.2073   2.2134   2.2842   2.3861   2.4133
     2.4211   2.4253   2.4329   2.4971   2.5263   2.6228   2.7312   3.4795
     3.5974   3.6198   3.7675   3.8270   3.9165   3.9706   3.9921   4.3193
     4.5697   4.6052   4.7902   5.0449   5.0658   5.1596   5.1934   5.3465
     5.4654   5.5284   5.5730   5.8410   5.9687   6.0309   6.4775   6.6689
     6.7014

     the Fermi energy is     2.1930 ev

!    total energy              =  -27755.49654098 Ry
     total all-electron energy =  -1326642.261958 Ry
     estimated scf accuracy    <       0.00000097 Ry
     smearing contrib. (-TS)   =       0.00455608 Ry
     internal energy E=F+TS    =  -27755.50109706 Ry

     The total energy is F=E-TS. E is the sum of the following terms:
     one-electron contribution =  -22799.05354172 Ry
     hartree contribution      =   11702.36117510 Ry
     xc contribution           =    -890.80535274 Ry
     ewald contribution        =    9705.99661939 Ry
     one-center paw contrib.   =  -25473.99999710 Ry

     convergence has been achieved in  16 iterations

     negative rho (up, down):  3.353E-03 0.000E+00

     Forces acting on atoms (cartesian axes, Ry/au):

     atom    1 type  1   force =     0.00222155    0.00128400   -0.00575774
     atom    2 type  1   force =     0.00051996    0.00209731   -0.00428667
     atom    3 type  1   force =    -0.00168645    0.00366168   -0.00537844
     atom    4 type  1   force =     0.00208071   -0.00059008   -0.00427153
     atom    5 type  1   force =    -0.00020153   -0.00010970   -0.00337175
     atom    6 type  1   force =    -0.00204180    0.00055006   -0.00390974
     atom    7 type  1   force =     0.00232389   -0.00332894   -0.00537299
     atom    8 type  1   force =    -0.00054291   -0.00206667   -0.00393248
     atom    9 type  1   force =    -0.00273619   -0.00160993   -0.00416028
     atom   10 type  1   force =     0.00327907    0.00192815    0.00734465
     atom   11 type  1   force =     0.00018858    0.00171546    0.00403234
     atom   12 type  1   force =    -0.00156046    0.00312365    0.00471350
     atom   13 type  1   force =     0.00155144   -0.00065301    0.00401332
     atom   14 type  1   force =     0.00017250    0.00011615    0.00187294
     atom   15 type  1   force =    -0.00153670    0.00112947    0.00523903
     atom   16 type  1   force =     0.00189149   -0.00291022    0.00470095
     atom   17 type  1   force =     0.00019808   -0.00189553    0.00525644
     atom   18 type  1   force =    -0.00276292   -0.00159957    0.00307046
     atom   19 type  1   force =     0.00006632    0.00001579    0.00021309
     atom   20 type  1   force =     0.00006824    0.00001230    0.00013939
     atom   21 type  1   force =    -0.00002023    0.00001881    0.00018035
     atom   22 type  1   force =     0.00007790    0.00016926    0.00004329
     atom   23 type  1   force =     0.00003287   -0.00004083    0.00018066
     atom   24 type  1   force =     0.00006726    0.00004572    0.00013594
     atom   25 type  1   force =     0.00004956    0.00003947    0.00021780
     atom   26 type  1   force =     0.00006110    0.00005769    0.00020795
     atom   27 type  1   force =     0.00017327    0.00000263    0.00004401
     atom   28 type  1   force =     0.00024479    0.00013193    0.00037201
     atom   29 type  1   force =     0.00020599    0.00002984   -0.00009183
     atom   30 type  1   force =     0.00014010    0.00016198   -0.00001597
     atom   31 type  1   force =     0.00013525    0.00013787   -0.00008675
     atom   32 type  1   force =    -0.00000348   -0.00002802    0.00006328
     atom   33 type  1   force =     0.00000676    0.00001755   -0.00007390
     atom   34 type  1   force =     0.00022170    0.00006722   -0.00001907
     atom   35 type  1   force =     0.00002801    0.00000317   -0.00007375
     atom   36 type  1   force =     0.00008134    0.00005718    0.00001453
     atom   37 type  2   force =    -0.00299507   -0.00174184   -0.00125302
     The non-local contrib.  to forces
     atom    1 type  1   force =     0.00282319    0.00164142   -0.01657831
     atom    2 type  1   force =    -0.00016054    0.00232327   -0.01743186
     atom    3 type  1   force =    -0.00058720    0.00142310   -0.01689967
     atom    4 type  1   force =     0.00192848   -0.00128201   -0.01742269
     atom    5 type  1   force =    -0.00002175    0.00000248   -0.01778613
     atom    6 type  1   force =    -0.00151896    0.00034870   -0.01702489
     atom    7 type  1   force =     0.00092857   -0.00123904   -0.01690170
     atom    8 type  1   force =    -0.00046252   -0.00149605   -0.01704585
     atom    9 type  1   force =    -0.00159842   -0.00093870   -0.01678030
     atom   10 type  1   force =     0.00191677    0.00114565    0.00053526
     atom   11 type  1   force =     0.00012614    0.00196504    0.00080953
     atom   12 type  1   force =     0.00003983    0.00250636    0.00094689
     atom   13 type  1   force =     0.00173400   -0.00082327    0.00080513
     atom   14 type  1   force =     0.00047306    0.00029903   -0.00055402
     atom   15 type  1   force =    -0.00174175   -0.00003087    0.00113540
     atom   16 type  1   force =     0.00215502   -0.00121230    0.00093866
     atom   17 type  1   force =    -0.00091560   -0.00148560    0.00114349
     atom   18 type  1   force =    -0.00223806   -0.00129576    0.00139149
     atom   19 type  1   force =    -0.00168858    0.00032153    0.00159745
     atom   20 type  1   force =     0.00105719    0.00060357    0.00341073
     atom   21 type  1   force =     0.00052569    0.00084256    0.00261893
     atom   22 type  1   force =     0.00040790    0.00272928   -0.00080113
     atom   23 type  1   force =     0.00100046    0.00002836    0.00261829
     atom   24 type  1   force =    -0.00089988   -0.00051280    0.00301943
     atom   25 type  1   force =    -0.00107039   -0.00061261    0.00046958
     atom   26 type  1   force =    -0.00056792   -0.00161431    0.00158464
     atom   27 type  1   force =     0.00256631   -0.00100681   -0.00081312
     atom   28 type  1   force =     0.04504175    0.02597192    0.02413467
     atom   29 type  1   force =    -0.03321126    0.02314852    0.00513992
     atom   30 type  1   force =     0.00000555   -0.00061932    0.01397917
     atom   31 type  1   force =     0.00346882   -0.04037739    0.00511676
     atom   32 type  1   force =    -0.00688495   -0.00401872    0.01804265
     atom   33 type  1   force =     0.00207206   -0.00128936    0.01591715
     atom   34 type  1   force =    -0.00050431    0.00030871    0.01394691
     atom   35 type  1   force =    -0.00006118    0.00240873    0.01592760
     atom   36 type  1   force =    -0.00033278   -0.00020925    0.01456199
     atom   37 type  2   force =     0.00465450    0.00268794   -0.01902935
     The ionic contribution  to forces
     atom    1 type  1   force =     0.14224964    0.08213260  -96.25789073
     atom    2 type  1   force =     0.01408957    0.14569930  -96.19209400
     atom    3 type  1   force =    -0.13590164    0.21609486  -96.21448422
     atom    4 type  1   force =     0.13322037   -0.06071704  -96.19222049
     atom    5 type  1   force =     0.00302472    0.00167308  -96.14601481
     atom    6 type  1   force =    -0.12923873    0.08167950  -96.16029668
     atom    7 type  1   force =     0.11918682   -0.22566936  -96.21461062
     atom    8 type  1   force =     0.00618153   -0.15272929  -96.16030219
     atom    9 type  1   force =    -0.14073076   -0.08118148  -96.16263906
     atom   10 type  1   force =     0.15791369    0.09094799  -32.37294934
     atom   11 type  1   force =    -0.07594809    0.13876731  -32.45255456
     atom   12 type  1   force =    -0.05362951    0.20243837  -32.40291463
     atom   13 type  1   force =     0.08237952   -0.13514133  -32.45360392
     atom   14 type  1   force =    -0.01466605   -0.00841954  -32.57555930
     atom   15 type  1   force =    -0.06586429    0.01719424  -32.41521795
     atom   16 type  1   force =     0.14863186   -0.14690780  -32.40344280
     atom   17 type  1   force =    -0.01813445   -0.06481511  -32.41463792
     atom   18 type  1   force =    -0.14620389   -0.08368201  -32.28178020
     atom   19 type  1   force =     0.11751932   -0.01852042   32.26668171
     atom   20 type  1   force =    -0.08234112   -0.04993964   32.27391565
     atom   21 type  1   force =    -0.03412200   -0.01464068   31.54998399
     atom   22 type  1   force =     0.00418380    0.00338345   31.95937060
     atom   23 type  1   force =    -0.02792208   -0.02247481   31.54863236
     atom   24 type  1   force =     0.02443564    0.01500488   31.56061020
     atom   25 type  1   force =    -0.03325349   -0.01789930   31.94743150
     atom   26 type  1   force =     0.04465740    0.11149179   32.26758130
     atom   27 type  1   force =     0.00420773    0.00394160   31.96068564
     atom   28 type  1   force =    -0.26124773   -0.15192829   95.41960334
     atom   29 type  1   force =     0.47058126   -0.36399872   95.49258054
     atom   30 type  1   force =     0.00264219    0.02461220   95.37723373
     atom   31 type  1   force =    -0.07970426    0.58719047   95.49317546
     atom   32 type  1   force =    -0.05115499   -0.03253776   95.12928671
     atom   33 type  1   force =     0.03327206   -0.02171695   95.25652362
     atom   34 type  1   force =     0.02299764   -0.00745187   95.37721029
     atom   35 type  1   force =    -0.00030663    0.04097980   95.25708541
     atom   36 type  1   force =    -0.02442721   -0.01235475   95.31988309
     atom   37 type  2   force =    -0.15657783   -0.09050530   12.01573828
     The local contribution  to forces
     atom    1 type  1   force =    -0.14249126   -0.08229924   96.25128547
     atom    2 type  1   force =    -0.01333802   -0.14554029   96.18795446
     atom    3 type  1   force =     0.13447240   -0.21331177   96.20870966
     atom    4 type  1   force =    -0.13268683    0.06121867   96.18805721
     atom    5 type  1   force =    -0.00315948   -0.00181245   96.14333169
     atom    6 type  1   force =     0.12832534   -0.08133209   96.15626276
     atom    7 type  1   force =    -0.11747257    0.22308497   96.20881604
     atom    8 type  1   force =    -0.00628618    0.15179279   96.15627382
     atom    9 type  1   force =     0.13924883    0.08037700   96.15808273
     atom   10 type  1   force =    -0.15606577   -0.08994127   32.37969882
     atom   11 type  1   force =     0.07605903   -0.13865112   32.45548855
     atom   12 type  1   force =     0.05162416   -0.20135010   32.40642610
     atom   13 type  1   force =    -0.08218804    0.13511923   32.45653995
     atom   14 type  1   force =     0.01426415    0.00814910   32.57732417
     atom   15 type  1   force =     0.06577046   -0.01588436   32.41902095
     atom   16 type  1   force =    -0.14864150    0.14468663   32.40693600
     atom   17 type  1   force =     0.01923600    0.06413653   32.41842386
     atom   18 type  1   force =     0.14530204    0.08323336   32.28374436
     atom   19 type  1   force =    -0.11565005    0.01812251  -32.26504246
     atom   20 type  1   force =     0.08143589    0.04933937  -32.27416003
     atom   21 type  1   force =     0.03342548    0.01376893  -31.54988548
     atom   22 type  1   force =    -0.00432319   -0.00569991  -31.95594394
     atom   23 type  1   force =     0.02687404    0.02228191  -31.54852405
     atom   24 type  1   force =    -0.02355144   -0.01448893  -31.56090016
     atom   25 type  1   force =     0.03408719    0.01842543  -31.94520530
     atom   26 type  1   force =    -0.04400335   -0.10965095  -32.26593475
     atom   27 type  1   force =    -0.00630988   -0.00283634  -31.95725724
     atom   28 type  1   force =     0.21408011    0.12471886  -95.42954693
     atom   29 type  1   force =    -0.43170356    0.33686628  -95.48647062
     atom   30 type  1   force =    -0.00261208   -0.02366898  -95.37473237
     atom   31 type  1   force =     0.07562102   -0.53997272  -95.48702450
     atom   32 type  1   force =     0.05727385    0.03603554  -95.13104547
     atom   33 type  1   force =    -0.03480241    0.02269209  -95.25609021
     atom   34 type  1   force =    -0.02219753    0.00708096  -95.37465989
     atom   35 type  1   force =     0.00041403   -0.04273333  -95.25666496
     atom   36 type  1   force =     0.02475265    0.01259892  -95.31782991
     atom   37 type  2   force =     0.14892797    0.08606855  -11.99809174
     The core correction contribution to forces
     atom    1 type  1   force =    -0.00043385   -0.00025041    0.01758793
     atom    2 type  1   force =     0.00000568   -0.00044255    0.01744018
     atom    3 type  1   force =     0.00032713   -0.00057275    0.01753871
     atom    4 type  1   force =    -0.00038041    0.00022669    0.01744012
     atom    5 type  1   force =    -0.00000538   -0.00000279    0.01732963
     atom    6 type  1   force =     0.00034288   -0.00017378    0.01732164
     atom    7 type  1   force =    -0.00033261    0.00057005    0.01753850
     atom    8 type  1   force =     0.00002068    0.00038419    0.01732197
     atom    9 type  1   force =     0.00036123    0.00020873    0.01733052
     atom   10 type  1   force =    -0.00043843   -0.00025365    0.00076713
     atom   11 type  1   force =     0.00007644   -0.00033909    0.00106194
     atom   12 type  1   force =     0.00022696   -0.00054387    0.00097513
     atom   13 type  1   force =    -0.00025496    0.00023437    0.00106394
     atom   14 type  1   force =     0.00000363    0.00000158    0.00142669
     atom   15 type  1   force =     0.00027623   -0.00009867    0.00096153
     atom   16 type  1   force =    -0.00035700    0.00046673    0.00097659
     atom   17 type  1   force =     0.00005346    0.00028697    0.00096065
     atom   18 type  1   force =     0.00043919    0.00025201    0.00039010
     atom   19 type  1   force =    -0.00021272    0.00005819   -0.00241036
     atom   20 type  1   force =     0.00015572    0.00009542   -0.00242112
     atom   21 type  1   force =     0.00001047    0.00003306   -0.00191630
     atom   22 type  1   force =    -0.00003528   -0.00020103   -0.00194485
     atom   23 type  1   force =     0.00003029   -0.00000749   -0.00191453
     atom   24 type  1   force =    -0.00002411   -0.00001666   -0.00192926
     atom   25 type  1   force =     0.00021585    0.00012109   -0.00187946
     atom   26 type  1   force =    -0.00006011   -0.00021593   -0.00241067
     atom   27 type  1   force =    -0.00018963    0.00006395   -0.00194535
     atom   28 type  1   force =     0.00217141    0.00125734   -0.01379337
     atom   29 type  1   force =    -0.00524467    0.00395669   -0.01140464
     atom   30 type  1   force =     0.00009655   -0.00010158   -0.01649137
     atom   31 type  1   force =     0.00080395   -0.00651412   -0.01140644
     atom   32 type  1   force =     0.00089246    0.00052430   -0.01624378
     atom   33 type  1   force =    -0.00072671    0.00034144   -0.01632692
     atom   34 type  1   force =    -0.00004062    0.00012676   -0.01649182
     atom   35 type  1   force =    -0.00007264   -0.00080378   -0.01632706
     atom   36 type  1   force =     0.00010324    0.00005543   -0.01649267
     atom   37 type  2   force =     0.00000000    0.00000000    0.00000000
     The Hubbard contrib.    to forces
     atom    1 type  1   force =     0.00000000    0.00000000    0.00000000
     atom    2 type  1   force =     0.00000000    0.00000000    0.00000000
     atom    3 type  1   force =     0.00000000    0.00000000    0.00000000
     atom    4 type  1   force =     0.00000000    0.00000000    0.00000000
     atom    5 type  1   force =     0.00000000    0.00000000    0.00000000
     atom    6 type  1   force =     0.00000000    0.00000000    0.00000000
     atom    7 type  1   force =     0.00000000    0.00000000    0.00000000
     atom    8 type  1   force =     0.00000000    0.00000000    0.00000000
     atom    9 type  1   force =     0.00000000    0.00000000    0.00000000
     atom   10 type  1   force =     0.00000000    0.00000000    0.00000000
     atom   11 type  1   force =     0.00000000    0.00000000    0.00000000
     atom   12 type  1   force =     0.00000000    0.00000000    0.00000000
     atom   13 type  1   force =     0.00000000    0.00000000    0.00000000
     atom   14 type  1   force =     0.00000000    0.00000000    0.00000000
     atom   15 type  1   force =     0.00000000    0.00000000    0.00000000
     atom   16 type  1   force =     0.00000000    0.00000000    0.00000000
     atom   17 type  1   force =     0.00000000    0.00000000    0.00000000
     atom   18 type  1   force =     0.00000000    0.00000000    0.00000000
     atom   19 type  1   force =     0.00000000    0.00000000    0.00000000
     atom   20 type  1   force =     0.00000000    0.00000000    0.00000000
     atom   21 type  1   force =     0.00000000    0.00000000    0.00000000
     atom   22 type  1   force =     0.00000000    0.00000000    0.00000000
     atom   23 type  1   force =     0.00000000    0.00000000    0.00000000
     atom   24 type  1   force =     0.00000000    0.00000000    0.00000000
     atom   25 type  1   force =     0.00000000    0.00000000    0.00000000
     atom   26 type  1   force =     0.00000000    0.00000000    0.00000000
     atom   27 type  1   force =     0.00000000    0.00000000    0.00000000
     atom   28 type  1   force =     0.00000000    0.00000000    0.00000000
     atom   29 type  1   force =     0.00000000    0.00000000    0.00000000
     atom   30 type  1   force =     0.00000000    0.00000000    0.00000000
     atom   31 type  1   force =     0.00000000    0.00000000    0.00000000
     atom   32 type  1   force =     0.00000000    0.00000000    0.00000000
     atom   33 type  1   force =     0.00000000    0.00000000    0.00000000
     atom   34 type  1   force =     0.00000000    0.00000000    0.00000000
     atom   35 type  1   force =     0.00000000    0.00000000    0.00000000
     atom   36 type  1   force =     0.00000000    0.00000000    0.00000000
     atom   37 type  2   force =     0.00000000    0.00000000    0.00000000
     The SCF correction term to forces
     atom    1 type  1   force =     0.00000000    0.00000000   -0.00000000
     atom    2 type  1   force =    -0.00000000    0.00000000   -0.00000000
     atom    3 type  1   force =     0.00000000    0.00000000   -0.00000000
     atom    4 type  1   force =    -0.00000000   -0.00000000   -0.00000000
     atom    5 type  1   force =    -0.00000000    0.00000000   -0.00000000
     atom    6 type  1   force =     0.00000000    0.00000000   -0.00000000
     atom    7 type  1   force =     0.00000000   -0.00000000   -0.00000000
     atom    8 type  1   force =     0.00000000   -0.00000000   -0.00000000
     atom    9 type  1   force =    -0.00000000   -0.00000000   -0.00000000
     atom   10 type  1   force =    -0.00000000    0.00000000   -0.00000000
     atom   11 type  1   force =    -0.00000000   -0.00000000   -0.00000000
     atom   12 type  1   force =     0.00000000    0.00000000   -0.00000000
     atom   13 type  1   force =    -0.00000000   -0.00000000   -0.00000000
     atom   14 type  1   force =     0.00000000    0.00000000   -0.00000000
     atom   15 type  1   force =     0.00000000   -0.00000000   -0.00000000
     atom   16 type  1   force =     0.00000000    0.00000000   -0.00000000
     atom   17 type  1   force =    -0.00000000   -0.00000000   -0.00000000
     atom   18 type  1   force =    -0.00000000   -0.00000000   -0.00000000
     atom   19 type  1   force =     0.00009771    0.00003384   -0.00073650
     atom   20 type  1   force =    -0.00024009   -0.00008655   -0.00072910
     atom   21 type  1   force =     0.00013948    0.00001481   -0.00074405
     atom   22 type  1   force =    -0.00015598   -0.00004266   -0.00076063
     atom   23 type  1   force =     0.00004951    0.00013107   -0.00075465
     atom   24 type  1   force =     0.00010639    0.00005910   -0.00078752
     atom   25 type  1   force =     0.00006976    0.00000474   -0.00072178
     atom   26 type  1   force =     0.00003443    0.00004695   -0.00073582
     atom   27 type  1   force =    -0.00010192   -0.00015990   -0.00074917
     atom   28 type  1   force =     0.00019860    0.00011197   -0.00014895
     atom   29 type  1   force =    -0.00021643    0.00005694   -0.00006028
     atom   30 type  1   force =     0.00000724   -0.00006048   -0.00012837
     atom   31 type  1   force =    -0.00005492   -0.00018850   -0.00007128
     atom   32 type  1   force =    -0.00013049   -0.00003152   -0.00010008
     atom   33 type  1   force =     0.00019111   -0.00000980   -0.00022079
     atom   34 type  1   force =    -0.00003413    0.00000253   -0.00014780
     atom   35 type  1   force =     0.00005379    0.00015162   -0.00021798
     atom   36 type  1   force =    -0.00001520   -0.00003329   -0.00023122
     atom   37 type  2   force =    -0.00000036    0.00000684    0.00000654

     Total force =     0.003788     Total SCF correction =     0.002382
     SCF correction compared to forces is large: reduce conv_thr to get better values

     Writing all to output data dir ./pwscf.save/

     init_run     :     10.43s CPU     10.71s WALL (       1 calls)
     electrons    :    308.91s CPU    317.93s WALL (       1 calls)
     forces       :      3.47s CPU      4.16s WALL (       1 calls)

     Called by init_run:
     wfcinit      :      5.94s CPU      6.10s WALL (       1 calls)
     potinit      :      3.06s CPU      3.13s WALL (       1 calls)
     hinit0       :      0.83s CPU      0.84s WALL (       1 calls)

     Called by electrons:
     c_bands      :    264.78s CPU    269.89s WALL (      17 calls)
     sum_band     :     29.47s CPU     30.60s WALL (      17 calls)
     v_of_rho     :      7.43s CPU      9.14s WALL (      17 calls)
     newd         :      2.08s CPU      2.78s WALL (      17 calls)
     PAW_pot      :      3.66s CPU      3.77s WALL (      17 calls)
     mix_rho      :      3.65s CPU      3.71s WALL (      17 calls)
     vdW_kernel   :      1.70s CPU      1.71s WALL (       1 calls)

     Called by c_bands:
     init_us_2    :      2.43s CPU      2.47s WALL (     468 calls)
     init_us_2:cp :      2.42s CPU      2.47s WALL (     468 calls)
     cegterg      :    258.14s CPU    262.96s WALL (     221 calls)

     Called by *egterg:
     cdiaghg      :     58.91s CPU     59.81s WALL (    1159 calls)
     h_psi        :    121.84s CPU    124.34s WALL (    1185 calls)
     s_psi        :     12.89s CPU     13.01s WALL (    1185 calls)
     g_psi        :      0.42s CPU      0.43s WALL (     951 calls)

     Called by h_psi:
     h_psi:calbec :     19.83s CPU     20.34s WALL (    1185 calls)
     vloc_psi     :     87.62s CPU     89.45s WALL (    1185 calls)
     add_vuspsi   :     13.36s CPU     13.51s WALL (    1185 calls)

     General routines
     calbec       :     27.63s CPU     28.44s WALL (    1458 calls)
     fft          :      4.09s CPU      5.81s WALL (    1131 calls)
     ffts         :      2.10s CPU      2.13s WALL (    4289 calls)
     fftw         :     87.76s CPU     89.41s WALL (  289631 calls)
     interpolate  :      0.58s CPU      0.61s WALL (      17 calls)

     Parallel routines

     PWSCF        :   5m24.72s CPU   5m37.76s WALL


   This run was terminated on:  11:58:40  27Jan2025            

=------------------------------------------------------------------------------=
   JOB DONE.
=------------------------------------------------------------------------------=
