
     Program PWSCF v.7.1 starts on 31Oct2025 at 21:36:39 
        Git branch: heads/qe-7.1
        Last git commit: 48ba0178f8fede6d020eb786884699a9f063f55d-dirty
        Last git commit date: Fri Jan 27 14:22:33 2023 +0000
        Last git commit subject: Merge branch 'fix_hubbard' into 'develop'

     This program is part of the open-source Quantum ESPRESSO suite
     for quantum simulation of materials; please cite
         "P. Giannozzi et al., J. Phys.:Condens. Matter 21 395502 (2009);
         "P. Giannozzi et al., J. Phys.:Condens. Matter 29 465901 (2017);
         "P. Giannozzi et al., J. Chem. Phys. 152 154105 (2020);
          URL http://www.quantum-espresso.org", 
     in publications or presentations arising from this work. More details at
     http://www.quantum-espresso.org/quote

     Parallel version (MPI), running on    48 processors

     MPI processes distributed on     1 nodes
     129079 MiB available memory on the printing compute node when the environment starts

     Reading input from espresso.pwi
Warning: card &CELL ignored
Warning: card / ignored
Warning: card &FCP ignored
Warning: card / ignored
Warning: card &RISM ignored
Warning: card / ignored

     Current dimensions of program PWSCF are:
     Max number of different atomic species (ntypx) = 10
     Max number of k-points (npk) =  40000
     Max angular momentum in pseudopotentials (lmaxx) =  4
     file Pt.pbe-n-kjpaw_psl.1.0.0.UPF: wavefunction(s)  6S 5D renormalized
     file H.pbe-kjpaw_psl.1.0.0.UPF: wavefunction(s)  1S renormalized

     **************************************************************************
     Initializing libbeef V0.1.2 with the BEEF-vdW functional.
     Citation: Wellendorff et al., PRB 85, 235149 (2012).
     **************************************************************************


     IMPORTANT: XC functional enforced from input :
     Exchange-correlation= BEEF-VDW
                           (   1   4  43  14   2   0   0)
     Any further DFT definition will be discarded
     Please, verify this is what you really want


     R & G space division:  proc/nbgrp/npool/nimage =      48
     Subspace diagonalization in iterative solution of the eigenvalue problem:
     one sub-group per band group will be used
     custom distributed-memory algorithm (size of sub-group:  2*  2 procs)


     Parallelization info
     --------------------
     sticks:   dense  smooth     PW     G-vecs:    dense   smooth      PW
     Min         151      59     16                29407     7165    1028
     Max         152      60     17                29420     7176    1042
     Sum        7267    2839    769              1411785   344073   49691

     Using Slab Decomposition



     bravais-lattice index     =            0
     lattice parameter (alat)  =      16.0349  a.u.
     unit-cell volume          =   10068.6169 (a.u.)^3
     number of atoms/cell      =           37
     number of atomic types    =            2
     number of electrons       =       361.00
     number of Kohn-Sham states=          217
     kinetic-energy cutoff     =      40.0000  Ry
     charge density cutoff     =     410.0000  Ry
     scf convergence threshold =      1.0E-06
     mixing beta               =       0.7000
     number of iterations used =            8  local-TF  mixing
     Exchange-correlation= BEEF-VDW
                           (   1   4  43  14   2   0   0)

     celldm(1)=  16.034858  celldm(2)=   0.000000  celldm(3)=   0.000000
     celldm(4)=   0.000000  celldm(5)=   0.000000  celldm(6)=   0.000000

     crystal axes: (cart. coord. in units of alat)
               a(1) = (   1.000000   0.000000   0.000000 )  
               a(2) = (   0.500000   0.866025   0.000000 )  
               a(3) = (   0.000000   0.000000   2.819966 )  

     reciprocal axes: (cart. coord. in units 2 pi/alat)
               b(1) = (  1.000000 -0.577350  0.000000 )  
               b(2) = (  0.000000  1.154701  0.000000 )  
               b(3) = (  0.000000  0.000000  0.354614 )  


     PseudoPot. # 1 for Pt read from file:
     /users/kbadger1/espresso/pseudo/pslibrary.1.0.0/pbe/PSEUDOPOTENTIALS/Pt.pbe-n-kjpaw_psl.1.0.0.UPF
     MD5 check sum: 2e24a0b5bf98a4ed1a57fa81bca8c143
     Pseudo is Projector augmented-wave + core cor, Zval = 10.0
     Generated using 'atomic' code by A. Dal Corso  v.7.0
     Shape of augmentation charge: PSQ
     Using radial grid of 1277 points,  6 beta functions with: 
                l(1) =   0
                l(2) =   0
                l(3) =   1
                l(4) =   1
                l(5) =   2
                l(6) =   2
     Q(r) pseudized with 0 coefficients 


     PseudoPot. # 2 for H  read from file:
     /users/kbadger1/espresso/pseudo/pslibrary.1.0.0/pbe/PSEUDOPOTENTIALS/H.pbe-kjpaw_psl.1.0.0.UPF
     MD5 check sum: fe4c6fa958fa6d3815bf5d2419cbf1df
     Pseudo is Projector augmented-wave, Zval =  1.0
     Generated using 'atomic' code by A. Dal Corso  v.7.0
     Shape of augmentation charge: PSQ
     Using radial grid of  929 points,  2 beta functions with: 
                l(1) =   0
                l(2) =   0
     Q(r) pseudized with 0 coefficients 


     atomic species   valence    mass     pseudopotential
        Pt            10.00   195.08400     Pt( 1.00)
        H              1.00     1.00800     H ( 1.00)

     No symmetry found



   Cartesian axes

     site n.     atom                  positions (alat units)
         1           Pt  tau(   1) = (   0.0000000   0.0000000   1.0017346  )
         2           Pt  tau(   2) = (   0.3333333   0.0000000   1.0017346  )
         3           Pt  tau(   3) = (   0.6666667   0.0000000   1.0017346  )
         4           Pt  tau(   4) = (   0.1666667   0.2886751   1.0017346  )
         5           Pt  tau(   5) = (   0.5000000   0.2886751   1.0017346  )
         6           Pt  tau(   6) = (   0.8333333   0.2886751   1.0017346  )
         7           Pt  tau(   7) = (   0.3333333   0.5773503   1.0017346  )
         8           Pt  tau(   8) = (   0.6666667   0.5773503   1.0017346  )
         9           Pt  tau(   9) = (   1.0000000   0.5773503   1.0017346  )
        10           Pt  tau(  10) = (   0.1666667   0.0962250   1.2739001  )
        11           Pt  tau(  11) = (   0.5000000   0.0962250   1.2739001  )
        12           Pt  tau(  12) = (   0.8333333   0.0962250   1.2739001  )
        13           Pt  tau(  13) = (   0.3333333   0.3849002   1.2739001  )
        14           Pt  tau(  14) = (   0.6666667   0.3849002   1.2739001  )
        15           Pt  tau(  15) = (   1.0000000   0.3849002   1.2739001  )
        16           Pt  tau(  16) = (   0.5000000   0.6735753   1.2739001  )
        17           Pt  tau(  17) = (   0.8333333   0.6735753   1.2739001  )
        18           Pt  tau(  18) = (   1.1666667   0.6735753   1.2739001  )
        19           Pt  tau(  19) = (   0.0015114   0.1936275   1.5471613  )
        20           Pt  tau(  20) = (   0.3316607   0.1936371   1.5471645  )
        21           Pt  tau(  21) = (   0.6665945   0.1925691   1.5433239  )
        22           Pt  tau(  22) = (   0.1665968   0.4795553   1.5471826  )
        23           Pt  tau(  23) = (   0.4998404   0.4813185   1.5439342  )
        24           Pt  tau(  24) = (   0.8333517   0.4813096   1.5439563  )
        25           Pt  tau(  25) = (   0.3331700   0.7701086   1.5432929  )
        26           Pt  tau(  26) = (   0.6665917   0.7701436   1.5439449  )
        27           Pt  tau(  27) = (   1.0000309   0.7701148   1.5433236  )
        28           Pt  tau(  28) = (  -0.0007433  -0.0000293   1.8184705  )
        29           Pt  tau(  29) = (   0.3338171  -0.0000194   1.8185031  )
        30           Pt  tau(  30) = (   0.6665492   0.0004466   1.8191341  )
        31           Pt  tau(  31) = (   0.1665557   0.2891023   1.8357578  )
        32           Pt  tau(  32) = (   0.5005997   0.2888474   1.8185129  )
        33           Pt  tau(  33) = (   0.8324816   0.2888317   1.8185177  )
        34           Pt  tau(  34) = (   0.3333255   0.5785759   1.8184703  )
        35           Pt  tau(  35) = (   0.6665272   0.5778010   1.8184452  )
        36           Pt  tau(  36) = (   0.9997598   0.5785731   1.8184985  )
        37           H   tau(  37) = (   0.1665239   0.2891769   2.0190917  )

     number of k points=    13  Marzari-Vanderbilt smearing, width (Ry)=  0.0010
                       cart. coord. in units 2pi/alat
        k(    1) = (   0.0000000   0.0000000   0.0000000), wk =   0.0800000
        k(    2) = (   0.0000000   0.2309401   0.0000000), wk =   0.1600000
        k(    3) = (   0.0000000   0.4618802   0.0000000), wk =   0.1600000
        k(    4) = (   0.2000000  -0.1154701   0.0000000), wk =   0.1600000
        k(    5) = (   0.2000000   0.1154701   0.0000000), wk =   0.1600000
        k(    6) = (   0.2000000   0.3464102   0.0000000), wk =   0.1600000
        k(    7) = (   0.2000000  -0.5773503   0.0000000), wk =   0.1600000
        k(    8) = (   0.2000000  -0.3464102   0.0000000), wk =   0.1600000
        k(    9) = (   0.4000000  -0.2309401   0.0000000), wk =   0.1600000
        k(   10) = (   0.4000000  -0.0000000   0.0000000), wk =   0.1600000
        k(   11) = (   0.4000000   0.2309401   0.0000000), wk =   0.1600000
        k(   12) = (   0.4000000  -0.6928203   0.0000000), wk =   0.1600000
        k(   13) = (   0.4000000  -0.4618802   0.0000000), wk =   0.1600000

     Dense  grid:  1411785 G-vectors     FFT dimensions: ( 108, 108, 300)

     Smooth grid:   344073 G-vectors     FFT dimensions: (  72,  72, 192)

     Estimated max dynamical RAM per process >     203.68 MB

     Estimated total dynamical RAM >       9.55 GB

     Initial potential from superposition of free atoms

     starting charge     360.9939, renormalised to     361.0000

     negative rho (up, down):  3.292E-03 0.000E+00


     %%%%%%%%%%%%%%%%%%%%%%%%%%%%%%%%%%%%%%%%%%%%%%%%%%%%%%%%%%%%%%%%%%%%%%%%
     %                                                                      %
     % You are using vdW-DF, which was implemented by the Thonhauser group. %
     % Please cite the following two papers that made this development      %
     % possible and the two reviews that describe the various versions:     %
     %                                                                      %
     %   T. Thonhauser et al., PRL 115, 136402 (2015).                      %
     %   T. Thonhauser et al., PRB 76, 125112 (2007).                       %
     %   K. Berland et al., Rep. Prog. Phys. 78, 066501 (2015).             %
     %   D.C. Langreth et al., J. Phys.: Condens. Matter 21, 084203 (2009). %
     %                                                                      %
     % If you are calculating stress with vdW-DF, please also cite:         %
     %                                                                      %
     %   R. Sabatini et al., J. Phys.: Condens. Matter 24, 424209 (2012).   %
     %                                                                      %
     %%%%%%%%%%%%%%%%%%%%%%%%%%%%%%%%%%%%%%%%%%%%%%%%%%%%%%%%%%%%%%%%%%%%%%%%

     %%%%%%%%%%%%%%%%%%%%%%%%%%%%%%%%%%%%%%%%%%%%%%%%%%%%%%%%%%%%%%%%%%%%%%%%
     %                                                                      %
     %  vdW-DF NEWS:                                                        %
     %                                                                      %
     %  * vdW-DF3 is now available. DOI: 10.1021/acs.jctc.0c00471           %
     %    use with input_dft = 'vdW-DF3-opt1' or 'vdW-DF3-opt2'             %
     %                                                                      %
     %  * Unscreened and range-separated hybrid vdW-DF-cx functionals       %
     %    DOI: 10.1063/1.4986522 and 10.1088/1361-648X/ac2ad2               %
     %    use with input_dft = 'vdW-DF-cx0'    and 'vdW-DF-ahcx'            %
     %  * Unscreened and range-separated hybrid vdW-DF2-b86r functionals    %
     %    DOI: 10.1063/1.4986522 and DOI: 10.1103/PhysRevX.12.041003        %
     %    use with input_dft = 'vdW-DF2-br0' and 'vdW-DF2-ahbr'             %
     %                                                                      %
     %%%%%%%%%%%%%%%%%%%%%%%%%%%%%%%%%%%%%%%%%%%%%%%%%%%%%%%%%%%%%%%%%%%%%%%%


     Starting wfcs are  325 randomized atomic wfcs
     Checking if some PAW data can be deallocated... 

     total cpu time spent up to now is       10.7 secs

     per-process dynamical memory:   207.7 Mb

     Self-consistent Calculation

     iteration #  1     ecut=    40.00 Ry     beta= 0.70
     Davidson diagonalization with overlap
     ethr =  1.00E-02,  avg # of iterations =  2.0

     Threshold (ethr) on eigenvalues was too large:
     Diagonalizing with lowered threshold

     Davidson diagonalization with overlap
     ethr =  3.79E-04,  avg # of iterations =  3.2

     negative rho (up, down):  1.716E-02 0.000E+00

     total cpu time spent up to now is       40.0 secs

     total energy              =  -27755.28396214 Ry
     estimated scf accuracy    <       1.55951676 Ry

     iteration #  2     ecut=    40.00 Ry     beta= 0.70
     Davidson diagonalization with overlap
     ethr =  4.32E-04,  avg # of iterations =  2.0

     negative rho (up, down):  1.488E-02 0.000E+00

     total cpu time spent up to now is       52.5 secs

     total energy              =  -27755.38011057 Ry
     estimated scf accuracy    <       0.78726756 Ry

     iteration #  3     ecut=    40.00 Ry     beta= 0.70
     Davidson diagonalization with overlap
     ethr =  2.18E-04,  avg # of iterations =  2.0

     negative rho (up, down):  9.373E-03 0.000E+00

     total cpu time spent up to now is       65.0 secs

     total energy              =  -27755.43192644 Ry
     estimated scf accuracy    <       0.12672404 Ry

     iteration #  4     ecut=    40.00 Ry     beta= 0.70
     Davidson diagonalization with overlap
     c_bands:  1 eigenvalues not converged
     c_bands:  1 eigenvalues not converged
     c_bands:  1 eigenvalues not converged
     c_bands:  1 eigenvalues not converged
     ethr =  3.51E-05,  avg # of iterations = 14.7

     negative rho (up, down):  6.658E-03 0.000E+00

     total cpu time spent up to now is       99.7 secs

     total energy              =  -27755.48099017 Ry
     estimated scf accuracy    <       0.10382031 Ry

     iteration #  5     ecut=    40.00 Ry     beta= 0.70
     Davidson diagonalization with overlap
     ethr =  2.88E-05,  avg # of iterations =  1.5

     negative rho (up, down):  2.610E-03 0.000E+00

     total cpu time spent up to now is      112.3 secs

     total energy              =  -27755.48300467 Ry
     estimated scf accuracy    <       0.03334337 Ry

     iteration #  6     ecut=    40.00 Ry     beta= 0.70
     Davidson diagonalization with overlap
     ethr =  9.24E-06,  avg # of iterations =  5.2

     negative rho (up, down):  1.312E-03 0.000E+00

     total cpu time spent up to now is      126.4 secs

     total energy              =  -27755.48615157 Ry
     estimated scf accuracy    <       0.00312912 Ry

     iteration #  7     ecut=    40.00 Ry     beta= 0.70
     Davidson diagonalization with overlap
     c_bands:  1 eigenvalues not converged
     c_bands:  1 eigenvalues not converged
     ethr =  8.67E-07,  avg # of iterations = 11.7

     negative rho (up, down):  9.105E-04 0.000E+00

     total cpu time spent up to now is      158.8 secs

     total energy              =  -27755.48754550 Ry
     estimated scf accuracy    <       0.00197685 Ry

     iteration #  8     ecut=    40.00 Ry     beta= 0.70
     Davidson diagonalization with overlap
     ethr =  5.48E-07,  avg # of iterations =  2.4

     negative rho (up, down):  7.831E-04 0.000E+00

     total cpu time spent up to now is      171.4 secs

     total energy              =  -27755.48770309 Ry
     estimated scf accuracy    <       0.00035501 Ry

     iteration #  9     ecut=    40.00 Ry     beta= 0.70
     Davidson diagonalization with overlap
     ethr =  9.83E-08,  avg # of iterations =  4.1

     negative rho (up, down):  6.365E-04 0.000E+00

     total cpu time spent up to now is      190.6 secs

     total energy              =  -27755.48782007 Ry
     estimated scf accuracy    <       0.00018892 Ry

     iteration # 10     ecut=    40.00 Ry     beta= 0.70
     Davidson diagonalization with overlap
     ethr =  5.23E-08,  avg # of iterations =  2.1

     negative rho (up, down):  6.308E-04 0.000E+00

     total cpu time spent up to now is      204.5 secs

     total energy              =  -27755.48783438 Ry
     estimated scf accuracy    <       0.00012141 Ry

     iteration # 11     ecut=    40.00 Ry     beta= 0.70
     Davidson diagonalization with overlap
     ethr =  3.36E-08,  avg # of iterations =  1.0

     negative rho (up, down):  6.929E-04 0.000E+00

     total cpu time spent up to now is      215.1 secs

     total energy              =  -27755.48784174 Ry
     estimated scf accuracy    <       0.00010462 Ry

     iteration # 12     ecut=    40.00 Ry     beta= 0.70
     Davidson diagonalization with overlap
     ethr =  2.90E-08,  avg # of iterations =  1.3

     negative rho (up, down):  8.297E-04 0.000E+00

     total cpu time spent up to now is      226.6 secs

     total energy              =  -27755.48785269 Ry
     estimated scf accuracy    <       0.00004408 Ry

     iteration # 13     ecut=    40.00 Ry     beta= 0.70
     Davidson diagonalization with overlap
     ethr =  1.22E-08,  avg # of iterations =  1.4

     negative rho (up, down):  1.051E-03 0.000E+00

     total cpu time spent up to now is      238.0 secs

     total energy              =  -27755.48786340 Ry
     estimated scf accuracy    <       0.00003062 Ry

     iteration # 14     ecut=    40.00 Ry     beta= 0.70
     Davidson diagonalization with overlap
     ethr =  8.48E-09,  avg # of iterations =  1.2

     negative rho (up, down):  1.736E-03 0.000E+00

     total cpu time spent up to now is      249.5 secs

     total energy              =  -27755.48787303 Ry
     estimated scf accuracy    <       0.00001799 Ry

     iteration # 15     ecut=    40.00 Ry     beta= 0.70
     Davidson diagonalization with overlap
     ethr =  4.98E-09,  avg # of iterations =  2.0

     negative rho (up, down):  2.222E-03 0.000E+00

     total cpu time spent up to now is      263.4 secs

     total energy              =  -27755.48787416 Ry
     estimated scf accuracy    <       0.00000716 Ry

     iteration # 16     ecut=    40.00 Ry     beta= 0.70
     Davidson diagonalization with overlap
     ethr =  1.98E-09,  avg # of iterations =  2.0

     negative rho (up, down):  2.552E-03 0.000E+00

     total cpu time spent up to now is      276.1 secs

     total energy              =  -27755.48787376 Ry
     estimated scf accuracy    <       0.00000310 Ry

     iteration # 17     ecut=    40.00 Ry     beta= 0.70
     Davidson diagonalization with overlap
     ethr =  8.60E-10,  avg # of iterations =  2.6

     negative rho (up, down):  3.128E-03 0.000E+00

     total cpu time spent up to now is      290.1 secs

     End of self-consistent calculation

          k = 0.0000 0.0000 0.0000 ( 42913 PWs)   bands (ev):

    -6.2602  -4.9997  -3.9252  -3.8666  -3.8454  -3.8402  -3.8395  -3.8383
    -3.8156  -3.8147  -3.3844  -3.2910  -3.2899  -3.2895  -3.2822  -3.2817
    -2.9537  -2.8271  -2.8270  -2.8184  -2.8151  -2.8150  -2.7483  -2.5989
    -2.5988  -2.5966  -2.5954  -2.5953  -2.4345  -2.3904  -2.3832  -2.3831
    -2.3793  -2.3792  -2.3486  -2.3434  -2.3425  -2.3281  -2.3277  -2.2807
    -2.1755  -1.7692  -1.7691  -1.7323  -1.7320  -1.6922  -1.6914  -1.6912
    -1.6781  -1.6781  -1.6368  -1.5317  -1.5129  -1.4428  -1.2976  -0.9756
    -0.9611  -0.9607  -0.9452  -0.9449  -0.9343  -0.8689  -0.7749  -0.7742
    -0.7655  -0.7654  -0.7491  -0.7483  -0.7122  -0.7120  -0.7104  -0.6830
    -0.6829  -0.6828  -0.6562  -0.6558  -0.6272  -0.5434  -0.5427  -0.5274
    -0.5238  -0.5231  -0.3299  -0.3289  -0.3273  -0.3156  -0.3058  -0.3033
    -0.3029  -0.2840  -0.2830  -0.2142  -0.2141  -0.1611  -0.1608  -0.1204
    -0.1204  -0.0827  -0.0827  -0.0666  -0.0665   0.0691   0.0706   0.0854
     0.1069   0.1083   0.1130   0.4646   0.5628   0.5631   0.5947   0.5979
     0.6046   0.6047   0.6067   0.6557   0.6559   0.6634   0.6684   0.6685
     0.7241   0.7382   0.8642   0.8928   0.8930   0.9123   0.9124   0.9913
     1.0014   1.0018   1.0732   1.0735   1.0809   1.0850   1.2942   1.2943
     1.3311   1.3331   1.3332   1.3539   1.4036   1.4038   1.5755   1.5764
     1.5827   1.5900   1.5909   1.6462   1.7375   1.7380   1.7534   1.7600
     1.7606   1.7848   1.7888   1.7894   1.7982   1.8005   1.8010   1.8924
     1.9086   1.9089   1.9265   1.9268   1.9326   1.9501   1.9663   2.0123
     2.0123   2.0396   2.0398   2.0422   2.0483   2.0544   2.0544   2.1286
     2.1373   2.1374   2.1528   2.1528   2.1538   2.1727   2.2398   2.2639
     2.2711   2.2715   2.2908   2.2910   2.4715   2.4740   2.5626   2.5632
     2.5930   2.5942   2.5946   2.6020   2.9200   3.4217   3.4739   3.4750
     3.4880   3.4892   3.4901   4.9905   5.7555   5.7566   5.7986   5.7996
     5.8158   6.9413   7.3682   7.3691   7.4094   7.4113   7.4190   7.4211
     7.5591

          k = 0.0000 0.2309 0.0000 ( 42996 PWs)   bands (ev):

    -6.1132  -4.8557  -4.3530  -3.9650  -3.9431  -3.7717  -3.7080  -3.6515
    -3.6108  -3.5937  -3.4564  -3.3773  -3.2790  -3.2198  -3.2184  -3.2105
    -2.9490  -2.8646  -2.7856  -2.7839  -2.7742  -2.7409  -2.7009  -2.6866
    -2.6455  -2.6105  -2.5864  -2.5796  -2.5380  -2.4958  -2.4599  -2.4081
    -2.3933  -2.3763  -2.3696  -2.2597  -2.1722  -2.1689  -2.1521  -2.1377
    -2.0887  -1.8873  -1.8705  -1.8432  -1.8059  -1.7911  -1.7710  -1.7242
    -1.5834  -1.5789  -1.5125  -1.5051  -1.4677  -1.4451  -1.3644  -1.1990
    -1.1245  -1.0977  -1.0701  -1.0649  -1.0232  -0.9557  -0.9482  -0.9293
    -0.9059  -0.9043  -0.8824  -0.8388  -0.7890  -0.7694  -0.7502  -0.7340
    -0.6636  -0.6508  -0.6396  -0.5769  -0.5679  -0.5488  -0.4931  -0.4717
    -0.4696  -0.4293  -0.4112  -0.3722  -0.3636  -0.3466  -0.3365  -0.3154
    -0.3078  -0.2881  -0.2421  -0.1997  -0.1888  -0.1849  -0.1549  -0.1500
    -0.1298  -0.0959  -0.0904  -0.0798   0.0318   0.0685   0.0786   0.0880
     0.1009   0.1090   0.1137   0.1254   0.1781   0.1796   0.1938   0.2108
     0.2990   0.4844   0.5103   0.5555   0.5871   0.5995   0.6226   0.6271
     0.6570   0.6707   0.7999   0.8100   0.8210   0.9258   0.9510   0.9946
     1.0141   1.0253   1.0599   1.0713   1.0957   1.1019   1.1722   1.1933
     1.2062   1.2186   1.2248   1.3910   1.4069   1.4280   1.4521   1.4641
     1.4854   1.5158   1.5641   1.5941   1.5979   1.6117   1.6427   1.6834
     1.6949   1.7023   1.7325   1.8154   1.8223   1.8494   1.8950   1.9443
     1.9659   1.9704   1.9806   2.0079   2.0161   2.0497   2.1025   2.1273
     2.1343   2.1890   2.1987   2.2021   2.2429   2.2437   2.2466   2.2521
     2.2564   2.3172   2.3278   2.4539   2.4618   2.4893   2.5037   2.5092
     2.5250   2.5512   2.5756   2.5840   2.5986   2.6678   2.7038   2.7234
     2.7258   2.8806   2.8901   2.9004   2.9465   3.2308   3.3480   3.7659
     4.0719   4.0775   4.2062   4.8308   5.2944   5.4989   6.0044   6.2266
     6.2319   6.3467   6.5514   6.9276   7.1876   7.2232   7.5505   7.5815
     7.6013

          k = 0.0000 0.4619 0.0000 ( 43046 PWs)   bands (ev):

    -5.6900  -5.0548  -4.4524  -4.0016  -3.9755  -3.8965  -3.6229  -3.4649
    -3.3730  -3.3268  -3.2889  -3.2518  -3.1873  -3.1005  -3.0502  -3.0336
    -3.0232  -2.9363  -2.8908  -2.8613  -2.8348  -2.8097  -2.8092  -2.7710
    -2.7194  -2.6965  -2.6834  -2.5677  -2.4322  -2.4219  -2.4156  -2.4066
    -2.3962  -2.3408  -2.1722  -2.1603  -2.1520  -2.1487  -2.1198  -2.0516
    -1.9435  -1.8544  -1.8413  -1.8265  -1.8081  -1.7772  -1.7452  -1.6947
    -1.6879  -1.6612  -1.6370  -1.5764  -1.4738  -1.4697  -1.4417  -1.4320
    -1.3267  -1.2737  -1.2570  -1.2549  -1.2087  -1.1047  -1.0558  -1.0303
    -1.0286  -1.0126  -0.9383  -0.9265  -0.9033  -0.8106  -0.7873  -0.7809
    -0.7629  -0.6788  -0.6588  -0.6567  -0.6410  -0.6195  -0.5822  -0.5565
    -0.5544  -0.5353  -0.5191  -0.5121  -0.4970  -0.4950  -0.4535  -0.3933
    -0.3669  -0.3586  -0.3535  -0.3453  -0.3323  -0.2389  -0.1806  -0.1764
    -0.1526  -0.1177  -0.1013  -0.0822  -0.0680  -0.0491   0.0241   0.0724
     0.1043   0.1452   0.1455   0.1925   0.2045   0.3274   0.3346   0.3650
     0.4246   0.4799   0.5069   0.5141   0.5382   0.5490   0.5637   0.5830
     0.6314   0.6520   0.6696   0.6727   0.6860   0.7018   0.7240   0.7453
     0.7645   0.8607   0.8968   0.9059   0.9169   0.9791   1.0689   1.0987
     1.1058   1.2072   1.2139   1.2979   1.3554   1.3754   1.4115   1.4237
     1.4327   1.4650   1.4796   1.5370   1.5470   1.5798   1.6095   1.6362
     1.7043   1.7265   1.7389   1.7546   1.7664   1.7986   1.8738   1.9465
     1.9867   2.0090   2.0330   2.0415   2.0497   2.1313   2.1532   2.1662
     2.2448   2.2488   2.2554   2.3153   2.3242   2.3420   2.3593   2.4375
     2.4682   2.4892   2.4990   2.5131   2.5147   2.5324   2.5334   2.7074
     2.7198   2.7413   2.7577   2.7588   2.9207   2.9613   3.1429   3.3551
     3.4247   3.5400   3.7919   3.8020   4.1311   4.1822   4.2055   4.5269
     4.7105   5.0094   5.0189   5.0455   5.2207   5.2778   5.3352   5.3956
     5.6568   5.6654   6.0356   6.3008   6.6284   6.8408   6.9914   7.3175
     7.5154

          k = 0.2000-0.1155 0.0000 ( 42996 PWs)   bands (ev):

    -6.1132  -4.8557  -4.3537  -3.9646  -3.9425  -3.7718  -3.7081  -3.6526
    -3.6104  -3.5928  -3.4561  -3.3770  -3.2794  -3.2201  -3.2188  -3.2110
    -2.9485  -2.8642  -2.7859  -2.7839  -2.7748  -2.7410  -2.7006  -2.6865
    -2.6453  -2.6108  -2.5867  -2.5798  -2.5379  -2.4950  -2.4598  -2.4093
    -2.3934  -2.3762  -2.3694  -2.2597  -2.1721  -2.1689  -2.1518  -2.1377
    -2.0878  -1.8869  -1.8703  -1.8429  -1.8063  -1.7913  -1.7712  -1.7245
    -1.5830  -1.5785  -1.5125  -1.5051  -1.4678  -1.4453  -1.3644  -1.1978
    -1.1246  -1.0977  -1.0687  -1.0632  -1.0224  -0.9559  -0.9498  -0.9282
    -0.9061  -0.9057  -0.8829  -0.8392  -0.7887  -0.7682  -0.7498  -0.7335
    -0.6644  -0.6535  -0.6426  -0.5765  -0.5674  -0.5483  -0.4929  -0.4706
    -0.4670  -0.4312  -0.4092  -0.3721  -0.3642  -0.3475  -0.3363  -0.3156
    -0.3075  -0.2880  -0.2420  -0.2004  -0.1876  -0.1860  -0.1551  -0.1501
    -0.1295  -0.0959  -0.0911  -0.0806   0.0320   0.0681   0.0788   0.0880
     0.0998   0.1092   0.1137   0.1254   0.1783   0.1800   0.1936   0.2107
     0.2995   0.4852   0.5114   0.5555   0.5867   0.5994   0.6222   0.6264
     0.6566   0.6702   0.7997   0.8092   0.8208   0.9250   0.9502   0.9978
     1.0115   1.0249   1.0596   1.0709   1.0956   1.1013   1.1722   1.1931
     1.2058   1.2189   1.2256   1.3912   1.4062   1.4279   1.4523   1.4646
     1.4854   1.5163   1.5643   1.5942   1.5985   1.6118   1.6433   1.6833
     1.6952   1.7025   1.7325   1.8152   1.8224   1.8500   1.8943   1.9438
     1.9656   1.9701   1.9804   2.0077   2.0153   2.0493   2.1021   2.1274
     2.1341   2.1891   2.1990   2.2020   2.2430   2.2435   2.2466   2.2526
     2.2564   2.3165   2.3269   2.4527   2.4624   2.4897   2.5039   2.5095
     2.5258   2.5523   2.5768   2.5847   2.5993   2.6675   2.7037   2.7234
     2.7255   2.8811   2.8901   2.9010   2.9454   3.2317   3.3496   3.7656
     4.0718   4.0770   4.2056   4.8299   5.2948   5.5002   6.0046   6.2264
     6.2318   6.3470   6.5510   6.9270   7.1873   7.2226   7.5495   7.5820
     7.6021

          k = 0.2000 0.1155 0.0000 ( 42996 PWs)   bands (ev):

    -6.1132  -4.8557  -4.3536  -3.9647  -3.9427  -3.7718  -3.7080  -3.6522
    -3.6105  -3.5930  -3.4562  -3.3771  -3.2792  -3.2200  -3.2187  -3.2109
    -2.9487  -2.8643  -2.7858  -2.7839  -2.7747  -2.7409  -2.7007  -2.6865
    -2.6454  -2.6107  -2.5866  -2.5798  -2.5380  -2.4952  -2.4599  -2.4090
    -2.3933  -2.3762  -2.3695  -2.2597  -2.1721  -2.1689  -2.1519  -2.1377
    -2.0881  -1.8870  -1.8703  -1.8430  -1.8062  -1.7912  -1.7712  -1.7243
    -1.5831  -1.5786  -1.5126  -1.5050  -1.4677  -1.4453  -1.3644  -1.1982
    -1.1246  -1.0977  -1.0691  -1.0636  -1.0226  -0.9558  -0.9494  -0.9285
    -0.9061  -0.9053  -0.8828  -0.8391  -0.7888  -0.7686  -0.7500  -0.7336
    -0.6641  -0.6527  -0.6418  -0.5766  -0.5676  -0.5485  -0.4930  -0.4710
    -0.4676  -0.4307  -0.4098  -0.3722  -0.3640  -0.3473  -0.3364  -0.3156
    -0.3076  -0.2880  -0.2421  -0.2002  -0.1880  -0.1856  -0.1551  -0.1500
    -0.1296  -0.0959  -0.0909  -0.0803   0.0320   0.0683   0.0787   0.0880
     0.1001   0.1091   0.1136   0.1254   0.1782   0.1799   0.1937   0.2107
     0.2993   0.4850   0.5111   0.5555   0.5868   0.5994   0.6222   0.6267
     0.6567   0.6704   0.7998   0.8094   0.8209   0.9252   0.9505   0.9968
     1.0123   1.0250   1.0597   1.0709   1.0956   1.1015   1.1722   1.1932
     1.2059   1.2188   1.2255   1.3911   1.4064   1.4279   1.4522   1.4645
     1.4854   1.5162   1.5643   1.5942   1.5983   1.6118   1.6431   1.6833
     1.6952   1.7024   1.7325   1.8153   1.8224   1.8498   1.8945   1.9440
     1.9657   1.9702   1.9805   2.0077   2.0155   2.0494   2.1022   2.1274
     2.1341   2.1891   2.1989   2.2020   2.2429   2.2436   2.2466   2.2524
     2.2564   2.3167   2.3271   2.4531   2.4622   2.4895   2.5038   2.5094
     2.5256   2.5520   2.5764   2.5846   2.5991   2.6676   2.7037   2.7234
     2.7256   2.8810   2.8901   2.9008   2.9457   3.2314   3.3491   3.7657
     4.0718   4.0772   4.2058   4.8301   5.2947   5.4998   6.0046   6.2265
     6.2318   6.3469   6.5511   6.9272   7.1874   7.2227   7.5488   7.5817
     7.6019

          k = 0.2000 0.3464 0.0000 ( 43046 PWs)   bands (ev):

    -5.8274  -4.6131  -4.5963  -4.5726  -3.6137  -3.5227  -3.5194  -3.5152
    -3.4853  -3.4527  -3.4483  -3.4327  -3.3350  -3.3294  -3.0485  -2.9487
    -2.9397  -2.9271  -2.8709  -2.8491  -2.7407  -2.7026  -2.7004  -2.6984
    -2.6804  -2.6426  -2.5628  -2.5417  -2.5396  -2.5318  -2.5083  -2.4487
    -2.4256  -2.4216  -2.3738  -2.2957  -2.2090  -2.0479  -1.9555  -1.9501
    -1.9229  -1.8957  -1.8897  -1.8820  -1.8448  -1.8230  -1.7453  -1.6576
    -1.6506  -1.6223  -1.5429  -1.5205  -1.4765  -1.4666  -1.4480  -1.3754
    -1.3307  -1.2200  -1.2112  -1.1479  -1.1260  -1.0959  -1.0689  -1.0591
    -1.0132  -1.0007  -0.9885  -0.8448  -0.8394  -0.8201  -0.7977  -0.7668
    -0.7547  -0.7122  -0.7006  -0.6658  -0.6512  -0.5472  -0.5294  -0.5244
    -0.5116  -0.4861  -0.4744  -0.4689  -0.4296  -0.4161  -0.3948  -0.3662
    -0.3420  -0.2903  -0.2473  -0.2362  -0.2305  -0.1896  -0.1659  -0.1503
    -0.1395  -0.1175  -0.0957  -0.0830  -0.0758  -0.0624  -0.0574  -0.0437
     0.0046   0.0124   0.0651   0.1112   0.1583   0.1661   0.2332   0.2476
     0.2574   0.3336   0.4521   0.4775   0.5543   0.5849   0.6045   0.6079
     0.6351   0.6657   0.6911   0.7066   0.7285   0.7336   0.7796   0.8173
     0.8531   0.9475   1.0107   1.0279   1.0492   1.0665   1.1033   1.1321
     1.1518   1.2466   1.2642   1.2680   1.3221   1.3458   1.3907   1.4562
     1.4815   1.4843   1.5059   1.5518   1.5636   1.5800   1.5825   1.5977
     1.6032   1.6137   1.6303   1.7091   1.7934   1.8204   1.8682   1.9508
     1.9663   2.0463   2.1308   2.1377   2.1413   2.1836   2.2497   2.2624
     2.2761   2.2889   2.3103   2.3275   2.3384   2.3483   2.3591   2.3957
     2.4146   2.4199   2.4915   2.5205   2.5274   2.5569   2.5658   2.6129
     2.6998   2.7598   2.7966   2.8107   2.8702   2.8823   2.8850   3.0131
     3.0212   3.2903   3.5507   3.5633   3.9206   4.0819   4.0982   4.1235
     4.4199   4.8065   4.8227   5.0256   5.0303   5.0732   5.6756   5.8454
     6.2157   6.2397   6.4606   6.5262   6.9272   7.0092   7.0172   7.0237
     7.0566

          k = 0.2000-0.5774 0.0000 ( 43014 PWs)   bands (ev):

    -5.2955  -5.2885  -4.6845  -4.1147  -4.0636  -3.5857  -3.5195  -3.3821
    -3.3451  -3.2610  -3.2320  -3.1326  -3.1195  -3.0555  -3.0290  -3.0149
    -2.9824  -2.9709  -2.9601  -2.9430  -2.8929  -2.8028  -2.7949  -2.7659
    -2.7436  -2.6996  -2.6214  -2.5525  -2.5430  -2.4908  -2.4125  -2.4086
    -2.3805  -2.3781  -2.3187  -2.2826  -2.2505  -2.1617  -2.0845  -1.9640
    -1.9576  -1.9170  -1.8395  -1.8123  -1.7742  -1.7497  -1.6448  -1.5875
    -1.5806  -1.5592  -1.5271  -1.4812  -1.4656  -1.4339  -1.3652  -1.3578
    -1.3411  -1.3203  -1.3074  -1.3066  -1.2697  -1.2502  -1.2097  -1.1207
    -1.0939  -1.0446  -1.0196  -0.9525  -0.9060  -0.8847  -0.8673  -0.8270
    -0.8115  -0.7983  -0.7427  -0.7171  -0.7075  -0.6838  -0.6684  -0.6451
    -0.5814  -0.5635  -0.5026  -0.4726  -0.4624  -0.4552  -0.3992  -0.3299
    -0.2803  -0.2768  -0.2639  -0.2552  -0.2151  -0.2098  -0.1882  -0.1650
    -0.1527  -0.1498  -0.1262  -0.1121  -0.0692  -0.0620  -0.0482  -0.0424
    -0.0354  -0.0138   0.0103   0.0328   0.0542   0.1231   0.2611   0.3115
     0.3590   0.3656   0.4663   0.4835   0.4948   0.5140   0.5499   0.5599
     0.5839   0.5958   0.6321   0.6906   0.7116   0.7286   0.7723   0.7882
     0.8398   0.8652   0.9104   0.9940   1.0559   1.1097   1.1199   1.1370
     1.1597   1.2184   1.2314   1.2616   1.2809   1.2879   1.3144   1.3254
     1.3615   1.4297   1.4513   1.4918   1.5074   1.5291   1.5299   1.5578
     1.5641   1.6656   1.7108   1.7793   1.8214   1.8880   1.9401   1.9673
     1.9788   2.0489   2.0982   2.1009   2.1427   2.2071   2.2602   2.2760
     2.3022   2.3218   2.3288   2.3482   2.3721   2.4027   2.4732   2.4832
     2.4909   2.5143   2.5380   2.5400   2.5470   2.6038   2.7190   2.7281
     2.7481   2.7572   2.7622   2.8162   2.8557   2.9413   3.0630   3.6526
     3.9058   3.9087   4.1104   4.1636   4.2831   4.2905   4.3132   4.5766
     4.9131   4.9203   5.1433   5.3668   5.3927   5.5004   5.5133   5.5581
     5.7223   5.8189   5.9101   6.1349   6.3268   6.3571   6.6097   6.9776
     7.0043

          k = 0.2000-0.3464 0.0000 ( 43046 PWs)   bands (ev):

    -5.8274  -4.6131  -4.5965  -4.5726  -3.6137  -3.5228  -3.5195  -3.5153
    -3.4854  -3.4526  -3.4482  -3.4323  -3.3350  -3.3293  -3.0487  -2.9489
    -2.9397  -2.9270  -2.8711  -2.8491  -2.7407  -2.7026  -2.7005  -2.6984
    -2.6802  -2.6424  -2.5626  -2.5417  -2.5395  -2.5316  -2.5084  -2.4487
    -2.4257  -2.4217  -2.3738  -2.2961  -2.2091  -2.0478  -1.9552  -1.9501
    -1.9228  -1.8957  -1.8896  -1.8819  -1.8448  -1.8230  -1.7452  -1.6575
    -1.6506  -1.6225  -1.5428  -1.5206  -1.4764  -1.4665  -1.4481  -1.3755
    -1.3307  -1.2198  -1.2111  -1.1477  -1.1257  -1.0955  -1.0689  -1.0589
    -1.0132  -1.0007  -0.9885  -0.8448  -0.8397  -0.8204  -0.7980  -0.7670
    -0.7549  -0.7121  -0.7005  -0.6662  -0.6512  -0.5468  -0.5293  -0.5244
    -0.5114  -0.4861  -0.4745  -0.4689  -0.4298  -0.4162  -0.3950  -0.3664
    -0.3421  -0.2906  -0.2474  -0.2361  -0.2304  -0.1896  -0.1662  -0.1505
    -0.1395  -0.1175  -0.0953  -0.0827  -0.0758  -0.0625  -0.0574  -0.0436
     0.0046   0.0124   0.0652   0.1112   0.1584   0.1662   0.2329   0.2473
     0.2573   0.3335   0.4521   0.4776   0.5539   0.5850   0.6042   0.6079
     0.6351   0.6657   0.6909   0.7067   0.7287   0.7335   0.7795   0.8173
     0.8538   0.9469   1.0106   1.0278   1.0492   1.0666   1.1032   1.1321
     1.1517   1.2465   1.2642   1.2680   1.3221   1.3457   1.3905   1.4564
     1.4816   1.4843   1.5060   1.5519   1.5636   1.5802   1.5827   1.5977
     1.6034   1.6140   1.6305   1.7089   1.7933   1.8205   1.8682   1.9506
     1.9660   2.0463   2.1308   2.1377   2.1413   2.1835   2.2497   2.2625
     2.2761   2.2890   2.3102   2.3275   2.3383   2.3481   2.3589   2.3956
     2.4145   2.4204   2.4914   2.5204   2.5274   2.5568   2.5658   2.6128
     2.7000   2.7603   2.7970   2.8109   2.8702   2.8823   2.8851   3.0130
     3.0212   3.2901   3.5506   3.5631   3.9207   4.0822   4.0985   4.1237
     4.4200   4.8064   4.8226   5.0257   5.0302   5.0732   5.6756   5.8455
     6.2158   6.2401   6.4603   6.5262   6.9271   7.0091   7.0171   7.0237
     7.0567

          k = 0.4000-0.2309 0.0000 ( 43046 PWs)   bands (ev):

    -5.6901  -5.0551  -4.4525  -4.0014  -3.9750  -3.8965  -3.6241  -3.4649
    -3.3731  -3.3272  -3.2886  -3.2510  -3.1875  -3.1012  -3.0503  -3.0335
    -3.0238  -2.9368  -2.8905  -2.8605  -2.8351  -2.8099  -2.8097  -2.7719
    -2.7193  -2.6965  -2.6831  -2.5676  -2.4318  -2.4215  -2.4151  -2.4060
    -2.3954  -2.3409  -2.1719  -2.1601  -2.1518  -2.1483  -2.1191  -2.0511
    -1.9433  -1.8546  -1.8416  -1.8266  -1.8081  -1.7775  -1.7453  -1.6935
    -1.6884  -1.6609  -1.6374  -1.5769  -1.4732  -1.4689  -1.4415  -1.4317
    -1.3258  -1.2714  -1.2560  -1.2531  -1.2079  -1.1045  -1.0556  -1.0312
    -1.0292  -1.0136  -0.9393  -0.9256  -0.9034  -0.8113  -0.7889  -0.7835
    -0.7660  -0.6784  -0.6582  -0.6568  -0.6407  -0.6192  -0.5817  -0.5551
    -0.5532  -0.5347  -0.5188  -0.5119  -0.4989  -0.4949  -0.4536  -0.3928
    -0.3674  -0.3582  -0.3531  -0.3441  -0.3313  -0.2401  -0.1806  -0.1785
    -0.1538  -0.1194  -0.1005  -0.0816  -0.0688  -0.0509   0.0234   0.0723
     0.1050   0.1450   0.1460   0.1926   0.2043   0.3272   0.3344   0.3666
     0.4244   0.4795   0.5068   0.5139   0.5380   0.5488   0.5651   0.5843
     0.6314   0.6511   0.6697   0.6716   0.6863   0.7013   0.7226   0.7442
     0.7661   0.8603   0.8956   0.9052   0.9163   0.9790   1.0681   1.0975
     1.1052   1.2071   1.2139   1.2992   1.3562   1.3750   1.4112   1.4243
     1.4317   1.4658   1.4804   1.5374   1.5475   1.5806   1.6098   1.6361
     1.7049   1.7267   1.7390   1.7546   1.7668   1.7980   1.8730   1.9461
     1.9862   2.0086   2.0327   2.0411   2.0490   2.1311   2.1533   2.1657
     2.2445   2.2485   2.2552   2.3154   2.3231   2.3415   2.3591   2.4373
     2.4686   2.4896   2.4987   2.5141   2.5144   2.5338   2.5347   2.7070
     2.7206   2.7425   2.7587   2.7602   2.9205   2.9611   3.1434   3.3569
     3.4231   3.5398   3.7917   3.8019   4.1308   4.1821   4.2051   4.5290
     4.7104   5.0094   5.0189   5.0469   5.2200   5.2775   5.3355   5.3971
     5.6567   5.6653   6.0347   6.3027   6.6278   6.8405   6.9909   7.3173
     7.5157

          k = 0.4000-0.0000 0.0000 ( 43046 PWs)   bands (ev):

    -5.8275  -4.6132  -4.5966  -4.5726  -3.6137  -3.5229  -3.5198  -3.5155
    -3.4855  -3.4523  -3.4479  -3.4316  -3.3350  -3.3293  -3.0493  -2.9497
    -2.9400  -2.9267  -2.8715  -2.8492  -2.7404  -2.7026  -2.7006  -2.6985
    -2.6797  -2.6420  -2.5619  -2.5416  -2.5395  -2.5313  -2.5084  -2.4487
    -2.4260  -2.4220  -2.3736  -2.2973  -2.2093  -2.0477  -1.9550  -1.9498
    -1.9225  -1.8957  -1.8894  -1.8816  -1.8446  -1.8230  -1.7450  -1.6574
    -1.6505  -1.6224  -1.5427  -1.5206  -1.4762  -1.4662  -1.4483  -1.3756
    -1.3309  -1.2193  -1.2106  -1.1472  -1.1246  -1.0946  -1.0687  -1.0582
    -1.0131  -1.0008  -0.9885  -0.8449  -0.8403  -0.8212  -0.7989  -0.7675
    -0.7554  -0.7118  -0.7003  -0.6667  -0.6519  -0.5456  -0.5291  -0.5243
    -0.5111  -0.4858  -0.4744  -0.4695  -0.4304  -0.4163  -0.3955  -0.3670
    -0.3425  -0.2913  -0.2477  -0.2361  -0.2303  -0.1897  -0.1668  -0.1513
    -0.1395  -0.1174  -0.0942  -0.0819  -0.0757  -0.0625  -0.0574  -0.0436
     0.0045   0.0122   0.0653   0.1111   0.1586   0.1663   0.2324   0.2466
     0.2570   0.3333   0.4524   0.4778   0.5528   0.5850   0.6037   0.6077
     0.6351   0.6658   0.6908   0.7070   0.7290   0.7333   0.7794   0.8171
     0.8557   0.9457   1.0106   1.0276   1.0493   1.0665   1.1028   1.1320
     1.1515   1.2464   1.2640   1.2679   1.3220   1.3456   1.3901   1.4567
     1.4817   1.4845   1.5061   1.5521   1.5638   1.5805   1.5832   1.5977
     1.6035   1.6146   1.6311   1.7084   1.7933   1.8206   1.8681   1.9502
     1.9657   2.0462   2.1308   2.1377   2.1412   2.1835   2.2496   2.2630
     2.2762   2.2892   2.3101   2.3277   2.3381   2.3474   2.3583   2.3953
     2.4139   2.4217   2.4909   2.5202   2.5271   2.5567   2.5658   2.6126
     2.7005   2.7615   2.7980   2.8117   2.8704   2.8823   2.8855   3.0128
     3.0209   3.2895   3.5503   3.5628   3.9209   4.0829   4.0991   4.1243
     4.4201   4.8064   4.8222   5.0257   5.0301   5.0732   5.6758   5.8458
     6.2160   6.2409   6.4596   6.5265   6.9268   7.0090   7.0168   7.0280
     7.4265

          k = 0.4000 0.2309 0.0000 ( 43046 PWs)   bands (ev):

    -5.6901  -5.0550  -4.4525  -4.0014  -3.9751  -3.8965  -3.6238  -3.4649
    -3.3731  -3.3271  -3.2886  -3.2512  -3.1874  -3.1010  -3.0503  -3.0335
    -3.0236  -2.9366  -2.8906  -2.8607  -2.8350  -2.8099  -2.8095  -2.7717
    -2.7193  -2.6965  -2.6831  -2.5676  -2.4319  -2.4216  -2.4153  -2.4061
    -2.3956  -2.3409  -2.1720  -2.1601  -2.1518  -2.1484  -2.1193  -2.0512
    -1.9433  -1.8546  -1.8415  -1.8266  -1.8082  -1.7774  -1.7453  -1.6938
    -1.6883  -1.6610  -1.6373  -1.5768  -1.4733  -1.4691  -1.4415  -1.4317
    -1.3260  -1.2721  -1.2563  -1.2536  -1.2082  -1.1046  -1.0557  -1.0310
    -1.0290  -1.0133  -0.9391  -0.9258  -0.9034  -0.8111  -0.7883  -0.7829
    -0.7651  -0.6786  -0.6584  -0.6567  -0.6408  -0.6193  -0.5819  -0.5555
    -0.5535  -0.5349  -0.5189  -0.5120  -0.4984  -0.4950  -0.4535  -0.3929
    -0.3672  -0.3583  -0.3532  -0.3444  -0.3316  -0.2397  -0.1806  -0.1779
    -0.1535  -0.1189  -0.1008  -0.0818  -0.0686  -0.0504   0.0236   0.0723
     0.1048   0.1450   0.1458   0.1926   0.2043   0.3272   0.3345   0.3661
     0.4245   0.4797   0.5068   0.5139   0.5380   0.5489   0.5647   0.5839
     0.6314   0.6513   0.6696   0.6719   0.6862   0.7014   0.7231   0.7445
     0.7657   0.8604   0.8959   0.9053   0.9165   0.9790   1.0684   1.0979
     1.1053   1.2072   1.2139   1.2988   1.3560   1.3752   1.4113   1.4241
     1.4320   1.4656   1.4802   1.5373   1.5474   1.5804   1.6097   1.6362
     1.7047   1.7266   1.7389   1.7546   1.7667   1.7982   1.8732   1.9462
     1.9863   2.0088   2.0328   2.0412   2.0492   2.1312   2.1533   2.1658
     2.2445   2.2486   2.2553   2.3154   2.3234   2.3416   2.3592   2.4373
     2.4685   2.4895   2.4987   2.5138   2.5145   2.5334   2.5343   2.7071
     2.7204   2.7422   2.7582   2.7600   2.9206   2.9611   3.1433   3.3564
     3.4236   3.5399   3.7918   3.8020   4.1308   4.1822   4.2052   4.5284
     4.7104   5.0094   5.0189   5.0465   5.2202   5.2776   5.3354   5.3967
     5.6567   5.6653   6.0349   6.3023   6.6279   6.8404   6.9911   7.3173
     7.5157

          k = 0.4000-0.6928 0.0000 ( 43014 PWs)   bands (ev):

    -5.2956  -5.2887  -4.6843  -4.1147  -4.0636  -3.5857  -3.5202  -3.3821
    -3.3450  -3.2608  -3.2316  -3.1328  -3.1198  -3.0554  -3.0292  -3.0149
    -2.9824  -2.9711  -2.9600  -2.9426  -2.8933  -2.8032  -2.7949  -2.7662
    -2.7438  -2.6998  -2.6214  -2.5524  -2.5426  -2.4905  -2.4124  -2.4085
    -2.3806  -2.3778  -2.3181  -2.2825  -2.2502  -2.1611  -2.0844  -1.9639
    -1.9578  -1.9170  -1.8395  -1.8124  -1.7743  -1.7497  -1.6457  -1.5879
    -1.5809  -1.5592  -1.5266  -1.4797  -1.4653  -1.4329  -1.3649  -1.3576
    -1.3408  -1.3197  -1.3072  -1.3063  -1.2691  -1.2506  -1.2101  -1.1207
    -1.0942  -1.0442  -1.0194  -0.9528  -0.9047  -0.8854  -0.8680  -0.8276
    -0.8131  -0.7993  -0.7432  -0.7169  -0.7071  -0.6836  -0.6685  -0.6450
    -0.5809  -0.5633  -0.5032  -0.4720  -0.4612  -0.4553  -0.3995  -0.3314
    -0.2802  -0.2762  -0.2633  -0.2545  -0.2153  -0.2100  -0.1886  -0.1656
    -0.1548  -0.1503  -0.1269  -0.1130  -0.0690  -0.0603  -0.0481  -0.0422
    -0.0355  -0.0124   0.0101   0.0324   0.0537   0.1234   0.2603   0.3109
     0.3591   0.3657   0.4662   0.4834   0.4948   0.5142   0.5496   0.5601
     0.5843   0.5963   0.6320   0.6911   0.7111   0.7282   0.7719   0.7888
     0.8399   0.8650   0.9094   0.9936   1.0558   1.1096   1.1200   1.1371
     1.1598   1.2186   1.2314   1.2620   1.2810   1.2877   1.3146   1.3255
     1.3614   1.4302   1.4514   1.4921   1.5076   1.5292   1.5298   1.5579
     1.5638   1.6652   1.7113   1.7786   1.8211   1.8878   1.9401   1.9675
     1.9788   2.0489   2.0981   2.1011   2.1427   2.2070   2.2601   2.2760
     2.3014   2.3220   2.3284   2.3480   2.3723   2.4033   2.4737   2.4833
     2.4908   2.5131   2.5379   2.5400   2.5471   2.6035   2.7189   2.7284
     2.7486   2.7578   2.7631   2.8165   2.8566   2.9413   3.0628   3.6523
     3.9058   3.9087   4.1098   4.1643   4.2831   4.2906   4.3120   4.5774
     4.9133   4.9204   5.1433   5.3673   5.3926   5.5002   5.5132   5.5580
     5.7261   5.8191   5.9092   6.1354   6.3263   6.3565   6.6102   6.9767
     7.0033

          k = 0.4000-0.4619 0.0000 ( 43014 PWs)   bands (ev):

    -5.2957  -5.2886  -4.6842  -4.1148  -4.0635  -3.5858  -3.5205  -3.3820
    -3.3449  -3.2606  -3.2316  -3.1328  -3.1199  -3.0554  -3.0292  -3.0150
    -2.9823  -2.9713  -2.9598  -2.9425  -2.8934  -2.8034  -2.7949  -2.7663
    -2.7439  -2.6998  -2.6214  -2.5524  -2.5425  -2.4902  -2.4124  -2.4084
    -2.3807  -2.3777  -2.3179  -2.2825  -2.2501  -2.1608  -2.0844  -1.9639
    -1.9579  -1.9170  -1.8396  -1.8126  -1.7742  -1.7498  -1.6461  -1.5880
    -1.5809  -1.5593  -1.5266  -1.4791  -1.4651  -1.4326  -1.3648  -1.3575
    -1.3407  -1.3194  -1.3071  -1.3063  -1.2689  -1.2507  -1.2102  -1.1207
    -1.0943  -1.0439  -1.0194  -0.9530  -0.9042  -0.8856  -0.8684  -0.8278
    -0.8137  -0.7997  -0.7434  -0.7167  -0.7070  -0.6835  -0.6686  -0.6450
    -0.5807  -0.5632  -0.5035  -0.4718  -0.4608  -0.4552  -0.3997  -0.3320
    -0.2799  -0.2761  -0.2631  -0.2543  -0.2154  -0.2101  -0.1888  -0.1658
    -0.1550  -0.1512  -0.1272  -0.1133  -0.0691  -0.0597  -0.0479  -0.0422
    -0.0355  -0.0118   0.0101   0.0321   0.0535   0.1236   0.2600   0.3107
     0.3590   0.3658   0.4662   0.4833   0.4948   0.5143   0.5496   0.5602
     0.5844   0.5964   0.6320   0.6912   0.7109   0.7280   0.7718   0.7891
     0.8399   0.8649   0.9090   0.9935   1.0557   1.1096   1.1200   1.1372
     1.1598   1.2188   1.2315   1.2621   1.2810   1.2877   1.3147   1.3255
     1.3613   1.4303   1.4514   1.4921   1.5076   1.5292   1.5298   1.5580
     1.5637   1.6651   1.7115   1.7784   1.8209   1.8877   1.9401   1.9677
     1.9788   2.0488   2.0982   2.1011   2.1427   2.2070   2.2600   2.2760
     2.3011   2.3221   2.3283   2.3480   2.3723   2.4035   2.4738   2.4834
     2.4908   2.5127   2.5380   2.5400   2.5471   2.6034   2.7189   2.7286
     2.7488   2.7582   2.7634   2.8166   2.8570   2.9413   3.0627   3.6521
     3.9058   3.9087   4.1097   4.1645   4.2831   4.2906   4.3115   4.5776
     4.9133   4.9204   5.1433   5.3675   5.3925   5.5002   5.5131   5.5579
     5.7276   5.8191   5.9089   6.1355   6.3262   6.3562   6.6103   6.9764
     7.0029

     the Fermi energy is     2.5141 ev

!    total energy              =  -27755.48787085 Ry
     total all-electron energy =  -1326642.253288 Ry
     estimated scf accuracy    <       0.00000097 Ry
     smearing contrib. (-TS)   =      -0.00004558 Ry
     internal energy E=F+TS    =  -27755.48782527 Ry

     The total energy is F=E-TS. E is the sum of the following terms:
     one-electron contribution =  -20595.91605353 Ry
     hartree contribution      =   10605.24844414 Ry
     xc contribution           =    -890.62469822 Ry
     ewald contribution        =    8599.76494382 Ry
     one-center paw contrib.   =  -25473.96046148 Ry

     convergence has been achieved in  17 iterations

     negative rho (up, down):  3.128E-03 0.000E+00

     Forces acting on atoms (cartesian axes, Ry/au):

     atom    1 type  1   force =    -0.00024820    0.00013687   -0.00467511
     atom    2 type  1   force =     0.00024559    0.00012659   -0.00471079
     atom    3 type  1   force =     0.00004684   -0.00004737   -0.00997838
     atom    4 type  1   force =     0.00000180   -0.00003049   -0.00432027
     atom    5 type  1   force =    -0.00001335   -0.00033314   -0.00469161
     atom    6 type  1   force =     0.00006193   -0.00036712   -0.00466865
     atom    7 type  1   force =    -0.00027430    0.00005501   -0.00466236
     atom    8 type  1   force =     0.00000267   -0.00006563   -0.00576672
     atom    9 type  1   force =     0.00032660    0.00002655   -0.00467407
     atom   10 type  1   force =    -0.00006343    0.00230019    0.01102607
     atom   11 type  1   force =     0.00165904   -0.00087609    0.00112194
     atom   12 type  1   force =    -0.00165633   -0.00091125    0.00108141
     atom   13 type  1   force =    -0.00197809   -0.00101884    0.01103786
     atom   14 type  1   force =    -0.00001316    0.00042291    0.00395103
     atom   15 type  1   force =     0.00195219   -0.00107488    0.01104978
     atom   16 type  1   force =     0.00028046   -0.00013313    0.00389717
     atom   17 type  1   force =    -0.00036378   -0.00016110    0.00393495
     atom   18 type  1   force =     0.00002664    0.00196478    0.00103440
     atom   19 type  1   force =     0.00000118   -0.00000260    0.00000668
     atom   20 type  1   force =     0.00000118   -0.00000316    0.00000539
     atom   21 type  1   force =     0.00000237    0.00000026   -0.00000810
     atom   22 type  1   force =     0.00000590    0.00000130    0.00001252
     atom   23 type  1   force =    -0.00000036    0.00000733   -0.00000474
     atom   24 type  1   force =    -0.00000297    0.00000262   -0.00001418
     atom   25 type  1   force =     0.00000986   -0.00000629    0.00000308
     atom   26 type  1   force =    -0.00000895   -0.00000476   -0.00001004
     atom   27 type  1   force =    -0.00000236   -0.00000588   -0.00000782
     atom   28 type  1   force =     0.00000793    0.00000317    0.00000314
     atom   29 type  1   force =    -0.00000975   -0.00000304    0.00001094
     atom   30 type  1   force =    -0.00000010   -0.00000002   -0.00001180
     atom   31 type  1   force =    -0.00000314   -0.00000496    0.00000632
     atom   32 type  1   force =    -0.00000871    0.00000331    0.00000502
     atom   33 type  1   force =     0.00001140    0.00000993    0.00000416
     atom   34 type  1   force =     0.00000199   -0.00000450   -0.00000226
     atom   35 type  1   force =     0.00000694    0.00000339    0.00002766
     atom   36 type  1   force =    -0.00000681   -0.00000851    0.00000875
     atom   37 type  2   force =     0.00000128   -0.00000146   -0.00002135
     The non-local contrib.  to forces
     atom    1 type  1   force =    -0.00008540   -0.00017690   -0.01971734
     atom    2 type  1   force =     0.00003882   -0.00018242   -0.01975001
     atom    3 type  1   force =     0.00002162    0.00002418   -0.01915461
     atom    4 type  1   force =    -0.00002337    0.00003808   -0.01562836
     atom    5 type  1   force =     0.00018268    0.00007704   -0.01971202
     atom    6 type  1   force =    -0.00017291    0.00004804   -0.01969076
     atom    7 type  1   force =     0.00013745    0.00015910   -0.01968445
     atom    8 type  1   force =    -0.00001234   -0.00000382   -0.02043929
     atom    9 type  1   force =    -0.00012336    0.00012116   -0.01969660
     atom   10 type  1   force =    -0.00007068    0.00051447    0.00186677
     atom   11 type  1   force =    -0.00205591    0.00129745   -0.00030124
     atom   12 type  1   force =     0.00205474    0.00125443   -0.00030051
     atom   13 type  1   force =    -0.00039892   -0.00009912    0.00184410
     atom   14 type  1   force =    -0.00003193    0.00097889   -0.00072936
     atom   15 type  1   force =     0.00036441   -0.00015864    0.00182758
     atom   16 type  1   force =     0.00072642   -0.00036218   -0.00073368
     atom   17 type  1   force =    -0.00084027   -0.00038795   -0.00073742
     atom   18 type  1   force =     0.00002845   -0.00231945   -0.00028902
     atom   19 type  1   force =    -0.01110993   -0.00644851   -0.00179874
     atom   20 type  1   force =     0.01112159   -0.00643084   -0.00180801
     atom   21 type  1   force =     0.00001153    0.00072188    0.00534660
     atom   22 type  1   force =     0.00002567    0.01279428   -0.00177880
     atom   23 type  1   force =     0.00221270    0.00131527    0.00229971
     atom   24 type  1   force =    -0.00224392    0.00129082    0.00227879
     atom   25 type  1   force =     0.00063631   -0.00036497    0.00536365
     atom   26 type  1   force =    -0.00004268   -0.00256303    0.00229622
     atom   27 type  1   force =    -0.00060427   -0.00036416    0.00534589
     atom   28 type  1   force =     0.00416585    0.00452023    0.02124819
     atom   29 type  1   force =    -0.00411941    0.00453205    0.02130507
     atom   30 type  1   force =     0.00003544   -0.00011372    0.01734260
     atom   31 type  1   force =     0.00000993   -0.00002167   -0.13727802
     atom   32 type  1   force =    -0.00610423    0.00114660    0.02129433
     atom   33 type  1   force =     0.00616020    0.00114571    0.02131090
     atom   34 type  1   force =    -0.00192025   -0.00599405    0.02127252
     atom   35 type  1   force =     0.00002324   -0.00007974    0.01758162
     atom   36 type  1   force =     0.00199498   -0.00601003    0.02133777
     atom   37 type  2   force =     0.00000747   -0.00001798   -0.04251579
     The ionic contribution  to forces
     atom    1 type  1   force =     0.00420880    0.01251629  -93.27159682
     atom    2 type  1   force =    -0.00405430    0.01240414  -93.27129615
     atom    3 type  1   force =    -0.00015674    0.00000976  -93.28246203
     atom    4 type  1   force =    -0.00001820    0.00003970  -93.24917575
     atom    5 type  1   force =    -0.01283292   -0.00271954  -93.27140710
     atom    6 type  1   force =     0.01284787   -0.00253292  -93.27136990
     atom    7 type  1   force =    -0.00882240   -0.00987353  -93.27155842
     atom    8 type  1   force =     0.00017174   -0.00002660  -93.28719495
     atom    9 type  1   force =     0.00864824   -0.00979011  -93.27121492
     atom   10 type  1   force =     0.00034856    0.09493605  -31.34366135
     atom   11 type  1   force =    -0.11058001    0.06443281  -31.38670653
     atom   12 type  1   force =     0.10918723    0.06564214  -31.38801814
     atom   13 type  1   force =    -0.08212027   -0.04618309  -31.34412361
     atom   14 type  1   force =     0.00033868   -0.01559266  -31.47333142
     atom   15 type  1   force =     0.08091982   -0.04501255  -31.34320252
     atom   16 type  1   force =    -0.01379769    0.00908855  -31.47492885
     atom   17 type  1   force =     0.01463059    0.00910387  -31.47246014
     atom   18 type  1   force =    -0.00177181   -0.12648075  -31.38697580
     atom   19 type  1   force =     0.05210049    0.03038288   31.47862156
     atom   20 type  1   force =    -0.05026181    0.02735183   31.47867998
     atom   21 type  1   force =    -0.00094347   -0.01747627   30.68690675
     atom   22 type  1   force =    -0.00189160   -0.06064459   31.48288289
     atom   23 type  1   force =    -0.04406921   -0.02782166   30.80452698
     atom   24 type  1   force =     0.04590495   -0.02527066   30.80916663
     atom   25 type  1   force =    -0.01683988    0.00926933   30.68035462
     atom   26 type  1   force =     0.00303684    0.05284872   30.80656805
     atom   27 type  1   force =     0.01387087    0.00858376   30.68635683
     atom   28 type  1   force =    -0.08081195   -0.26696357   92.20881764
     atom   29 type  1   force =     0.08273009   -0.26911739   92.21238484
     atom   30 type  1   force =    -0.00109350   -0.00127226   92.54134676
     atom   31 type  1   force =    -0.00139104    0.00127898   92.50289688
     atom   32 type  1   force =     0.27187009    0.06051264   92.21382674
     atom   33 type  1   force =    -0.26997793    0.06276842   92.21520389
     atom   34 type  1   force =     0.18813282    0.20251913   92.20928707
     atom   35 type  1   force =     0.00247212    0.00000756   92.51079737
     atom   36 type  1   force =    -0.18966973    0.20238508   92.21274358
     atom   37 type  2   force =    -0.00031534    0.00069651   12.31931536
     The local contribution  to forces
     atom    1 type  1   force =    -0.00408022   -0.01226701   93.26868216
     atom    2 type  1   force =     0.00409170   -0.01214600   93.26848733
     atom    3 type  1   force =     0.00006056   -0.00004435   93.27334689
     atom    4 type  1   force =     0.00010638   -0.00016816   93.24224949
     atom    5 type  1   force =     0.01257058    0.00244396   93.26852897
     atom    6 type  1   force =    -0.01260863    0.00235710   93.26848344
     atom    7 type  1   force =     0.00858567    0.00957678   93.26860803
     atom    8 type  1   force =    -0.00010835   -0.00001935   93.28410671
     atom    9 type  1   force =    -0.00842184    0.00960208   93.26837124
     atom   10 type  1   force =    -0.00017905   -0.09319429   31.35222000
     atom   11 type  1   force =     0.11381679   -0.06642367   31.38771620
     atom   12 type  1   force =    -0.11259437   -0.06747985   31.38897817
     atom   13 type  1   force =     0.08057267    0.04514052   31.35270793
     atom   14 type  1   force =    -0.00028391    0.01528683   31.47713547
     atom   15 type  1   force =    -0.07940983    0.04418621   31.35188591
     atom   16 type  1   force =     0.01372324   -0.00900707   31.47861713
     atom   17 type  1   force =    -0.01431995   -0.00894660   31.47627748
     atom   18 type  1   force =     0.00155938    0.13035579   31.38788207
     atom   19 type  1   force =    -0.04087492   -0.02379034  -31.47447298
     atom   20 type  1   force =     0.03910873   -0.02097514  -31.47458220
     atom   21 type  1   force =     0.00085880    0.01683804  -30.68995515
     atom   22 type  1   force =     0.00173827    0.04769510  -31.47876626
     atom   23 type  1   force =     0.04210603    0.02647920  -30.80489664
     atom   24 type  1   force =    -0.04378019    0.02411063  -30.80955263
     atom   25 type  1   force =     0.01617644   -0.00888728  -30.68337296
     atom   26 type  1   force =    -0.00279849   -0.05045715  -30.80697850
     atom   27 type  1   force =    -0.01343860   -0.00823536  -30.68945511
     atom   28 type  1   force =     0.07692279    0.26227768  -92.21303498
     atom   29 type  1   force =    -0.07881080    0.26430598  -92.21676349
     atom   30 type  1   force =     0.00097895    0.00142767  -92.54175637
     atom   31 type  1   force =     0.00132322   -0.00126633  -92.36810583
     atom   32 type  1   force =    -0.26563622   -0.06139653  -92.21818328
     atom   33 type  1   force =     0.26374386   -0.06353125  -92.21954293
     atom   34 type  1   force =    -0.18594405   -0.19664738  -92.21352886
     atom   35 type  1   force =    -0.00236489    0.00004481  -92.51119744
     atom   36 type  1   force =     0.18727711   -0.19648330  -92.21711497
     atom   37 type  2   force =     0.00030398   -0.00068041  -12.27681016
     The core correction contribution to forces
     atom    1 type  1   force =     0.00000802    0.00002568    0.01708652
     atom    2 type  1   force =    -0.00000927    0.00002550    0.01708599
     atom    3 type  1   force =    -0.00000179    0.00000547    0.01741078
     atom    4 type  1   force =    -0.00000148    0.00000415    0.01734981
     atom    5 type  1   force =    -0.00002470   -0.00000219    0.01708752
     atom    6 type  1   force =     0.00002351   -0.00000230    0.01708817
     atom    7 type  1   force =    -0.00001631   -0.00001657    0.01708782
     atom    8 type  1   force =    -0.00000026    0.00000135    0.01707446
     atom    9 type  1   force =     0.00001494   -0.00001643    0.01708819
     atom   10 type  1   force =     0.00000143   -0.00014949    0.00050420
     atom   11 type  1   force =     0.00028482   -0.00016827    0.00054067
     atom   12 type  1   force =    -0.00027896   -0.00016948    0.00054443
     atom   13 type  1   force =     0.00012779    0.00006353    0.00050132
     atom   14 type  1   force =     0.00000030   -0.00000313    0.00099757
     atom   15 type  1   force =    -0.00012278    0.00006206    0.00049800
     atom   16 type  1   force =     0.00000432   -0.00000802    0.00100090
     atom   17 type  1   force =    -0.00000272   -0.00000739    0.00099463
     atom   18 type  1   force =     0.00000405    0.00031719    0.00053995
     atom   19 type  1   force =    -0.00020204   -0.00011001   -0.00184177
     atom   20 type  1   force =     0.00019498   -0.00010350   -0.00184049
     atom   21 type  1   force =     0.00000114    0.00004432   -0.00181281
     atom   22 type  1   force =     0.00000275    0.00023486   -0.00183829
     atom   23 type  1   force =     0.00006681    0.00004506   -0.00160667
     atom   24 type  1   force =    -0.00007015    0.00003833   -0.00160264
     atom   25 type  1   force =     0.00004227   -0.00001928   -0.00181603
     atom   26 type  1   force =    -0.00000715   -0.00008329   -0.00160384
     atom   27 type  1   force =    -0.00003670   -0.00001704   -0.00180987
     atom   28 type  1   force =    -0.00029761    0.00010854   -0.01617065
     atom   29 type  1   force =     0.00029246    0.00011654   -0.01616719
     atom   30 type  1   force =     0.00000426    0.00000007   -0.01614948
     atom   31 type  1   force =     0.00000291    0.00000066    0.00308589
     atom   32 type  1   force =     0.00005006   -0.00030572   -0.01616450
     atom   33 type  1   force =    -0.00005584   -0.00031262   -0.01616700
     atom   34 type  1   force =    -0.00023460    0.00020549   -0.01617215
     atom   35 type  1   force =    -0.00000735   -0.00000105   -0.01642643
     atom   36 type  1   force =     0.00024038    0.00020577   -0.01617130
     atom   37 type  2   force =     0.00000000    0.00000000    0.00000000
     The Hubbard contrib.    to forces
     atom    1 type  1   force =     0.00000000    0.00000000    0.00000000
     atom    2 type  1   force =     0.00000000    0.00000000    0.00000000
     atom    3 type  1   force =     0.00000000    0.00000000    0.00000000
     atom    4 type  1   force =     0.00000000    0.00000000    0.00000000
     atom    5 type  1   force =     0.00000000    0.00000000    0.00000000
     atom    6 type  1   force =     0.00000000    0.00000000    0.00000000
     atom    7 type  1   force =     0.00000000    0.00000000    0.00000000
     atom    8 type  1   force =     0.00000000    0.00000000    0.00000000
     atom    9 type  1   force =     0.00000000    0.00000000    0.00000000
     atom   10 type  1   force =     0.00000000    0.00000000    0.00000000
     atom   11 type  1   force =     0.00000000    0.00000000    0.00000000
     atom   12 type  1   force =     0.00000000    0.00000000    0.00000000
     atom   13 type  1   force =     0.00000000    0.00000000    0.00000000
     atom   14 type  1   force =     0.00000000    0.00000000    0.00000000
     atom   15 type  1   force =     0.00000000    0.00000000    0.00000000
     atom   16 type  1   force =     0.00000000    0.00000000    0.00000000
     atom   17 type  1   force =     0.00000000    0.00000000    0.00000000
     atom   18 type  1   force =     0.00000000    0.00000000    0.00000000
     atom   19 type  1   force =     0.00000000    0.00000000    0.00000000
     atom   20 type  1   force =     0.00000000    0.00000000    0.00000000
     atom   21 type  1   force =     0.00000000    0.00000000    0.00000000
     atom   22 type  1   force =     0.00000000    0.00000000    0.00000000
     atom   23 type  1   force =     0.00000000    0.00000000    0.00000000
     atom   24 type  1   force =     0.00000000    0.00000000    0.00000000
     atom   25 type  1   force =     0.00000000    0.00000000    0.00000000
     atom   26 type  1   force =     0.00000000    0.00000000    0.00000000
     atom   27 type  1   force =     0.00000000    0.00000000    0.00000000
     atom   28 type  1   force =     0.00000000    0.00000000    0.00000000
     atom   29 type  1   force =     0.00000000    0.00000000    0.00000000
     atom   30 type  1   force =     0.00000000    0.00000000    0.00000000
     atom   31 type  1   force =     0.00000000    0.00000000    0.00000000
     atom   32 type  1   force =     0.00000000    0.00000000    0.00000000
     atom   33 type  1   force =     0.00000000    0.00000000    0.00000000
     atom   34 type  1   force =     0.00000000    0.00000000    0.00000000
     atom   35 type  1   force =     0.00000000    0.00000000    0.00000000
     atom   36 type  1   force =     0.00000000    0.00000000    0.00000000
     atom   37 type  2   force =     0.00000000    0.00000000    0.00000000
     The SCF correction term to forces
     atom    1 type  1   force =    -0.00000000    0.00000000    0.00000000
     atom    2 type  1   force =     0.00000000    0.00000000    0.00000000
     atom    3 type  1   force =     0.00000000   -0.00000000    0.00000000
     atom    4 type  1   force =    -0.00000000    0.00000000    0.00000000
     atom    5 type  1   force =     0.00000000   -0.00000000    0.00000000
     atom    6 type  1   force =    -0.00000000   -0.00000000    0.00000000
     atom    7 type  1   force =    -0.00000000    0.00000000    0.00000000
     atom    8 type  1   force =    -0.00000000   -0.00000000    0.00000000
     atom    9 type  1   force =     0.00000000    0.00000000    0.00000000
     atom   10 type  1   force =    -0.00000000    0.00000000    0.00000000
     atom   11 type  1   force =     0.00000000   -0.00000000   -0.00000000
     atom   12 type  1   force =    -0.00000000   -0.00000000   -0.00000000
     atom   13 type  1   force =    -0.00000000    0.00000000    0.00000000
     atom   14 type  1   force =    -0.00000000   -0.00000000   -0.00000000
     atom   15 type  1   force =     0.00000000   -0.00000000    0.00000000
     atom   16 type  1   force =    -0.00000000    0.00000000   -0.00000000
     atom   17 type  1   force =     0.00000000    0.00000000   -0.00000000
     atom   18 type  1   force =     0.00000000    0.00000000   -0.00000000
     atom   19 type  1   force =     0.00008682   -0.00003741   -0.00052937
     atom   20 type  1   force =    -0.00016307    0.00015368   -0.00047188
     atom   21 type  1   force =     0.00007361   -0.00012851   -0.00052149
     atom   22 type  1   force =     0.00013005   -0.00007914   -0.00051502
     atom   23 type  1   force =    -0.00031746   -0.00001132   -0.00035610
     atom   24 type  1   force =     0.00018558   -0.00016730   -0.00033233
     atom   25 type  1   force =    -0.00000604   -0.00000488   -0.00055419
     atom   26 type  1   force =    -0.00019824    0.00024920   -0.00031997
     atom   27 type  1   force =     0.00020558    0.00002613   -0.00047355
     atom   28 type  1   force =     0.00002810    0.00005949   -0.00088506
     atom   29 type  1   force =    -0.00010286    0.00015899   -0.00077628
     atom   30 type  1   force =     0.00007397   -0.00004257   -0.00082330
     atom   31 type  1   force =     0.00005109    0.00000260   -0.00062061
     atom   32 type  1   force =    -0.00018917    0.00004553   -0.00079625
     atom   33 type  1   force =     0.00014034   -0.00006113   -0.00082870
     atom   34 type  1   force =    -0.00003269   -0.00008850   -0.00088883
     atom   35 type  1   force =    -0.00011695    0.00003101   -0.00075545
     atom   36 type  1   force =     0.00014968   -0.00010683   -0.00081431
     atom   37 type  2   force =     0.00000440   -0.00000038   -0.00003875

     Total force =     0.000059     Total SCF correction =     0.002879
     SCF correction compared to forces is large: reduce conv_thr to get better values

     Writing all to output data dir ./pwscf.save/

     init_run     :     10.14s CPU     10.47s WALL (       1 calls)
     electrons    :    272.67s CPU    279.71s WALL (       1 calls)
     forces       :      3.30s CPU      4.07s WALL (       1 calls)

     Called by init_run:
     wfcinit      :      5.63s CPU      5.83s WALL (       1 calls)
     potinit      :      3.11s CPU      3.18s WALL (       1 calls)
     hinit0       :      0.82s CPU      0.83s WALL (       1 calls)

     Called by electrons:
     c_bands      :    230.54s CPU    234.34s WALL (      18 calls)
     sum_band     :     26.87s CPU     27.63s WALL (      18 calls)
     v_of_rho     :      8.16s CPU      9.62s WALL (      18 calls)
     newd         :      2.22s CPU      2.92s WALL (      18 calls)
     PAW_pot      :      3.79s CPU      3.91s WALL (      18 calls)
     mix_rho      :      3.27s CPU      3.33s WALL (      18 calls)
     vdW_kernel   :      1.73s CPU      1.74s WALL (       1 calls)

     Called by c_bands:
     init_us_2    :      2.54s CPU      2.59s WALL (     494 calls)
     init_us_2:cp :      2.54s CPU      2.59s WALL (     494 calls)
     cegterg      :    224.05s CPU    227.62s WALL (     234 calls)

     Called by *egterg:
     cdiaghg      :     66.63s CPU     67.13s WALL (    1031 calls)
     h_psi        :    100.56s CPU    102.39s WALL (    1057 calls)
     s_psi        :     13.37s CPU     13.50s WALL (    1057 calls)
     g_psi        :      0.41s CPU      0.48s WALL (     810 calls)

     Called by h_psi:
     h_psi:calbec :     16.70s CPU     17.36s WALL (    1057 calls)
     vloc_psi     :     69.42s CPU     70.38s WALL (    1057 calls)
     add_vuspsi   :     13.39s CPU     13.59s WALL (    1057 calls)

     General routines
     calbec       :     23.93s CPU     24.73s WALL (    1343 calls)
     fft          :      4.73s CPU      6.53s WALL (    1194 calls)
     ffts         :      2.00s CPU      2.03s WALL (    4122 calls)
     fftw         :     66.12s CPU     67.01s WALL (  296802 calls)
     interpolate  :      0.60s CPU      0.64s WALL (      18 calls)

     Parallel routines

     PWSCF        :   4m47.70s CPU   4m58.74s WALL


   This run was terminated on:  21:41:38  31Oct2025            

=------------------------------------------------------------------------------=
   JOB DONE.
=------------------------------------------------------------------------------=
