
     Program PWSCF v.7.1 starts on 26Jan2025 at  0:37:31 
        Git branch: heads/qe-7.1
        Last git commit: 48ba0178f8fede6d020eb786884699a9f063f55d-dirty
        Last git commit date: Fri Jan 27 14:22:33 2023 +0000
        Last git commit subject: Merge branch 'fix_hubbard' into 'develop'

     This program is part of the open-source Quantum ESPRESSO suite
     for quantum simulation of materials; please cite
         "P. Giannozzi et al., J. Phys.:Condens. Matter 21 395502 (2009);
         "P. Giannozzi et al., J. Phys.:Condens. Matter 29 465901 (2017);
         "P. Giannozzi et al., J. Chem. Phys. 152 154105 (2020);
          URL http://www.quantum-espresso.org", 
     in publications or presentations arising from this work. More details at
     http://www.quantum-espresso.org/quote

     Parallel version (MPI), running on    48 processors

     MPI processes distributed on     1 nodes
     283976 MiB available memory on the printing compute node when the environment starts

     Reading input from espresso.pwi
Warning: card &CELL ignored
Warning: card / ignored
Warning: card &FCP ignored
Warning: card / ignored
Warning: card &RISM ignored
Warning: card / ignored

     Current dimensions of program PWSCF are:
     Max number of different atomic species (ntypx) = 10
     Max number of k-points (npk) =  40000
     Max angular momentum in pseudopotentials (lmaxx) =  4
     file Pt.pbe-n-kjpaw_psl.1.0.0.UPF: wavefunction(s)  6S 5D renormalized
     file H.pbe-kjpaw_psl.1.0.0.UPF: wavefunction(s)  1S renormalized

     **************************************************************************
     Initializing libbeef V0.1.2 with the BEEF-vdW functional.
     Citation: Wellendorff et al., PRB 85, 235149 (2012).
     **************************************************************************


     IMPORTANT: XC functional enforced from input :
     Exchange-correlation= BEEF-VDW
                           (   1   4  43  14   2   0   0)
     Any further DFT definition will be discarded
     Please, verify this is what you really want


     R & G space division:  proc/nbgrp/npool/nimage =      48
     Subspace diagonalization in iterative solution of the eigenvalue problem:
     one sub-group per band group will be used
     custom distributed-memory algorithm (size of sub-group:  2*  2 procs)


     Parallelization info
     --------------------
     sticks:   dense  smooth     PW     G-vecs:    dense   smooth      PW
     Min         150      59     16                30552     7447    1068
     Max         151      60     17                30571     7456    1081
     Sum        7243    2839    769              1467143   357639   51591

     Using Slab Decomposition



     bravais-lattice index     =            0
     lattice parameter (alat)  =      16.0028  a.u.
     unit-cell volume          =   10463.1828 (a.u.)^3
     number of atoms/cell      =           37
     number of atomic types    =            2
     number of electrons       =       361.00
     number of Kohn-Sham states=          217
     kinetic-energy cutoff     =      40.0000  Ry
     charge density cutoff     =     410.0000  Ry
     scf convergence threshold =      1.0E-06
     mixing beta               =       0.7000
     number of iterations used =            8  local-TF  mixing
     Exchange-correlation= BEEF-VDW
                           (   1   4  43  14   2   0   0)

     celldm(1)=  16.002787  celldm(2)=   0.000000  celldm(3)=   0.000000
     celldm(4)=   0.000000  celldm(5)=   0.000000  celldm(6)=   0.000000

     crystal axes: (cart. coord. in units of alat)
               a(1) = (   1.000000   0.000000   0.000000 )  
               a(2) = (   0.500000   0.866025   0.000000 )  
               a(3) = (   0.000000   0.000000   2.948128 )  

     reciprocal axes: (cart. coord. in units 2 pi/alat)
               b(1) = (  1.000000 -0.577350  0.000000 )  
               b(2) = (  0.000000  1.154701  0.000000 )  
               b(3) = (  0.000000  0.000000  0.339198 )  


     PseudoPot. # 1 for Pt read from file:
     /users/kbadger1/espresso/pseudo/pslibrary.1.0.0/pbe/PSEUDOPOTENTIALS/Pt.pbe-n-kjpaw_psl.1.0.0.UPF
     MD5 check sum: 2e24a0b5bf98a4ed1a57fa81bca8c143
     Pseudo is Projector augmented-wave + core cor, Zval = 10.0
     Generated using 'atomic' code by A. Dal Corso  v.7.0
     Shape of augmentation charge: PSQ
     Using radial grid of 1277 points,  6 beta functions with: 
                l(1) =   0
                l(2) =   0
                l(3) =   1
                l(4) =   1
                l(5) =   2
                l(6) =   2
     Q(r) pseudized with 0 coefficients 


     PseudoPot. # 2 for H  read from file:
     /users/kbadger1/espresso/pseudo/pslibrary.1.0.0/pbe/PSEUDOPOTENTIALS/H.pbe-kjpaw_psl.1.0.0.UPF
     MD5 check sum: fe4c6fa958fa6d3815bf5d2419cbf1df
     Pseudo is Projector augmented-wave, Zval =  1.0
     Generated using 'atomic' code by A. Dal Corso  v.7.0
     Shape of augmentation charge: PSQ
     Using radial grid of  929 points,  2 beta functions with: 
                l(1) =   0
                l(2) =   0
     Q(r) pseudized with 0 coefficients 


     atomic species   valence    mass     pseudopotential
        Pt            10.00   195.08400     Pt( 1.00)
        H              1.00     1.00800     H ( 1.00)

     No symmetry found



   Cartesian axes

     site n.     atom                  positions (alat units)
         1           Pt  tau(   1) = (   0.0000000   0.0000000   1.0037422  )
         2           Pt  tau(   2) = (   0.3340014   0.0000000   1.0037422  )
         3           Pt  tau(   3) = (   0.6680027   0.0000000   1.0037422  )
         4           Pt  tau(   4) = (   0.1670007   0.2892537   1.0037422  )
         5           Pt  tau(   5) = (   0.5010021   0.2892537   1.0037422  )
         6           Pt  tau(   6) = (   0.8350034   0.2892537   1.0037422  )
         7           Pt  tau(   7) = (   0.3340014   0.5785073   1.0037422  )
         8           Pt  tau(   8) = (   0.6680027   0.5785073   1.0037422  )
         9           Pt  tau(   9) = (   1.0020041   0.5785073   1.0037422  )
        10           Pt  tau(  10) = (   0.1670007   0.0964179   1.2764532  )
        11           Pt  tau(  11) = (   0.5010021   0.0964179   1.2764532  )
        12           Pt  tau(  12) = (   0.8350034   0.0964179   1.2764532  )
        13           Pt  tau(  13) = (   0.3340014   0.3856716   1.2764532  )
        14           Pt  tau(  14) = (   0.6680027   0.3856716   1.2764532  )
        15           Pt  tau(  15) = (   1.0020041   0.3856716   1.2764532  )
        16           Pt  tau(  16) = (   0.5010021   0.6749252   1.2764532  )
        17           Pt  tau(  17) = (   0.8350034   0.6749252   1.2764532  )
        18           Pt  tau(  18) = (   1.1690048   0.6749252   1.2764532  )
        19           Pt  tau(  19) = (   0.0027975   0.1942913   1.5491588  )
        20           Pt  tau(  20) = (   0.3333923   0.1941882   1.5488297  )
        21           Pt  tau(  21) = (   0.6681143   0.1936119   1.5456698  )
        22           Pt  tau(  22) = (   0.1681911   0.4807978   1.5489417  )
        23           Pt  tau(  23) = (   0.5012989   0.4820291   1.5461968  )
        24           Pt  tau(  24) = (   0.8349384   0.4820520   1.5461195  )
        25           Pt  tau(  25) = (   0.3351127   0.7708360   1.5464147  )
        26           Pt  tau(  26) = (   0.6681713   0.7709059   1.5466525  )
        27           Pt  tau(  27) = (   1.0014593   0.7707414   1.5460245  )
        28           Pt  tau(  28) = (   0.0011535   0.0010366   1.8215168  )
        29           Pt  tau(  29) = (   0.3353930   0.0010724   1.8213023  )
        30           Pt  tau(  30) = (   0.6682008   0.0013904   1.8211929  )
        31           Pt  tau(  31) = (   0.1682502   0.2901474   1.8375289  )
        32           Pt  tau(  32) = (   0.5021000   0.2896854   1.8209765  )
        33           Pt  tau(  33) = (   0.8343533   0.2896965   1.8210532  )
        34           Pt  tau(  34) = (   0.3350115   0.5792000   1.8212336  )
        35           Pt  tau(  35) = (   0.6682431   0.5786427   1.8209414  )
        36           Pt  tau(  36) = (   1.0014817   0.5792403   1.8211118  )
        37           H   tau(  37) = (   0.1684145   0.2924444   2.0212591  )

     number of k points=    13  Marzari-Vanderbilt smearing, width (Ry)=  0.0200
                       cart. coord. in units 2pi/alat
        k(    1) = (   0.0000000   0.0000000   0.0000000), wk =   0.0800000
        k(    2) = (   0.0000000   0.2309401   0.0000000), wk =   0.1600000
        k(    3) = (   0.0000000   0.4618802   0.0000000), wk =   0.1600000
        k(    4) = (   0.2000000  -0.1154701   0.0000000), wk =   0.1600000
        k(    5) = (   0.2000000   0.1154701   0.0000000), wk =   0.1600000
        k(    6) = (   0.2000000   0.3464102   0.0000000), wk =   0.1600000
        k(    7) = (   0.2000000  -0.5773503   0.0000000), wk =   0.1600000
        k(    8) = (   0.2000000  -0.3464102   0.0000000), wk =   0.1600000
        k(    9) = (   0.4000000  -0.2309401   0.0000000), wk =   0.1600000
        k(   10) = (   0.4000000   0.0000000   0.0000000), wk =   0.1600000
        k(   11) = (   0.4000000   0.2309401   0.0000000), wk =   0.1600000
        k(   12) = (   0.4000000  -0.6928203   0.0000000), wk =   0.1600000
        k(   13) = (   0.4000000  -0.4618802   0.0000000), wk =   0.1600000

     Dense  grid:  1467143 G-vectors     FFT dimensions: ( 108, 108, 320)

     Smooth grid:   357639 G-vectors     FFT dimensions: (  72,  72, 192)

     Estimated max dynamical RAM per process >     211.30 MB

     Estimated total dynamical RAM >       9.90 GB

     Initial potential from superposition of free atoms

     starting charge     360.9939, renormalised to     361.0000

     negative rho (up, down):  3.523E-03 0.000E+00


     %%%%%%%%%%%%%%%%%%%%%%%%%%%%%%%%%%%%%%%%%%%%%%%%%%%%%%%%%%%%%%%%%%%%%%%%
     %                                                                      %
     % You are using vdW-DF, which was implemented by the Thonhauser group. %
     % Please cite the following two papers that made this development      %
     % possible and the two reviews that describe the various versions:     %
     %                                                                      %
     %   T. Thonhauser et al., PRL 115, 136402 (2015).                      %
     %   T. Thonhauser et al., PRB 76, 125112 (2007).                       %
     %   K. Berland et al., Rep. Prog. Phys. 78, 066501 (2015).             %
     %   D.C. Langreth et al., J. Phys.: Condens. Matter 21, 084203 (2009). %
     %                                                                      %
     % If you are calculating stress with vdW-DF, please also cite:         %
     %                                                                      %
     %   R. Sabatini et al., J. Phys.: Condens. Matter 24, 424209 (2012).   %
     %                                                                      %
     %%%%%%%%%%%%%%%%%%%%%%%%%%%%%%%%%%%%%%%%%%%%%%%%%%%%%%%%%%%%%%%%%%%%%%%%

     %%%%%%%%%%%%%%%%%%%%%%%%%%%%%%%%%%%%%%%%%%%%%%%%%%%%%%%%%%%%%%%%%%%%%%%%
     %                                                                      %
     %  vdW-DF NEWS:                                                        %
     %                                                                      %
     %  * vdW-DF3 is now available. DOI: 10.1021/acs.jctc.0c00471           %
     %    use with input_dft = 'vdW-DF3-opt1' or 'vdW-DF3-opt2'             %
     %                                                                      %
     %  * Unscreened and range-separated hybrid vdW-DF-cx functionals       %
     %    DOI: 10.1063/1.4986522 and 10.1088/1361-648X/ac2ad2               %
     %    use with input_dft = 'vdW-DF-cx0'    and 'vdW-DF-ahcx'            %
     %  * Unscreened and range-separated hybrid vdW-DF2-b86r functionals    %
     %    DOI: 10.1063/1.4986522 and DOI: 10.1103/PhysRevX.12.041003        %
     %    use with input_dft = 'vdW-DF2-br0' and 'vdW-DF2-ahbr'             %
     %                                                                      %
     %%%%%%%%%%%%%%%%%%%%%%%%%%%%%%%%%%%%%%%%%%%%%%%%%%%%%%%%%%%%%%%%%%%%%%%%


     Starting wfcs are  325 randomized atomic wfcs
     Checking if some PAW data can be deallocated... 

     total cpu time spent up to now is       11.1 secs

     per-process dynamical memory:   208.8 Mb

     Self-consistent Calculation

     iteration #  1     ecut=    40.00 Ry     beta= 0.70
     Davidson diagonalization with overlap
     ethr =  1.00E-02,  avg # of iterations =  2.0

     Threshold (ethr) on eigenvalues was too large:
     Diagonalizing with lowered threshold

     Davidson diagonalization with overlap
     ethr =  3.98E-04,  avg # of iterations =  3.6

     negative rho (up, down):  1.723E-02 0.000E+00

     total cpu time spent up to now is       42.1 secs

     total energy              =  -27755.28694074 Ry
     estimated scf accuracy    <       1.63621707 Ry

     iteration #  2     ecut=    40.00 Ry     beta= 0.70
     Davidson diagonalization with overlap
     ethr =  4.53E-04,  avg # of iterations =  2.0

     negative rho (up, down):  1.534E-02 0.000E+00

     total cpu time spent up to now is       54.6 secs

     total energy              =  -27755.39078267 Ry
     estimated scf accuracy    <       0.82148670 Ry

     iteration #  3     ecut=    40.00 Ry     beta= 0.70
     Davidson diagonalization with overlap
     ethr =  2.28E-04,  avg # of iterations =  2.0

     negative rho (up, down):  9.984E-03 0.000E+00

     total cpu time spent up to now is       67.4 secs

     total energy              =  -27755.44540174 Ry
     estimated scf accuracy    <       0.10180246 Ry

     iteration #  4     ecut=    40.00 Ry     beta= 0.70
     Davidson diagonalization with overlap
     c_bands:  1 eigenvalues not converged
     ethr =  2.82E-05,  avg # of iterations = 11.8

     negative rho (up, down):  7.402E-03 0.000E+00

     total cpu time spent up to now is       97.7 secs

     total energy              =  -27755.49585994 Ry
     estimated scf accuracy    <       0.08805011 Ry

     iteration #  5     ecut=    40.00 Ry     beta= 0.70
     Davidson diagonalization with overlap
     ethr =  2.44E-05,  avg # of iterations =  1.2

     negative rho (up, down):  3.637E-03 0.000E+00

     total cpu time spent up to now is      110.1 secs

     total energy              =  -27755.49612554 Ry
     estimated scf accuracy    <       0.02956369 Ry

     iteration #  6     ecut=    40.00 Ry     beta= 0.70
     Davidson diagonalization with overlap
     c_bands:  1 eigenvalues not converged
     c_bands:  2 eigenvalues not converged
     c_bands:  1 eigenvalues not converged
     c_bands:  1 eigenvalues not converged
     ethr =  8.19E-06,  avg # of iterations = 12.8

     negative rho (up, down):  1.764E-03 0.000E+00

     total cpu time spent up to now is      128.0 secs

     total energy              =  -27755.49821476 Ry
     estimated scf accuracy    <       0.00262564 Ry

     iteration #  7     ecut=    40.00 Ry     beta= 0.70
     Davidson diagonalization with overlap
     c_bands:  2 eigenvalues not converged
     c_bands:  1 eigenvalues not converged
     ethr =  7.27E-07,  avg # of iterations = 12.0

     negative rho (up, down):  1.335E-03 0.000E+00

     total cpu time spent up to now is      157.6 secs

     total energy              =  -27755.49897208 Ry
     estimated scf accuracy    <       0.00213016 Ry

     iteration #  8     ecut=    40.00 Ry     beta= 0.70
     Davidson diagonalization with overlap
     ethr =  5.90E-07,  avg # of iterations =  2.6

     negative rho (up, down):  1.125E-03 0.000E+00

     total cpu time spent up to now is      170.7 secs

     total energy              =  -27755.49910619 Ry
     estimated scf accuracy    <       0.00023226 Ry

     iteration #  9     ecut=    40.00 Ry     beta= 0.70
     Davidson diagonalization with overlap
     ethr =  6.43E-08,  avg # of iterations =  5.0

     negative rho (up, down):  8.460E-04 0.000E+00

     total cpu time spent up to now is      193.3 secs

     total energy              =  -27755.49921869 Ry
     estimated scf accuracy    <       0.00010587 Ry

     iteration # 10     ecut=    40.00 Ry     beta= 0.70
     Davidson diagonalization with overlap
     ethr =  2.93E-08,  avg # of iterations =  3.7

     negative rho (up, down):  8.137E-04 0.000E+00

     total cpu time spent up to now is      212.3 secs

     total energy              =  -27755.49923775 Ry
     estimated scf accuracy    <       0.00010669 Ry

     iteration # 11     ecut=    40.00 Ry     beta= 0.70
     Davidson diagonalization with overlap
     ethr =  2.93E-08,  avg # of iterations =  1.3

     negative rho (up, down):  8.803E-04 0.000E+00

     total cpu time spent up to now is      224.6 secs

     total energy              =  -27755.49924180 Ry
     estimated scf accuracy    <       0.00007198 Ry

     iteration # 12     ecut=    40.00 Ry     beta= 0.70
     Davidson diagonalization with overlap
     ethr =  1.99E-08,  avg # of iterations =  1.2

     negative rho (up, down):  1.088E-03 0.000E+00

     total cpu time spent up to now is      236.2 secs

     total energy              =  -27755.49924780 Ry
     estimated scf accuracy    <       0.00002797 Ry

     iteration # 13     ecut=    40.00 Ry     beta= 0.70
     Davidson diagonalization with overlap
     ethr =  7.75E-09,  avg # of iterations =  2.0

     negative rho (up, down):  1.603E-03 0.000E+00

     total cpu time spent up to now is      249.4 secs

     total energy              =  -27755.49925368 Ry
     estimated scf accuracy    <       0.00001626 Ry

     iteration # 14     ecut=    40.00 Ry     beta= 0.70
     Davidson diagonalization with overlap
     ethr =  4.50E-09,  avg # of iterations =  2.0

     negative rho (up, down):  1.925E-03 0.000E+00

     total cpu time spent up to now is      263.4 secs

     total energy              =  -27755.49926109 Ry
     estimated scf accuracy    <       0.00000877 Ry

     iteration # 15     ecut=    40.00 Ry     beta= 0.70
     Davidson diagonalization with overlap
     ethr =  2.43E-09,  avg # of iterations =  2.0

     negative rho (up, down):  2.595E-03 0.000E+00

     total cpu time spent up to now is      276.2 secs

     total energy              =  -27755.49925985 Ry
     estimated scf accuracy    <       0.00000870 Ry

     iteration # 16     ecut=    40.00 Ry     beta= 0.70
     Davidson diagonalization with overlap
     ethr =  2.41E-09,  avg # of iterations =  1.1

     negative rho (up, down):  2.890E-03 0.000E+00

     total cpu time spent up to now is      288.1 secs

     total energy              =  -27755.49925930 Ry
     estimated scf accuracy    <       0.00000278 Ry

     iteration # 17     ecut=    40.00 Ry     beta= 0.70
     Davidson diagonalization with overlap
     ethr =  7.71E-10,  avg # of iterations =  2.2

     negative rho (up, down):  3.346E-03 0.000E+00

     total cpu time spent up to now is      301.3 secs

     End of self-consistent calculation

          k = 0.0000 0.0000 0.0000 ( 44645 PWs)   bands (ev):

    -6.6346  -5.3573  -4.2816  -4.2325  -4.2140  -4.2092  -4.2045  -4.2042
    -4.1872  -4.1827  -3.7406  -3.6582  -3.6548  -3.6540  -3.6461  -3.6444
    -3.3063  -3.1860  -3.1845  -3.1783  -3.1745  -3.1737  -3.1075  -2.9682
    -2.9641  -2.9631  -2.9575  -2.9543  -2.7873  -2.7417  -2.7354  -2.7342
    -2.7309  -2.7284  -2.7128  -2.7104  -2.7062  -2.6981  -2.6947  -2.6593
    -2.5320  -2.1186  -2.1183  -2.0860  -2.0839  -2.0457  -2.0438  -2.0399
    -2.0314  -2.0285  -1.9844  -1.8804  -1.8621  -1.7916  -1.6471  -1.3217
    -1.3146  -1.3116  -1.2980  -1.2953  -1.2843  -1.2295  -1.1189  -1.1171
    -1.1091  -1.1086  -1.0922  -1.0906  -1.0633  -1.0605  -1.0555  -1.0363
    -1.0349  -1.0321  -1.0006  -0.9998  -0.9769  -0.8935  -0.8886  -0.8779
    -0.8765  -0.8681  -0.6813  -0.6786  -0.6739  -0.6684  -0.6587  -0.6517
    -0.6487  -0.6193  -0.6173  -0.5401  -0.5394  -0.4842  -0.4840  -0.4506
    -0.4504  -0.4150  -0.4140  -0.4007  -0.3998  -0.2733  -0.2703  -0.2530
    -0.2335  -0.2302  -0.2279   0.1336   0.2328   0.2367   0.2692   0.2714
     0.2736   0.2758   0.2795   0.3279   0.3285   0.3363   0.3403   0.3420
     0.3973   0.4024   0.5392   0.5689   0.5695   0.5861   0.5870   0.6651
     0.6687   0.6702   0.7364   0.7370   0.7434   0.7507   0.9659   0.9762
     1.0055   1.0091   1.0195   1.0298   1.0757   1.0790   1.2462   1.2498
     1.2529   1.2582   1.2612   1.3179   1.4212   1.4265   1.4348   1.4428
     1.4479   1.4595   1.4644   1.4661   1.4692   1.4719   1.4737   1.5652
     1.5873   1.5898   1.6116   1.6126   1.6155   1.6357   1.6477   1.7059
     1.7075   1.7219   1.7231   1.7355   1.7420   1.7460   1.7507   1.7949
     1.8263   1.8283   1.8370   1.8420   1.8461   1.8610   1.9172   1.9436
     1.9441   1.9453   1.9617   1.9632   2.1486   2.1547   2.2433   2.2450
     2.2735   2.2756   2.2766   2.2831   2.5904   3.0912   3.1527   3.1547
     3.1668   3.1684   3.1688   4.6804   5.4459   5.4485   5.4927   5.4943
     5.5047   6.6411   7.0765   7.0833   7.1214   7.1225   7.1283   7.1289
     7.2462

          k = 0.0000 0.2309 0.0000 ( 44694 PWs)   bands (ev):

    -6.4868  -5.2126  -4.7202  -4.3307  -4.3114  -4.1275  -4.0741  -4.0191
    -3.9792  -3.9624  -3.8134  -3.7445  -3.6348  -3.5882  -3.5855  -3.5706
    -3.3133  -3.2257  -3.1508  -3.1461  -3.1304  -3.0994  -3.0611  -3.0446
    -3.0013  -2.9763  -2.9624  -2.9320  -2.9008  -2.8621  -2.8246  -2.7654
    -2.7560  -2.7255  -2.7188  -2.6105  -2.5286  -2.5232  -2.5069  -2.5048
    -2.4462  -2.2398  -2.2252  -2.1967  -2.1604  -2.1432  -2.1224  -2.0764
    -1.9347  -1.9272  -1.8608  -1.8541  -1.8158  -1.7916  -1.7120  -1.5503
    -1.4748  -1.4470  -1.4207  -1.4177  -1.3760  -1.3070  -1.2981  -1.2810
    -1.2571  -1.2480  -1.2278  -1.1844  -1.1379  -1.1219  -1.0947  -1.0788
    -1.0086  -0.9999  -0.9900  -0.9217  -0.9148  -0.8973  -0.8413  -0.8201
    -0.8166  -0.7817  -0.7601  -0.7093  -0.7019  -0.6921  -0.6827  -0.6607
    -0.6420  -0.6261  -0.5769  -0.5409  -0.5291  -0.5208  -0.4900  -0.4874
    -0.4705  -0.4274  -0.4246  -0.4161  -0.3036  -0.2651  -0.2522  -0.2428
    -0.2370  -0.2230  -0.2161  -0.2013  -0.1547  -0.1541  -0.1315  -0.1154
    -0.0394   0.1483   0.1812   0.2233   0.2525   0.2732   0.2887   0.2917
     0.3261   0.3431   0.4764   0.4850   0.4945   0.5903   0.6185   0.6573
     0.6796   0.6967   0.7272   0.7380   0.7729   0.7750   0.8545   0.8636
     0.8815   0.8900   0.8927   1.0662   1.0844   1.1160   1.1255   1.1388
     1.1589   1.1844   1.2367   1.2691   1.2700   1.2954   1.3160   1.3666
     1.3719   1.3850   1.4101   1.4897   1.4953   1.5227   1.5672   1.6238
     1.6517   1.6540   1.6700   1.6874   1.6902   1.7306   1.7840   1.8133
     1.8151   1.8671   1.8761   1.8861   1.9202   1.9269   1.9330   1.9385
     1.9397   1.9915   2.0050   2.1325   2.1395   2.1699   2.1854   2.1938
     2.2042   2.2304   2.2566   2.2722   2.2955   2.3536   2.3990   2.4152
     2.4170   2.5685   2.5855   2.5905   2.6263   2.9093   3.0278   3.4461
     3.7565   3.7582   3.8874   4.5199   4.9855   5.1908   5.6954   5.9353
     5.9410   6.0420   6.2468   6.6252   6.9064   6.9340   7.2358   7.2934
     7.3112

          k = 0.0000 0.4619 0.0000 ( 44748 PWs)   bands (ev):

    -6.0617  -5.4240  -4.8066  -4.3654  -4.3431  -4.2519  -3.9925  -3.8358
    -3.7282  -3.6893  -3.6507  -3.6200  -3.5442  -3.4566  -3.4204  -3.4055
    -3.3946  -3.2955  -3.2556  -3.2311  -3.2068  -3.1822  -3.1604  -3.1271
    -3.0825  -3.0514  -3.0490  -2.9161  -2.7861  -2.7828  -2.7777  -2.7653
    -2.7515  -2.6978  -2.5338  -2.5177  -2.5021  -2.4992  -2.4730  -2.4024
    -2.2974  -2.2037  -2.1894  -2.1761  -2.1569  -2.1280  -2.0970  -2.0519
    -2.0400  -2.0104  -1.9842  -1.9256  -1.8289  -1.8263  -1.7879  -1.7770
    -1.6762  -1.6297  -1.6109  -1.6095  -1.5589  -1.4563  -1.4067  -1.3778
    -1.3727  -1.3579  -1.2832  -1.2787  -1.2523  -1.1495  -1.1337  -1.1262
    -1.1080  -1.0195  -0.9988  -0.9961  -0.9882  -0.9637  -0.9263  -0.9055
    -0.8971  -0.8715  -0.8645  -0.8562  -0.8499  -0.8405  -0.7986  -0.7343
    -0.7103  -0.7074  -0.6949  -0.6880  -0.6766  -0.5853  -0.5217  -0.5175
    -0.4930  -0.4549  -0.4430  -0.4241  -0.4035  -0.3891  -0.3175  -0.2539
    -0.2306  -0.1965  -0.1915  -0.1358  -0.1308  -0.0011   0.0082   0.0295
     0.0977   0.1553   0.1786   0.1860   0.2048   0.2217   0.2267   0.2452
     0.3115   0.3235   0.3398   0.3432   0.3515   0.3732   0.3906   0.4130
     0.4310   0.5301   0.5662   0.5809   0.5912   0.6586   0.7373   0.7716
     0.7763   0.8774   0.8827   0.9640   1.0243   1.0508   1.0853   1.0945
     1.1112   1.1378   1.1505   1.2124   1.2195   1.2521   1.2843   1.3139
     1.3736   1.3972   1.4216   1.4281   1.4497   1.4737   1.5470   1.6209
     1.6675   1.6952   1.7097   1.7275   1.7331   1.8146   1.8403   1.8431
     1.9211   1.9234   1.9335   1.9905   2.0040   2.0225   2.0394   2.1144
     2.1478   2.1720   2.1771   2.1948   2.1959   2.2121   2.2229   2.4001
     2.4031   2.4261   2.4402   2.4432   2.6278   2.6647   2.8266   3.0360
     3.1060   3.2223   3.4903   3.4994   3.8220   3.8859   3.9035   4.2196
     4.4022   4.7121   4.7231   4.7317   4.9080   4.9737   5.0294   5.0882
     5.3666   5.3767   5.7258   5.9925   6.3295   6.5474   6.6914   7.0173
     7.2151

          k = 0.2000-0.1155 0.0000 ( 44694 PWs)   bands (ev):

    -6.4869  -5.2126  -4.7209  -4.3307  -4.3108  -4.1276  -4.0741  -4.0205
    -3.9779  -3.9622  -3.8101  -3.7458  -3.6421  -3.5850  -3.5819  -3.5724
    -3.3142  -3.2236  -3.1510  -3.1469  -3.1337  -3.0963  -3.0600  -3.0453
    -3.0011  -2.9778  -2.9622  -2.9313  -2.8964  -2.8624  -2.8270  -2.7668
    -2.7566  -2.7260  -2.7186  -2.6141  -2.5257  -2.5233  -2.5069  -2.5050
    -2.4453  -2.2397  -2.2220  -2.1965  -2.1592  -2.1463  -2.1235  -2.0737
    -1.9342  -1.9274  -1.8604  -1.8536  -1.8178  -1.7917  -1.7125  -1.5502
    -1.4765  -1.4457  -1.4180  -1.4152  -1.3768  -1.3073  -1.2989  -1.2812
    -1.2595  -1.2481  -1.2250  -1.1850  -1.1407  -1.1190  -1.0944  -1.0778
    -1.0105  -1.0013  -0.9920  -0.9206  -0.9155  -0.8974  -0.8420  -0.8188
    -0.8152  -0.7824  -0.7606  -0.7102  -0.7021  -0.6924  -0.6835  -0.6599
    -0.6410  -0.6253  -0.5779  -0.5407  -0.5287  -0.5231  -0.4914  -0.4883
    -0.4669  -0.4273  -0.4248  -0.4148  -0.3036  -0.2642  -0.2502  -0.2438
    -0.2393  -0.2239  -0.2135  -0.2056  -0.1552  -0.1483  -0.1315  -0.1178
    -0.0379   0.1478   0.1795   0.2264   0.2556   0.2713   0.2903   0.2917
     0.3254   0.3377   0.4757   0.4839   0.4943   0.5938   0.6185   0.6613
     0.6768   0.6912   0.7271   0.7389   0.7723   0.7761   0.8541   0.8629
     0.8776   0.8909   0.8963   1.0636   1.0838   1.1160   1.1266   1.1390
     1.1571   1.1862   1.2366   1.2690   1.2700   1.2955   1.3206   1.3658
     1.3720   1.3858   1.4066   1.4897   1.4969   1.5232   1.5672   1.6240
     1.6519   1.6548   1.6691   1.6875   1.6899   1.7316   1.7836   1.8105
     1.8141   1.8677   1.8766   1.8843   1.9205   1.9292   1.9340   1.9367
     1.9393   1.9905   2.0043   2.1317   2.1411   2.1696   2.1858   2.1940
     2.2044   2.2315   2.2574   2.2736   2.2959   2.3553   2.3971   2.4150
     2.4186   2.5675   2.5853   2.5918   2.6246   2.9098   3.0287   3.4463
     3.7561   3.7572   3.8877   4.5191   4.9835   5.1918   5.6988   5.9361
     5.9409   6.0422   6.2436   6.6267   6.9058   6.9343   7.2346   7.2933
     7.3114

          k = 0.2000 0.1155 0.0000 ( 44694 PWs)   bands (ev):

    -6.4869  -5.2126  -4.7215  -4.3301  -4.3106  -4.1276  -4.0742  -4.0210
    -3.9778  -3.9615  -3.8112  -3.7454  -3.6398  -3.5864  -3.5840  -3.5715
    -3.3139  -3.2230  -3.1511  -3.1470  -3.1330  -3.0976  -3.0602  -3.0447
    -3.0015  -2.9780  -2.9633  -2.9318  -2.8974  -2.8613  -2.8257  -2.7681
    -2.7566  -2.7246  -2.7180  -2.6142  -2.5265  -2.5236  -2.5068  -2.5043
    -2.4445  -2.2399  -2.2239  -2.1934  -2.1600  -2.1462  -2.1228  -2.0752
    -1.9339  -1.9274  -1.8609  -1.8535  -1.8173  -1.7919  -1.7120  -1.5484
    -1.4755  -1.4458  -1.4168  -1.4151  -1.3748  -1.3081  -1.3018  -1.2783
    -1.2611  -1.2481  -1.2264  -1.1847  -1.1382  -1.1190  -1.0937  -1.0778
    -1.0138  -1.0017  -0.9949  -0.9207  -0.9152  -0.8965  -0.8408  -0.8175
    -0.8126  -0.7847  -0.7576  -0.7109  -0.7022  -0.6939  -0.6830  -0.6596
    -0.6419  -0.6261  -0.5779  -0.5432  -0.5269  -0.5231  -0.4910  -0.4870
    -0.4685  -0.4276  -0.4256  -0.4153  -0.3036  -0.2659  -0.2517  -0.2437
    -0.2400  -0.2218  -0.2161  -0.2024  -0.1541  -0.1508  -0.1324  -0.1166
    -0.0365   0.1493   0.1813   0.2234   0.2536   0.2719   0.2896   0.2928
     0.3255   0.3392   0.4754   0.4834   0.4941   0.5908   0.6176   0.6643
     0.6728   0.6938   0.7263   0.7380   0.7726   0.7747   0.8528   0.8654
     0.8811   0.8912   0.8940   1.0666   1.0805   1.1159   1.1252   1.1387
     1.1573   1.1862   1.2360   1.2697   1.2713   1.2942   1.3188   1.3682
     1.3717   1.3847   1.4083   1.4907   1.4972   1.5237   1.5682   1.6227
     1.6511   1.6544   1.6691   1.6867   1.6886   1.7315   1.7840   1.8121
     1.8143   1.8673   1.8753   1.8844   1.9212   1.9278   1.9333   1.9372
     1.9403   1.9892   2.0029   2.1299   2.1415   2.1709   2.1865   2.1952
     2.2052   2.2327   2.2598   2.2750   2.2959   2.3550   2.3981   2.4145
     2.4173   2.5687   2.5853   2.5921   2.6233   2.9119   3.0306   3.4454
     3.7554   3.7562   3.8876   4.5176   4.9851   5.1936   5.6974   5.9355
     5.9409   6.0425   6.2446   6.6255   6.9054   6.9332   7.2333   7.2942
     7.3121

          k = 0.2000 0.3464 0.0000 ( 44714 PWs)   bands (ev):

    -6.1997  -4.9838  -4.9606  -4.9284  -3.9731  -3.8892  -3.8857  -3.8684
    -3.8397  -3.8163  -3.8147  -3.7993  -3.7047  -3.6999  -3.4090  -3.3175
    -3.3072  -3.2992  -3.2424  -3.2188  -3.0967  -3.0661  -3.0530  -3.0519
    -3.0464  -3.0008  -2.9265  -2.9014  -2.8914  -2.8872  -2.8626  -2.8099
    -2.7839  -2.7762  -2.7325  -2.6576  -2.5634  -2.3976  -2.3051  -2.2958
    -2.2701  -2.2510  -2.2463  -2.2400  -2.1972  -2.1739  -2.0956  -2.0094
    -2.0004  -1.9660  -1.9001  -1.8758  -1.8291  -1.8136  -1.7968  -1.7281
    -1.6785  -1.5658  -1.5577  -1.5025  -1.4775  -1.4497  -1.4191  -1.4132
    -1.3618  -1.3470  -1.3353  -1.1952  -1.1897  -1.1714  -1.1426  -1.1151
    -1.0979  -1.0492  -1.0417  -1.0170  -1.0000  -0.8914  -0.8697  -0.8639
    -0.8439  -0.8307  -0.8226  -0.8183  -0.7724  -0.7610  -0.7364  -0.7158
    -0.6821  -0.6343  -0.5924  -0.5815  -0.5686  -0.5304  -0.5013  -0.4865
    -0.4776  -0.4491  -0.4358  -0.4199  -0.4189  -0.3986  -0.3962  -0.3738
    -0.3239  -0.3147  -0.2735  -0.2145  -0.1738  -0.1679  -0.1043  -0.0881
    -0.0794  -0.0021   0.1107   0.1489   0.2193   0.2513   0.2713   0.2801
     0.3038   0.3346   0.3593   0.3718   0.3987   0.4059   0.4530   0.4902
     0.5188   0.6137   0.6766   0.6988   0.7292   0.7459   0.7729   0.8021
     0.8167   0.9193   0.9372   0.9531   0.9984   1.0198   1.0623   1.1311
     1.1544   1.1588   1.1779   1.2241   1.2359   1.2517   1.2552   1.2750
     1.2852   1.2876   1.3054   1.3849   1.4693   1.5026   1.5460   1.6265
     1.6451   1.7223   1.8043   1.8162   1.8204   1.8594   1.9253   1.9407
     1.9622   1.9724   1.9928   2.0122   2.0232   2.0258   2.0375   2.0718
     2.0928   2.0999   2.1707   2.2029   2.2111   2.2486   2.2575   2.2914
     2.3831   2.4441   2.4887   2.4967   2.5558   2.5700   2.5787   2.7116
     2.7203   2.9740   3.2429   3.2575   3.6066   3.7804   3.7941   3.8143
     4.1066   4.4951   4.5082   4.7170   4.7325   4.7638   5.3833   5.5441
     5.9201   5.9345   6.1689   6.2230   6.6345   6.7011   6.7036   6.7314
     6.7557

          k = 0.2000-0.5774 0.0000 ( 44692 PWs)   bands (ev):

    -5.6656  -5.6584  -5.0520  -4.4611  -4.4248  -3.9390  -3.8868  -3.7531
    -3.7119  -3.6272  -3.6003  -3.5041  -3.4927  -3.4163  -3.3845  -3.3804
    -3.3463  -3.3321  -3.3213  -3.3082  -3.2585  -3.1681  -3.1635  -3.1346
    -3.1143  -3.0496  -2.9721  -2.9083  -2.8991  -2.8444  -2.7659  -2.7581
    -2.7422  -2.7381  -2.6745  -2.6295  -2.6005  -2.5179  -2.4385  -2.3208
    -2.3120  -2.2721  -2.1913  -2.1647  -2.1265  -2.0946  -1.9981  -1.9431
    -1.9238  -1.9096  -1.8759  -1.8413  -1.8170  -1.7827  -1.7140  -1.7087
    -1.6833  -1.6776  -1.6650  -1.6589  -1.6191  -1.5973  -1.5616  -1.4698
    -1.4412  -1.3942  -1.3661  -1.2880  -1.2596  -1.2342  -1.2159  -1.1773
    -1.1605  -1.1492  -1.0821  -1.0539  -1.0392  -1.0211  -1.0077  -0.9803
    -0.9234  -0.9123  -0.8531  -0.8213  -0.8099  -0.8025  -0.7409  -0.6732
    -0.6237  -0.6172  -0.6048  -0.5960  -0.5497  -0.5442  -0.5310  -0.5069
    -0.4961  -0.4890  -0.4634  -0.4441  -0.4117  -0.4057  -0.3883  -0.3811
    -0.3694  -0.3552  -0.3306  -0.3016  -0.2796  -0.2202  -0.0735  -0.0206
     0.0305   0.0404   0.1360   0.1570   0.1593   0.1840   0.2193   0.2244
     0.2494   0.2609   0.3001   0.3608   0.3763   0.3982   0.4438   0.4547
     0.5124   0.5333   0.5792   0.6643   0.7363   0.7867   0.7905   0.8107
     0.8279   0.8880   0.9117   0.9329   0.9515   0.9593   0.9857   1.0034
     1.0314   1.0985   1.1215   1.1631   1.1826   1.2028   1.2061   1.2333
     1.2399   1.3415   1.3907   1.4535   1.4956   1.5652   1.6151   1.6459
     1.6559   1.7323   1.7759   1.7832   1.8170   1.8814   1.9380   1.9545
     1.9787   2.0067   2.0086   2.0276   2.0478   2.0842   2.1558   2.1673
     2.1711   2.1980   2.2171   2.2233   2.2275   2.2915   2.4105   2.4134
     2.4373   2.4407   2.4461   2.5077   2.5368   2.6347   2.7633   3.3412
     3.6063   3.6086   3.7938   3.8524   3.9890   3.9957   4.0040   4.2664
     4.6099   4.6203   4.8393   5.0661   5.0941   5.2029   5.2199   5.2557
     5.4139   5.5178   5.5897   5.8304   6.0284   6.0595   6.3014   6.6824
     6.7104

          k = 0.2000-0.3464 0.0000 ( 44714 PWs)   bands (ev):

    -6.1997  -4.9785  -4.9651  -4.9291  -3.9697  -3.8876  -3.8849  -3.8737
    -3.8390  -3.8186  -3.8139  -3.7998  -3.7045  -3.6997  -3.4083  -3.3143
    -3.3081  -3.2999  -3.2410  -3.2189  -3.1006  -3.0635  -3.0552  -3.0532
    -3.0444  -3.0007  -2.9268  -2.8999  -2.8911  -2.8880  -2.8629  -2.8097
    -2.7810  -2.7776  -2.7356  -2.6555  -2.5636  -2.3985  -2.3021  -2.2973
    -2.2729  -2.2495  -2.2458  -2.2400  -2.1983  -2.1735  -2.0973  -2.0093
    -1.9967  -1.9702  -1.8996  -1.8759  -1.8272  -1.8186  -1.7938  -1.7269
    -1.6799  -1.5672  -1.5582  -1.5022  -1.4790  -1.4511  -1.4211  -1.4142
    -1.3611  -1.3459  -1.3362  -1.1934  -1.1895  -1.1712  -1.1447  -1.1117
    -1.0981  -1.0525  -1.0399  -1.0169  -1.0004  -0.8948  -0.8707  -0.8638
    -0.8447  -0.8293  -0.8214  -0.8178  -0.7740  -0.7601  -0.7395  -0.7097
    -0.6807  -0.6330  -0.5913  -0.5810  -0.5681  -0.5295  -0.5002  -0.4851
    -0.4788  -0.4488  -0.4342  -0.4218  -0.4186  -0.3988  -0.3955  -0.3743
    -0.3237  -0.3149  -0.2732  -0.2136  -0.1747  -0.1674  -0.1025  -0.0879
    -0.0798  -0.0028   0.1155   0.1428   0.2222   0.2515   0.2731   0.2798
     0.3044   0.3335   0.3570   0.3735   0.3974   0.4054   0.4525   0.4877
     0.5183   0.6167   0.6761   0.6981   0.7295   0.7465   0.7741   0.8020
     0.8170   0.9213   0.9413   0.9497   0.9982   1.0181   1.0619   1.1296
     1.1552   1.1587   1.1781   1.2249   1.2364   1.2519   1.2568   1.2752
     1.2822   1.2878   1.3057   1.3833   1.4724   1.5009   1.5455   1.6278
     1.6447   1.7215   1.8055   1.8158   1.8194   1.8609   1.9253   1.9394
     1.9631   1.9721   1.9927   2.0122   2.0232   2.0276   2.0383   2.0731
     2.0924   2.0973   2.1715   2.2039   2.2105   2.2490   2.2570   2.2923
     2.3813   2.4424   2.4867   2.4961   2.5545   2.5713   2.5759   2.7125
     2.7199   2.9751   3.2439   3.2577   3.6076   3.7790   3.7928   3.8141
     4.1069   4.4942   4.5074   4.7182   4.7323   4.7635   5.3840   5.5430
     5.9198   5.9341   6.1693   6.2223   6.6353   6.6984   6.7057   6.7322
     6.7558

          k = 0.4000-0.2309 0.0000 ( 44748 PWs)   bands (ev):

    -6.0618  -5.4239  -4.8080  -4.3663  -4.3427  -4.2488  -3.9931  -3.8357
    -3.7294  -3.6899  -3.6531  -3.6196  -3.5459  -3.4562  -3.4181  -3.4042
    -3.3957  -3.2955  -3.2566  -3.2309  -3.2039  -3.1824  -3.1603  -3.1271
    -3.0800  -3.0510  -3.0491  -2.9256  -2.7850  -2.7821  -2.7742  -2.7625
    -2.7590  -2.6944  -2.5357  -2.5143  -2.5028  -2.4973  -2.4719  -2.4040
    -2.2966  -2.1975  -2.1921  -2.1803  -2.1540  -2.1285  -2.0965  -2.0509
    -2.0411  -2.0111  -1.9837  -1.9231  -1.8274  -1.8261  -1.7885  -1.7784
    -1.6775  -1.6265  -1.6095  -1.6077  -1.5601  -1.4549  -1.4060  -1.3792
    -1.3743  -1.3604  -1.2831  -1.2778  -1.2526  -1.1475  -1.1358  -1.1260
    -1.1154  -1.0168  -0.9982  -0.9966  -0.9878  -0.9635  -0.9268  -0.9055
    -0.8981  -0.8716  -0.8643  -0.8590  -0.8507  -0.8383  -0.7968  -0.7364
    -0.7097  -0.7036  -0.6937  -0.6870  -0.6775  -0.5832  -0.5246  -0.5153
    -0.4939  -0.4582  -0.4432  -0.4245  -0.4062  -0.3910  -0.3157  -0.2560
    -0.2286  -0.1962  -0.1914  -0.1358  -0.1303  -0.0022   0.0078   0.0320
     0.0985   0.1547   0.1791   0.1851   0.2081   0.2203   0.2285   0.2452
     0.3119   0.3220   0.3364   0.3401   0.3533   0.3716   0.3947   0.4117
     0.4342   0.5289   0.5646   0.5797   0.5914   0.6585   0.7383   0.7694
     0.7765   0.8785   0.8804   0.9616   1.0250   1.0505   1.0853   1.0939
     1.1106   1.1387   1.1501   1.2128   1.2232   1.2539   1.2816   1.3105
     1.3750   1.3996   1.4222   1.4270   1.4514   1.4721   1.5474   1.6202
     1.6673   1.6971   1.7090   1.7288   1.7327   1.8162   1.8396   1.8409
     1.9205   1.9230   1.9328   1.9917   2.0026   2.0224   2.0384   2.1142
     2.1489   2.1725   2.1781   2.1953   2.1957   2.2128   2.2238   2.4001
     2.4024   2.4262   2.4410   2.4460   2.6275   2.6648   2.8249   3.0370
     3.1044   3.2231   3.4906   3.4992   3.8229   3.8860   3.9041   4.2215
     4.3966   4.7127   4.7229   4.7336   4.9084   4.9732   5.0279   5.0893
     5.3672   5.3766   5.7275   5.9964   6.3248   6.5466   6.6944   7.0172
     7.2132

          k = 0.4000 0.0000 0.0000 ( 44714 PWs)   bands (ev):

    -6.1998  -4.9731  -4.9690  -4.9314  -3.9648  -3.8875  -3.8853  -3.8788
    -3.8396  -3.8203  -3.8139  -3.7963  -3.7044  -3.7004  -3.4096  -3.3150
    -3.3074  -3.2992  -3.2416  -3.2189  -3.1043  -3.0634  -3.0552  -3.0536
    -3.0417  -2.9993  -2.9232  -2.8981  -2.8910  -2.8882  -2.8656  -2.8092
    -2.7869  -2.7741  -2.7349  -2.6580  -2.5650  -2.3985  -2.3036  -2.2915
    -2.2723  -2.2495  -2.2451  -2.2407  -2.1970  -2.1729  -2.0966  -2.0075
    -1.9952  -1.9741  -1.8990  -1.8761  -1.8290  -1.8160  -1.7943  -1.7253
    -1.6803  -1.5688  -1.5549  -1.5007  -1.4744  -1.4488  -1.4206  -1.4147
    -1.3604  -1.3468  -1.3363  -1.1940  -1.1904  -1.1730  -1.1465  -1.1119
    -1.1027  -1.0511  -1.0380  -1.0163  -1.0003  -0.8902  -0.8725  -0.8629
    -0.8433  -0.8309  -0.8206  -0.8181  -0.7728  -0.7606  -0.7451  -0.7089
    -0.6819  -0.6359  -0.5921  -0.5810  -0.5679  -0.5319  -0.5034  -0.4880
    -0.4759  -0.4503  -0.4347  -0.4232  -0.4166  -0.3960  -0.3925  -0.3763
    -0.3253  -0.3151  -0.2727  -0.2133  -0.1725  -0.1671  -0.1051  -0.0876
    -0.0812  -0.0038   0.1181   0.1415   0.2196   0.2498   0.2722   0.2795
     0.3035   0.3374   0.3549   0.3746   0.3970   0.4086   0.4538   0.4846
     0.5224   0.6141   0.6756   0.6981   0.7318   0.7440   0.7742   0.7996
     0.8162   0.9211   0.9438   0.9474   0.9971   1.0170   1.0611   1.1300
     1.1553   1.1580   1.1808   1.2251   1.2355   1.2540   1.2573   1.2765
     1.2799   1.2881   1.3057   1.3830   1.4725   1.5010   1.5470   1.6266
     1.6450   1.7216   1.8056   1.8166   1.8201   1.8591   1.9261   1.9414
     1.9628   1.9706   1.9920   2.0120   2.0218   2.0260   2.0371   2.0736
     2.0902   2.1018   2.1701   2.2016   2.2108   2.2489   2.2576   2.2915
     2.3841   2.4468   2.4899   2.4982   2.5564   2.5710   2.5764   2.7096
     2.7212   2.9724   3.2434   3.2556   3.6085   3.7806   3.7946   3.8168
     4.1057   4.4932   4.5043   4.7190   4.7327   4.7641   5.3847   5.5439
     5.9201   5.9379   6.1683   6.2233   6.6347   6.6961   6.7065   6.7326
     6.7550

          k = 0.4000 0.2309 0.0000 ( 44748 PWs)   bands (ev):

    -6.0618  -5.4243  -4.8074  -4.3656  -4.3427  -4.2499  -3.9940  -3.8358
    -3.7296  -3.6902  -3.6509  -3.6191  -3.5458  -3.4568  -3.4200  -3.4045
    -3.3957  -3.2966  -3.2559  -3.2306  -3.2059  -3.1830  -3.1599  -3.1284
    -3.0804  -3.0515  -3.0492  -2.9196  -2.7866  -2.7790  -2.7741  -2.7656
    -2.7555  -2.6961  -2.5341  -2.5145  -2.5043  -2.4975  -2.4721  -2.4030
    -2.2966  -2.2001  -2.1877  -2.1783  -2.1573  -2.1287  -2.0963  -2.0503
    -2.0412  -2.0091  -1.9838  -1.9257  -1.8272  -1.8255  -1.7879  -1.7775
    -1.6755  -1.6257  -1.6080  -1.6076  -1.5564  -1.4558  -1.4049  -1.3825
    -1.3737  -1.3581  -1.2850  -1.2756  -1.2538  -1.1501  -1.1388  -1.1270
    -1.1160  -1.0190  -0.9993  -0.9920  -0.9874  -0.9634  -0.9258  -0.9038
    -0.8952  -0.8710  -0.8638  -0.8573  -0.8531  -0.8391  -0.7967  -0.7360
    -0.7105  -0.7039  -0.6934  -0.6842  -0.6741  -0.5876  -0.5257  -0.5169
    -0.4980  -0.4583  -0.4439  -0.4262  -0.4053  -0.3943  -0.3185  -0.2534
    -0.2309  -0.1965  -0.1931  -0.1376  -0.1291  -0.0015   0.0071   0.0326
     0.0977   0.1550   0.1784   0.1850   0.2058   0.2210   0.2307   0.2493
     0.3114   0.3234   0.3371   0.3427   0.3534   0.3707   0.3906   0.4120
     0.4355   0.5274   0.5635   0.5795   0.5912   0.6575   0.7373   0.7693
     0.7752   0.8774   0.8813   0.9645   1.0257   1.0495   1.0833   1.0948
     1.1078   1.1394   1.1503   1.2125   1.2214   1.2540   1.2847   1.3124
     1.3761   1.3998   1.4219   1.4291   1.4495   1.4707   1.5462   1.6202
     1.6668   1.6953   1.7086   1.7288   1.7322   1.8161   1.8409   1.8417
     1.9195   1.9212   1.9329   1.9929   2.0012   2.0213   2.0381   2.1139
     2.1496   2.1729   2.1776   2.1954   2.1973   2.2151   2.2248   2.4001
     2.4046   2.4276   2.4432   2.4469   2.6274   2.6642   2.8269   3.0392
     3.1014   3.2220   3.4906   3.4992   3.8214   3.8860   3.9036   4.2226
     4.3983   4.7133   4.7230   4.7360   4.9068   4.9724   5.0296   5.0912
     5.3668   5.3766   5.7255   5.9982   6.3248   6.5460   6.6937   7.0170
     7.2133

          k = 0.4000-0.6928 0.0000 ( 44692 PWs)   bands (ev):

    -5.6656  -5.6588  -5.0518  -4.4668  -4.4185  -3.9398  -3.8882  -3.7530
    -3.7113  -3.6267  -3.6006  -3.5046  -3.4925  -3.4177  -3.3890  -3.3776
    -3.3456  -3.3298  -3.3229  -3.3094  -3.2572  -3.1694  -3.1634  -3.1334
    -3.1137  -3.0499  -2.9723  -2.9076  -2.9019  -2.8435  -2.7639  -2.7572
    -2.7434  -2.7366  -2.6757  -2.6278  -2.6004  -2.5168  -2.4384  -2.3207
    -2.3135  -2.2698  -2.1910  -2.1643  -2.1216  -2.0996  -2.0020  -1.9423
    -1.9269  -1.9072  -1.8751  -1.8355  -1.8154  -1.7841  -1.7143  -1.7064
    -1.6838  -1.6758  -1.6643  -1.6593  -1.6186  -1.5978  -1.5586  -1.4710
    -1.4409  -1.3935  -1.3684  -1.2892  -1.2560  -1.2352  -1.2165  -1.1768
    -1.1642  -1.1523  -1.0838  -1.0504  -1.0403  -1.0235  -1.0061  -0.9805
    -0.9254  -0.9069  -0.8548  -0.8187  -0.8071  -0.7995  -0.7435  -0.6783
    -0.6215  -0.6162  -0.6029  -0.5946  -0.5495  -0.5470  -0.5325  -0.5078
    -0.4980  -0.4948  -0.4634  -0.4506  -0.4093  -0.4026  -0.3893  -0.3800
    -0.3721  -0.3533  -0.3312  -0.3028  -0.2798  -0.2191  -0.0754  -0.0250
     0.0330   0.0384   0.1380   0.1569   0.1608   0.1831   0.2159   0.2266
     0.2515   0.2628   0.3009   0.3618   0.3769   0.3973   0.4424   0.4579
     0.5107   0.5351   0.5754   0.6613   0.7360   0.7841   0.7931   0.8114
     0.8292   0.8878   0.9105   0.9350   0.9495   0.9602   0.9872   1.0015
     1.0326   1.0986   1.1226   1.1655   1.1822   1.2029   1.2068   1.2317
     1.2375   1.3391   1.3913   1.4511   1.4943   1.5662   1.6169   1.6459
     1.6569   1.7334   1.7759   1.7835   1.8174   1.8806   1.9377   1.9541
     1.9768   2.0041   2.0084   2.0264   2.0506   2.0861   2.1556   2.1677
     2.1716   2.1946   2.2179   2.2233   2.2277   2.2916   2.4112   2.4139
     2.4380   2.4436   2.4490   2.5079   2.5387   2.6351   2.7627   3.3395
     3.6062   3.6086   3.7938   3.8541   3.9888   3.9968   3.9989   4.2674
     4.6122   4.6197   4.8378   5.0659   5.0924   5.2043   5.2183   5.2545
     5.4239   5.5225   5.5915   5.8304   6.0264   6.0568   6.3021   6.6786
     6.7081

          k = 0.4000-0.4619 0.0000 ( 44692 PWs)   bands (ev):

    -5.6696  -5.6544  -5.0523  -4.4719  -4.4124  -3.9409  -3.8874  -3.7530
    -3.7108  -3.6285  -3.6007  -3.5044  -3.4921  -3.4156  -3.3932  -3.3755
    -3.3460  -3.3301  -3.3186  -3.3115  -3.2555  -3.1700  -3.1640  -3.1328
    -3.1119  -3.0500  -2.9717  -2.9118  -2.9046  -2.8434  -2.7616  -2.7562
    -2.7435  -2.7347  -2.6799  -2.6271  -2.6015  -2.5157  -2.4394  -2.3215
    -2.3122  -2.2694  -2.1918  -2.1637  -2.1192  -2.1010  -2.0030  -1.9412
    -1.9260  -1.9052  -1.8777  -1.8382  -1.8149  -1.7854  -1.7157  -1.7058
    -1.6832  -1.6740  -1.6654  -1.6617  -1.6173  -1.6023  -1.5560  -1.4726
    -1.4398  -1.3929  -1.3683  -1.2895  -1.2582  -1.2350  -1.2141  -1.1769
    -1.1636  -1.1519  -1.0838  -1.0493  -1.0399  -1.0249  -1.0051  -0.9807
    -0.9302  -0.9051  -0.8533  -0.8204  -0.8093  -0.7979  -0.7442  -0.6752
    -0.6227  -0.6154  -0.6043  -0.5952  -0.5502  -0.5459  -0.5317  -0.5078
    -0.4968  -0.4905  -0.4605  -0.4504  -0.4085  -0.4049  -0.3877  -0.3836
    -0.3710  -0.3553  -0.3282  -0.2999  -0.2803  -0.2196  -0.0740  -0.0231
     0.0276   0.0449   0.1358   0.1585   0.1611   0.1829   0.2124   0.2258
     0.2532   0.2626   0.3012   0.3598   0.3760   0.3986   0.4409   0.4572
     0.5061   0.5404   0.5784   0.6622   0.7362   0.7830   0.7936   0.8127
     0.8283   0.8850   0.9121   0.9365   0.9496   0.9581   0.9872   0.9991
     1.0324   1.0971   1.1226   1.1663   1.1830   1.2023   1.2077   1.2328
     1.2390   1.3387   1.3912   1.4538   1.4960   1.5654   1.6171   1.6461
     1.6550   1.7325   1.7756   1.7812   1.8185   1.8820   1.9384   1.9534
     1.9791   2.0040   2.0093   2.0255   2.0504   2.0854   2.1548   2.1682
     2.1715   2.1964   2.2179   2.2235   2.2270   2.2916   2.4090   2.4133
     2.4375   2.4421   2.4480   2.5081   2.5373   2.6348   2.7630   3.3397
     3.6063   3.6084   3.7968   3.8527   3.9875   3.9969   4.0021   4.2648
     4.6108   4.6205   4.8371   5.0677   5.0924   5.2066   5.2161   5.2535
     5.4175   5.5187   5.5976   5.8284   6.0263   6.0582   6.3019   6.6810
     6.7093

     the Fermi energy is     2.2049 ev

!    total energy              =  -27755.49925691 Ry
     total all-electron energy =  -1326642.264674 Ry
     estimated scf accuracy    <       0.00000093 Ry
     smearing contrib. (-TS)   =       0.00267936 Ry
     internal energy E=F+TS    =  -27755.50193627 Ry

     The total energy is F=E-TS. E is the sum of the following terms:
     one-electron contribution =  -22792.58589754 Ry
     hartree contribution      =   11699.18478639 Ry
     xc contribution           =    -890.76229894 Ry
     ewald contribution        =    9702.65717593 Ry
     one-center paw contrib.   =  -25473.99570212 Ry

     convergence has been achieved in  17 iterations

     negative rho (up, down):  3.346E-03 0.000E+00

     Forces acting on atoms (cartesian axes, Ry/au):

     atom    1 type  1   force =     0.00208883    0.00152888   -0.00579276
     atom    2 type  1   force =     0.00079518    0.00235454   -0.00440096
     atom    3 type  1   force =    -0.00157872    0.00288435   -0.00840981
     atom    4 type  1   force =     0.00218423   -0.00082818   -0.00491742
     atom    5 type  1   force =     0.00010802   -0.00041561   -0.00297896
     atom    6 type  1   force =    -0.00208068    0.00020525   -0.00356380
     atom    7 type  1   force =     0.00144816   -0.00258256   -0.00500499
     atom    8 type  1   force =    -0.00046261   -0.00205063   -0.00376103
     atom    9 type  1   force =    -0.00200430   -0.00107472   -0.00420445
     atom   10 type  1   force =     0.00300334    0.00304474    0.00899447
     atom   11 type  1   force =     0.00198210    0.00182543    0.00000398
     atom   12 type  1   force =    -0.00366713    0.00277361    0.00146383
     atom   13 type  1   force =     0.00159297   -0.00140696    0.00839329
     atom   14 type  1   force =    -0.00006048   -0.00018927    0.00267120
     atom   15 type  1   force =    -0.00175470    0.00040380    0.00939909
     atom   16 type  1   force =     0.00182866   -0.00357978    0.00459666
     atom   17 type  1   force =    -0.00031306   -0.00264541    0.00421244
     atom   18 type  1   force =    -0.00313837    0.00000888    0.00235808
     atom   19 type  1   force =     0.00009528    0.00003052    0.00003437
     atom   20 type  1   force =    -0.00014123   -0.00004508    0.00003095
     atom   21 type  1   force =     0.00004912    0.00004553   -0.00012669
     atom   22 type  1   force =    -0.00008376   -0.00004690   -0.00002169
     atom   23 type  1   force =     0.00009087    0.00020546   -0.00009941
     atom   24 type  1   force =     0.00000066    0.00019643   -0.00010659
     atom   25 type  1   force =     0.00014751   -0.00006865   -0.00008091
     atom   26 type  1   force =     0.00004528   -0.00008732   -0.00009595
     atom   27 type  1   force =    -0.00018906   -0.00015708   -0.00010583
     atom   28 type  1   force =    -0.00001112    0.00005750    0.00011739
     atom   29 type  1   force =    -0.00000039    0.00002842    0.00009802
     atom   30 type  1   force =     0.00001694   -0.00007466    0.00013997
     atom   31 type  1   force =    -0.00002936   -0.00008492    0.00022156
     atom   32 type  1   force =     0.00002125    0.00004313    0.00025614
     atom   33 type  1   force =     0.00000928    0.00005617    0.00023377
     atom   34 type  1   force =    -0.00004505    0.00006275    0.00016400
     atom   35 type  1   force =     0.00003293   -0.00009595    0.00009227
     atom   36 type  1   force =     0.00001379    0.00003253    0.00012956
     atom   37 type  2   force =     0.00000559   -0.00035426    0.00006023
     The non-local contrib.  to forces
     atom    1 type  1   force =     0.00222844    0.00086071   -0.01709144
     atom    2 type  1   force =     0.00057826    0.00147714   -0.01768763
     atom    3 type  1   force =    -0.00086089    0.00227668   -0.01429680
     atom    4 type  1   force =     0.00195378   -0.00056262   -0.01825529
     atom    5 type  1   force =     0.00042579    0.00010162   -0.01826249
     atom    6 type  1   force =    -0.00198527    0.00029271   -0.01737413
     atom    7 type  1   force =     0.00178722   -0.00152608   -0.01676146
     atom    8 type  1   force =    -0.00059516   -0.00135327   -0.01801452
     atom    9 type  1   force =    -0.00219141   -0.00071966   -0.01645197
     atom   10 type  1   force =     0.00178883    0.00092790    0.00189861
     atom   11 type  1   force =    -0.00162234    0.00253730    0.00034667
     atom   12 type  1   force =     0.00108638    0.00291494    0.00076716
     atom   13 type  1   force =     0.00155577    0.00014341    0.00184761
     atom   14 type  1   force =     0.00006049    0.00091781   -0.00012535
     atom   15 type  1   force =    -0.00181695    0.00067216    0.00238321
     atom   16 type  1   force =     0.00147943   -0.00211439    0.00032748
     atom   17 type  1   force =    -0.00104510   -0.00199664    0.00038392
     atom   18 type  1   force =    -0.00199922   -0.00367451    0.00126460
     atom   19 type  1   force =    -0.01099291   -0.00654457   -0.00347733
     atom   20 type  1   force =     0.01075061   -0.00640652   -0.00304394
     atom   21 type  1   force =     0.00009263    0.00039951    0.00426205
     atom   22 type  1   force =     0.00000470    0.01250252   -0.00275689
     atom   23 type  1   force =     0.00199460    0.00157534    0.00143153
     atom   24 type  1   force =    -0.00203780    0.00139921    0.00176285
     atom   25 type  1   force =     0.00060063   -0.00035318    0.00292099
     atom   26 type  1   force =    -0.00019734   -0.00234134    0.00067101
     atom   27 type  1   force =    -0.00053034   -0.00040551    0.00371399
     atom   28 type  1   force =     0.00376554    0.00397220    0.01898084
     atom   29 type  1   force =    -0.00389125    0.00384221    0.01882848
     atom   30 type  1   force =     0.00010724   -0.00029580    0.01615218
     atom   31 type  1   force =    -0.00017501   -0.00083383   -0.13742264
     atom   32 type  1   force =    -0.00574174    0.00140099    0.01878341
     atom   33 type  1   force =     0.00556813    0.00140034    0.01889440
     atom   34 type  1   force =    -0.00189261   -0.00559706    0.01920797
     atom   35 type  1   force =    -0.00005336   -0.00023827    0.01572648
     atom   36 type  1   force =     0.00179704   -0.00571095    0.01916621
     atom   37 type  2   force =    -0.00003683   -0.00054586   -0.04247104
     The ionic contribution  to forces
     atom    1 type  1   force =     0.13941667    0.08897823  -96.26494643
     atom    2 type  1   force =     0.01450195    0.15198144  -96.20339059
     atom    3 type  1   force =    -0.13347850    0.22064484  -96.22232411
     atom    4 type  1   force =     0.13151581   -0.05645374  -96.18640636
     atom    5 type  1   force =     0.00249803    0.00425766  -96.14322067
     atom    6 type  1   force =    -0.12703503    0.08249540  -96.15430716
     atom    7 type  1   force =     0.11706842   -0.23296098  -96.21570898
     atom    8 type  1   force =     0.00548812   -0.16117929  -96.16740446
     atom    9 type  1   force =    -0.13793669   -0.09087803  -96.16545337
     atom   10 type  1   force =     0.14008283    0.15728938  -32.39343299
     atom   11 type  1   force =    -0.08931860    0.20170563  -32.44513202
     atom   12 type  1   force =    -0.03165646    0.26029733  -32.36696450
     atom   13 type  1   force =     0.06534333   -0.12291390  -32.42274692
     atom   14 type  1   force =    -0.01295352   -0.01920569  -32.55508109
     atom   15 type  1   force =    -0.05711575    0.00871696  -32.36572019
     atom   16 type  1   force =     0.11743211   -0.19612761  -32.44914695
     atom   17 type  1   force =    -0.00871984   -0.12053760  -32.47007814
     atom   18 type  1   force =    -0.12973083   -0.16372299  -32.31408483
     atom   19 type  1   force =     0.06808792    0.07757323   32.43417371
     atom   20 type  1   force =    -0.05450777    0.05079110   32.32501010
     atom   21 type  1   force =    -0.01574227   -0.01304017   31.59721021
     atom   22 type  1   force =    -0.01369688   -0.10000699   32.38899502
     atom   23 type  1   force =    -0.01218378   -0.05162352   31.71729605
     atom   24 type  1   force =     0.02426396   -0.02604713   31.69747846
     atom   25 type  1   force =    -0.04935481    0.02135291   31.84512765
     atom   26 type  1   force =     0.03160842    0.01998733   31.85885837
     atom   27 type  1   force =     0.01999519    0.01982950   31.71592079
     atom   28 type  1   force =    -0.09495480   -0.27101456   95.23256092
     atom   29 type  1   force =     0.10346552   -0.27487535   95.17819602
     atom   30 type  1   force =    -0.00796195    0.00281669   95.41012339
     atom   31 type  1   force =     0.00218963   -0.02891422   95.39179826
     atom   32 type  1   force =     0.29425603    0.05504907   95.11076123
     atom   33 type  1   force =    -0.30028670    0.06542065   95.13184525
     atom   34 type  1   force =     0.19171778    0.21807452   95.17260202
     atom   35 type  1   force =     0.00802511   -0.01962217   95.41427517
     atom   36 type  1   force =    -0.20170777    0.22396684   95.14274278
     atom   37 type  2   force =     0.00138512    0.01789526   12.74057433
     The local contribution  to forces
     atom    1 type  1   force =    -0.13899641   -0.08804003   96.25811172
     atom    2 type  1   force =    -0.01429268   -0.15088980   96.19870462
     atom    3 type  1   force =     0.13231507   -0.21943145   96.20976149
     atom    4 type  1   force =    -0.13105157    0.05602852   96.18172991
     atom    5 type  1   force =    -0.00270415   -0.00473283   96.14066472
     atom    6 type  1   force =     0.12662859   -0.08216048   96.15027859
     atom    7 type  1   force =    -0.11705405    0.23125620   96.20948001
     atom    8 type  1   force =    -0.00512394    0.16006474   96.16394438
     atom    9 type  1   force =     0.13744260    0.09019972   96.15987729
     atom   10 type  1   force =    -0.13842659   -0.15491780   32.39907235
     atom   11 type  1   force =     0.09269816   -0.20194977   32.44318855
     atom   12 type  1   force =     0.02679660   -0.25960928   32.36626471
     atom   13 type  1   force =    -0.06505743    0.12112909   32.42782339
     atom   14 type  1   force =     0.01300169    0.01837681   32.55588659
     atom   15 type  1   force =     0.05672555   -0.00872611   32.37132382
     atom   16 type  1   force =    -0.11641972    0.19398219   32.45176293
     atom   17 type  1   force =     0.00926015    0.11926215   32.47210933
     atom   18 type  1   force =     0.12798150    0.16686028   32.31394533
     atom   19 type  1   force =    -0.05658877   -0.07061573  -32.42833602
     atom   20 type  1   force =     0.04320061   -0.04419745  -32.31959895
     atom   21 type  1   force =     0.01571079    0.01270178  -31.59976428
     atom   22 type  1   force =     0.01348140    0.08695517  -32.38387729
     atom   23 type  1   force =     0.01052661    0.05032636  -31.71710409
     atom   24 type  1   force =    -0.02234348    0.02498345  -31.69769321
     atom   25 type  1   force =     0.04883812   -0.02103666  -31.84622896
     atom   26 type  1   force =    -0.03123309   -0.01800314  -31.85793810
     atom   27 type  1   force =    -0.01970497   -0.01965037  -31.71791028
     atom   28 type  1   force =     0.09142784    0.26680973  -95.23407128
     atom   29 type  1   force =    -0.09979127    0.27075352  -95.17963324
     atom   30 type  1   force =     0.00785004   -0.00259709  -95.40863715
     atom   31 type  1   force =    -0.00203937    0.02935151  -95.25669286
     atom   32 type  1   force =    -0.28832662   -0.05606828  -95.11200827
     atom   33 type  1   force =     0.29454521   -0.06635174  -95.13325010
     atom   34 type  1   force =    -0.18952427   -0.21247124  -95.17433807
     atom   35 type  1   force =    -0.00787953    0.01972087  -95.41249456
     atom   36 type  1   force =     0.19950854   -0.21828005  -95.14455200
     atom   37 type  2   force =    -0.00134114   -0.01770356  -12.69795673
     The core correction contribution to forces
     atom    1 type  1   force =    -0.00040232   -0.00023846    0.01750086
     atom    2 type  1   force =    -0.00003103   -0.00042540    0.01736911
     atom    3 type  1   force =     0.00033010   -0.00057597    0.01782500
     atom    4 type  1   force =    -0.00038071    0.00018452    0.01733511
     atom    5 type  1   force =    -0.00000212    0.00000259    0.01723463
     atom    6 type  1   force =     0.00034858   -0.00015308    0.01723695
     atom    7 type  1   force =    -0.00033818    0.00057826    0.01736996
     atom    8 type  1   force =     0.00003916    0.00038374    0.01721687
     atom    9 type  1   force =     0.00039334    0.00023119    0.01723865
     atom   10 type  1   force =    -0.00039001   -0.00040940    0.00090701
     atom   11 type  1   force =     0.00014454   -0.00048876    0.00098606
     atom   12 type  1   force =     0.00013730   -0.00066065    0.00077861
     atom   13 type  1   force =    -0.00018948    0.00025101    0.00097409
     atom   14 type  1   force =     0.00000830   -0.00001567    0.00145580
     atom   15 type  1   force =     0.00021385   -0.00006457    0.00081830
     atom   16 type  1   force =    -0.00033010    0.00055754    0.00118006
     atom   17 type  1   force =     0.00006133    0.00039970    0.00122507
     atom   18 type  1   force =     0.00041097    0.00041946    0.00064081
     atom   19 type  1   force =    -0.00032436   -0.00021978   -0.00230241
     atom   20 type  1   force =     0.00032072   -0.00018370   -0.00227606
     atom   21 type  1   force =    -0.00000094    0.00025241   -0.00183957
     atom   22 type  1   force =     0.00001716    0.00036834   -0.00236324
     atom   23 type  1   force =     0.00001636    0.00001328   -0.00175481
     atom   24 type  1   force =    -0.00003236    0.00000446   -0.00178414
     atom   25 type  1   force =     0.00022694   -0.00013665   -0.00188387
     atom   26 type  1   force =    -0.00003608   -0.00001895   -0.00175045
     atom   27 type  1   force =    -0.00020722   -0.00011208   -0.00187484
     atom   28 type  1   force =    -0.00018668    0.00014747   -0.01655337
     atom   29 type  1   force =     0.00018817    0.00015872   -0.01650768
     atom   30 type  1   force =    -0.00001014    0.00002938   -0.01654058
     atom   31 type  1   force =     0.00000960    0.00032773    0.00295513
     atom   32 type  1   force =    -0.00004995   -0.00024967   -0.01647520
     atom   33 type  1   force =     0.00005506   -0.00025293   -0.01649077
     atom   34 type  1   force =    -0.00022080    0.00006060   -0.01651005
     atom   35 type  1   force =    -0.00000415    0.00002409   -0.01670772
     atom   36 type  1   force =     0.00023468    0.00006860   -0.01648313
     atom   37 type  2   force =     0.00000000    0.00000000    0.00000000
     The Hubbard contrib.    to forces
     atom    1 type  1   force =     0.00000000    0.00000000    0.00000000
     atom    2 type  1   force =     0.00000000    0.00000000    0.00000000
     atom    3 type  1   force =     0.00000000    0.00000000    0.00000000
     atom    4 type  1   force =     0.00000000    0.00000000    0.00000000
     atom    5 type  1   force =     0.00000000    0.00000000    0.00000000
     atom    6 type  1   force =     0.00000000    0.00000000    0.00000000
     atom    7 type  1   force =     0.00000000    0.00000000    0.00000000
     atom    8 type  1   force =     0.00000000    0.00000000    0.00000000
     atom    9 type  1   force =     0.00000000    0.00000000    0.00000000
     atom   10 type  1   force =     0.00000000    0.00000000    0.00000000
     atom   11 type  1   force =     0.00000000    0.00000000    0.00000000
     atom   12 type  1   force =     0.00000000    0.00000000    0.00000000
     atom   13 type  1   force =     0.00000000    0.00000000    0.00000000
     atom   14 type  1   force =     0.00000000    0.00000000    0.00000000
     atom   15 type  1   force =     0.00000000    0.00000000    0.00000000
     atom   16 type  1   force =     0.00000000    0.00000000    0.00000000
     atom   17 type  1   force =     0.00000000    0.00000000    0.00000000
     atom   18 type  1   force =     0.00000000    0.00000000    0.00000000
     atom   19 type  1   force =     0.00000000    0.00000000    0.00000000
     atom   20 type  1   force =     0.00000000    0.00000000    0.00000000
     atom   21 type  1   force =     0.00000000    0.00000000    0.00000000
     atom   22 type  1   force =     0.00000000    0.00000000    0.00000000
     atom   23 type  1   force =     0.00000000    0.00000000    0.00000000
     atom   24 type  1   force =     0.00000000    0.00000000    0.00000000
     atom   25 type  1   force =     0.00000000    0.00000000    0.00000000
     atom   26 type  1   force =     0.00000000    0.00000000    0.00000000
     atom   27 type  1   force =     0.00000000    0.00000000    0.00000000
     atom   28 type  1   force =     0.00000000    0.00000000    0.00000000
     atom   29 type  1   force =     0.00000000    0.00000000    0.00000000
     atom   30 type  1   force =     0.00000000    0.00000000    0.00000000
     atom   31 type  1   force =     0.00000000    0.00000000    0.00000000
     atom   32 type  1   force =     0.00000000    0.00000000    0.00000000
     atom   33 type  1   force =     0.00000000    0.00000000    0.00000000
     atom   34 type  1   force =     0.00000000    0.00000000    0.00000000
     atom   35 type  1   force =     0.00000000    0.00000000    0.00000000
     atom   36 type  1   force =     0.00000000    0.00000000    0.00000000
     atom   37 type  2   force =     0.00000000    0.00000000    0.00000000
     The SCF correction term to forces
     atom    1 type  1   force =    -0.00000000   -0.00000000    0.00000000
     atom    2 type  1   force =     0.00000000    0.00000000    0.00000000
     atom    3 type  1   force =     0.00000000   -0.00000000    0.00000000
     atom    4 type  1   force =     0.00000000   -0.00000000    0.00000000
     atom    5 type  1   force =    -0.00000000   -0.00000000    0.00000000
     atom    6 type  1   force =    -0.00000000   -0.00000000    0.00000000
     atom    7 type  1   force =    -0.00000000    0.00000000    0.00000000
     atom    8 type  1   force =    -0.00000000    0.00000000    0.00000000
     atom    9 type  1   force =     0.00000000    0.00000000    0.00000000
     atom   10 type  1   force =    -0.00000000    0.00000000    0.00000000
     atom   11 type  1   force =     0.00000000    0.00000000    0.00000000
     atom   12 type  1   force =    -0.00000000   -0.00000000    0.00000000
     atom   13 type  1   force =    -0.00000000   -0.00000000    0.00000000
     atom   14 type  1   force =    -0.00000000   -0.00000000    0.00000000
     atom   15 type  1   force =     0.00000000   -0.00000000    0.00000000
     atom   16 type  1   force =    -0.00000000    0.00000000    0.00000000
     atom   17 type  1   force =     0.00000000    0.00000000    0.00000000
     atom   18 type  1   force =     0.00000000    0.00000000    0.00000000
     atom   19 type  1   force =    -0.00008614   -0.00016292    0.00001609
     atom   20 type  1   force =     0.00009505   -0.00004880   -0.00002053
     atom   21 type  1   force =    -0.00001064   -0.00026829    0.00004455
     atom   22 type  1   force =     0.00011030    0.00013377    0.00002037
     atom   23 type  1   force =    -0.00026247   -0.00008629    0.00007158
     atom   24 type  1   force =     0.00015079   -0.00014385    0.00016911
     atom   25 type  1   force =    -0.00016292    0.00010464    0.00002295
     atom   26 type  1   force =    -0.00009617    0.00028849    0.00010288
     atom   27 type  1   force =     0.00025874    0.00018109    0.00008417
     atom   28 type  1   force =    -0.00006256    0.00014237   -0.00076005
     atom   29 type  1   force =     0.00002889    0.00014903   -0.00074591
     atom   30 type  1   force =     0.00003221   -0.00002813   -0.00091821
     atom   31 type  1   force =    -0.00001375   -0.00001639   -0.00037666
     atom   32 type  1   force =    -0.00011602   -0.00008926   -0.00076537
     atom   33 type  1   force =     0.00012803   -0.00016044   -0.00072535
     atom   34 type  1   force =    -0.00012470   -0.00000436   -0.00075822
     atom   35 type  1   force =    -0.00005468    0.00001925   -0.00066742
     atom   36 type  1   force =     0.00018175   -0.00001219   -0.00070464
     atom   37 type  2   force =    -0.00000111   -0.00000039   -0.00004667

     Total force =     0.000856     Total SCF correction =     0.002338
     SCF correction compared to forces is large: reduce conv_thr to get better values

     Writing all to output data dir ./pwscf.save/

     init_run     :     10.63s CPU     10.95s WALL (       1 calls)
     electrons    :    280.59s CPU    290.44s WALL (       1 calls)
     forces       :      4.13s CPU      4.84s WALL (       1 calls)

     Called by init_run:
     wfcinit      :      6.12s CPU      6.31s WALL (       1 calls)
     potinit      :      3.09s CPU      3.16s WALL (       1 calls)
     hinit0       :      0.82s CPU      0.84s WALL (       1 calls)

     Called by electrons:
     c_bands      :    237.46s CPU    243.18s WALL (      18 calls)
     sum_band     :     26.90s CPU     27.95s WALL (      18 calls)
     v_of_rho     :      8.16s CPU     10.12s WALL (      18 calls)
     newd         :      2.21s CPU      2.97s WALL (      18 calls)
     PAW_pot      :      3.81s CPU      3.94s WALL (      18 calls)
     mix_rho      :      4.17s CPU      4.25s WALL (      18 calls)
     vdW_kernel   :      1.71s CPU      1.72s WALL (       1 calls)

     Called by c_bands:
     init_us_2    :      2.59s CPU      2.63s WALL (     494 calls)
     init_us_2:cp :      2.58s CPU      2.63s WALL (     494 calls)
     cegterg      :    230.88s CPU    236.30s WALL (     234 calls)

     Called by *egterg:
     cdiaghg      :     62.04s CPU     63.16s WALL (    1137 calls)
     h_psi        :    108.61s CPU    111.08s WALL (    1163 calls)
     s_psi        :     14.09s CPU     14.51s WALL (    1163 calls)
     g_psi        :      0.44s CPU      0.45s WALL (     916 calls)

     Called by h_psi:
     h_psi:calbec :     16.92s CPU     17.39s WALL (    1163 calls)
     vloc_psi     :     76.53s CPU     78.32s WALL (    1163 calls)
     add_vuspsi   :     14.04s CPU     14.24s WALL (    1163 calls)

     General routines
     calbec       :     24.72s CPU     25.31s WALL (    1449 calls)
     fft          :      4.77s CPU      6.68s WALL (    1194 calls)
     ffts         :      2.42s CPU      2.45s WALL (    4576 calls)
     fftw         :     73.30s CPU     74.74s WALL (  304086 calls)
     interpolate  :      0.58s CPU      0.61s WALL (      18 calls)

     Parallel routines

     PWSCF        :   4m57.19s CPU   5m11.10s WALL


   This run was terminated on:   0:42:42  26Jan2025            

=------------------------------------------------------------------------------=
   JOB DONE.
=------------------------------------------------------------------------------=
