
     Program PWSCF v.7.1 starts on  9Nov2025 at 13:37:21 
        Git branch: heads/qe-7.1
        Last git commit: 48ba0178f8fede6d020eb786884699a9f063f55d-dirty
        Last git commit date: Fri Jan 27 14:22:33 2023 +0000
        Last git commit subject: Merge branch 'fix_hubbard' into 'develop'

     This program is part of the open-source Quantum ESPRESSO suite
     for quantum simulation of materials; please cite
         "P. Giannozzi et al., J. Phys.:Condens. Matter 21 395502 (2009);
         "P. Giannozzi et al., J. Phys.:Condens. Matter 29 465901 (2017);
         "P. Giannozzi et al., J. Chem. Phys. 152 154105 (2020);
          URL http://www.quantum-espresso.org", 
     in publications or presentations arising from this work. More details at
     http://www.quantum-espresso.org/quote

     Parallel version (MPI), running on    48 processors

     MPI processes distributed on     1 nodes
     89488 MiB available memory on the printing compute node when the environment starts

     Reading input from espresso.pwi
Warning: card &CELL ignored
Warning: card / ignored
Warning: card &FCP ignored
Warning: card / ignored
Warning: card &RISM ignored
Warning: card / ignored

     Current dimensions of program PWSCF are:
     Max number of different atomic species (ntypx) = 10
     Max number of k-points (npk) =  40000
     Max angular momentum in pseudopotentials (lmaxx) =  4
     file Pt.pbe-n-kjpaw_psl.1.0.0.UPF: wavefunction(s)  6S 5D renormalized
     file C.pbe-n-kjpaw_psl.1.0.0.UPF: wavefunction(s)  2S 2P renormalized
     file H.pbe-kjpaw_psl.1.0.0.UPF: wavefunction(s)  1S renormalized

     **************************************************************************
     Initializing libbeef V0.1.2 with the BEEF-vdW functional.
     Citation: Wellendorff et al., PRB 85, 235149 (2012).
     **************************************************************************


     IMPORTANT: XC functional enforced from input :
     Exchange-correlation= BEEF-VDW
                           (   1   4  43  14   2   0   0)
     Any further DFT definition will be discarded
     Please, verify this is what you really want


     R & G space division:  proc/nbgrp/npool/nimage =      48
     Subspace diagonalization in iterative solution of the eigenvalue problem:
     one sub-group per band group will be used
     custom distributed-memory algorithm (size of sub-group:  2*  2 procs)


     Parallelization info
     --------------------
     sticks:   dense  smooth     PW     G-vecs:    dense   smooth      PW
     Min         151      59     16                29407     7165    1028
     Max         152      60     17                29420     7176    1042
     Sum        7267    2839    769              1411785   344073   49691

     Using Slab Decomposition



     bravais-lattice index     =            0
     lattice parameter (alat)  =      16.0349  a.u.
     unit-cell volume          =   10068.6169 (a.u.)^3
     number of atoms/cell      =           38
     number of atomic types    =            3
     number of electrons       =       365.00
     number of Kohn-Sham states=          220
     kinetic-energy cutoff     =      40.0000  Ry
     charge density cutoff     =     410.0000  Ry
     scf convergence threshold =      1.0E-08
     mixing beta               =       0.7000
     number of iterations used =            8  local-TF  mixing
     Exchange-correlation= BEEF-VDW
                           (   1   4  43  14   2   0   0)

     celldm(1)=  16.034858  celldm(2)=   0.000000  celldm(3)=   0.000000
     celldm(4)=   0.000000  celldm(5)=   0.000000  celldm(6)=   0.000000

     crystal axes: (cart. coord. in units of alat)
               a(1) = (   1.000000   0.000000   0.000000 )  
               a(2) = (   0.500000   0.866025   0.000000 )  
               a(3) = (   0.000000   0.000000   2.819966 )  

     reciprocal axes: (cart. coord. in units 2 pi/alat)
               b(1) = (  1.000000 -0.577350  0.000000 )  
               b(2) = (  0.000000  1.154701  0.000000 )  
               b(3) = (  0.000000  0.000000  0.354614 )  


     PseudoPot. # 1 for Pt read from file:
     /users/kbadger1/espresso/pseudo/pslibrary.1.0.0/pbe/PSEUDOPOTENTIALS/Pt.pbe-n-kjpaw_psl.1.0.0.UPF
     MD5 check sum: 2e24a0b5bf98a4ed1a57fa81bca8c143
     Pseudo is Projector augmented-wave + core cor, Zval = 10.0
     Generated using 'atomic' code by A. Dal Corso  v.7.0
     Shape of augmentation charge: PSQ
     Using radial grid of 1277 points,  6 beta functions with: 
                l(1) =   0
                l(2) =   0
                l(3) =   1
                l(4) =   1
                l(5) =   2
                l(6) =   2
     Q(r) pseudized with 0 coefficients 


     PseudoPot. # 2 for C  read from file:
     /users/kbadger1/espresso/pseudo/pslibrary.1.0.0/pbe/PSEUDOPOTENTIALS/C.pbe-n-kjpaw_psl.1.0.0.UPF
     MD5 check sum: 6408e75cdba28732cea38a4db8498ce4
     Pseudo is Projector augmented-wave + core cor, Zval =  4.0
     Generated using 'atomic' code by A. Dal Corso  v.7.0
     Shape of augmentation charge: PSQ
     Using radial grid of 1073 points,  4 beta functions with: 
                l(1) =   0
                l(2) =   0
                l(3) =   1
                l(4) =   1
     Q(r) pseudized with 0 coefficients 


     PseudoPot. # 3 for H  read from file:
     /users/kbadger1/espresso/pseudo/pslibrary.1.0.0/pbe/PSEUDOPOTENTIALS/H.pbe-kjpaw_psl.1.0.0.UPF
     MD5 check sum: fe4c6fa958fa6d3815bf5d2419cbf1df
     Pseudo is Projector augmented-wave, Zval =  1.0
     Generated using 'atomic' code by A. Dal Corso  v.7.0
     Shape of augmentation charge: PSQ
     Using radial grid of  929 points,  2 beta functions with: 
                l(1) =   0
                l(2) =   0
     Q(r) pseudized with 0 coefficients 


     atomic species   valence    mass     pseudopotential
        Pt            10.00   195.08400     Pt( 1.00)
        C              4.00    12.01100     C ( 1.00)
        H              1.00     1.00800     H ( 1.00)

     No symmetry found



   Cartesian axes

     site n.     atom                  positions (alat units)
         1           Pt  tau(   1) = (   0.0000000   0.0000000   1.0017346  )
         2           Pt  tau(   2) = (   0.3333333   0.0000000   1.0017346  )
         3           Pt  tau(   3) = (   0.6666667   0.0000000   1.0017346  )
         4           Pt  tau(   4) = (   0.1666667   0.2886751   1.0017346  )
         5           Pt  tau(   5) = (   0.5000000   0.2886751   1.0017346  )
         6           Pt  tau(   6) = (   0.8333333   0.2886751   1.0017346  )
         7           Pt  tau(   7) = (   0.3333333   0.5773503   1.0017346  )
         8           Pt  tau(   8) = (   0.6666667   0.5773503   1.0017346  )
         9           Pt  tau(   9) = (   1.0000000   0.5773503   1.0017346  )
        10           Pt  tau(  10) = (   0.1666667   0.0962250   1.2739001  )
        11           Pt  tau(  11) = (   0.5000000   0.0962250   1.2739001  )
        12           Pt  tau(  12) = (   0.8333333   0.0962250   1.2739001  )
        13           Pt  tau(  13) = (   0.3333333   0.3849002   1.2739001  )
        14           Pt  tau(  14) = (   0.6666667   0.3849002   1.2739001  )
        15           Pt  tau(  15) = (   1.0000000   0.3849002   1.2739001  )
        16           Pt  tau(  16) = (   0.5000000   0.6735753   1.2739001  )
        17           Pt  tau(  17) = (   0.8333333   0.6735753   1.2739001  )
        18           Pt  tau(  18) = (   1.1666667   0.6735753   1.2739001  )
        19           Pt  tau(  19) = (   0.0006349   0.1968763   1.5469121  )
        20           Pt  tau(  20) = (   0.3326955   0.1968768   1.5469106  )
        21           Pt  tau(  21) = (   0.6666681   0.1966710   1.5429391  )
        22           Pt  tau(  22) = (   0.1666636   0.4866166   1.5438570  )
        23           Pt  tau(  23) = (   0.4999567   0.4860839   1.5430219  )
        24           Pt  tau(  24) = (   0.8333792   0.4860829   1.5430214  )
        25           Pt  tau(  25) = (   0.3353483   0.7761731   1.5463982  )
        26           Pt  tau(  26) = (   0.6666657   0.7757522   1.5486847  )
        27           Pt  tau(  27) = (   0.9979830   0.7761698   1.5463986  )
        28           Pt  tau(  28) = (  -0.0038176   0.0088656   1.8371790  )
        29           Pt  tau(  29) = (   0.3371464   0.0088672   1.8371809  )
        30           Pt  tau(  30) = (   0.6666666   0.0103761   1.8193564  )
        31           Pt  tau(  31) = (   0.1666656   0.3096366   1.8276303  )
        32           Pt  tau(  32) = (   0.5033853   0.3003290   1.8168626  )
        33           Pt  tau(  33) = (   0.8299469   0.3003280   1.8168616  )
        34           Pt  tau(  34) = (   0.3345665   0.5888425   1.8185666  )
        35           Pt  tau(  35) = (   0.6666647   0.5838480   1.8176954  )
        36           Pt  tau(  36) = (   0.9987650   0.5888418   1.8185669  )
        37           C   tau(  37) = (   0.1666624   0.1165327   1.9590315  )
        38           H   tau(  38) = (   0.1666624   0.1342316   2.0865298  )

     number of k points=    13  Marzari-Vanderbilt smearing, width (Ry)=  0.0010
                       cart. coord. in units 2pi/alat
        k(    1) = (   0.0000000   0.0000000   0.0000000), wk =   0.0800000
        k(    2) = (   0.0000000   0.2309401   0.0000000), wk =   0.1600000
        k(    3) = (   0.0000000   0.4618802   0.0000000), wk =   0.1600000
        k(    4) = (   0.2000000  -0.1154701   0.0000000), wk =   0.1600000
        k(    5) = (   0.2000000   0.1154701   0.0000000), wk =   0.1600000
        k(    6) = (   0.2000000   0.3464102   0.0000000), wk =   0.1600000
        k(    7) = (   0.2000000  -0.5773503   0.0000000), wk =   0.1600000
        k(    8) = (   0.2000000  -0.3464102   0.0000000), wk =   0.1600000
        k(    9) = (   0.4000000  -0.2309401   0.0000000), wk =   0.1600000
        k(   10) = (   0.4000000  -0.0000000   0.0000000), wk =   0.1600000
        k(   11) = (   0.4000000   0.2309401   0.0000000), wk =   0.1600000
        k(   12) = (   0.4000000  -0.6928203   0.0000000), wk =   0.1600000
        k(   13) = (   0.4000000  -0.4618802   0.0000000), wk =   0.1600000

     Dense  grid:  1411785 G-vectors     FFT dimensions: ( 108, 108, 300)

     Smooth grid:   344073 G-vectors     FFT dimensions: (  72,  72, 192)

     Estimated max dynamical RAM per process >     206.88 MB

     Estimated total dynamical RAM >       9.70 GB

     Initial potential from superposition of free atoms

     starting charge     364.9938, renormalised to     365.0000

     negative rho (up, down):  3.255E-03 0.000E+00


     %%%%%%%%%%%%%%%%%%%%%%%%%%%%%%%%%%%%%%%%%%%%%%%%%%%%%%%%%%%%%%%%%%%%%%%%
     %                                                                      %
     % You are using vdW-DF, which was implemented by the Thonhauser group. %
     % Please cite the following two papers that made this development      %
     % possible and the two reviews that describe the various versions:     %
     %                                                                      %
     %   T. Thonhauser et al., PRL 115, 136402 (2015).                      %
     %   T. Thonhauser et al., PRB 76, 125112 (2007).                       %
     %   K. Berland et al., Rep. Prog. Phys. 78, 066501 (2015).             %
     %   D.C. Langreth et al., J. Phys.: Condens. Matter 21, 084203 (2009). %
     %                                                                      %
     % If you are calculating stress with vdW-DF, please also cite:         %
     %                                                                      %
     %   R. Sabatini et al., J. Phys.: Condens. Matter 24, 424209 (2012).   %
     %                                                                      %
     %%%%%%%%%%%%%%%%%%%%%%%%%%%%%%%%%%%%%%%%%%%%%%%%%%%%%%%%%%%%%%%%%%%%%%%%

     %%%%%%%%%%%%%%%%%%%%%%%%%%%%%%%%%%%%%%%%%%%%%%%%%%%%%%%%%%%%%%%%%%%%%%%%
     %                                                                      %
     %  vdW-DF NEWS:                                                        %
     %                                                                      %
     %  * vdW-DF3 is now available. DOI: 10.1021/acs.jctc.0c00471           %
     %    use with input_dft = 'vdW-DF3-opt1' or 'vdW-DF3-opt2'             %
     %                                                                      %
     %  * Unscreened and range-separated hybrid vdW-DF-cx functionals       %
     %    DOI: 10.1063/1.4986522 and 10.1088/1361-648X/ac2ad2               %
     %    use with input_dft = 'vdW-DF-cx0'    and 'vdW-DF-ahcx'            %
     %  * Unscreened and range-separated hybrid vdW-DF2-b86r functionals    %
     %    DOI: 10.1063/1.4986522 and DOI: 10.1103/PhysRevX.12.041003        %
     %    use with input_dft = 'vdW-DF2-br0' and 'vdW-DF2-ahbr'             %
     %                                                                      %
     %%%%%%%%%%%%%%%%%%%%%%%%%%%%%%%%%%%%%%%%%%%%%%%%%%%%%%%%%%%%%%%%%%%%%%%%


     Starting wfcs are  329 randomized atomic wfcs
     Checking if some PAW data can be deallocated... 

     total cpu time spent up to now is       18.4 secs

     per-process dynamical memory:   211.8 Mb

     Self-consistent Calculation

     iteration #  1     ecut=    40.00 Ry     beta= 0.70
     Davidson diagonalization with overlap
     ethr =  1.00E-02,  avg # of iterations =  2.0

     Threshold (ethr) on eigenvalues was too large:
     Diagonalizing with lowered threshold

     Davidson diagonalization with overlap
     ethr =  5.18E-04,  avg # of iterations =  4.8

     negative rho (up, down):  9.893E-03 0.000E+00

     total cpu time spent up to now is       64.4 secs

     total energy              =  -27774.15980859 Ry
     estimated scf accuracy    <       2.16642680 Ry

     iteration #  2     ecut=    40.00 Ry     beta= 0.70
     Davidson diagonalization with overlap
     ethr =  5.94E-04,  avg # of iterations =  2.0

     negative rho (up, down):  7.379E-03 0.000E+00

     total cpu time spent up to now is       86.4 secs

     total energy              =  -27774.35669564 Ry
     estimated scf accuracy    <       0.75580676 Ry

     iteration #  3     ecut=    40.00 Ry     beta= 0.70
     Davidson diagonalization with overlap
     ethr =  2.07E-04,  avg # of iterations =  3.2

     negative rho (up, down):  4.084E-03 0.000E+00

     total cpu time spent up to now is      110.0 secs

     total energy              =  -27774.42300768 Ry
     estimated scf accuracy    <       0.19174871 Ry

     iteration #  4     ecut=    40.00 Ry     beta= 0.70
     Davidson diagonalization with overlap
     ethr =  5.25E-05,  avg # of iterations =  9.9

     negative rho (up, down):  1.495E-03 0.000E+00

     total cpu time spent up to now is      149.6 secs

     total energy              =  -27774.46839800 Ry
     estimated scf accuracy    <       0.06898989 Ry

     iteration #  5     ecut=    40.00 Ry     beta= 0.70
     Davidson diagonalization with overlap
     c_bands:  1 eigenvalues not converged
     ethr =  1.89E-05,  avg # of iterations =  5.8

     negative rho (up, down):  6.781E-04 0.000E+00

     total cpu time spent up to now is      176.8 secs

     total energy              =  -27774.47512681 Ry
     estimated scf accuracy    <       0.02724550 Ry

     iteration #  6     ecut=    40.00 Ry     beta= 0.70
     Davidson diagonalization with overlap
     c_bands:  1 eigenvalues not converged
     ethr =  7.46E-06,  avg # of iterations =  7.6

     negative rho (up, down):  2.609E-04 0.000E+00

     total cpu time spent up to now is      205.6 secs

     total energy              =  -27774.47744600 Ry
     estimated scf accuracy    <       0.00664976 Ry

     iteration #  7     ecut=    40.00 Ry     beta= 0.70
     Davidson diagonalization with overlap
     c_bands:  1 eigenvalues not converged
     c_bands:  1 eigenvalues not converged
     c_bands:  1 eigenvalues not converged
     c_bands:  1 eigenvalues not converged
     ethr =  1.82E-06,  avg # of iterations = 13.9

     negative rho (up, down):  1.421E-04 0.000E+00

     total cpu time spent up to now is      255.7 secs

     total energy              =  -27774.47876441 Ry
     estimated scf accuracy    <       0.00295515 Ry

     iteration #  8     ecut=    40.00 Ry     beta= 0.70
     Davidson diagonalization with overlap
     ethr =  8.10E-07,  avg # of iterations =  2.2

     negative rho (up, down):  1.126E-04 0.000E+00

     total cpu time spent up to now is      275.2 secs

     total energy              =  -27774.47899015 Ry
     estimated scf accuracy    <       0.00071764 Ry

     iteration #  9     ecut=    40.00 Ry     beta= 0.70
     Davidson diagonalization with overlap
     ethr =  1.97E-07,  avg # of iterations =  4.2

     negative rho (up, down):  1.056E-04 0.000E+00

     total cpu time spent up to now is      305.8 secs

     total energy              =  -27774.47915994 Ry
     estimated scf accuracy    <       0.00053230 Ry

     iteration # 10     ecut=    40.00 Ry     beta= 0.70
     Davidson diagonalization with overlap
     ethr =  1.46E-07,  avg # of iterations =  2.0

     negative rho (up, down):  1.256E-04 0.000E+00

     total cpu time spent up to now is      327.2 secs

     total energy              =  -27774.47919571 Ry
     estimated scf accuracy    <       0.00034582 Ry

     iteration # 11     ecut=    40.00 Ry     beta= 0.70
     Davidson diagonalization with overlap
     ethr =  9.47E-08,  avg # of iterations =  2.5

     negative rho (up, down):  2.703E-04 0.000E+00

     total cpu time spent up to now is      351.2 secs

     total energy              =  -27774.47926657 Ry
     estimated scf accuracy    <       0.00025258 Ry

     iteration # 12     ecut=    40.00 Ry     beta= 0.70
     Davidson diagonalization with overlap
     ethr =  6.92E-08,  avg # of iterations =  5.2

     negative rho (up, down):  5.207E-04 0.000E+00

     total cpu time spent up to now is      377.2 secs

     total energy              =  -27774.47931403 Ry
     estimated scf accuracy    <       0.00013019 Ry

     iteration # 13     ecut=    40.00 Ry     beta= 0.70
     Davidson diagonalization with overlap
     ethr =  3.57E-08,  avg # of iterations =  2.3

     negative rho (up, down):  1.177E-03 0.000E+00

     total cpu time spent up to now is      395.7 secs

     total energy              =  -27774.47936909 Ry
     estimated scf accuracy    <       0.00004809 Ry

     iteration # 14     ecut=    40.00 Ry     beta= 0.70
     Davidson diagonalization with overlap
     ethr =  1.32E-08,  avg # of iterations =  6.3

     negative rho (up, down):  1.554E-03 0.000E+00

     total cpu time spent up to now is      422.6 secs

     total energy              =  -27774.47938844 Ry
     estimated scf accuracy    <       0.00003120 Ry

     iteration # 15     ecut=    40.00 Ry     beta= 0.70
     Davidson diagonalization with overlap
     ethr =  8.55E-09,  avg # of iterations =  1.8

     negative rho (up, down):  2.386E-03 0.000E+00

     total cpu time spent up to now is      445.4 secs

     total energy              =  -27774.47939420 Ry
     estimated scf accuracy    <       0.00001650 Ry

     iteration # 16     ecut=    40.00 Ry     beta= 0.70
     Davidson diagonalization with overlap
     ethr =  4.52E-09,  avg # of iterations =  2.3

     negative rho (up, down):  2.780E-03 0.000E+00

     total cpu time spent up to now is      468.4 secs

     total energy              =  -27774.47939410 Ry
     estimated scf accuracy    <       0.00000632 Ry

     iteration # 17     ecut=    40.00 Ry     beta= 0.70
     Davidson diagonalization with overlap
     ethr =  1.73E-09,  avg # of iterations =  3.8

     negative rho (up, down):  3.040E-03 0.000E+00

     total cpu time spent up to now is      492.8 secs

     total energy              =  -27774.47939381 Ry
     estimated scf accuracy    <       0.00000366 Ry

     iteration # 18     ecut=    40.00 Ry     beta= 0.70
     Davidson diagonalization with overlap
     ethr =  1.00E-09,  avg # of iterations =  2.0

     negative rho (up, down):  3.157E-03 0.000E+00

     total cpu time spent up to now is      513.1 secs

     total energy              =  -27774.47939358 Ry
     estimated scf accuracy    <       0.00000080 Ry

     iteration # 19     ecut=    40.00 Ry     beta= 0.70
     Davidson diagonalization with overlap
     ethr =  2.19E-10,  avg # of iterations =  4.0

     negative rho (up, down):  3.234E-03 0.000E+00

     total cpu time spent up to now is      546.6 secs

     total energy              =  -27774.47939354 Ry
     estimated scf accuracy    <       0.00000047 Ry

     iteration # 20     ecut=    40.00 Ry     beta= 0.70
     Davidson diagonalization with overlap
     ethr =  1.29E-10,  avg # of iterations =  1.6

     negative rho (up, down):  3.199E-03 0.000E+00

     total cpu time spent up to now is      569.5 secs

     total energy              =  -27774.47939375 Ry
     estimated scf accuracy    <       0.00000012 Ry

     iteration # 21     ecut=    40.00 Ry     beta= 0.70
     Davidson diagonalization with overlap
     ethr =  3.39E-11,  avg # of iterations =  2.0

     negative rho (up, down):  3.169E-03 0.000E+00

     total cpu time spent up to now is      592.7 secs

     total energy              =  -27774.47939392 Ry
     estimated scf accuracy    <       0.00000008 Ry

     iteration # 22     ecut=    40.00 Ry     beta= 0.70
     Davidson diagonalization with overlap
     ethr =  2.06E-11,  avg # of iterations =  2.2

     negative rho (up, down):  3.158E-03 0.000E+00

     total cpu time spent up to now is      615.1 secs

     total energy              =  -27774.47939398 Ry
     estimated scf accuracy    <       0.00000005 Ry

     iteration # 23     ecut=    40.00 Ry     beta= 0.70
     Davidson diagonalization with overlap
     ethr =  1.35E-11,  avg # of iterations =  2.1

     negative rho (up, down):  3.139E-03 0.000E+00

     total cpu time spent up to now is      634.9 secs

     End of self-consistent calculation

          k = 0.0000 0.0000 0.0000 ( 42913 PWs)   bands (ev):

    -9.8093  -6.0588  -4.8916  -4.4264  -3.7439  -3.7358  -3.7074  -3.6655
    -3.6485  -3.6359  -3.6185  -3.4714  -3.3391  -3.3365  -3.1222  -3.1089
    -3.1082  -3.0402  -2.9735  -2.9508  -2.6744  -2.6699  -2.6551  -2.5395
    -2.4809  -2.4796  -2.4395  -2.4388  -2.4288  -2.3331  -2.3284  -2.3133
    -2.2527  -2.2502  -2.2301  -2.1709  -2.1621  -2.1440  -2.1289  -2.0991
    -2.0895  -1.7859  -1.7188  -1.6616  -1.5929  -1.5902  -1.5786  -1.5420
    -1.5220  -1.5140  -1.5017  -1.4473  -1.4334  -1.3429  -1.3423  -1.3082
    -1.2147  -1.2074  -0.8747  -0.8551  -0.8032  -0.7899  -0.7826  -0.7449
    -0.7210  -0.6383  -0.6253  -0.5939  -0.5821  -0.5800  -0.5746  -0.5589
    -0.5438  -0.5218  -0.5206  -0.4944  -0.4815  -0.4765  -0.4704  -0.4464
    -0.4271  -0.3962  -0.3903  -0.3844  -0.3664  -0.3546  -0.1676  -0.1589
    -0.1507  -0.1153  -0.1120  -0.1088  -0.1013  -0.0946  -0.0666  -0.0605
    -0.0326   0.0411   0.0414   0.0813   0.0914   0.1203   0.1881   0.1917
     0.2020   0.2514   0.2570   0.2645   0.2955   0.3462   0.3875   0.6668
     0.6748   0.6979   0.7498   0.7516   0.7600   0.7825   0.7914   0.7975
     0.8846   0.8915   0.9485   0.9538   0.9576   0.9861   0.9964   1.0447
     1.0617   1.1122   1.1881   1.2144   1.2233   1.2983   1.2988   1.3070
     1.4544   1.4832   1.4930   1.5064   1.5409   1.5567   1.5861   1.5941
     1.6540   1.6555   1.6991   1.7256   1.7345   1.7450   1.7668   1.8488
     1.8655   1.8981   1.9105   1.9241   1.9447   1.9452   1.9488   1.9523
     1.9644   1.9755   1.9800   2.0403   2.0591   2.0629   2.0643   2.0775
     2.1338   2.1424   2.1506   2.1542   2.1626   2.1951   2.1983   2.2402
     2.2913   2.2915   2.3008   2.3043   2.3068   2.3433   2.3818   2.3840
     2.4260   2.4306   2.4576   2.4629   2.5086   2.5761   2.6173   2.6952
     2.7041   2.7185   2.7412   2.7465   2.7669   3.2632   3.2844   3.3801
     3.5867   3.6122   3.6291   3.6530   4.7446   4.7479   5.6151   5.9155
     5.9240   5.9416   6.3965   6.4625   7.0875   7.5350   7.5365   7.5706
     7.5986   7.7014   7.7110   7.7132

          k = 0.0000 0.2309 0.0000 ( 42996 PWs)   bands (ev):

    -9.8060  -5.9149  -4.7823  -4.3790  -4.1600  -3.8076  -3.7869  -3.5694
    -3.5165  -3.4649  -3.4369  -3.4133  -3.2896  -3.2585  -3.2074  -3.0636
    -3.0399  -3.0175  -2.9017  -2.8851  -2.7206  -2.6265  -2.5896  -2.5877
    -2.5188  -2.5080  -2.4858  -2.4082  -2.4057  -2.3537  -2.3439  -2.3279
    -2.2986  -2.2805  -2.2190  -2.2168  -2.0963  -2.0961  -2.0165  -1.9842
    -1.9643  -1.8136  -1.7573  -1.7306  -1.6871  -1.6809  -1.6564  -1.6295
    -1.5511  -1.5424  -1.4887  -1.4196  -1.3989  -1.3240  -1.2964  -1.2722
    -1.2270  -1.2006  -1.0450  -0.9613  -0.9524  -0.9292  -0.9071  -0.8849
    -0.8334  -0.7833  -0.7689  -0.7641  -0.7276  -0.6884  -0.6498  -0.6320
    -0.6050  -0.5838  -0.5629  -0.4810  -0.4803  -0.4529  -0.3979  -0.3920
    -0.3839  -0.3582  -0.3430  -0.3376  -0.3223  -0.2210  -0.2192  -0.1874
    -0.1649  -0.1460  -0.1392  -0.1315  -0.1132  -0.0738  -0.0554  -0.0392
    -0.0105   0.0008   0.0336   0.0392   0.0525   0.0971   0.1282   0.1410
     0.1636   0.2149   0.2650   0.2687   0.2701   0.3066   0.3068   0.3342
     0.3352   0.4832   0.4992   0.5379   0.6657   0.7129   0.7406   0.7695
     0.7786   0.7983   0.8080   0.8621   0.9715   1.0313   1.0447   1.0648
     1.1146   1.1189   1.1285   1.1510   1.2008   1.2039   1.2204   1.2331
     1.3437   1.3735   1.3807   1.4061   1.4403   1.4877   1.5213   1.5769
     1.5776   1.6099   1.6146   1.6807   1.6934   1.7390   1.7458   1.7639
     1.7700   1.8235   1.8409   1.9034   1.9059   1.9447   1.9544   1.9677
     1.9909   2.0418   2.0830   2.1225   2.1252   2.1813   2.2300   2.2514
     2.2534   2.2750   2.3014   2.3094   2.3206   2.3780   2.3805   2.3839
     2.4183   2.4212   2.4814   2.4853   2.5400   2.5783   2.6067   2.6310
     2.6602   2.6655   2.6791   2.7087   2.7181   2.7370   2.7919   2.8234
     2.8715   2.9285   2.9910   3.0242   3.0411   3.1168   3.2967   3.4137
     3.7270   4.0086   4.2504   4.3280   4.6490   4.8312   5.4238   5.7030
     5.9164   6.2365   6.3992   6.5495   6.6976   6.7441   7.2921   7.3908
     7.4896   7.7103   7.8139   7.8166

          k = 0.0000 0.4619 0.0000 ( 43046 PWs)   bands (ev):

    -9.8006  -5.5009  -4.8811  -4.5524  -4.1693  -3.8387  -3.8344  -3.6890
    -3.4199  -3.3049  -3.2176  -3.2096  -3.1649  -3.0834  -3.0473  -2.9894
    -2.8778  -2.8637  -2.8337  -2.7626  -2.7357  -2.7281  -2.6753  -2.6611
    -2.6118  -2.6028  -2.5749  -2.5604  -2.4907  -2.4710  -2.2861  -2.2686
    -2.2475  -2.2278  -2.1570  -2.1222  -2.0380  -2.0201  -1.9920  -1.9880
    -1.9386  -1.8547  -1.8435  -1.7773  -1.7085  -1.6644  -1.6346  -1.6159
    -1.5542  -1.5494  -1.5137  -1.4894  -1.4836  -1.4572  -1.3507  -1.3170
    -1.3101  -1.2390  -1.1894  -1.1545  -1.1299  -1.1001  -1.0636  -1.0635
    -0.9397  -0.9148  -0.8697  -0.8298  -0.8261  -0.7810  -0.7474  -0.7349
    -0.6616  -0.6020  -0.5801  -0.5605  -0.5336  -0.5276  -0.4899  -0.4551
    -0.4431  -0.4205  -0.3918  -0.3799  -0.3712  -0.3493  -0.3419  -0.3173
    -0.2877  -0.2303  -0.2183  -0.1903  -0.1613  -0.1471  -0.1261  -0.1103
    -0.0523  -0.0007   0.0241   0.0395   0.0689   0.0953   0.1105   0.1356
     0.1665   0.2040   0.2430   0.2831   0.2964   0.3327   0.3841   0.4348
     0.4816   0.4997   0.5733   0.5835   0.5907   0.6256   0.6617   0.6859
     0.7001   0.7428   0.7640   0.7948   0.8072   0.8100   0.8363   0.8759
     0.8850   0.9362   0.9960   1.0060   1.0635   1.0917   1.1584   1.1628
     1.2211   1.2991   1.3090   1.3729   1.3780   1.4057   1.4925   1.4990
     1.5614   1.5783   1.6163   1.6248   1.6407   1.6758   1.6964   1.7047
     1.7371   1.8081   1.8137   1.8618   1.8859   1.9132   1.9451   1.9691
     2.0324   2.0729   2.1379   2.1519   2.1858   2.2377   2.2898   2.2921
     2.3287   2.3311   2.3540   2.3893   2.4451   2.4570   2.4713   2.5090
     2.5829   2.6074   2.6185   2.6317   2.6382   2.6667   2.6727   2.7011
     2.8258   2.8467   2.8793   2.8845   2.8943   2.9846   3.1175   3.2508
     3.2961   3.4021   3.6269   3.8955   3.9266   4.0783   4.1677   4.2026
     4.5648   4.6354   4.7789   4.9059   5.1787   5.2161   5.3147   5.3914
     5.4437   5.6043   5.7047   6.0935   6.1825   6.3537   6.5948   6.9915
     7.0547   7.4851   7.5729   7.7011

          k = 0.2000-0.1155 0.0000 ( 42996 PWs)   bands (ev):

    -9.8062  -5.9150  -4.7811  -4.3763  -4.1721  -3.8092  -3.7715  -3.5697
    -3.5211  -3.4654  -3.4414  -3.4035  -3.3028  -3.2611  -3.2016  -3.0656
    -3.0433  -3.0252  -2.9193  -2.8682  -2.7091  -2.6313  -2.5959  -2.5832
    -2.5141  -2.5091  -2.4873  -2.4248  -2.4010  -2.3611  -2.3384  -2.3216
    -2.2915  -2.2812  -2.2243  -2.2159  -2.1044  -2.0906  -2.0093  -1.9780
    -1.9556  -1.8085  -1.7472  -1.7300  -1.6900  -1.6788  -1.6518  -1.6381
    -1.5410  -1.5310  -1.5021  -1.4089  -1.4022  -1.3316  -1.3074  -1.2684
    -1.2226  -1.1960  -1.0231  -0.9514  -0.9433  -0.9139  -0.8931  -0.8564
    -0.8222  -0.8128  -0.7969  -0.7734  -0.7330  -0.6872  -0.6537  -0.6172
    -0.6117  -0.5874  -0.5533  -0.5231  -0.5048  -0.4775  -0.3951  -0.3842
    -0.3712  -0.3446  -0.3371  -0.3216  -0.2822  -0.2392  -0.2229  -0.1943
    -0.1672  -0.1510  -0.1490  -0.1270  -0.1126  -0.0890  -0.0478  -0.0328
    -0.0075  -0.0006   0.0157   0.0442   0.0609   0.1033   0.1238   0.1507
     0.1570   0.2111   0.2397   0.2532   0.2745   0.3050   0.3158   0.3333
     0.3392   0.4500   0.5149   0.5779   0.6757   0.7062   0.7334   0.7519
     0.7668   0.7889   0.8085   0.8720   0.9565   1.0217   1.0474   1.0568
     1.1007   1.1230   1.1336   1.1432   1.1917   1.2016   1.2237   1.2342
     1.3508   1.3756   1.3852   1.3980   1.4164   1.4904   1.5201   1.5629
     1.5755   1.5972   1.6273   1.6798   1.6911   1.7362   1.7448   1.7731
     1.7831   1.8327   1.8394   1.9026   1.9072   1.9460   1.9584   1.9748
     1.9951   2.0249   2.0957   2.1132   2.1244   2.1742   2.2079   2.2489
     2.2537   2.2725   2.2987   2.3078   2.3201   2.3735   2.3881   2.3897
     2.4142   2.4280   2.4651   2.4712   2.5494   2.5661   2.6086   2.6370
     2.6638   2.6770   2.6931   2.7243   2.7374   2.7595   2.7964   2.8251
     2.8705   2.9258   2.9919   3.0241   3.0537   3.1062   3.3034   3.4452
     3.7358   4.0175   4.2413   4.3108   4.6425   4.8266   5.4132   5.7179
     5.9492   6.2307   6.3939   6.5421   6.7086   6.7334   7.2985   7.3691
     7.4639   7.7132   7.7867   7.8373

          k = 0.2000 0.1155 0.0000 ( 42996 PWs)   bands (ev):

    -9.8062  -5.9150  -4.7811  -4.3763  -4.1721  -3.8092  -3.7715  -3.5697
    -3.5211  -3.4654  -3.4414  -3.4035  -3.3028  -3.2611  -3.2016  -3.0656
    -3.0433  -3.0252  -2.9193  -2.8682  -2.7091  -2.6313  -2.5959  -2.5832
    -2.5141  -2.5091  -2.4873  -2.4248  -2.4010  -2.3611  -2.3384  -2.3216
    -2.2915  -2.2812  -2.2243  -2.2159  -2.1044  -2.0906  -2.0093  -1.9780
    -1.9556  -1.8085  -1.7472  -1.7300  -1.6900  -1.6788  -1.6518  -1.6381
    -1.5410  -1.5310  -1.5021  -1.4089  -1.4022  -1.3316  -1.3074  -1.2684
    -1.2226  -1.1960  -1.0231  -0.9514  -0.9433  -0.9139  -0.8931  -0.8564
    -0.8221  -0.8128  -0.7969  -0.7734  -0.7330  -0.6872  -0.6537  -0.6172
    -0.6118  -0.5874  -0.5533  -0.5230  -0.5048  -0.4775  -0.3951  -0.3842
    -0.3712  -0.3446  -0.3371  -0.3216  -0.2822  -0.2392  -0.2229  -0.1943
    -0.1672  -0.1510  -0.1490  -0.1270  -0.1126  -0.0890  -0.0478  -0.0328
    -0.0075  -0.0006   0.0157   0.0442   0.0609   0.1033   0.1238   0.1507
     0.1570   0.2111   0.2397   0.2532   0.2745   0.3050   0.3158   0.3333
     0.3392   0.4500   0.5149   0.5779   0.6757   0.7062   0.7334   0.7519
     0.7668   0.7889   0.8085   0.8720   0.9565   1.0217   1.0474   1.0568
     1.1007   1.1230   1.1336   1.1432   1.1917   1.2016   1.2237   1.2342
     1.3508   1.3756   1.3852   1.3980   1.4164   1.4904   1.5201   1.5629
     1.5755   1.5972   1.6273   1.6798   1.6911   1.7362   1.7448   1.7731
     1.7831   1.8327   1.8394   1.9026   1.9072   1.9460   1.9584   1.9748
     1.9951   2.0249   2.0956   2.1132   2.1244   2.1742   2.2079   2.2489
     2.2537   2.2725   2.2987   2.3079   2.3201   2.3735   2.3881   2.3897
     2.4142   2.4280   2.4651   2.4712   2.5494   2.5661   2.6086   2.6370
     2.6638   2.6770   2.6931   2.7243   2.7374   2.7595   2.7964   2.8251
     2.8705   2.9258   2.9919   3.0241   3.0537   3.1061   3.3034   3.4452
     3.7358   4.0175   4.2413   4.3108   4.6425   4.8266   5.4132   5.7179
     5.9492   6.2307   6.3939   6.5421   6.7086   6.7334   7.2988   7.3691
     7.4639   7.7136   7.7866   7.8374

          k = 0.2000 0.3464 0.0000 ( 43046 PWs)   bands (ev):

    -9.8018  -5.6352  -4.6193  -4.4424  -4.4295  -4.1916  -3.5400  -3.4510
    -3.3448  -3.3305  -3.3119  -3.2889  -3.2509  -3.1777  -3.1601  -3.1035
    -3.0001  -2.9019  -2.7614  -2.7490  -2.7384  -2.7076  -2.6447  -2.6129
    -2.5494  -2.5416  -2.4940  -2.4514  -2.4297  -2.4074  -2.3750  -2.3303
    -2.3032  -2.2714  -2.2533  -2.2089  -2.1274  -2.0882  -1.9741  -1.8987
    -1.8685  -1.8072  -1.7778  -1.7488  -1.7156  -1.6841  -1.6633  -1.6087
    -1.5593  -1.5371  -1.5008  -1.4595  -1.4043  -1.3604  -1.3379  -1.2818
    -1.2663  -1.2221  -1.1973  -1.1795  -1.0631  -1.0524  -1.0043  -0.9750
    -0.9552  -0.8903  -0.8801  -0.8646  -0.8378  -0.7982  -0.7035  -0.6809
    -0.6529  -0.6370  -0.6132  -0.5931  -0.5454  -0.5195  -0.4698  -0.4463
    -0.3934  -0.3798  -0.3674  -0.3333  -0.3191  -0.2953  -0.2772  -0.2583
    -0.2477  -0.2169  -0.1961  -0.1597  -0.1163  -0.0909  -0.0686  -0.0526
    -0.0457  -0.0295   0.0025   0.0277   0.0500   0.0654   0.0775   0.0894
     0.1009   0.1086   0.1336   0.2174   0.2301   0.2863   0.3488   0.3733
     0.4012   0.4126   0.5102   0.5412   0.5787   0.6268   0.6395   0.7086
     0.7481   0.7619   0.7873   0.8241   0.8375   0.8786   0.9063   0.9175
     0.9702   0.9891   1.0598   1.1241   1.1314   1.1589   1.1843   1.2171
     1.2743   1.2867   1.3339   1.3515   1.3745   1.4502   1.4647   1.4905
     1.5108   1.5361   1.5901   1.6232   1.6525   1.6929   1.7101   1.7247
     1.7327   1.7534   1.7707   1.7848   1.8207   1.8823   1.9262   2.0128
     2.0394   2.0929   2.1589   2.2548   2.2673   2.2794   2.3061   2.3235
     2.3754   2.4086   2.4248   2.4477   2.4708   2.4774   2.4963   2.5148
     2.5317   2.5553   2.5812   2.6212   2.6496   2.6602   2.6936   2.7114
     2.7677   2.8251   2.8752   2.9225   2.9371   2.9547   2.9961   3.0333
     3.0937   3.1553   3.3396   3.5971   3.7000   3.8996   3.9682   4.1872
     4.2235   4.3388   4.7254   4.8229   5.0466   5.1269   5.1959   5.3573
     5.4747   6.0921   6.2083   6.4053   6.4958   6.6996   6.9155   7.1019
     7.1608   7.1762   7.3040   7.5474

          k = 0.2000-0.5774 0.0000 ( 43014 PWs)   bands (ev):

    -9.7991  -5.1293  -5.0937  -4.5479  -4.4467  -3.9813  -3.7854  -3.4468
    -3.3145  -3.2709  -3.1873  -3.1195  -3.0545  -3.0377  -2.9976  -2.9219
    -2.8813  -2.8409  -2.8342  -2.8017  -2.7823  -2.7401  -2.7153  -2.6571
    -2.6117  -2.5946  -2.5715  -2.5564  -2.4967  -2.4760  -2.3649  -2.3192
    -2.2899  -2.2352  -2.2068  -2.1784  -2.1697  -2.0495  -1.9947  -1.9672
    -1.8919  -1.8753  -1.7781  -1.7624  -1.7314  -1.6647  -1.6341  -1.5663
    -1.5287  -1.4621  -1.4334  -1.3998  -1.3845  -1.3572  -1.3361  -1.2855
    -1.2794  -1.2133  -1.2097  -1.1813  -1.1574  -1.1290  -1.1086  -1.0940
    -1.0546  -1.0158  -0.9712  -0.9152  -0.8917  -0.8663  -0.7666  -0.7498
    -0.7095  -0.6831  -0.6625  -0.6581  -0.6193  -0.5928  -0.5385  -0.5348
    -0.5221  -0.4852  -0.4539  -0.4075  -0.3652  -0.3223  -0.2996  -0.2836
    -0.2720  -0.1819  -0.1688  -0.1560  -0.1356  -0.0955  -0.0786  -0.0400
    -0.0223  -0.0117   0.0123   0.0284   0.0478   0.0518   0.0942   0.0988
     0.1275   0.1391   0.1498   0.1668   0.1944   0.2028   0.2403   0.4050
     0.4340   0.4749   0.4964   0.5406   0.6000   0.6144   0.6487   0.6704
     0.6923   0.7281   0.7415   0.7706   0.7972   0.8168   0.8527   0.8947
     0.9383   0.9936   1.0072   1.0140   1.0784   1.1029   1.1834   1.2159
     1.2480   1.2642   1.3136   1.3529   1.3614   1.3952   1.4188   1.4312
     1.4612   1.4840   1.5461   1.5649   1.5906   1.5921   1.6413   1.6707
     1.7115   1.7243   1.7811   1.8344   1.9226   1.9501   2.0086   2.0644
     2.1081   2.1207   2.1756   2.1893   2.2535   2.2620   2.3109   2.3613
     2.3974   2.4238   2.4482   2.4765   2.4892   2.5273   2.5403   2.6008
     2.6118   2.6236   2.6408   2.6846   2.6923   2.7081   2.7671   2.7957
     2.8384   2.8797   2.9012   2.9028   2.9582   2.9810   3.0395   3.1473
     3.5704   3.8302   3.9587   4.0789   4.1494   4.3118   4.3768   4.4071
     4.5790   4.7771   4.9110   5.0986   5.1968   5.2122   5.5588   5.5638
     5.7333   5.8115   5.8930   5.9702   6.1053   6.2413   6.4059   6.4806
     6.7702   7.0547   7.1599   7.2381

          k = 0.2000-0.3464 0.0000 ( 43046 PWs)   bands (ev):

    -9.8018  -5.6352  -4.6193  -4.4424  -4.4295  -4.1916  -3.5400  -3.4511
    -3.3449  -3.3305  -3.3119  -3.2889  -3.2509  -3.1777  -3.1601  -3.1035
    -3.0001  -2.9019  -2.7614  -2.7490  -2.7384  -2.7076  -2.6447  -2.6129
    -2.5494  -2.5416  -2.4940  -2.4514  -2.4297  -2.4074  -2.3750  -2.3303
    -2.3032  -2.2714  -2.2533  -2.2089  -2.1274  -2.0882  -1.9741  -1.8988
    -1.8685  -1.8072  -1.7778  -1.7488  -1.7156  -1.6841  -1.6633  -1.6087
    -1.5593  -1.5371  -1.5007  -1.4595  -1.4043  -1.3604  -1.3379  -1.2818
    -1.2662  -1.2221  -1.1973  -1.1795  -1.0631  -1.0524  -1.0043  -0.9750
    -0.9552  -0.8903  -0.8801  -0.8646  -0.8378  -0.7982  -0.7035  -0.6809
    -0.6529  -0.6370  -0.6132  -0.5931  -0.5454  -0.5195  -0.4698  -0.4463
    -0.3934  -0.3797  -0.3674  -0.3333  -0.3191  -0.2953  -0.2772  -0.2583
    -0.2477  -0.2169  -0.1961  -0.1597  -0.1163  -0.0909  -0.0686  -0.0526
    -0.0457  -0.0295   0.0025   0.0277   0.0500   0.0654   0.0775   0.0894
     0.1009   0.1086   0.1336   0.2174   0.2301   0.2863   0.3488   0.3733
     0.4012   0.4126   0.5102   0.5412   0.5787   0.6268   0.6395   0.7086
     0.7481   0.7619   0.7873   0.8241   0.8375   0.8786   0.9063   0.9175
     0.9702   0.9891   1.0598   1.1241   1.1314   1.1589   1.1843   1.2171
     1.2743   1.2867   1.3339   1.3514   1.3745   1.4502   1.4647   1.4905
     1.5108   1.5361   1.5901   1.6232   1.6525   1.6929   1.7101   1.7247
     1.7327   1.7534   1.7707   1.7849   1.8207   1.8823   1.9262   2.0128
     2.0394   2.0929   2.1589   2.2548   2.2673   2.2794   2.3061   2.3235
     2.3754   2.4086   2.4248   2.4476   2.4708   2.4774   2.4963   2.5148
     2.5317   2.5553   2.5812   2.6212   2.6496   2.6602   2.6936   2.7114
     2.7677   2.8250   2.8752   2.9225   2.9371   2.9547   2.9961   3.0333
     3.0937   3.1553   3.3396   3.5971   3.7000   3.8996   3.9682   4.1872
     4.2235   4.3388   4.7254   4.8229   5.0466   5.1269   5.1959   5.3574
     5.4747   6.0920   6.2083   6.4054   6.4958   6.6996   6.9155   7.1019
     7.1608   7.1762   7.3040   7.5466

          k = 0.4000-0.2309 0.0000 ( 43046 PWs)   bands (ev):

    -9.8011  -5.5013  -4.8818  -4.5491  -4.1700  -3.8398  -3.8224  -3.6908
    -3.4456  -3.3137  -3.2420  -3.2145  -3.1689  -3.0702  -3.0402  -2.9921
    -2.8802  -2.8720  -2.8340  -2.7799  -2.7387  -2.7273  -2.6673  -2.6544
    -2.6237  -2.6108  -2.5695  -2.5605  -2.4890  -2.4652  -2.2746  -2.2605
    -2.2367  -2.2245  -2.1526  -2.1141  -2.0249  -2.0102  -1.9916  -1.9735
    -1.9036  -1.8424  -1.8260  -1.7650  -1.7113  -1.6718  -1.6428  -1.6108
    -1.5766  -1.5546  -1.5134  -1.4991  -1.4704  -1.4525  -1.3401  -1.3079
    -1.2979  -1.2417  -1.1975  -1.1396  -1.0868  -1.0773  -1.0596  -1.0522
    -0.9293  -0.9027  -0.8895  -0.8519  -0.8370  -0.7743  -0.7618  -0.7437
    -0.6718  -0.6374  -0.6140  -0.5753  -0.5309  -0.5292  -0.4745  -0.4552
    -0.4345  -0.4074  -0.3904  -0.3659  -0.3595  -0.3421  -0.3374  -0.3128
    -0.2937  -0.2482  -0.2043  -0.1882  -0.1743  -0.1415  -0.1185  -0.0913
    -0.0585  -0.0258   0.0101   0.0304   0.0628   0.0716   0.0895   0.1299
     0.1543   0.1883   0.2394   0.2878   0.3011   0.3245   0.3631   0.4163
     0.4544   0.5191   0.5661   0.5785   0.5879   0.6335   0.6816   0.6965
     0.7179   0.7386   0.7735   0.7949   0.8056   0.8323   0.8400   0.8447
     0.8739   0.9413   0.9894   0.9968   1.0495   1.0757   1.1421   1.1665
     1.2071   1.2791   1.2899   1.3576   1.3845   1.4319   1.4875   1.5094
     1.5559   1.5759   1.6124   1.6375   1.6531   1.6651   1.7103   1.7165
     1.7362   1.8100   1.8242   1.8655   1.8899   1.9103   1.9159   1.9668
     2.0281   2.0683   2.1218   2.1541   2.1858   2.2303   2.2881   2.2928
     2.3196   2.3279   2.3506   2.3887   2.4338   2.4461   2.4634   2.4978
     2.5863   2.5990   2.6228   2.6312   2.6469   2.6605   2.7028   2.7237
     2.8424   2.8719   2.8840   2.8980   2.9171   2.9922   3.1168   3.2082
     3.3134   3.4431   3.6173   3.9085   3.9207   4.0675   4.1877   4.2146
     4.5706   4.6468   4.7955   4.9324   5.1796   5.2254   5.3303   5.3743
     5.4307   5.6170   5.7250   6.0959   6.1759   6.3776   6.5661   6.9783
     7.0241   7.4815   7.5793   7.6996

          k = 0.4000-0.0000 0.0000 ( 43046 PWs)   bands (ev):

    -9.8021  -5.6355  -4.6150  -4.4421  -4.4333  -4.1937  -3.5379  -3.4578
    -3.3508  -3.3391  -3.3071  -3.2920  -3.2338  -3.1815  -3.1529  -3.1191
    -3.0063  -2.9034  -2.7817  -2.7447  -2.7371  -2.7141  -2.6426  -2.6221
    -2.5506  -2.5382  -2.4754  -2.4495  -2.4327  -2.3832  -2.3681  -2.3252
    -2.3110  -2.2693  -2.2615  -2.2118  -2.1510  -2.0889  -1.9239  -1.8935
    -1.8612  -1.8087  -1.7814  -1.7490  -1.7065  -1.6838  -1.6616  -1.6018
    -1.5519  -1.5423  -1.4982  -1.4503  -1.4015  -1.3702  -1.3407  -1.2852
    -1.2738  -1.2169  -1.1988  -1.1804  -1.0499  -1.0359  -0.9896  -0.9536
    -0.9146  -0.8951  -0.8810  -0.8548  -0.8277  -0.7976  -0.7067  -0.6793
    -0.6718  -0.6526  -0.6378  -0.6209  -0.5368  -0.5102  -0.4840  -0.4654
    -0.3869  -0.3583  -0.3504  -0.3372  -0.3212  -0.3091  -0.2862  -0.2598
    -0.2406  -0.2291  -0.2209  -0.1818  -0.1156  -0.1037  -0.0710  -0.0627
    -0.0458  -0.0129   0.0031   0.0212   0.0477   0.0547   0.0785   0.0996
     0.1075   0.1278   0.1382   0.2235   0.2365   0.2914   0.3378   0.3655
     0.3730   0.4126   0.5061   0.5140   0.5819   0.6294   0.6464   0.7185
     0.7366   0.7416   0.7755   0.8258   0.8492   0.8795   0.9024   0.9097
     0.9733   1.0365   1.0617   1.1011   1.1204   1.1514   1.1747   1.2069
     1.2543   1.2921   1.3221   1.3531   1.3723   1.4483   1.4630   1.4772
     1.4996   1.5249   1.6027   1.6363   1.6561   1.6976   1.7113   1.7343
     1.7499   1.7584   1.7757   1.7984   1.8229   1.8836   1.9217   2.0105
     2.0321   2.0795   2.1589   2.2597   2.2617   2.2714   2.3053   2.3187
     2.3676   2.4172   2.4336   2.4385   2.4617   2.4768   2.4869   2.5103
     2.5200   2.5519   2.5922   2.6206   2.6419   2.6715   2.6869   2.7088
     2.7598   2.8393   2.8971   2.9341   2.9639   2.9737   3.0132   3.0298
     3.0914   3.1482   3.3477   3.5923   3.6805   3.8816   3.9852   4.2063
     4.2338   4.3879   4.7229   4.8104   5.0448   5.1299   5.1908   5.3679
     5.4769   6.0695   6.2525   6.4075   6.5236   6.6899   6.8905   7.0875
     7.1545   7.1729   7.3007   7.5461

          k = 0.4000 0.2309 0.0000 ( 43046 PWs)   bands (ev):

    -9.8011  -5.5013  -4.8818  -4.5491  -4.1700  -3.8398  -3.8224  -3.6908
    -3.4456  -3.3137  -3.2420  -3.2145  -3.1689  -3.0702  -3.0402  -2.9921
    -2.8802  -2.8720  -2.8340  -2.7799  -2.7387  -2.7274  -2.6673  -2.6544
    -2.6237  -2.6108  -2.5695  -2.5605  -2.4890  -2.4652  -2.2746  -2.2605
    -2.2367  -2.2245  -2.1526  -2.1141  -2.0250  -2.0102  -1.9916  -1.9735
    -1.9036  -1.8424  -1.8260  -1.7650  -1.7113  -1.6718  -1.6428  -1.6108
    -1.5766  -1.5546  -1.5134  -1.4991  -1.4704  -1.4525  -1.3401  -1.3079
    -1.2979  -1.2417  -1.1975  -1.1396  -1.0868  -1.0773  -1.0596  -1.0522
    -0.9292  -0.9027  -0.8895  -0.8519  -0.8370  -0.7743  -0.7618  -0.7437
    -0.6718  -0.6374  -0.6140  -0.5753  -0.5309  -0.5293  -0.4745  -0.4552
    -0.4345  -0.4074  -0.3904  -0.3659  -0.3596  -0.3421  -0.3374  -0.3128
    -0.2937  -0.2482  -0.2043  -0.1882  -0.1743  -0.1415  -0.1185  -0.0913
    -0.0585  -0.0258   0.0101   0.0304   0.0628   0.0716   0.0895   0.1299
     0.1543   0.1883   0.2394   0.2878   0.3011   0.3245   0.3631   0.4163
     0.4544   0.5191   0.5661   0.5785   0.5879   0.6335   0.6816   0.6965
     0.7179   0.7386   0.7735   0.7949   0.8056   0.8323   0.8400   0.8447
     0.8739   0.9412   0.9894   0.9968   1.0495   1.0757   1.1421   1.1665
     1.2071   1.2791   1.2899   1.3576   1.3845   1.4319   1.4875   1.5095
     1.5559   1.5759   1.6124   1.6375   1.6531   1.6651   1.7103   1.7165
     1.7362   1.8100   1.8242   1.8655   1.8899   1.9103   1.9159   1.9668
     2.0281   2.0683   2.1218   2.1541   2.1858   2.2303   2.2881   2.2928
     2.3196   2.3279   2.3506   2.3887   2.4338   2.4461   2.4634   2.4978
     2.5863   2.5990   2.6228   2.6312   2.6469   2.6605   2.7028   2.7237
     2.8424   2.8719   2.8840   2.8980   2.9171   2.9922   3.1168   3.2082
     3.3134   3.4431   3.6173   3.9085   3.9207   4.0675   4.1877   4.2146
     4.5706   4.6468   4.7955   4.9324   5.1796   5.2253   5.3303   5.3743
     5.4308   5.6170   5.7250   6.0959   6.1759   6.3776   6.5661   6.9783
     7.0242   7.4815   7.5794   7.6996

          k = 0.4000-0.6928 0.0000 ( 43014 PWs)   bands (ev):

    -9.7994  -5.1294  -5.0948  -4.5511  -4.4377  -3.9786  -3.7912  -3.4530
    -3.3379  -3.2717  -3.1866  -3.1212  -3.0562  -3.0359  -2.9925  -2.9306
    -2.8861  -2.8399  -2.8345  -2.8006  -2.7650  -2.7358  -2.7225  -2.6719
    -2.6109  -2.5990  -2.5927  -2.5557  -2.4919  -2.4697  -2.3581  -2.3119
    -2.2835  -2.2295  -2.1955  -2.1736  -2.1591  -2.0299  -1.9900  -1.9596
    -1.8782  -1.8574  -1.7972  -1.7601  -1.7375  -1.6620  -1.6145  -1.5835
    -1.5381  -1.4816  -1.4412  -1.4175  -1.3830  -1.3446  -1.2946  -1.2808
    -1.2566  -1.2126  -1.2052  -1.1669  -1.1529  -1.1325  -1.1067  -1.0827
    -1.0522  -1.0284  -0.9666  -0.9210  -0.8911  -0.8485  -0.7830  -0.7385
    -0.7294  -0.7072  -0.6664  -0.6627  -0.6286  -0.5929  -0.5415  -0.5306
    -0.5135  -0.4848  -0.4488  -0.4193  -0.3438  -0.3145  -0.3032  -0.2916
    -0.2736  -0.2187  -0.1806  -0.1470  -0.1126  -0.0943  -0.0699  -0.0527
    -0.0346  -0.0232  -0.0019   0.0100   0.0391   0.0736   0.0855   0.1137
     0.1237   0.1339   0.1494   0.1606   0.1848   0.2148   0.2476   0.3768
     0.4289   0.4678   0.4854   0.5381   0.5952   0.6365   0.6527   0.6750
     0.6940   0.7211   0.7469   0.7729   0.7892   0.8243   0.8580   0.8994
     0.9154   0.9864   1.0050   1.0185   1.0678   1.0838   1.1793   1.2289
     1.2401   1.2758   1.3182   1.3431   1.3759   1.3910   1.4203   1.4330
     1.4637   1.4798   1.5491   1.5664   1.5954   1.5994   1.6501   1.6633
     1.7023   1.7147   1.7697   1.8294   1.9212   1.9468   2.0064   2.0667
     2.1101   2.1305   2.1751   2.1898   2.2524   2.2638   2.3122   2.3525
     2.3905   2.4163   2.4464   2.4642   2.4813   2.5346   2.5511   2.5970
     2.6149   2.6212   2.6432   2.6747   2.6874   2.7022   2.7628   2.7887
     2.8444   2.8909   2.9086   2.9329   2.9712   3.0087   3.0375   3.1478
     3.5750   3.8008   3.9877   4.0777   4.1580   4.3216   4.3707   4.3801
     4.5880   4.7692   4.9325   5.1082   5.2072   5.2386   5.5536   5.5748
     5.7759   5.8087   5.9257   5.9686   6.0787   6.2250   6.4267   6.4615
     6.7661   7.0580   7.1356   7.2021

          k = 0.4000-0.4619 0.0000 ( 43014 PWs)   bands (ev):

    -9.7994  -5.1294  -5.0948  -4.5511  -4.4377  -3.9786  -3.7912  -3.4531
    -3.3379  -3.2717  -3.1866  -3.1212  -3.0562  -3.0359  -2.9925  -2.9306
    -2.8861  -2.8399  -2.8345  -2.8006  -2.7650  -2.7358  -2.7225  -2.6720
    -2.6109  -2.5990  -2.5927  -2.5557  -2.4919  -2.4697  -2.3581  -2.3119
    -2.2835  -2.2295  -2.1955  -2.1736  -2.1591  -2.0299  -1.9900  -1.9596
    -1.8782  -1.8574  -1.7972  -1.7601  -1.7375  -1.6620  -1.6145  -1.5835
    -1.5381  -1.4816  -1.4412  -1.4175  -1.3830  -1.3446  -1.2946  -1.2808
    -1.2565  -1.2126  -1.2052  -1.1670  -1.1529  -1.1325  -1.1067  -1.0827
    -1.0522  -1.0285  -0.9666  -0.9210  -0.8911  -0.8485  -0.7830  -0.7385
    -0.7294  -0.7072  -0.6664  -0.6627  -0.6286  -0.5928  -0.5415  -0.5306
    -0.5135  -0.4848  -0.4488  -0.4193  -0.3438  -0.3145  -0.3032  -0.2916
    -0.2736  -0.2187  -0.1806  -0.1470  -0.1126  -0.0943  -0.0699  -0.0527
    -0.0346  -0.0232  -0.0019   0.0099   0.0391   0.0736   0.0855   0.1137
     0.1237   0.1339   0.1494   0.1606   0.1848   0.2148   0.2476   0.3767
     0.4289   0.4678   0.4854   0.5381   0.5952   0.6365   0.6527   0.6750
     0.6940   0.7211   0.7469   0.7729   0.7892   0.8243   0.8580   0.8994
     0.9154   0.9864   1.0050   1.0185   1.0678   1.0838   1.1793   1.2289
     1.2401   1.2758   1.3182   1.3431   1.3759   1.3910   1.4203   1.4330
     1.4637   1.4798   1.5491   1.5664   1.5954   1.5994   1.6501   1.6633
     1.7023   1.7147   1.7697   1.8294   1.9212   1.9468   2.0064   2.0667
     2.1101   2.1305   2.1751   2.1898   2.2524   2.2638   2.3122   2.3525
     2.3905   2.4163   2.4464   2.4641   2.4813   2.5346   2.5511   2.5970
     2.6149   2.6212   2.6432   2.6747   2.6874   2.7022   2.7628   2.7887
     2.8444   2.8909   2.9086   2.9329   2.9712   3.0087   3.0375   3.1478
     3.5750   3.8008   3.9878   4.0777   4.1580   4.3216   4.3707   4.3801
     4.5880   4.7693   4.9325   5.1082   5.2072   5.2386   5.5536   5.5748
     5.7759   5.8087   5.9258   5.9686   6.0787   6.2250   6.4267   6.4614
     6.7661   7.0580   7.1355   7.2021

     the Fermi energy is     2.6727 ev

!    total energy              =  -27774.47939409 Ry
     total all-electron energy =  -1326719.008908 Ry
     estimated scf accuracy    <          3.6E-09 Ry
     smearing contrib. (-TS)   =      -0.00003674 Ry
     internal energy E=F+TS    =  -27774.47935734 Ry

     The total energy is F=E-TS. E is the sum of the following terms:
     one-electron contribution =  -20673.44400236 Ry
     hartree contribution      =   10647.55606524 Ry
     xc contribution           =    -895.51952709 Ry
     ewald contribution        =    8627.47812952 Ry
     one-center paw contrib.   =  -25480.55002265 Ry

     convergence has been achieved in  23 iterations

     negative rho (up, down):  3.139E-03 0.000E+00

     Forces acting on atoms (cartesian axes, Ry/au):

     atom    1 type  1   force =     0.00016436   -0.00071691   -0.00339105
     atom    2 type  1   force =    -0.00016349   -0.00071896   -0.00339257
     atom    3 type  1   force =    -0.00000106   -0.00061042   -0.00623536
     atom    4 type  1   force =    -0.00000174   -0.00070921   -0.00450833
     atom    5 type  1   force =     0.00069272   -0.00076946   -0.00640965
     atom    6 type  1   force =    -0.00069097   -0.00076857   -0.00640785
     atom    7 type  1   force =    -0.00017150   -0.00092356   -0.00672974
     atom    8 type  1   force =     0.00000168   -0.00166571   -0.00628765
     atom    9 type  1   force =     0.00016960   -0.00092374   -0.00672874
     atom   10 type  1   force =    -0.00000244    0.00082948    0.01464398
     atom   11 type  1   force =     0.00045590   -0.00040033    0.00525932
     atom   12 type  1   force =    -0.00045468   -0.00039823    0.00525723
     atom   13 type  1   force =    -0.00077456    0.00175105    0.00386674
     atom   14 type  1   force =     0.00000293    0.00108711    0.00270285
     atom   15 type  1   force =     0.00077206    0.00175006    0.00386345
     atom   16 type  1   force =    -0.00070233    0.00331796    0.00549328
     atom   17 type  1   force =     0.00070347    0.00331485    0.00549260
     atom   18 type  1   force =    -0.00000127    0.00400813   -0.00603548
     atom   19 type  1   force =     0.00003876    0.00040905    0.00025521
     atom   20 type  1   force =    -0.00003221    0.00040795    0.00026273
     atom   21 type  1   force =    -0.00000760    0.00049252    0.00013630
     atom   22 type  1   force =     0.00000834   -0.00030437    0.00068689
     atom   23 type  1   force =    -0.00001170    0.00036655    0.00010824
     atom   24 type  1   force =    -0.00000001    0.00036925    0.00010970
     atom   25 type  1   force =    -0.00010002    0.00021784   -0.00010743
     atom   26 type  1   force =     0.00000200    0.00034078   -0.00013261
     atom   27 type  1   force =     0.00010141    0.00023049   -0.00010518
     atom   28 type  1   force =    -0.00000183    0.00015348   -0.00028790
     atom   29 type  1   force =     0.00000522    0.00015206   -0.00029047
     atom   30 type  1   force =    -0.00000487    0.00052160    0.00001811
     atom   31 type  1   force =    -0.00000000   -0.00096292    0.00239996
     atom   32 type  1   force =    -0.00003322    0.00048109    0.00028936
     atom   33 type  1   force =     0.00003149    0.00048617    0.00029333
     atom   34 type  1   force =    -0.00027286    0.00005041    0.00003950
     atom   35 type  1   force =     0.00000457    0.00048188    0.00012231
     atom   36 type  1   force =     0.00026994    0.00005279    0.00004330
     atom   37 type  2   force =     0.00000436   -0.00167336    0.00168290
     atom   38 type  3   force =    -0.00000044   -0.00972684    0.00402272
     The non-local contrib.  to forces
     atom    1 type  1   force =     0.00024458    0.00029165   -0.01772585
     atom    2 type  1   force =    -0.00024424    0.00028978   -0.01772598
     atom    3 type  1   force =    -0.00000089   -0.00075388   -0.02065928
     atom    4 type  1   force =    -0.00000176   -0.00029657   -0.01825837
     atom    5 type  1   force =     0.00083462   -0.00008301   -0.01842174
     atom    6 type  1   force =    -0.00083305   -0.00008192   -0.01841995
     atom    7 type  1   force =    -0.00149051    0.00133032   -0.02103346
     atom    8 type  1   force =     0.00000170   -0.00016485   -0.01840775
     atom    9 type  1   force =     0.00148805    0.00132987   -0.02103249
     atom   10 type  1   force =    -0.00000258    0.00179395    0.00268295
     atom   11 type  1   force =    -0.00047791    0.00389467   -0.00062860
     atom   12 type  1   force =     0.00047929    0.00389771   -0.00062773
     atom   13 type  1   force =     0.00145050   -0.00034847   -0.00067701
     atom   14 type  1   force =     0.00000402    0.00156349   -0.00268405
     atom   15 type  1   force =    -0.00145450   -0.00034917   -0.00067666
     atom   16 type  1   force =     0.00231961    0.00229871    0.00013019
     atom   17 type  1   force =    -0.00231802    0.00229484    0.00013053
     atom   18 type  1   force =    -0.00000198    0.00297022    0.00491227
     atom   19 type  1   force =    -0.00102681    0.00190416    0.01330344
     atom   20 type  1   force =     0.00102914    0.00190250    0.01331003
     atom   21 type  1   force =    -0.00000284    0.00448608    0.00626302
     atom   22 type  1   force =     0.00000455    0.00246028    0.00227240
     atom   23 type  1   force =     0.00296500   -0.00166648    0.00620800
     atom   24 type  1   force =    -0.00297279   -0.00166638    0.00620849
     atom   25 type  1   force =    -0.00659706   -0.00276516   -0.00289723
     atom   26 type  1   force =     0.00000103   -0.00113595    0.01182614
     atom   27 type  1   force =     0.00659925   -0.00275885   -0.00289626
     atom   28 type  1   force =     0.03476073    0.01774325   -0.03443399
     atom   29 type  1   force =    -0.03475682    0.01773962   -0.03443067
     atom   30 type  1   force =    -0.00000232   -0.00087710    0.01464329
     atom   31 type  1   force =    -0.00000149   -0.05004565   -0.02394487
     atom   32 type  1   force =    -0.01448020   -0.00764924    0.01755428
     atom   33 type  1   force =     0.01448161   -0.00764700    0.01755455
     atom   34 type  1   force =    -0.00144749   -0.00448751    0.01594209
     atom   35 type  1   force =     0.00000401    0.01031151    0.01695417
     atom   36 type  1   force =     0.00144579   -0.00448757    0.01594390
     atom   37 type  2   force =     0.00000815    0.00366006   -0.09769209
     atom   38 type  3   force =    -0.00000002   -0.01184027   -0.07923341
     The ionic contribution  to forces
     atom    1 type  1   force =     0.00903763   -0.00074805  -93.82718793
     atom    2 type  1   force =    -0.00903073   -0.00073245  -93.82717544
     atom    3 type  1   force =    -0.00000697   -0.01234600  -93.84345654
     atom    4 type  1   force =     0.00001651   -0.01362224  -93.84122633
     atom    5 type  1   force =    -0.01384179   -0.01060640  -93.86677119
     atom    6 type  1   force =     0.01382524   -0.01060954  -93.86680527
     atom    7 type  1   force =    -0.00487592    0.01223881  -93.85019920
     atom    8 type  1   force =    -0.00001133    0.02470578  -93.85739974
     atom    9 type  1   force =     0.00488730    0.01225299  -93.85022554
     atom   10 type  1   force =     0.00004412   -0.04163692  -32.29805109
     atom   11 type  1   force =    -0.10175445   -0.06732779  -32.43554778
     atom   12 type  1   force =     0.10171012   -0.06738735  -32.43579633
     atom   13 type  1   force =    -0.06846270   -0.05985896  -32.45915091
     atom   14 type  1   force =    -0.00011208    0.03626749  -32.60603054
     atom   15 type  1   force =     0.06857697   -0.05993655  -32.45941939
     atom   16 type  1   force =     0.03609436    0.17787596  -32.38378936
     atom   17 type  1   force =    -0.03618095    0.17800288  -32.38384832
     atom   18 type  1   force =     0.00006652    0.11850071  -32.31017670
     atom   19 type  1   force =     0.10850025   -0.14292861   29.80932437
     atom   20 type  1   force =    -0.10794357   -0.14284705   29.80923515
     atom   21 type  1   force =    -0.00054432   -0.17846188   28.91003090
     atom   22 type  1   force =     0.00055727    0.11488913   29.11614795
     atom   23 type  1   force =    -0.12318861    0.12641117   28.91664395
     atom   24 type  1   force =     0.12259100    0.12668235   28.91660791
     atom   25 type  1   force =    -0.05517485   -0.02116064   29.71162292
     atom   26 type  1   force =     0.00014816    0.14927036   30.20883230
     atom   27 type  1   force =     0.05507221   -0.02036728   29.71190762
     atom   28 type  1   force =    -3.21612521   -2.02703689   90.47571704
     atom   29 type  1   force =     3.21653372   -2.02700779   90.47586009
     atom   30 type  1   force =    -0.00040332   -0.18422733   90.97874186
     atom   31 type  1   force =     0.00024488    3.50452250   88.84660641
     atom   32 type  1   force =     0.39441573    0.23924952   90.51587515
     atom   33 type  1   force =    -0.39467924    0.23955726   90.51598498
     atom   34 type  1   force =    -0.09693949    0.09608501   90.91283267
     atom   35 type  1   force =     0.00016606   -0.40242819   90.66668490
     atom   36 type  1   force =     0.09679070    0.09646484   90.91313592
     atom   37 type  2   force =    -0.00000082   -0.03688497   44.57004095
     atom   38 type  3   force =    -0.00000240    0.27518611   12.42042458
     The local contribution  to forces
     atom    1 type  1   force =    -0.00907352   -0.00026138   93.82436293
     atom    2 type  1   force =     0.00906487   -0.00026720   93.82435191
     atom    3 type  1   force =     0.00000894    0.01233642   93.84072435
     atom    4 type  1   force =    -0.00000887    0.01307503   93.83786846
     atom    5 type  1   force =     0.01356623    0.00984948   93.86183588
     atom    6 type  1   force =    -0.01355709    0.00984554   93.86186513
     atom    7 type  1   force =     0.00611682   -0.01449129   93.84736534
     atom    8 type  1   force =     0.00000174   -0.02611587   93.85256617
     atom    9 type  1   force =    -0.00611813   -0.01450193   93.84738926
     atom   10 type  1   force =    -0.00003840    0.04062219   32.31014079
     atom   11 type  1   force =     0.10237334    0.06289584   32.44107879
     atom   12 type  1   force =    -0.10233439    0.06294635   32.44131944
     atom   13 type  1   force =     0.06601219    0.06191873   32.46323711
     atom   14 type  1   force =     0.00009938   -0.03663746   32.61048775
     atom   15 type  1   force =    -0.06611316    0.06199216   32.46350029
     atom   16 type  1   force =    -0.03906494   -0.17634089   32.38893920
     atom   17 type  1   force =     0.03914387   -0.17645434   32.38900074
     atom   18 type  1   force =    -0.00005884   -0.11695356   32.29921374
     atom   19 type  1   force =    -0.10676902    0.14112046  -29.81952264
     atom   20 type  1   force =     0.10622769    0.14104473  -29.81943542
     atom   21 type  1   force =     0.00052859    0.17424156  -28.91483930
     atom   22 type  1   force =    -0.00054211   -0.11766381  -29.11523438
     atom   23 type  1   force =     0.11986011   -0.12416096  -28.92142454
     atom   24 type  1   force =    -0.11927803   -0.12442270  -28.92138212
     atom   25 type  1   force =     0.06155289    0.02413267  -29.70665288
     atom   26 type  1   force =    -0.00014560   -0.14702200  -30.21828306
     atom   27 type  1   force =    -0.06145218    0.02335912  -29.70693520
     atom   28 type  1   force =     3.16714887    2.00059889  -90.43682053
     atom   29 type  1   force =    -3.16755431    2.00057485  -90.43697260
     atom   30 type  1   force =     0.00039670    0.18581478  -90.97753746
     atom   31 type  1   force =    -0.00023840   -3.43976450  -88.81726607
     atom   32 type  1   force =    -0.38194963   -0.23211770  -90.51694190
     atom   33 type  1   force =     0.38220490   -0.23242233  -90.51704128
     atom   34 type  1   force =     0.09832044   -0.09147453  -90.91289045
     atom   35 type  1   force =    -0.00016744    0.39476434  -90.66732048
     atom   36 type  1   force =    -0.09817111   -0.09184561  -90.91318846
     atom   37 type  2   force =    -0.00000248    0.03139717  -44.47352552
     atom   38 type  3   force =     0.00000208   -0.27306851  -12.33716801
     The core correction contribution to forces
     atom    1 type  1   force =    -0.00003279    0.00000262    0.01721009
     atom    2 type  1   force =     0.00003279    0.00000259    0.01721016
     atom    3 type  1   force =    -0.00000002    0.00016533    0.01720897
     atom    4 type  1   force =    -0.00000002    0.00012815    0.01715742
     atom    5 type  1   force =     0.00013037    0.00008218    0.01700479
     atom    6 type  1   force =    -0.00013037    0.00008223    0.01700478
     atom    7 type  1   force =     0.00009420   -0.00000434    0.01718713
     atom    8 type  1   force =     0.00000004   -0.00008618    0.01700622
     atom    9 type  1   force =    -0.00009423   -0.00000436    0.01718713
     atom   10 type  1   force =     0.00000008    0.00004924   -0.00008277
     atom   11 type  1   force =     0.00031003    0.00015136    0.00041372
     atom   12 type  1   force =    -0.00031010    0.00015132    0.00041427
     atom   13 type  1   force =     0.00024024    0.00003720    0.00050628
     atom   14 type  1   force =     0.00000008   -0.00010266    0.00097807
     atom   15 type  1   force =    -0.00024033    0.00003757    0.00050667
     atom   16 type  1   force =    -0.00004403   -0.00051602    0.00026352
     atom   17 type  1   force =     0.00004425   -0.00051614    0.00026358
     atom   18 type  1   force =    -0.00000011   -0.00049887    0.00007481
     atom   19 type  1   force =    -0.00066518    0.00030698   -0.00283863
     atom   20 type  1   force =     0.00066370    0.00030680   -0.00283950
     atom   21 type  1   force =     0.00000142    0.00023060   -0.00130636
     atom   22 type  1   force =    -0.00000181    0.00002070   -0.00248342
     atom   23 type  1   force =     0.00035708   -0.00021326   -0.00130727
     atom   24 type  1   force =    -0.00035510   -0.00021377   -0.00130758
     atom   25 type  1   force =     0.00011889    0.00001293   -0.00216627
     atom   26 type  1   force =    -0.00000029   -0.00077146   -0.00249575
     atom   27 type  1   force =    -0.00011891    0.00001042   -0.00216657
     atom   28 type  1   force =     0.01421879    0.00884935   -0.00474788
     atom   29 type  1   force =    -0.01421971    0.00884926   -0.00474806
     atom   30 type  1   force =     0.00000106   -0.00018217   -0.01582821
     atom   31 type  1   force =    -0.00000051   -0.01567754   -0.00298743
     atom   32 type  1   force =     0.00198879    0.00100598   -0.01619590
     atom   33 type  1   force =    -0.00198839    0.00100513   -0.01619651
     atom   34 type  1   force =    -0.00019976   -0.00006755   -0.01584270
     atom   35 type  1   force =    -0.00000065   -0.00216595   -0.01619273
     atom   36 type  1   force =     0.00020032   -0.00006842   -0.01584348
     atom   37 type  2   force =     0.00000034    0.00015724    0.00284902
     atom   38 type  3   force =     0.00000000    0.00000000    0.00000000
     The Hubbard contrib.    to forces
     atom    1 type  1   force =     0.00000000    0.00000000    0.00000000
     atom    2 type  1   force =     0.00000000    0.00000000    0.00000000
     atom    3 type  1   force =     0.00000000    0.00000000    0.00000000
     atom    4 type  1   force =     0.00000000    0.00000000    0.00000000
     atom    5 type  1   force =     0.00000000    0.00000000    0.00000000
     atom    6 type  1   force =     0.00000000    0.00000000    0.00000000
     atom    7 type  1   force =     0.00000000    0.00000000    0.00000000
     atom    8 type  1   force =     0.00000000    0.00000000    0.00000000
     atom    9 type  1   force =     0.00000000    0.00000000    0.00000000
     atom   10 type  1   force =     0.00000000    0.00000000    0.00000000
     atom   11 type  1   force =     0.00000000    0.00000000    0.00000000
     atom   12 type  1   force =     0.00000000    0.00000000    0.00000000
     atom   13 type  1   force =     0.00000000    0.00000000    0.00000000
     atom   14 type  1   force =     0.00000000    0.00000000    0.00000000
     atom   15 type  1   force =     0.00000000    0.00000000    0.00000000
     atom   16 type  1   force =     0.00000000    0.00000000    0.00000000
     atom   17 type  1   force =     0.00000000    0.00000000    0.00000000
     atom   18 type  1   force =     0.00000000    0.00000000    0.00000000
     atom   19 type  1   force =     0.00000000    0.00000000    0.00000000
     atom   20 type  1   force =     0.00000000    0.00000000    0.00000000
     atom   21 type  1   force =     0.00000000    0.00000000    0.00000000
     atom   22 type  1   force =     0.00000000    0.00000000    0.00000000
     atom   23 type  1   force =     0.00000000    0.00000000    0.00000000
     atom   24 type  1   force =     0.00000000    0.00000000    0.00000000
     atom   25 type  1   force =     0.00000000    0.00000000    0.00000000
     atom   26 type  1   force =     0.00000000    0.00000000    0.00000000
     atom   27 type  1   force =     0.00000000    0.00000000    0.00000000
     atom   28 type  1   force =     0.00000000    0.00000000    0.00000000
     atom   29 type  1   force =     0.00000000    0.00000000    0.00000000
     atom   30 type  1   force =     0.00000000    0.00000000    0.00000000
     atom   31 type  1   force =     0.00000000    0.00000000    0.00000000
     atom   32 type  1   force =     0.00000000    0.00000000    0.00000000
     atom   33 type  1   force =     0.00000000    0.00000000    0.00000000
     atom   34 type  1   force =     0.00000000    0.00000000    0.00000000
     atom   35 type  1   force =     0.00000000    0.00000000    0.00000000
     atom   36 type  1   force =     0.00000000    0.00000000    0.00000000
     atom   37 type  2   force =     0.00000000    0.00000000    0.00000000
     atom   38 type  3   force =     0.00000000    0.00000000    0.00000000
     The SCF correction term to forces
     atom    1 type  1   force =    -0.00000000    0.00000000   -0.00000000
     atom    2 type  1   force =     0.00000000   -0.00000000   -0.00000000
     atom    3 type  1   force =    -0.00000000   -0.00000000   -0.00000000
     atom    4 type  1   force =    -0.00000000    0.00000000   -0.00000000
     atom    5 type  1   force =     0.00000000   -0.00000000   -0.00000000
     atom    6 type  1   force =     0.00000000   -0.00000000   -0.00000000
     atom    7 type  1   force =    -0.00000000    0.00000000   -0.00000000
     atom    8 type  1   force =     0.00000000   -0.00000000   -0.00000000
     atom    9 type  1   force =     0.00000000    0.00000000   -0.00000000
     atom   10 type  1   force =    -0.00000000    0.00000000   -0.00000000
     atom   11 type  1   force =     0.00000000   -0.00000000   -0.00000000
     atom   12 type  1   force =     0.00000000   -0.00000000   -0.00000000
     atom   13 type  1   force =    -0.00000000    0.00000000   -0.00000000
     atom   14 type  1   force =     0.00000000    0.00000000   -0.00000000
     atom   15 type  1   force =     0.00000000    0.00000000   -0.00000000
     atom   16 type  1   force =    -0.00000000    0.00000000   -0.00000000
     atom   17 type  1   force =     0.00000000   -0.00000000   -0.00000000
     atom   18 type  1   force =    -0.00000000   -0.00000000   -0.00000000
     atom   19 type  1   force =    -0.00000048    0.00001024   -0.00000944
     atom   20 type  1   force =    -0.00000917    0.00000514   -0.00000565
     atom   21 type  1   force =     0.00000956    0.00000033   -0.00001007
     atom   22 type  1   force =    -0.00000956   -0.00000650   -0.00001377
     atom   23 type  1   force =    -0.00000528    0.00000026   -0.00001001
     atom   24 type  1   force =     0.00001490   -0.00000608   -0.00001510
     atom   25 type  1   force =     0.00000010    0.00000221   -0.00001207
     atom   26 type  1   force =    -0.00000130    0.00000401   -0.00001035
     atom   27 type  1   force =     0.00000104   -0.00000874   -0.00001288
     atom   28 type  1   force =    -0.00000501    0.00000306   -0.00000065
     atom   29 type  1   force =     0.00000234    0.00000029    0.00000265
     atom   30 type  1   force =     0.00000302   -0.00000242    0.00000053
     atom   31 type  1   force =    -0.00000448    0.00000643   -0.00000619
     atom   32 type  1   force =    -0.00000792   -0.00000330   -0.00000039
     atom   33 type  1   force =     0.00001261   -0.00000272   -0.00000652
     atom   34 type  1   force =    -0.00000657   -0.00000084   -0.00000022
     atom   35 type  1   force =     0.00000260    0.00000435   -0.00000167
     atom   36 type  1   force =     0.00000425   -0.00000628   -0.00000269
     atom   37 type  2   force =    -0.00000082    0.00000132    0.00001243
     atom   38 type  3   force =    -0.00000010   -0.00000001    0.00000146

     Total force =     0.011248     Total SCF correction =     0.000052

     Writing all to output data dir ./pwscf.save/

     init_run     :     17.71s CPU     18.18s WALL (       1 calls)
     electrons    :    592.11s CPU    616.74s WALL (       1 calls)
     forces       :      8.91s CPU      9.97s WALL (       1 calls)

     Called by init_run:
     wfcinit      :     12.17s CPU     12.44s WALL (       1 calls)
     potinit      :      3.46s CPU      3.56s WALL (       1 calls)
     hinit0       :      1.35s CPU      1.37s WALL (       1 calls)

     Called by electrons:
     c_bands      :    489.52s CPU    506.34s WALL (      24 calls)
     sum_band     :     59.05s CPU     62.00s WALL (      24 calls)
     v_of_rho     :     24.03s CPU     26.67s WALL (      24 calls)
     newd         :      9.22s CPU     10.84s WALL (      24 calls)
     PAW_pot      :      5.28s CPU      5.53s WALL (      24 calls)
     mix_rho      :      7.39s CPU      7.53s WALL (      24 calls)
     vdW_kernel   :      1.72s CPU      1.74s WALL (       1 calls)

     Called by c_bands:
     init_us_2    :      6.26s CPU      6.53s WALL (     650 calls)
     init_us_2:cp :      6.25s CPU      6.52s WALL (     650 calls)
     cegterg      :    475.95s CPU    492.02s WALL (     312 calls)

     Called by *egterg:
     cdiaghg      :     97.09s CPU     99.60s WALL (    1542 calls)
     h_psi        :    227.97s CPU    234.39s WALL (    1568 calls)
     s_psi        :     28.07s CPU     28.96s WALL (    1568 calls)
     g_psi        :      1.07s CPU      1.11s WALL (    1243 calls)

     Called by h_psi:
     h_psi:calbec :     41.81s CPU     43.21s WALL (    1568 calls)
     vloc_psi     :    153.57s CPU    157.99s WALL (    1568 calls)
     add_vuspsi   :     29.83s CPU     30.27s WALL (    1568 calls)

     General routines
     calbec       :     57.74s CPU     59.48s WALL (    1932 calls)
     fft          :     22.00s CPU     24.39s WALL (    1572 calls)
     ffts         :      3.12s CPU      3.15s WALL (    5626 calls)
     fftw         :    143.55s CPU    147.46s WALL (  389764 calls)
     interpolate  :      0.67s CPU      0.74s WALL (      24 calls)

     Parallel routines

     PWSCF        :  10m20.62s CPU  10m49.78s WALL


   This run was terminated on:  13:48:10   9Nov2025            

=------------------------------------------------------------------------------=
   JOB DONE.
=------------------------------------------------------------------------------=
