
     Program PWSCF v.7.1 starts on  7Dec2025 at 19:47:22 
        Git branch: heads/qe-7.1
        Last git commit: 48ba0178f8fede6d020eb786884699a9f063f55d-dirty
        Last git commit date: Fri Jan 27 14:22:33 2023 +0000
        Last git commit subject: Merge branch 'fix_hubbard' into 'develop'

     This program is part of the open-source Quantum ESPRESSO suite
     for quantum simulation of materials; please cite
         "P. Giannozzi et al., J. Phys.:Condens. Matter 21 395502 (2009);
         "P. Giannozzi et al., J. Phys.:Condens. Matter 29 465901 (2017);
         "P. Giannozzi et al., J. Chem. Phys. 152 154105 (2020);
          URL http://www.quantum-espresso.org", 
     in publications or presentations arising from this work. More details at
     http://www.quantum-espresso.org/quote

     Parallel version (MPI), running on    96 processors

     MPI processes distributed on     2 nodes
     119675 MiB available memory on the printing compute node when the environment starts

     Reading input from espresso.pwi
Warning: card &CELL ignored
Warning: card / ignored
Warning: card &FCP ignored
Warning: card / ignored
Warning: card &RISM ignored
Warning: card / ignored

     Current dimensions of program PWSCF are:
     Max number of different atomic species (ntypx) = 10
     Max number of k-points (npk) =  40000
     Max angular momentum in pseudopotentials (lmaxx) =  4
     file Co.pbe-n-kjpaw_psl.1.0.0.UPF: wavefunction(s)  4S 3D renormalized
     file C.pbe-n-kjpaw_psl.1.0.0.UPF: wavefunction(s)  2S 2P renormalized
     file O.pbe-nl-kjpaw_psl.1.0.0.UPF: wavefunction(s)  2S 2P renormalized
     file H.pbe-kjpaw_psl.1.0.0.UPF: wavefunction(s)  1S renormalized

     **************************************************************************
     Initializing libbeef V0.1.2 with the BEEF-vdW functional.
     Citation: Wellendorff et al., PRB 85, 235149 (2012).
     **************************************************************************


     IMPORTANT: XC functional enforced from input :
     Exchange-correlation= BEEF-VDW
                           (   1   4  43  14   2   0   0)
     Any further DFT definition will be discarded
     Please, verify this is what you really want


     R & G space division:  proc/nbgrp/npool/nimage =      96
     Subspace diagonalization in iterative solution of the eigenvalue problem:
     one sub-group per band group will be used
     custom distributed-memory algorithm (size of sub-group:  2*  2 procs)


     Parallelization info
     --------------------
     sticks:   dense  smooth     PW     G-vecs:    dense   smooth      PW
     Min          43      28      7                 7829     4248     595
     Max          44      29      8                 7845     4281     630
     Sum        4153    2773    757               752179   409445   59217

     Using Slab Decomposition



     bravais-lattice index     =            0
     lattice parameter (alat)  =      14.1729  a.u.
     unit-cell volume          =    8574.3059 (a.u.)^3
     number of atoms/cell      =           39
     number of atomic types    =            4
     number of electrons       =       335.00
     number of Kohn-Sham states=          202
     kinetic-energy cutoff     =      50.0000  Ry
     charge density cutoff     =     300.0000  Ry
     scf convergence threshold =      1.0E-08
     mixing beta               =       0.7000
     number of iterations used =            8  local-TF  mixing
     Exchange-correlation= BEEF-VDW
                           (   1   4  43  14   2   0   0)

     celldm(1)=  14.172946  celldm(2)=   0.000000  celldm(3)=   0.000000
     celldm(4)=   0.000000  celldm(5)=   0.000000  celldm(6)=   0.000000

     crystal axes: (cart. coord. in units of alat)
               a(1) = (   1.000000   0.000000   0.000000 )  
               a(2) = (   0.500000   0.866025   0.000000 )  
               a(3) = (   0.000000   0.000000   3.477667 )  

     reciprocal axes: (cart. coord. in units 2 pi/alat)
               b(1) = (  1.000000 -0.577350  0.000000 )  
               b(2) = (  0.000000  1.154701  0.000000 )  
               b(3) = (  0.000000  0.000000  0.287549 )  


     PseudoPot. # 1 for Co read from file:
     /users/kbadger1/espresso/pseudo/pslibrary.1.0.0/pbe/PSEUDOPOTENTIALS/Co.pbe-n-kjpaw_psl.1.0.0.UPF
     MD5 check sum: 88af6ec42553d4236c267fdfcb472151
     Pseudo is Projector augmented-wave + core cor, Zval =  9.0
     Generated using 'atomic' code by A. Dal Corso  v.7.0
     Shape of augmentation charge: PSQ
     Using radial grid of 1193 points,  6 beta functions with: 
                l(1) =   0
                l(2) =   0
                l(3) =   1
                l(4) =   1
                l(5) =   2
                l(6) =   2
     Q(r) pseudized with 0 coefficients 


     PseudoPot. # 2 for C  read from file:
     /users/kbadger1/espresso/pseudo/pslibrary.1.0.0/pbe/PSEUDOPOTENTIALS/C.pbe-n-kjpaw_psl.1.0.0.UPF
     MD5 check sum: 6408e75cdba28732cea38a4db8498ce4
     Pseudo is Projector augmented-wave + core cor, Zval =  4.0
     Generated using 'atomic' code by A. Dal Corso  v.7.0
     Shape of augmentation charge: PSQ
     Using radial grid of 1073 points,  4 beta functions with: 
                l(1) =   0
                l(2) =   0
                l(3) =   1
                l(4) =   1
     Q(r) pseudized with 0 coefficients 


     PseudoPot. # 3 for O  read from file:
     /users/kbadger1/espresso/pseudo/pslibrary.1.0.0/pbe/PSEUDOPOTENTIALS/O.pbe-nl-kjpaw_psl.1.0.0.UPF
     MD5 check sum: f0439fab3598ca4e468f064226030408
     Pseudo is Projector augmented-wave + core cor, Zval =  6.0
     Generated using 'atomic' code by A. Dal Corso  v.7.0
     Shape of augmentation charge: PSQ
     Using radial grid of 1095 points,  4 beta functions with: 
                l(1) =   0
                l(2) =   0
                l(3) =   1
                l(4) =   1
     Q(r) pseudized with 0 coefficients 


     PseudoPot. # 4 for H  read from file:
     /users/kbadger1/espresso/pseudo/pslibrary.1.0.0/pbe/PSEUDOPOTENTIALS/H.pbe-kjpaw_psl.1.0.0.UPF
     MD5 check sum: fe4c6fa958fa6d3815bf5d2419cbf1df
     Pseudo is Projector augmented-wave, Zval =  1.0
     Generated using 'atomic' code by A. Dal Corso  v.7.0
     Shape of augmentation charge: PSQ
     Using radial grid of  929 points,  2 beta functions with: 
                l(1) =   0
                l(2) =   0
     Q(r) pseudized with 0 coefficients 


     atomic species   valence    mass     pseudopotential
        Co             9.00    58.93319     Co( 1.00)
        C              4.00    12.00000     C ( 1.00)
        O              6.00    15.99491     O ( 1.00)
        H              1.00     1.00783     H ( 1.00)

     Starting magnetic structure 
     atomic species   magnetization
        Co           1.000
        C            1.000
        O            0.000
        H            0.000

     No symmetry found



   Cartesian axes

     site n.     atom                  positions (alat units)
         1           Co  tau(   1) = (   0.0000000   0.1924501   1.3333333  )
         2           Co  tau(   2) = (   0.3333333   0.1924501   1.3333333  )
         3           Co  tau(   3) = (   0.6666667   0.1924501   1.3333333  )
         4           Co  tau(   4) = (   0.1666667   0.4811252   1.3333333  )
         5           Co  tau(   5) = (   0.5000000   0.4811252   1.3333333  )
         6           Co  tau(   6) = (   0.8333333   0.4811252   1.3333333  )
         7           Co  tau(   7) = (   0.3333333   0.7698004   1.3333333  )
         8           Co  tau(   8) = (   0.6666667   0.7698004   1.3333333  )
         9           Co  tau(   9) = (   1.0000000   0.7698004   1.3333333  )
        10           Co  tau(  10) = (   0.0000000   0.0000000   1.6036667  )
        11           Co  tau(  11) = (   0.3333333   0.0000000   1.6036667  )
        12           Co  tau(  12) = (   0.6666667   0.0000000   1.6036667  )
        13           Co  tau(  13) = (   0.1666667   0.2886751   1.6036667  )
        14           Co  tau(  14) = (   0.5000000   0.2886751   1.6036667  )
        15           Co  tau(  15) = (   0.8333333   0.2886751   1.6036667  )
        16           Co  tau(  16) = (   0.3333333   0.5773503   1.6036667  )
        17           Co  tau(  17) = (   0.6666667   0.5773503   1.6036667  )
        18           Co  tau(  18) = (   1.0000000   0.5773503   1.6036667  )
        19           Co  tau(  19) = (   0.0000000   0.1924501   1.8740000  )
        20           Co  tau(  20) = (   0.3333333   0.1924501   1.8740000  )
        21           Co  tau(  21) = (   0.6666667   0.1924501   1.8740000  )
        22           Co  tau(  22) = (   0.1666667   0.4811252   1.8740000  )
        23           Co  tau(  23) = (   0.5000000   0.4811252   1.8740000  )
        24           Co  tau(  24) = (   0.8333333   0.4811252   1.8740000  )
        25           Co  tau(  25) = (   0.3333333   0.7698004   1.8740000  )
        26           Co  tau(  26) = (   0.6666667   0.7698004   1.8740000  )
        27           Co  tau(  27) = (   1.0000000   0.7698004   1.8740000  )
        28           Co  tau(  28) = (   0.0000000   0.0000000   2.1443333  )
        29           Co  tau(  29) = (   0.3333333   0.0000000   2.1443333  )
        30           Co  tau(  30) = (   0.6666667   0.0000000   2.1443333  )
        31           Co  tau(  31) = (   0.1666667   0.2886751   2.1443333  )
        32           Co  tau(  32) = (   0.5000000   0.2886751   2.1443333  )
        33           Co  tau(  33) = (   0.8333333   0.2886751   2.1443333  )
        34           Co  tau(  34) = (   0.3333333   0.5773503   2.1443333  )
        35           Co  tau(  35) = (   0.6666667   0.5773503   2.1443333  )
        36           Co  tau(  36) = (   1.0000000   0.5773503   2.1443333  )
        37           C   tau(  37) = (   0.3331392   0.1952979   2.3233427  )
        38           O   tau(  38) = (   0.3071854   0.1805186   2.4799822  )
        39           H   tau(  39) = (   0.6159536   0.3369188   2.3087622  )

     number of k points=    13  Marzari-Vanderbilt smearing, width (Ry)=  0.0010
                       cart. coord. in units 2pi/alat
        k(    1) = (   0.0000000   0.0000000   0.0000000), wk =   0.0400000
        k(    2) = (   0.0000000   0.2309401   0.0000000), wk =   0.0800000
        k(    3) = (   0.0000000   0.4618802   0.0000000), wk =   0.0800000
        k(    4) = (   0.2000000  -0.1154701   0.0000000), wk =   0.0800000
        k(    5) = (   0.2000000   0.1154701   0.0000000), wk =   0.0800000
        k(    6) = (   0.2000000   0.3464102   0.0000000), wk =   0.0800000
        k(    7) = (   0.2000000  -0.5773503   0.0000000), wk =   0.0800000
        k(    8) = (   0.2000000  -0.3464102   0.0000000), wk =   0.0800000
        k(    9) = (   0.4000000  -0.2309401   0.0000000), wk =   0.0800000
        k(   10) = (   0.4000000   0.0000000   0.0000000), wk =   0.0800000
        k(   11) = (   0.4000000   0.2309401   0.0000000), wk =   0.0800000
        k(   12) = (   0.4000000  -0.6928203   0.0000000), wk =   0.0800000
        k(   13) = (   0.4000000  -0.4618802   0.0000000), wk =   0.0800000

     Dense  grid:   752179 G-vectors     FFT dimensions: (  80,  80, 288)

     Smooth grid:   409445 G-vectors     FFT dimensions: (  64,  64, 225)

     Estimated max dynamical RAM per process >      99.02 MB

     Estimated total dynamical RAM >       9.28 GB
     Generating pointlists ...
     new r_m :   0.0853 (alat units)  1.2096 (a.u.) for type    1
     new r_m :   0.0658 (alat units)  0.9323 (a.u.) for type    2
     new r_m :   0.0658 (alat units)  0.9323 (a.u.) for type    3
     new r_m :   0.0853 (alat units)  1.2096 (a.u.) for type    4

     Initial potential from superposition of free atoms

     starting charge     334.9897, renormalised to     335.0000

     negative rho (up, down):  3.062E-03 4.570E-04


     %%%%%%%%%%%%%%%%%%%%%%%%%%%%%%%%%%%%%%%%%%%%%%%%%%%%%%%%%%%%%%%%%%%%%%%%
     %                                                                      %
     % You are using vdW-DF, which was implemented by the Thonhauser group. %
     % Please cite the following two papers that made this development      %
     % possible and the two reviews that describe the various versions:     %
     %                                                                      %
     %   T. Thonhauser et al., PRL 115, 136402 (2015).                      %
     %   T. Thonhauser et al., PRB 76, 125112 (2007).                       %
     %   K. Berland et al., Rep. Prog. Phys. 78, 066501 (2015).             %
     %   D.C. Langreth et al., J. Phys.: Condens. Matter 21, 084203 (2009). %
     %                                                                      %
     % If you are calculating stress with vdW-DF, please also cite:         %
     %                                                                      %
     %   R. Sabatini et al., J. Phys.: Condens. Matter 24, 424209 (2012).   %
     %   C.M. Frostenson et al., Electr. Struct. 4, 014001 (2022).          %
     %                                                                      %
     %%%%%%%%%%%%%%%%%%%%%%%%%%%%%%%%%%%%%%%%%%%%%%%%%%%%%%%%%%%%%%%%%%%%%%%%

     %%%%%%%%%%%%%%%%%%%%%%%%%%%%%%%%%%%%%%%%%%%%%%%%%%%%%%%%%%%%%%%%%%%%%%%%
     %                                                                      %
     %  vdW-DF NEWS:                                                        %
     %                                                                      %
     %  * vdW-DF3 is now available. DOI: 10.1021/acs.jctc.0c00471           %
     %    use with input_dft = 'vdW-DF3-opt1' or 'vdW-DF3-opt2'             %
     %                                                                      %
     %  * Unscreened and range-separated hybrid vdW-DF-cx functionals       %
     %    DOI: 10.1063/1.4986522 and 10.1088/1361-648X/ac2ad2               %
     %    use with input_dft = 'vdW-DF-cx0'    and 'vdW-DF-ahcx'            %
     %  * Unscreened and range-separated hybrid vdW-DF2-b86r functionals    %
     %    DOI: 10.1063/1.4986522 and DOI: 10.1103/PhysRevX.12.041003        %
     %    use with input_dft = 'vdW-DF2-br0' and 'vdW-DF2-ahbr'             %
     %                                                                      %
     %%%%%%%%%%%%%%%%%%%%%%%%%%%%%%%%%%%%%%%%%%%%%%%%%%%%%%%%%%%%%%%%%%%%%%%%


     Starting wfcs are  333 randomized atomic wfcs
     Checking if some PAW data can be deallocated... 

     total cpu time spent up to now is       15.5 secs

     per-process dynamical memory:   233.7 Mb

     Self-consistent Calculation

     iteration #  1     ecut=    50.00 Ry     beta= 0.70
     Davidson diagonalization with overlap
     ethr =  1.00E-02,  avg # of iterations =  2.0

     negative rho (up, down):  3.389E-05 9.338E-08

     total cpu time spent up to now is       36.2 secs

     total energy              =   -6053.09177073 Ry
     estimated scf accuracy    <      39.11244143 Ry

     total magnetization       =    69.00 Bohr mag/cell
     absolute magnetization    =    81.27 Bohr mag/cell

     iteration #  2     ecut=    50.00 Ry     beta= 0.70
     Davidson diagonalization with overlap
     ethr =  1.00E-02,  avg # of iterations =  1.0

     negative rho (up, down):  5.177E-06 4.916E-08

     total cpu time spent up to now is       57.8 secs

     total energy              =   -6052.57259564 Ry
     estimated scf accuracy    <      24.94974108 Ry

     total magnetization       =    68.84 Bohr mag/cell
     absolute magnetization    =    76.75 Bohr mag/cell

     iteration #  3     ecut=    50.00 Ry     beta= 0.70
     Davidson diagonalization with overlap
     ethr =  7.45E-03,  avg # of iterations =  1.1

     negative rho (up, down):  6.103E-08 4.589E-10

     total cpu time spent up to now is       71.2 secs

     total energy              =   -6055.15827992 Ry
     estimated scf accuracy    <      83.33253688 Ry

     total magnetization       =    66.12 Bohr mag/cell
     absolute magnetization    =    73.47 Bohr mag/cell

     iteration #  4     ecut=    50.00 Ry     beta= 0.70
     Davidson diagonalization with overlap
     ethr =  7.45E-03,  avg # of iterations =  1.0

     negative rho (up, down):  1.540E-08 0.000E+00

     total cpu time spent up to now is       89.0 secs

     total energy              =   -6056.40597761 Ry
     estimated scf accuracy    <       5.24268303 Ry

     total magnetization       =    60.20 Bohr mag/cell
     absolute magnetization    =    70.03 Bohr mag/cell

     iteration #  5     ecut=    50.00 Ry     beta= 0.70
     Davidson diagonalization with overlap
     ethr =  1.56E-03,  avg # of iterations =  1.2

     total cpu time spent up to now is      102.4 secs

     total energy              =   -6056.42019917 Ry
     estimated scf accuracy    <       2.41279264 Ry

     total magnetization       =    59.99 Bohr mag/cell
     absolute magnetization    =    69.45 Bohr mag/cell

     iteration #  6     ecut=    50.00 Ry     beta= 0.70
     Davidson diagonalization with overlap
     ethr =  7.20E-04,  avg # of iterations =  1.7

     total cpu time spent up to now is      122.9 secs

     total energy              =   -6056.53305792 Ry
     estimated scf accuracy    <       0.57425371 Ry

     total magnetization       =    59.56 Bohr mag/cell
     absolute magnetization    =    68.77 Bohr mag/cell

     iteration #  7     ecut=    50.00 Ry     beta= 0.70
     Davidson diagonalization with overlap
     ethr =  1.71E-04,  avg # of iterations =  5.8

     total cpu time spent up to now is      147.7 secs

     total energy              =   -6056.57079053 Ry
     estimated scf accuracy    <       0.67579956 Ry

     total magnetization       =    59.80 Bohr mag/cell
     absolute magnetization    =    68.63 Bohr mag/cell

     iteration #  8     ecut=    50.00 Ry     beta= 0.70
     Davidson diagonalization with overlap
     ethr =  1.71E-04,  avg # of iterations =  1.5

     total cpu time spent up to now is      161.2 secs

     total energy              =   -6056.58776498 Ry
     estimated scf accuracy    <       0.11886904 Ry

     total magnetization       =    59.80 Bohr mag/cell
     absolute magnetization    =    68.47 Bohr mag/cell

     iteration #  9     ecut=    50.00 Ry     beta= 0.70
     Davidson diagonalization with overlap
     c_bands:  1 eigenvalues not converged
     ethr =  3.55E-05,  avg # of iterations = 10.5

     total cpu time spent up to now is      199.7 secs

     total energy              =   -6056.59513756 Ry
     estimated scf accuracy    <       0.24697412 Ry

     total magnetization       =    60.12 Bohr mag/cell
     absolute magnetization    =    68.27 Bohr mag/cell

     iteration # 10     ecut=    50.00 Ry     beta= 0.70
     Davidson diagonalization with overlap
     ethr =  3.55E-05,  avg # of iterations =  1.7

     total cpu time spent up to now is      214.0 secs

     total energy              =   -6056.60527719 Ry
     estimated scf accuracy    <       0.13886750 Ry

     total magnetization       =    60.29 Bohr mag/cell
     absolute magnetization    =    68.28 Bohr mag/cell

     iteration # 11     ecut=    50.00 Ry     beta= 0.70
     Davidson diagonalization with overlap
     ethr =  3.55E-05,  avg # of iterations =  1.0

     total cpu time spent up to now is      234.4 secs

     total energy              =   -6056.59689036 Ry
     estimated scf accuracy    <       0.08240860 Ry

     total magnetization       =    60.21 Bohr mag/cell
     absolute magnetization    =    68.16 Bohr mag/cell

     iteration # 12     ecut=    50.00 Ry     beta= 0.70
     Davidson diagonalization with overlap
     ethr =  2.46E-05,  avg # of iterations =  1.8

     negative rho (up, down):  2.440E-07 0.000E+00

     total cpu time spent up to now is      248.5 secs

     total energy              =   -6056.59889018 Ry
     estimated scf accuracy    <       0.07406394 Ry

     total magnetization       =    60.21 Bohr mag/cell
     absolute magnetization    =    67.96 Bohr mag/cell

     iteration # 13     ecut=    50.00 Ry     beta= 0.70
     Davidson diagonalization with overlap
     ethr =  2.21E-05,  avg # of iterations =  1.2

     total cpu time spent up to now is      268.5 secs

     total energy              =   -6056.60107969 Ry
     estimated scf accuracy    <       0.07782803 Ry

     total magnetization       =    60.21 Bohr mag/cell
     absolute magnetization    =    67.92 Bohr mag/cell

     iteration # 14     ecut=    50.00 Ry     beta= 0.70
     Davidson diagonalization with overlap
     ethr =  2.21E-05,  avg # of iterations =  1.1

     total cpu time spent up to now is      281.3 secs

     total energy              =   -6056.59638357 Ry
     estimated scf accuracy    <       0.07677499 Ry

     total magnetization       =    60.15 Bohr mag/cell
     absolute magnetization    =    67.92 Bohr mag/cell

     iteration # 15     ecut=    50.00 Ry     beta= 0.70
     Davidson diagonalization with overlap
     ethr =  2.21E-05,  avg # of iterations =  1.3

     negative rho (up, down):  9.163E-04 4.909E-04

     total cpu time spent up to now is      299.6 secs

     total energy              =   -6056.59268720 Ry
     estimated scf accuracy    <       0.06828240 Ry

     total magnetization       =    60.23 Bohr mag/cell
     absolute magnetization    =    67.99 Bohr mag/cell

     iteration # 16     ecut=    50.00 Ry     beta= 0.70
     Davidson diagonalization with overlap
     ethr =  2.04E-05,  avg # of iterations =  1.7

     negative rho (up, down):  6.032E-03 4.983E-03

     total cpu time spent up to now is      313.5 secs

     total energy              =   -6056.59321782 Ry
     estimated scf accuracy    <       0.07819805 Ry

     total magnetization       =    60.14 Bohr mag/cell
     absolute magnetization    =    67.78 Bohr mag/cell

     iteration # 17     ecut=    50.00 Ry     beta= 0.70
     Davidson diagonalization with overlap
     ethr =  2.04E-05,  avg # of iterations =  1.0

     negative rho (up, down):  1.553E-02 1.428E-02

     total cpu time spent up to now is      333.1 secs

     total energy              =   -6056.58794390 Ry
     estimated scf accuracy    <       0.08288928 Ry

     total magnetization       =    60.14 Bohr mag/cell
     absolute magnetization    =    67.73 Bohr mag/cell

     iteration # 18     ecut=    50.00 Ry     beta= 0.70
     Davidson diagonalization with overlap
     ethr =  2.04E-05,  avg # of iterations =  1.2

     negative rho (up, down):  1.068E-02 9.658E-03

     total cpu time spent up to now is      350.0 secs

     total energy              =   -6056.58777476 Ry
     estimated scf accuracy    <       0.01458365 Ry

     total magnetization       =    60.12 Bohr mag/cell
     absolute magnetization    =    67.67 Bohr mag/cell

     iteration # 19     ecut=    50.00 Ry     beta= 0.70
     Davidson diagonalization with overlap
     c_bands:  1 eigenvalues not converged
     c_bands:  1 eigenvalues not converged
     c_bands:  1 eigenvalues not converged
     c_bands:  4 eigenvalues not converged
     c_bands:  1 eigenvalues not converged
     c_bands:  1 eigenvalues not converged
     ethr =  4.35E-06,  avg # of iterations =  6.7

     negative rho (up, down):  2.062E-02 1.937E-02

     total cpu time spent up to now is      374.2 secs

     total energy              =   -6056.58541096 Ry
     estimated scf accuracy    <       0.07294357 Ry

     total magnetization       =    60.21 Bohr mag/cell
     absolute magnetization    =    67.75 Bohr mag/cell

     iteration # 20     ecut=    50.00 Ry     beta= 0.70
     Davidson diagonalization with overlap
     ethr =  4.35E-06,  avg # of iterations =  2.3

     negative rho (up, down):  2.942E-02 2.803E-02

     total cpu time spent up to now is      395.6 secs

     total energy              =   -6056.58719256 Ry
     estimated scf accuracy    <       0.00869223 Ry

     total magnetization       =    60.13 Bohr mag/cell
     absolute magnetization    =    67.69 Bohr mag/cell

     iteration # 21     ecut=    50.00 Ry     beta= 0.70
     Davidson diagonalization with overlap
     c_bands:  4 eigenvalues not converged
     c_bands:  1 eigenvalues not converged
     ethr =  2.59E-06,  avg # of iterations =  3.7

     negative rho (up, down):  2.360E-02 2.228E-02

     total cpu time spent up to now is      416.3 secs

     total energy              =   -6056.58652307 Ry
     estimated scf accuracy    <       0.01261536 Ry

     total magnetization       =    60.12 Bohr mag/cell
     absolute magnetization    =    67.67 Bohr mag/cell

     iteration # 22     ecut=    50.00 Ry     beta= 0.70
     Davidson diagonalization with overlap
     ethr =  2.59E-06,  avg # of iterations =  2.5

     negative rho (up, down):  1.651E-02 1.547E-02

     total cpu time spent up to now is      433.9 secs

     total energy              =   -6056.58623060 Ry
     estimated scf accuracy    <       0.00785807 Ry

     total magnetization       =    60.13 Bohr mag/cell
     absolute magnetization    =    67.72 Bohr mag/cell

     iteration # 23     ecut=    50.00 Ry     beta= 0.70
     Davidson diagonalization with overlap
     ethr =  2.35E-06,  avg # of iterations =  1.4

     negative rho (up, down):  7.771E-03 6.959E-03

     total cpu time spent up to now is      451.5 secs

     total energy              =   -6056.58606700 Ry
     estimated scf accuracy    <       0.00492115 Ry

     total magnetization       =    60.16 Bohr mag/cell
     absolute magnetization    =    67.76 Bohr mag/cell

     iteration # 24     ecut=    50.00 Ry     beta= 0.70
     Davidson diagonalization with overlap
     ethr =  1.47E-06,  avg # of iterations =  1.5

     negative rho (up, down):  8.076E-03 7.299E-03

     total cpu time spent up to now is      471.4 secs

     total energy              =   -6056.58629585 Ry
     estimated scf accuracy    <       0.00173420 Ry

     total magnetization       =    60.17 Bohr mag/cell
     absolute magnetization    =    67.80 Bohr mag/cell

     iteration # 25     ecut=    50.00 Ry     beta= 0.70
     Davidson diagonalization with overlap
     c_bands:  1 eigenvalues not converged
     c_bands:  1 eigenvalues not converged
     c_bands:  1 eigenvalues not converged
     ethr =  5.18E-07,  avg # of iterations =  4.2

     negative rho (up, down):  7.010E-03 6.274E-03

     total cpu time spent up to now is      488.5 secs

     total energy              =   -6056.58640909 Ry
     estimated scf accuracy    <       0.00276422 Ry

     total magnetization       =    60.18 Bohr mag/cell
     absolute magnetization    =    67.81 Bohr mag/cell

     iteration # 26     ecut=    50.00 Ry     beta= 0.70
     Davidson diagonalization with overlap
     ethr =  5.18E-07,  avg # of iterations =  2.0

     negative rho (up, down):  6.471E-03 5.724E-03

     total cpu time spent up to now is      509.0 secs

     total energy              =   -6056.58644069 Ry
     estimated scf accuracy    <       0.00110673 Ry

     total magnetization       =    60.19 Bohr mag/cell
     absolute magnetization    =    67.83 Bohr mag/cell

     iteration # 27     ecut=    50.00 Ry     beta= 0.70
     Davidson diagonalization with overlap
     ethr =  3.30E-07,  avg # of iterations =  1.3

     negative rho (up, down):  4.456E-03 3.674E-03

     total cpu time spent up to now is      522.5 secs

     total energy              =   -6056.58652299 Ry
     estimated scf accuracy    <       0.00036155 Ry

     total magnetization       =    60.19 Bohr mag/cell
     absolute magnetization    =    67.83 Bohr mag/cell

     iteration # 28     ecut=    50.00 Ry     beta= 0.70
     Davidson diagonalization with overlap
     ethr =  1.08E-07,  avg # of iterations =  4.1

     negative rho (up, down):  4.006E-03 3.207E-03

     total cpu time spent up to now is      546.1 secs

     total energy              =   -6056.58654732 Ry
     estimated scf accuracy    <       0.00038218 Ry

     total magnetization       =    60.19 Bohr mag/cell
     absolute magnetization    =    67.83 Bohr mag/cell

     iteration # 29     ecut=    50.00 Ry     beta= 0.70
     Davidson diagonalization with overlap
     ethr =  1.08E-07,  avg # of iterations =  1.3

     negative rho (up, down):  2.480E-03 1.535E-03

     total cpu time spent up to now is      563.7 secs

     total energy              =   -6056.58665940 Ry
     estimated scf accuracy    <       0.00009628 Ry

     total magnetization       =    60.19 Bohr mag/cell
     absolute magnetization    =    67.83 Bohr mag/cell

     iteration # 30     ecut=    50.00 Ry     beta= 0.70
     Davidson diagonalization with overlap
     ethr =  2.87E-08,  avg # of iterations =  3.5

     negative rho (up, down):  2.110E-03 1.056E-03

     total cpu time spent up to now is      582.6 secs

     total energy              =   -6056.58671241 Ry
     estimated scf accuracy    <       0.00014636 Ry

     total magnetization       =    60.19 Bohr mag/cell
     absolute magnetization    =    67.83 Bohr mag/cell

     iteration # 31     ecut=    50.00 Ry     beta= 0.70
     Davidson diagonalization with overlap
     ethr =  2.87E-08,  avg # of iterations =  2.0

     negative rho (up, down):  2.077E-03 1.032E-03

     total cpu time spent up to now is      602.0 secs

     total energy              =   -6056.58673724 Ry
     estimated scf accuracy    <       0.00015974 Ry

     total magnetization       =    60.19 Bohr mag/cell
     absolute magnetization    =    67.83 Bohr mag/cell

     iteration # 32     ecut=    50.00 Ry     beta= 0.70
     Davidson diagonalization with overlap
     ethr =  2.87E-08,  avg # of iterations =  2.0

     negative rho (up, down):  1.928E-03 8.838E-04

     total cpu time spent up to now is      623.4 secs

     total energy              =   -6056.58673901 Ry
     estimated scf accuracy    <       0.00004847 Ry

     total magnetization       =    60.20 Bohr mag/cell
     absolute magnetization    =    67.84 Bohr mag/cell

     iteration # 33     ecut=    50.00 Ry     beta= 0.70
     Davidson diagonalization with overlap
     ethr =  1.45E-08,  avg # of iterations =  1.7

     negative rho (up, down):  2.214E-03 1.171E-03

     total cpu time spent up to now is      637.6 secs

     total energy              =   -6056.58674016 Ry
     estimated scf accuracy    <       0.00003988 Ry

     total magnetization       =    60.19 Bohr mag/cell
     absolute magnetization    =    67.83 Bohr mag/cell

     iteration # 34     ecut=    50.00 Ry     beta= 0.70
     Davidson diagonalization with overlap
     ethr =  1.19E-08,  avg # of iterations =  2.1

     negative rho (up, down):  2.278E-03 1.254E-03

     total cpu time spent up to now is      659.8 secs

     total energy              =   -6056.58674099 Ry
     estimated scf accuracy    <       0.00007146 Ry

     total magnetization       =    60.19 Bohr mag/cell
     absolute magnetization    =    67.83 Bohr mag/cell

     iteration # 35     ecut=    50.00 Ry     beta= 0.70
     Davidson diagonalization with overlap
     ethr =  1.19E-08,  avg # of iterations =  1.1

     negative rho (up, down):  2.230E-03 1.179E-03

     total cpu time spent up to now is      673.2 secs

     total energy              =   -6056.58674415 Ry
     estimated scf accuracy    <       0.00001122 Ry

     total magnetization       =    60.19 Bohr mag/cell
     absolute magnetization    =    67.83 Bohr mag/cell

     iteration # 36     ecut=    50.00 Ry     beta= 0.70
     Davidson diagonalization with overlap
     ethr =  3.35E-09,  avg # of iterations =  3.0

     negative rho (up, down):  2.207E-03 1.133E-03

     total cpu time spent up to now is      693.1 secs

     total energy              =   -6056.58674544 Ry
     estimated scf accuracy    <       0.00000415 Ry

     total magnetization       =    60.19 Bohr mag/cell
     absolute magnetization    =    67.83 Bohr mag/cell

     iteration # 37     ecut=    50.00 Ry     beta= 0.70
     Davidson diagonalization with overlap
     ethr =  1.24E-09,  avg # of iterations =  6.2

     negative rho (up, down):  2.208E-03 1.131E-03

     total cpu time spent up to now is      718.6 secs

     total energy              =   -6056.58674582 Ry
     estimated scf accuracy    <       0.00000209 Ry

     total magnetization       =    60.19 Bohr mag/cell
     absolute magnetization    =    67.83 Bohr mag/cell

     iteration # 38     ecut=    50.00 Ry     beta= 0.70
     Davidson diagonalization with overlap
     ethr =  6.25E-10,  avg # of iterations =  4.3

     negative rho (up, down):  2.233E-03 1.157E-03

     total cpu time spent up to now is      739.0 secs

     total energy              =   -6056.58674598 Ry
     estimated scf accuracy    <       0.00000073 Ry

     total magnetization       =    60.19 Bohr mag/cell
     absolute magnetization    =    67.83 Bohr mag/cell

     iteration # 39     ecut=    50.00 Ry     beta= 0.70
     Davidson diagonalization with overlap
     ethr =  2.19E-10,  avg # of iterations =  4.2

     negative rho (up, down):  2.232E-03 1.156E-03

     total cpu time spent up to now is      759.9 secs

     total energy              =   -6056.58674598 Ry
     estimated scf accuracy    <       0.00000224 Ry

     total magnetization       =    60.19 Bohr mag/cell
     absolute magnetization    =    67.83 Bohr mag/cell

     iteration # 40     ecut=    50.00 Ry     beta= 0.70
     Davidson diagonalization with overlap
     ethr =  2.19E-10,  avg # of iterations =  1.6

     negative rho (up, down):  2.226E-03 1.145E-03

     total cpu time spent up to now is      778.3 secs

     total energy              =   -6056.58674612 Ry
     estimated scf accuracy    <       0.00000022 Ry

     total magnetization       =    60.19 Bohr mag/cell
     absolute magnetization    =    67.83 Bohr mag/cell

     iteration # 41     ecut=    50.00 Ry     beta= 0.70
     Davidson diagonalization with overlap
     ethr =  6.43E-11,  avg # of iterations =  4.8

     negative rho (up, down):  2.239E-03 1.154E-03

     total cpu time spent up to now is      803.0 secs

     total energy              =   -6056.58674619 Ry
     estimated scf accuracy    <       0.00000014 Ry

     total magnetization       =    60.19 Bohr mag/cell
     absolute magnetization    =    67.83 Bohr mag/cell

     iteration # 42     ecut=    50.00 Ry     beta= 0.70
     Davidson diagonalization with overlap
     ethr =  4.16E-11,  avg # of iterations =  3.3

     negative rho (up, down):  2.243E-03 1.157E-03

     total cpu time spent up to now is      822.7 secs

     total energy              =   -6056.58674620 Ry
     estimated scf accuracy    <       0.00000026 Ry

     total magnetization       =    60.19 Bohr mag/cell
     absolute magnetization    =    67.83 Bohr mag/cell

     iteration # 43     ecut=    50.00 Ry     beta= 0.70
     Davidson diagonalization with overlap
     ethr =  4.16E-11,  avg # of iterations =  1.7

     negative rho (up, down):  2.246E-03 1.159E-03

     total cpu time spent up to now is      841.6 secs

     total energy              =   -6056.58674621 Ry
     estimated scf accuracy    <       0.00000008 Ry

     total magnetization       =    60.19 Bohr mag/cell
     absolute magnetization    =    67.83 Bohr mag/cell

     iteration # 44     ecut=    50.00 Ry     beta= 0.70
     Davidson diagonalization with overlap
     ethr =  2.53E-11,  avg # of iterations =  2.7

     negative rho (up, down):  2.247E-03 1.160E-03

     total cpu time spent up to now is      864.3 secs

     total energy              =   -6056.58674622 Ry
     estimated scf accuracy    <       0.00000007 Ry

     total magnetization       =    60.19 Bohr mag/cell
     absolute magnetization    =    67.83 Bohr mag/cell

     iteration # 45     ecut=    50.00 Ry     beta= 0.70
     Davidson diagonalization with overlap
     ethr =  2.11E-11,  avg # of iterations =  1.5

     negative rho (up, down):  2.247E-03 1.160E-03

     total cpu time spent up to now is      878.2 secs

     total energy              =   -6056.58674622 Ry
     estimated scf accuracy    <       0.00000001 Ry

     total magnetization       =    60.19 Bohr mag/cell
     absolute magnetization    =    67.83 Bohr mag/cell

     iteration # 46     ecut=    50.00 Ry     beta= 0.70
     Davidson diagonalization with overlap
     ethr =  4.08E-12,  avg # of iterations =  7.0

     negative rho (up, down):  2.254E-03 1.166E-03

     Magnetic moment per site  (integrated on atomic sphere of radius R)
     atom   1 (R=0.085)  charge=  5.4129  magn=  1.5961
     atom   2 (R=0.085)  charge=  5.4158  magn=  1.5735
     atom   3 (R=0.085)  charge=  5.4138  magn=  1.5916
     atom   4 (R=0.085)  charge=  5.4135  magn=  1.5941
     atom   5 (R=0.085)  charge=  5.4138  magn=  1.5913
     atom   6 (R=0.085)  charge=  5.4135  magn=  1.5952
     atom   7 (R=0.085)  charge=  5.4129  magn=  1.6003
     atom   8 (R=0.085)  charge=  5.4129  magn=  1.5965
     atom   9 (R=0.085)  charge=  5.4136  magn=  1.5938
     atom  10 (R=0.085)  charge=  5.4058  magn=  1.5328
     atom  11 (R=0.085)  charge=  5.4078  magn=  1.5320
     atom  12 (R=0.085)  charge=  5.4074  magn=  1.5390
     atom  13 (R=0.085)  charge=  5.4079  magn=  1.5323
     atom  14 (R=0.085)  charge=  5.4084  magn=  1.5274
     atom  15 (R=0.085)  charge=  5.4076  magn=  1.5420
     atom  16 (R=0.085)  charge=  5.4074  magn=  1.5391
     atom  17 (R=0.085)  charge=  5.4076  magn=  1.5420
     atom  18 (R=0.085)  charge=  5.4082  magn=  1.5380
     atom  19 (R=0.085)  charge=  5.4070  magn=  1.5062
     atom  20 (R=0.085)  charge=  5.4064  magn=  1.5280
     atom  21 (R=0.085)  charge=  5.4076  magn=  1.5281
     atom  22 (R=0.085)  charge=  5.4077  magn=  1.5258
     atom  23 (R=0.085)  charge=  5.4076  magn=  1.5247
     atom  24 (R=0.085)  charge=  5.4066  magn=  1.5563
     atom  25 (R=0.085)  charge=  5.4065  magn=  1.5330
     atom  26 (R=0.085)  charge=  5.4070  magn=  1.5101
     atom  27 (R=0.085)  charge=  5.4077  magn=  1.5266
     atom  28 (R=0.085)  charge=  5.4108  magn=  1.6253
     atom  29 (R=0.085)  charge=  5.4214  magn=  1.3229
     atom  30 (R=0.085)  charge=  5.4141  magn=  1.6308
     atom  31 (R=0.085)  charge=  5.4215  magn=  1.2973
     atom  32 (R=0.085)  charge=  5.4165  magn=  0.8854
     atom  33 (R=0.085)  charge=  5.4122  magn=  1.5671
     atom  34 (R=0.085)  charge=  5.4135  magn=  1.6305
     atom  35 (R=0.085)  charge=  5.4131  magn=  1.5854
     atom  36 (R=0.085)  charge=  5.4124  magn=  1.6039
     atom  37 (R=0.066)  charge=  1.0586  magn= -0.0231
     atom  38 (R=0.066)  charge=  2.9417  magn= -0.0398
     atom  39 (R=0.085)  charge=  0.7320  magn= -0.0166

     total cpu time spent up to now is      907.0 secs

     End of self-consistent calculation

 ------ SPIN UP ------------


          k = 0.0000 0.0000 0.0000 ( 51087 PWs)   bands (ev):

   -21.8013  -9.2913  -7.6532  -6.4292  -5.7870  -5.5846  -5.4133  -4.8950
    -4.8319  -4.8265  -4.8215  -4.7978  -4.7782  -4.7739  -4.5189  -4.3260
    -4.2921  -4.2895  -4.2749  -4.2383  -4.2321  -3.9917  -3.7738  -3.7711
    -3.7654  -3.7453  -3.7182  -3.6904  -3.6419  -3.6411  -3.6365  -3.6271
    -3.5985  -3.5602  -3.5559  -3.4382  -3.2584  -3.2528  -3.2494  -3.2435
    -3.1896  -3.1881  -3.1773  -3.1752  -3.1708  -3.1609  -3.1577  -3.1092
    -3.0225  -3.0197  -2.9538  -2.9462  -2.9424  -2.9332  -2.9325  -2.9246
    -2.9152  -2.9045  -2.8897  -2.8813  -2.8165  -2.8029  -2.8011  -2.7972
    -2.7239  -2.6109  -2.3124  -2.2717  -2.2691  -2.2675  -2.2636  -2.1706
    -2.1421  -2.1352  -2.1201  -2.1083  -2.0998  -2.0959  -2.0892  -2.0830
    -2.0428  -2.0418  -1.9904  -1.9898  -1.9880  -1.9826  -1.9672  -1.9626
    -1.9546  -1.9483  -1.9457  -1.9432  -1.9325  -1.9174  -1.9123  -1.9036
    -1.9009  -1.8991  -1.8964  -1.8946  -1.8911  -1.8898  -1.8888  -1.8706
    -1.8595  -1.8389  -1.8313  -1.8168  -1.8114  -1.7424  -1.7385  -1.6340
    -1.5508  -1.4563  -1.4468  -1.4462  -1.4436  -1.4234  -1.4071  -1.4033
    -1.4009  -1.3913  -1.3883  -1.3531  -1.3464  -1.2226  -1.2172  -1.2052
    -1.1903  -1.1661  -1.0959  -1.0532  -1.0365  -1.0122  -0.9685  -0.9653
    -0.9640  -0.9511  -0.9457  -0.9422  -0.9272  -0.8911  -0.8242  -0.8105
    -0.7166  -0.7111  -0.7031  -0.6981  -0.6790  -0.6637  -0.6559  -0.6418
    -0.6406  -0.6375  -0.6352  -0.6322  -0.6287  -0.6141  -0.6136  -0.6055
    -0.6017  -0.5964  -0.5836  -0.5704  -0.5680  -0.5523  -0.5516  -0.5471
    -0.5319  -0.5277  -0.5193  -0.5049  -0.5033  -0.5008  -0.4947  -0.4892
    -0.4802  -0.4731  -0.4570  -0.4385  -0.4217  -0.4070  -0.4026  -0.3955
    -0.3863  -0.3806  -0.3742  -0.3679  -0.3559  -0.3202  -0.3190  -0.3151
    -0.3018  -0.2960  -0.2412  -0.2385  -0.2361  -0.2190  -0.1961  -0.1683
     0.4863   0.7846

          k = 0.0000 0.2309 0.0000 ( 51134 PWs)   bands (ev):

   -21.8013  -9.2814  -7.5112  -6.3259  -5.8127  -5.6340  -5.5273  -5.3539
    -5.0600  -5.0333  -4.7810  -4.6018  -4.4845  -4.4761  -4.4257  -4.4070
    -4.3179  -4.2867  -4.2210  -4.1606  -4.1477  -3.9963  -3.8731  -3.7751
    -3.7646  -3.6970  -3.6553  -3.6451  -3.6401  -3.6343  -3.6234  -3.5998
    -3.5877  -3.5344  -3.5151  -3.4922  -3.4867  -3.4046  -3.2783  -3.2654
    -3.2581  -3.2119  -3.2076  -3.1947  -3.1738  -3.1091  -3.0758  -3.0645
    -3.0407  -3.0363  -3.0259  -2.9992  -2.9691  -2.9052  -2.8978  -2.8678
    -2.8310  -2.8261  -2.8022  -2.7978  -2.7677  -2.7335  -2.7327  -2.7123
    -2.6928  -2.5968  -2.3891  -2.3833  -2.3577  -2.3499  -2.3281  -2.2461
    -2.2358  -2.2189  -2.2142  -2.2033  -2.1982  -2.1853  -2.1642  -2.1096
    -2.1038  -2.0859  -2.0676  -2.0318  -2.0306  -2.0191  -2.0116  -2.0010
    -1.9949  -1.9926  -1.9823  -1.9728  -1.9623  -1.9468  -1.9204  -1.8869
    -1.8755  -1.8629  -1.8096  -1.8005  -1.7937  -1.7870  -1.7790  -1.7696
    -1.7654  -1.7583  -1.7491  -1.7448  -1.7314  -1.7106  -1.7009  -1.6908
    -1.6754  -1.6603  -1.6304  -1.5794  -1.5648  -1.4905  -1.4730  -1.4685
    -1.4565  -1.4443  -1.4348  -1.4328  -1.4024  -1.3890  -1.3447  -1.2728
    -1.2461  -1.2086  -1.1793  -1.1713  -1.1521  -1.1073  -1.0886  -1.0701
    -1.0454  -0.9860  -0.9748  -0.9667  -0.9392  -0.9330  -0.8979  -0.8871
    -0.8611  -0.8545  -0.8404  -0.8166  -0.8073  -0.7921  -0.7841  -0.7749
    -0.7195  -0.7113  -0.7053  -0.6989  -0.6775  -0.6668  -0.6405  -0.6307
    -0.6270  -0.6215  -0.6155  -0.6039  -0.5806  -0.5746  -0.5597  -0.5492
    -0.5169  -0.4937  -0.4838  -0.4536  -0.4432  -0.4238  -0.4079  -0.3868
    -0.3752  -0.3658  -0.3630  -0.3511  -0.3373  -0.3261  -0.3180  -0.2798
    -0.2497  -0.2416  -0.2357  -0.2143  -0.2039  -0.1807  -0.1725  -0.1520
    -0.0903  -0.0136   0.1210   0.1416   0.2123   0.2843   0.4041   0.4263
     0.4562   0.7986

          k = 0.0000 0.4619 0.0000 ( 51204 PWs)   bands (ev):

   -21.8013  -9.2656  -7.0927  -6.4388  -6.0718  -5.7522  -5.5658  -5.3708
    -5.1949  -5.1421  -5.0454  -4.5606  -4.3240  -4.3099  -4.2757  -4.2432
    -4.1722  -4.1207  -4.1119  -4.0251  -3.9877  -3.9827  -3.9639  -3.8155
    -3.8056  -3.7990  -3.7885  -3.7801  -3.7182  -3.6836  -3.6722  -3.5589
    -3.5185  -3.5060  -3.4901  -3.4729  -3.4588  -3.4187  -3.3625  -3.3541
    -3.3430  -3.3311  -3.2759  -3.2202  -3.1306  -3.1077  -3.0380  -3.0292
    -3.0043  -2.9824  -2.9608  -2.9470  -2.9335  -2.9246  -2.9037  -2.8523
    -2.8457  -2.8197  -2.7848  -2.7680  -2.6516  -2.6385  -2.6160  -2.5895
    -2.5505  -2.5304  -2.5018  -2.4935  -2.4708  -2.4164  -2.3641  -2.3606
    -2.3549  -2.3440  -2.3347  -2.3157  -2.2985  -2.2917  -2.2721  -2.2491
    -2.2296  -2.1935  -2.1762  -2.1609  -2.1282  -2.1140  -2.0700  -2.0367
    -2.0251  -2.0122  -1.9910  -1.9825  -1.9674  -1.9282  -1.9126  -1.9086
    -1.8991  -1.8840  -1.8751  -1.8552  -1.8396  -1.8340  -1.8280  -1.8025
    -1.7885  -1.7603  -1.7271  -1.7164  -1.6539  -1.6382  -1.6235  -1.6036
    -1.5979  -1.5751  -1.5508  -1.5246  -1.5130  -1.4914  -1.4872  -1.4783
    -1.4760  -1.4671  -1.4550  -1.4475  -1.4421  -1.4307  -1.4146  -1.4095
    -1.3978  -1.3591  -1.2941  -1.2768  -1.2659  -1.2483  -1.2232  -1.2111
    -1.1832  -1.1260  -1.1074  -1.0978  -1.0630  -1.0476  -1.0218  -0.9715
    -0.9678  -0.9438  -0.9298  -0.9110  -0.8946  -0.8641  -0.8428  -0.7781
    -0.7537  -0.7316  -0.7227  -0.7077  -0.7041  -0.6963  -0.6836  -0.6814
    -0.6578  -0.6376  -0.5570  -0.5497  -0.5427  -0.5359  -0.5271  -0.5045
    -0.4929  -0.4861  -0.4695  -0.4647  -0.4414  -0.4215  -0.3735  -0.3577
    -0.3443  -0.3296  -0.3061  -0.2577  -0.2529  -0.2263  -0.2173  -0.1818
    -0.1428  -0.1366  -0.1331  -0.1174  -0.1100  -0.1060  -0.0960  -0.0366
    -0.0046   0.0414   0.4777   0.5978   0.9243   1.0956   1.1273   1.3111
     1.4697   1.5202

          k = 0.2000-0.1155 0.0000 ( 51134 PWs)   bands (ev):

   -21.8013  -9.2811  -7.5113  -6.3265  -5.8171  -5.6340  -5.5200  -5.3587
    -5.0599  -5.0323  -4.7821  -4.5910  -4.4867  -4.4758  -4.4301  -4.4060
    -4.3248  -4.2868  -4.2146  -4.1707  -4.1476  -3.9769  -3.8841  -3.7710
    -3.7613  -3.6971  -3.6575  -3.6460  -3.6407  -3.6350  -3.6270  -3.6014
    -3.5812  -3.5390  -3.5149  -3.4925  -3.4864  -3.4086  -3.2809  -3.2660
    -3.2601  -3.2119  -3.2078  -3.1941  -3.1720  -3.1121  -3.0768  -3.0626
    -3.0402  -3.0353  -3.0266  -2.9989  -2.9657  -2.9055  -2.8981  -2.8698
    -2.8287  -2.8250  -2.8022  -2.7980  -2.7671  -2.7349  -2.7323  -2.7115
    -2.6885  -2.5995  -2.3897  -2.3838  -2.3578  -2.3478  -2.3267  -2.2460
    -2.2360  -2.2191  -2.2144  -2.2049  -2.1967  -2.1842  -2.1601  -2.1092
    -2.1045  -2.0864  -2.0680  -2.0323  -2.0317  -2.0228  -2.0086  -2.0016
    -1.9951  -1.9924  -1.9817  -1.9722  -1.9608  -1.9481  -1.9171  -1.8873
    -1.8752  -1.8611  -1.8105  -1.8008  -1.7939  -1.7865  -1.7792  -1.7713
    -1.7649  -1.7587  -1.7491  -1.7447  -1.7321  -1.7119  -1.7003  -1.6908
    -1.6766  -1.6615  -1.6306  -1.5815  -1.5685  -1.4943  -1.4732  -1.4679
    -1.4549  -1.4459  -1.4347  -1.4323  -1.4068  -1.3819  -1.3361  -1.2744
    -1.2436  -1.2091  -1.1791  -1.1709  -1.1514  -1.1103  -1.0902  -1.0721
    -1.0380  -0.9897  -0.9782  -0.9678  -0.9405  -0.9343  -0.8989  -0.8885
    -0.8606  -0.8542  -0.8367  -0.8155  -0.8076  -0.7943  -0.7850  -0.7727
    -0.7199  -0.7121  -0.7051  -0.6980  -0.6759  -0.6626  -0.6411  -0.6308
    -0.6259  -0.6216  -0.6144  -0.6038  -0.5811  -0.5746  -0.5610  -0.5496
    -0.5156  -0.4921  -0.4823  -0.4530  -0.4435  -0.4279  -0.4057  -0.3871
    -0.3753  -0.3641  -0.3600  -0.3520  -0.3370  -0.3267  -0.3183  -0.2768
    -0.2494  -0.2401  -0.2358  -0.2141  -0.2036  -0.1843  -0.1719  -0.1515
    -0.0928  -0.0130   0.1198   0.1420   0.2003   0.2829   0.4022   0.4247
     0.4585   0.7989

          k = 0.2000 0.1155 0.0000 ( 51134 PWs)   bands (ev):

   -21.8013  -9.2805  -7.5120  -6.3292  -5.8398  -5.6282  -5.4426  -5.4232
    -5.0568  -5.0310  -4.7914  -4.5580  -4.4907  -4.4741  -4.4400  -4.3945
    -4.3310  -4.3045  -4.2128  -4.1764  -4.1486  -3.9597  -3.8858  -3.7761
    -3.7553  -3.6921  -3.6509  -3.6459  -3.6423  -3.6397  -3.6220  -3.6155
    -3.5551  -3.5454  -3.5294  -3.4921  -3.4888  -3.4141  -3.2862  -3.2668
    -3.2596  -3.2126  -3.2109  -3.1950  -3.1706  -3.1063  -3.0792  -3.0579
    -3.0378  -3.0347  -3.0264  -3.0078  -2.9645  -2.9076  -2.8978  -2.8686
    -2.8367  -2.8109  -2.8013  -2.7950  -2.7763  -2.7329  -2.7316  -2.7220
    -2.6620  -2.6046  -2.3911  -2.3807  -2.3552  -2.3468  -2.3302  -2.2454
    -2.2376  -2.2302  -2.2090  -2.2048  -2.2011  -2.1859  -2.1406  -2.1105
    -2.1047  -2.0898  -2.0542  -2.0314  -2.0290  -2.0259  -2.0145  -2.0014
    -1.9937  -1.9914  -1.9850  -1.9722  -1.9563  -1.9429  -1.9305  -1.8837
    -1.8803  -1.8517  -1.8113  -1.8043  -1.7972  -1.7879  -1.7801  -1.7788
    -1.7613  -1.7578  -1.7515  -1.7450  -1.7369  -1.7219  -1.6954  -1.6924
    -1.6746  -1.6718  -1.6230  -1.5839  -1.5738  -1.5085  -1.4755  -1.4621
    -1.4554  -1.4470  -1.4335  -1.4319  -1.4087  -1.3612  -1.2927  -1.2874
    -1.2412  -1.2261  -1.1784  -1.1749  -1.1466  -1.1288  -1.0924  -1.0883
    -1.0196  -0.9907  -0.9833  -0.9579  -0.9436  -0.9394  -0.9002  -0.8917
    -0.8744  -0.8531  -0.8333  -0.8131  -0.8126  -0.7972  -0.7909  -0.7714
    -0.7148  -0.7061  -0.7012  -0.6922  -0.6817  -0.6568  -0.6410  -0.6311
    -0.6293  -0.6163  -0.6152  -0.5984  -0.5860  -0.5741  -0.5712  -0.5529
    -0.5078  -0.4844  -0.4686  -0.4641  -0.4457  -0.4366  -0.4034  -0.3885
    -0.3803  -0.3658  -0.3582  -0.3424  -0.3363  -0.3250  -0.3190  -0.2722
    -0.2389  -0.2368  -0.2340  -0.2127  -0.2050  -0.1595  -0.1581  -0.1491
    -0.0905  -0.0408   0.1114   0.1425   0.1844   0.2766   0.4058   0.4198
     0.4471   0.7520

          k = 0.2000 0.3464 0.0000 ( 51202 PWs)   bands (ev):

   -21.8014  -9.2676  -7.2317  -6.1634  -6.0140  -5.9278  -5.6541  -5.4645
    -5.3660  -4.8185  -4.7220  -4.5350  -4.4881  -4.4721  -4.2926  -4.2650
    -4.2280  -4.1669  -4.1603  -4.0526  -4.0320  -3.9473  -3.8894  -3.8600
    -3.8191  -3.7702  -3.6835  -3.6669  -3.6411  -3.6312  -3.6149  -3.6048
    -3.5810  -3.5763  -3.5329  -3.5106  -3.4691  -3.4399  -3.4321  -3.3695
    -3.2913  -3.2412  -3.2107  -3.1805  -3.1625  -3.1506  -3.0877  -3.0485
    -3.0144  -2.9834  -2.9745  -2.9633  -2.9367  -2.9116  -2.9009  -2.8800
    -2.8595  -2.8333  -2.7570  -2.7040  -2.6826  -2.6652  -2.6518  -2.6245
    -2.6010  -2.5487  -2.4991  -2.4317  -2.4097  -2.3865  -2.3665  -2.3395
    -2.3241  -2.3160  -2.3118  -2.2905  -2.2651  -2.2569  -2.2484  -2.2395
    -2.2271  -2.1825  -2.1610  -2.1090  -2.0654  -2.0554  -2.0366  -2.0185
    -2.0008  -1.9868  -1.9610  -1.9521  -1.9417  -1.9135  -1.9058  -1.8967
    -1.8892  -1.8835  -1.8743  -1.8523  -1.8475  -1.8378  -1.8185  -1.8143
    -1.7928  -1.7678  -1.7460  -1.7175  -1.7127  -1.6759  -1.6671  -1.6649
    -1.6514  -1.6357  -1.6054  -1.5742  -1.5632  -1.5528  -1.5296  -1.5054
    -1.4986  -1.4850  -1.4713  -1.4500  -1.4376  -1.4313  -1.4152  -1.3698
    -1.3472  -1.3318  -1.3097  -1.2387  -1.2054  -1.1821  -1.1666  -1.0953
    -1.0660  -1.0518  -1.0396  -1.0342  -1.0270  -1.0177  -0.9931  -0.9902
    -0.9666  -0.9500  -0.9322  -0.8906  -0.8761  -0.8615  -0.8522  -0.8410
    -0.8167  -0.7924  -0.7761  -0.7701  -0.7559  -0.7462  -0.6254  -0.6077
    -0.5879  -0.5726  -0.5624  -0.5566  -0.5373  -0.5250  -0.5178  -0.5078
    -0.4829  -0.4560  -0.4318  -0.4216  -0.4024  -0.3924  -0.3496  -0.3401
    -0.3313  -0.3275  -0.3211  -0.2988  -0.2854  -0.2790  -0.2706  -0.2536
    -0.2424  -0.1734  -0.1592  -0.1564  -0.1107  -0.1051  -0.0711   0.0475
     0.1964   0.2336   0.2747   0.4194   0.5373   0.6422   0.9843   1.1264
     1.2411   1.4325

          k = 0.2000-0.5774 0.0000 ( 51262 PWs)   bands (ev):

   -21.8014  -9.2603  -6.7101  -6.6690  -6.0973  -5.9447  -5.6903  -5.5052
    -5.2258  -5.1576  -4.7908  -4.4713  -4.4213  -4.2268  -4.1842  -4.0678
    -4.0488  -4.0383  -4.0219  -4.0112  -3.9550  -3.9435  -3.9370  -3.9334
    -3.9057  -3.8514  -3.7898  -3.7786  -3.7612  -3.7542  -3.6910  -3.6105
    -3.6038  -3.5895  -3.5708  -3.5195  -3.4662  -3.4298  -3.3522  -3.3113
    -3.3058  -3.2692  -3.2203  -3.2064  -3.1799  -3.1350  -3.0939  -3.0902
    -3.0486  -3.0249  -2.9859  -2.9290  -2.8964  -2.8678  -2.8569  -2.8111
    -2.7955  -2.7308  -2.7233  -2.7119  -2.7003  -2.6833  -2.6648  -2.6250
    -2.5523  -2.5130  -2.5021  -2.4890  -2.4596  -2.4277  -2.4115  -2.3641
    -2.3611  -2.3206  -2.3073  -2.3046  -2.2926  -2.2723  -2.2533  -2.2461
    -2.2278  -2.2155  -2.2026  -2.1784  -2.1721  -2.1375  -2.0998  -2.0889
    -2.0745  -2.0420  -1.9998  -1.9769  -1.9608  -1.9406  -1.9253  -1.9182
    -1.8975  -1.8866  -1.8765  -1.8693  -1.8525  -1.8310  -1.8257  -1.7918
    -1.7675  -1.7441  -1.7361  -1.7258  -1.7123  -1.7047  -1.6932  -1.6821
    -1.6757  -1.6707  -1.6460  -1.6194  -1.5848  -1.5768  -1.5608  -1.5290
    -1.4852  -1.4780  -1.4517  -1.4304  -1.4163  -1.4071  -1.4001  -1.3662
    -1.3363  -1.3265  -1.2947  -1.2527  -1.2031  -1.1866  -1.1742  -1.1546
    -1.1335  -1.1319  -1.1195  -1.0934  -1.0694  -1.0567  -1.0422  -1.0220
    -0.9788  -0.9657  -0.9535  -0.9359  -0.9208  -0.8813  -0.8677  -0.8540
    -0.8470  -0.8209  -0.8163  -0.7976  -0.7743  -0.7657  -0.7281  -0.5856
    -0.5688  -0.5582  -0.5482  -0.5399  -0.5306  -0.5248  -0.5069  -0.4876
    -0.4719  -0.4622  -0.4476  -0.4428  -0.3975  -0.3512  -0.3288  -0.3189
    -0.2998  -0.2987  -0.2757  -0.2676  -0.2386  -0.2253  -0.2196  -0.2052
    -0.1955  -0.1373  -0.1319  -0.1221  -0.1106  -0.0946  -0.0775  -0.0319
     0.1502   0.2603   0.5082   0.8942   1.0521   1.1705   1.2694   1.5260
     1.6742   1.7282

          k = 0.2000-0.3464 0.0000 ( 51202 PWs)   bands (ev):

   -21.8013  -9.2686  -7.2298  -6.1663  -5.9755  -5.9402  -5.6542  -5.5144
    -5.3421  -4.8092  -4.6974  -4.5822  -4.4865  -4.4694  -4.2790  -4.2662
    -4.2377  -4.1655  -4.1615  -4.0344  -4.0086  -3.9912  -3.8927  -3.8687
    -3.8213  -3.7684  -3.6828  -3.6606  -3.6504  -3.6316  -3.6190  -3.5967
    -3.5823  -3.5759  -3.5256  -3.5089  -3.4723  -3.4375  -3.4202  -3.3725
    -3.2927  -3.2360  -3.2093  -3.1852  -3.1621  -3.1432  -3.0859  -3.0512
    -3.0070  -2.9933  -2.9721  -2.9537  -2.9445  -2.9162  -2.8889  -2.8747
    -2.8674  -2.8311  -2.7469  -2.7276  -2.6855  -2.6726  -2.6415  -2.6302
    -2.6048  -2.5494  -2.4967  -2.4316  -2.4057  -2.3864  -2.3667  -2.3374
    -2.3241  -2.3155  -2.3110  -2.2887  -2.2625  -2.2602  -2.2483  -2.2328
    -2.2269  -2.1853  -2.1610  -2.1427  -2.0679  -2.0534  -2.0344  -2.0144
    -2.0060  -1.9854  -1.9760  -1.9525  -1.9291  -1.9174  -1.9057  -1.8998
    -1.8884  -1.8840  -1.8749  -1.8555  -1.8423  -1.8394  -1.8207  -1.8042
    -1.7898  -1.7815  -1.7565  -1.7155  -1.7148  -1.6830  -1.6692  -1.6579
    -1.6492  -1.6294  -1.5902  -1.5757  -1.5642  -1.5387  -1.5166  -1.5104
    -1.4869  -1.4838  -1.4777  -1.4548  -1.4412  -1.4251  -1.4169  -1.3666
    -1.3495  -1.3139  -1.2977  -1.2405  -1.1960  -1.1796  -1.1662  -1.0838
    -1.0724  -1.0577  -1.0409  -1.0358  -1.0273  -1.0193  -0.9996  -0.9751
    -0.9721  -0.9573  -0.9356  -0.8902  -0.8801  -0.8637  -0.8448  -0.8397
    -0.8149  -0.7895  -0.7798  -0.7706  -0.7575  -0.7494  -0.6220  -0.6178
    -0.5992  -0.5720  -0.5664  -0.5491  -0.5343  -0.5243  -0.5226  -0.5012
    -0.4844  -0.4579  -0.4311  -0.4137  -0.4031  -0.3945  -0.3549  -0.3365
    -0.3324  -0.3278  -0.3223  -0.2973  -0.2859  -0.2783  -0.2688  -0.2567
    -0.2504  -0.1759  -0.1606  -0.1554  -0.1137  -0.1082  -0.0874   0.0630
     0.1681   0.2313   0.2566   0.4757   0.5100   0.6476   1.0171   1.1338
     1.2397   1.4060

          k = 0.4000-0.2309 0.0000 ( 51204 PWs)   bands (ev):

   -21.8013  -9.2649  -7.0934  -6.4395  -6.0729  -5.7677  -5.5490  -5.3742
    -5.1944  -5.1392  -5.0431  -4.5630  -4.3322  -4.3100  -4.2756  -4.2389
    -4.1711  -4.1203  -4.1138  -4.0166  -3.9866  -3.9813  -3.9521  -3.8177
    -3.8058  -3.7970  -3.7884  -3.7782  -3.7137  -3.6839  -3.6713  -3.5815
    -3.5192  -3.5085  -3.4904  -3.4736  -3.4570  -3.4243  -3.3627  -3.3538
    -3.3437  -3.3323  -3.2876  -3.2208  -3.1300  -3.1060  -3.0369  -3.0269
    -3.0038  -2.9790  -2.9609  -2.9464  -2.9349  -2.9229  -2.9055  -2.8529
    -2.8470  -2.8214  -2.7800  -2.7620  -2.6524  -2.6362  -2.6125  -2.5886
    -2.5503  -2.5300  -2.5021  -2.4937  -2.4707  -2.4170  -2.3643  -2.3606
    -2.3557  -2.3431  -2.3343  -2.3154  -2.2983  -2.2913  -2.2731  -2.2458
    -2.2280  -2.1942  -2.1775  -2.1602  -2.1268  -2.1157  -2.0720  -2.0393
    -2.0250  -2.0133  -1.9955  -1.9741  -1.9668  -1.9280  -1.9120  -1.9080
    -1.8985  -1.8821  -1.8755  -1.8551  -1.8408  -1.8351  -1.8305  -1.7991
    -1.7864  -1.7593  -1.7268  -1.7183  -1.6565  -1.6389  -1.6233  -1.6019
    -1.5945  -1.5746  -1.5529  -1.5237  -1.5126  -1.4919  -1.4885  -1.4785
    -1.4738  -1.4661  -1.4547  -1.4486  -1.4400  -1.4322  -1.4131  -1.4064
    -1.3968  -1.3625  -1.2995  -1.2749  -1.2646  -1.2500  -1.2247  -1.2092
    -1.1818  -1.1285  -1.1076  -1.0997  -1.0636  -1.0447  -1.0228  -0.9786
    -0.9711  -0.9432  -0.9328  -0.9114  -0.8951  -0.8604  -0.8392  -0.7849
    -0.7569  -0.7303  -0.7188  -0.7061  -0.7038  -0.6945  -0.6837  -0.6777
    -0.6569  -0.6385  -0.5570  -0.5477  -0.5428  -0.5362  -0.5269  -0.5028
    -0.4911  -0.4820  -0.4686  -0.4647  -0.4426  -0.4213  -0.3722  -0.3575
    -0.3440  -0.3290  -0.3019  -0.2582  -0.2530  -0.2256  -0.2168  -0.1817
    -0.1417  -0.1375  -0.1329  -0.1161  -0.1103  -0.1060  -0.0948  -0.0360
    -0.0045   0.0388   0.4649   0.5984   0.9273   1.0909   1.1259   1.2882
     1.4739   1.5159

          k = 0.4000 0.0000 0.0000 ( 51202 PWs)   bands (ev):

   -21.8013  -9.2672  -7.2322  -6.1627  -6.0209  -5.9263  -5.6548  -5.4534
    -5.3736  -4.8086  -4.7313  -4.5313  -4.4886  -4.4742  -4.2939  -4.2656
    -4.2252  -4.1660  -4.1609  -4.0642  -4.0320  -3.9230  -3.8919  -3.8575
    -3.8184  -3.7717  -3.6838  -3.6716  -3.6373  -3.6323  -3.6172  -3.6030
    -3.5815  -3.5752  -3.5375  -3.5151  -3.4681  -3.4422  -3.4357  -3.3729
    -3.2919  -3.2489  -3.2103  -3.1771  -3.1626  -3.1505  -3.0900  -3.0493
    -3.0148  -2.9817  -2.9717  -2.9647  -2.9355  -2.9132  -2.8948  -2.8821
    -2.8624  -2.8308  -2.7574  -2.6972  -2.6825  -2.6632  -2.6497  -2.6243
    -2.6030  -2.5476  -2.4991  -2.4320  -2.4067  -2.3864  -2.3675  -2.3409
    -2.3234  -2.3157  -2.3122  -2.2914  -2.2652  -2.2570  -2.2490  -2.2407
    -2.2218  -2.1823  -2.1630  -2.1088  -2.0657  -2.0546  -2.0390  -2.0183
    -2.0018  -1.9894  -1.9562  -1.9509  -1.9427  -1.9132  -1.9058  -1.8957
    -1.8861  -1.8829  -1.8750  -1.8524  -1.8485  -1.8376  -1.8200  -1.8159
    -1.7903  -1.7665  -1.7403  -1.7188  -1.7122  -1.6783  -1.6668  -1.6623
    -1.6506  -1.6323  -1.6077  -1.5766  -1.5616  -1.5539  -1.5283  -1.5059
    -1.4992  -1.4857  -1.4710  -1.4519  -1.4385  -1.4323  -1.4199  -1.3708
    -1.3465  -1.3339  -1.3149  -1.2324  -1.2051  -1.1811  -1.1688  -1.0973
    -1.0645  -1.0520  -1.0410  -1.0357  -1.0273  -1.0172  -0.9938  -0.9926
    -0.9663  -0.9479  -0.9316  -0.8907  -0.8744  -0.8591  -0.8506  -0.8404
    -0.8136  -0.7932  -0.7779  -0.7735  -0.7586  -0.7454  -0.6260  -0.6080
    -0.5850  -0.5726  -0.5629  -0.5564  -0.5365  -0.5236  -0.5175  -0.5084
    -0.4850  -0.4535  -0.4345  -0.4212  -0.4021  -0.3907  -0.3477  -0.3380
    -0.3316  -0.3277  -0.3210  -0.2992  -0.2863  -0.2793  -0.2700  -0.2522
    -0.2425  -0.1725  -0.1593  -0.1564  -0.1112  -0.1055  -0.0715   0.0466
     0.2066   0.2339   0.2791   0.4060   0.5438   0.6414   0.9617   1.1285
     1.2376   1.4293

          k = 0.4000 0.2309 0.0000 ( 51204 PWs)   bands (ev):

   -21.8014  -9.2633  -7.0964  -6.4441  -6.0806  -5.8082  -5.4572  -5.4167
    -5.1938  -5.1359  -5.0317  -4.5790  -4.3425  -4.2987  -4.2920  -4.2386
    -4.1620  -4.1209  -4.1170  -4.0046  -3.9860  -3.9831  -3.8924  -3.8256
    -3.8049  -3.7914  -3.7886  -3.7783  -3.6899  -3.6824  -3.6713  -3.6341
    -3.5221  -3.5167  -3.5016  -3.4718  -3.4691  -3.4228  -3.3650  -3.3560
    -3.3451  -3.3329  -3.2902  -3.2105  -3.1317  -3.0932  -3.0379  -3.0132
    -3.0087  -2.9750  -2.9640  -2.9600  -2.9467  -2.9193  -2.8878  -2.8564
    -2.8482  -2.8248  -2.7886  -2.7408  -2.6437  -2.6283  -2.6228  -2.5862
    -2.5538  -2.5227  -2.5048  -2.4987  -2.4865  -2.4169  -2.3698  -2.3609
    -2.3554  -2.3443  -2.3309  -2.3143  -2.2976  -2.2930  -2.2724  -2.2324
    -2.2156  -2.1965  -2.1855  -2.1698  -2.1215  -2.1091  -2.0571  -2.0477
    -2.0255  -2.0192  -1.9985  -1.9854  -1.9582  -1.9234  -1.9155  -1.9110
    -1.8929  -1.8809  -1.8671  -1.8519  -1.8495  -1.8362  -1.8335  -1.8029
    -1.7853  -1.7578  -1.7261  -1.7256  -1.6624  -1.6434  -1.6232  -1.6023
    -1.5775  -1.5719  -1.5440  -1.5160  -1.5131  -1.4972  -1.4854  -1.4801
    -1.4745  -1.4717  -1.4527  -1.4502  -1.4367  -1.4333  -1.4202  -1.4008
    -1.3786  -1.3671  -1.3311  -1.2753  -1.2597  -1.2488  -1.2254  -1.2090
    -1.1819  -1.1294  -1.1166  -1.1037  -1.0950  -1.0423  -1.0370  -1.0007
    -0.9739  -0.9399  -0.9256  -0.9206  -0.8903  -0.8566  -0.8269  -0.7958
    -0.7289  -0.7254  -0.7207  -0.7103  -0.7011  -0.6908  -0.6834  -0.6669
    -0.6588  -0.6508  -0.5552  -0.5511  -0.5342  -0.5312  -0.5228  -0.5044
    -0.4916  -0.4805  -0.4728  -0.4577  -0.4466  -0.4181  -0.3693  -0.3496
    -0.3485  -0.3306  -0.2892  -0.2552  -0.2515  -0.2179  -0.2155  -0.1811
    -0.1445  -0.1331  -0.1313  -0.1123  -0.1053  -0.1046  -0.0781  -0.0551
    -0.0044   0.0407   0.4184   0.7319   0.8549   1.0317   1.1303   1.1980
     1.4821   1.5458

          k = 0.4000-0.6928 0.0000 ( 51262 PWs)   bands (ev):

   -21.8014  -9.2589  -6.7252  -6.6611  -6.0985  -5.9085  -5.7971  -5.4178
    -5.1979  -5.1721  -4.8232  -4.4815  -4.4278  -4.2169  -4.1838  -4.0534
    -4.0490  -4.0269  -4.0177  -3.9909  -3.9645  -3.9423  -3.9342  -3.9266
    -3.9071  -3.8021  -3.7909  -3.7830  -3.7660  -3.7525  -3.7149  -3.6125
    -3.6022  -3.5923  -3.5784  -3.5590  -3.4910  -3.4287  -3.3434  -3.3123
    -3.3064  -3.2666  -3.2149  -3.2037  -3.1787  -3.1226  -3.0946  -3.0901
    -3.0774  -3.0149  -2.9957  -2.9275  -2.8908  -2.8614  -2.8577  -2.8027
    -2.7901  -2.7304  -2.7237  -2.7151  -2.7003  -2.6916  -2.6440  -2.6311
    -2.5463  -2.5120  -2.5029  -2.4852  -2.4720  -2.4364  -2.4199  -2.3641
    -2.3570  -2.3242  -2.3146  -2.2952  -2.2895  -2.2682  -2.2529  -2.2314
    -2.2239  -2.2122  -2.1849  -2.1809  -2.1659  -2.1614  -2.1020  -2.0906
    -2.0764  -2.0501  -2.0068  -1.9733  -1.9560  -1.9393  -1.9251  -1.9193
    -1.8955  -1.8867  -1.8843  -1.8597  -1.8445  -1.8417  -1.8200  -1.7674
    -1.7496  -1.7463  -1.7312  -1.7179  -1.7088  -1.7069  -1.6978  -1.6863
    -1.6802  -1.6782  -1.6542  -1.6335  -1.5799  -1.5757  -1.5634  -1.5304
    -1.4940  -1.4807  -1.4576  -1.4266  -1.4173  -1.4071  -1.3963  -1.3853
    -1.3332  -1.3290  -1.2940  -1.2557  -1.1958  -1.1943  -1.1804  -1.1543
    -1.1344  -1.1253  -1.1122  -1.1069  -1.0848  -1.0623  -1.0317  -1.0058
    -0.9790  -0.9723  -0.9509  -0.9336  -0.9225  -0.8914  -0.8733  -0.8653
    -0.8389  -0.8244  -0.8133  -0.7880  -0.7694  -0.7629  -0.7328  -0.5851
    -0.5666  -0.5608  -0.5498  -0.5362  -0.5349  -0.5191  -0.5056  -0.4761
    -0.4742  -0.4621  -0.4503  -0.4468  -0.3887  -0.3342  -0.3302  -0.3143
    -0.3038  -0.2954  -0.2811  -0.2475  -0.2378  -0.2265  -0.2175  -0.2047
    -0.2012  -0.1672  -0.1307  -0.1214  -0.1093  -0.0972  -0.0782  -0.0294
     0.1664   0.2699   0.5727   0.8593   0.9665   1.1714   1.2367   1.5800
     1.6807   1.7200

          k = 0.4000-0.4619 0.0000 ( 51262 PWs)   bands (ev):

   -21.8014  -9.2599  -6.7143  -6.6659  -6.0985  -5.9397  -5.7137  -5.4827
    -5.2247  -5.1588  -4.7942  -4.4754  -4.4211  -4.2239  -4.1852  -4.0619
    -4.0487  -4.0367  -4.0225  -4.0091  -3.9533  -3.9431  -3.9354  -3.9323
    -3.9069  -3.8453  -3.7901  -3.7787  -3.7629  -3.7525  -3.6922  -3.6120
    -3.6026  -3.5895  -3.5708  -3.5299  -3.4782  -3.4317  -3.3490  -3.3114
    -3.3055  -3.2730  -3.2203  -3.2060  -3.1795  -3.1343  -3.0951  -3.0893
    -3.0527  -3.0252  -2.9816  -2.9288  -2.8957  -2.8693  -2.8557  -2.8096
    -2.7923  -2.7305  -2.7243  -2.7135  -2.7004  -2.6831  -2.6642  -2.6168
    -2.5518  -2.5119  -2.5017  -2.4905  -2.4599  -2.4286  -2.4121  -2.3650
    -2.3610  -2.3210  -2.3075  -2.3036  -2.2909  -2.2718  -2.2553  -2.2427
    -2.2266  -2.2157  -2.2031  -2.1786  -2.1720  -2.1346  -2.1007  -2.0889
    -2.0750  -2.0515  -2.0006  -1.9773  -1.9575  -1.9388  -1.9256  -1.9180
    -1.8977  -1.8858  -1.8746  -1.8701  -1.8516  -1.8304  -1.8258  -1.7835
    -1.7678  -1.7437  -1.7349  -1.7265  -1.7122  -1.7051  -1.6939  -1.6813
    -1.6777  -1.6695  -1.6461  -1.6235  -1.5874  -1.5737  -1.5626  -1.5275
    -1.4855  -1.4792  -1.4582  -1.4288  -1.4164  -1.4062  -1.4003  -1.3668
    -1.3351  -1.3270  -1.2987  -1.2462  -1.2018  -1.1866  -1.1756  -1.1564
    -1.1326  -1.1303  -1.1210  -1.0917  -1.0696  -1.0586  -1.0421  -1.0205
    -0.9778  -0.9698  -0.9539  -0.9361  -0.9200  -0.8790  -0.8662  -0.8546
    -0.8496  -0.8207  -0.8138  -0.7977  -0.7781  -0.7631  -0.7308  -0.5854
    -0.5677  -0.5580  -0.5470  -0.5403  -0.5300  -0.5249  -0.5072  -0.4860
    -0.4728  -0.4621  -0.4519  -0.4399  -0.3945  -0.3483  -0.3296  -0.3182
    -0.3027  -0.2978  -0.2747  -0.2651  -0.2386  -0.2252  -0.2194  -0.2049
    -0.1947  -0.1415  -0.1315  -0.1220  -0.1106  -0.0941  -0.0776  -0.0336
     0.1501   0.2634   0.5148   0.9040   1.0192   1.1739   1.2602   1.5399
     1.6725   1.7259

 ------ SPIN DOWN ----------


          k = 0.0000 0.0000 0.0000 ( 51087 PWs)   bands (ev):

   -21.8890  -9.3807  -7.7897  -6.5150  -5.7785  -5.6148  -5.4485  -4.7430
    -4.6400  -4.6339  -4.6311  -4.5898  -4.5867  -4.5612  -4.0400  -3.7643
    -3.7584  -3.7465  -3.7193  -3.7115  -3.6521  -3.2784  -2.8203  -2.8178
    -2.8060  -2.7961  -2.7232  -2.5917  -2.3517  -2.3476  -2.3390  -2.3374
    -2.3135  -2.2382  -2.1489  -2.1479  -2.0782  -2.0509  -2.0508  -2.0487
    -1.9630  -1.9629  -1.9148  -1.9129  -1.8335  -1.8202  -1.8116  -1.8010
    -1.7600  -1.7526  -1.5595  -1.5463  -1.5427  -1.5396  -1.5234  -1.5204
    -1.5096  -1.5086  -1.4797  -1.4745  -1.4402  -1.4326  -1.4299  -1.4258
    -1.3537  -1.2752  -0.8953  -0.8719  -0.8606  -0.8569  -0.8266  -0.7749
    -0.6613  -0.6382  -0.5530  -0.5453  -0.5339  -0.5269  -0.5168  -0.5013
    -0.4724  -0.4683  -0.4496  -0.4476  -0.4350  -0.4347  -0.3806  -0.3700
    -0.3502  -0.3330  -0.3270  -0.3080  -0.2968  -0.2901  -0.2872  -0.2716
    -0.2705  -0.2644  -0.2554  -0.2473  -0.2467  -0.2462  -0.1978  -0.1703
    -0.1603  -0.1203  -0.0966  -0.0539  -0.0380  -0.0317  -0.0227  -0.0178
    -0.0145  -0.0104  -0.0096   0.0434   0.0653   0.0655   0.1152   0.1431
     0.1510   0.1536   0.1690   0.2006   0.3053   0.3434   0.3911   0.3951
     0.4475   0.4619   0.4691   0.4707   0.5999   0.6915   0.6995   0.7905
     0.8020   0.8867   0.9151   0.9811   1.0155   1.0298   1.0362   1.0372
     1.1239   1.1276   1.1874   1.2031   1.2095   1.2139   1.2168   1.2440
     1.2602   1.2629   1.2810   1.2950   1.3082   1.3200   1.3303   1.3457
     1.3577   1.3625   1.3673   1.3700   1.3857   1.4242   1.4301   1.4370
     1.4432   1.4595   1.4652   1.4800   1.4903   1.4975   1.5009   1.5335
     1.5383   1.5557   1.5601   1.5605   1.5738   1.5795   1.5843   1.6198
     1.6261   1.6279   1.6316   1.6355   1.6431   1.6496   1.6602   1.6640
     1.6709   1.7101   1.7110   1.8565   1.8574   1.8611   1.8661   1.8664
     1.8720   2.0253

          k = 0.0000 0.2309 0.0000 ( 51134 PWs)   bands (ev):

   -21.8890  -9.3708  -7.6472  -6.4067  -5.8370  -5.6539  -5.5546  -5.3868
    -5.0017  -4.9765  -4.6148  -4.4327  -4.0938  -4.0791  -4.0293  -3.9338
    -3.8160  -3.7424  -3.4550  -3.3977  -3.3593  -3.2479  -2.9445  -2.8005
    -2.7795  -2.7350  -2.6811  -2.6077  -2.4446  -2.3808  -2.3734  -2.3576
    -2.3324  -2.2983  -2.2914  -2.2845  -2.2348  -2.2072  -2.1106  -2.1070
    -2.0207  -2.0173  -1.9674  -1.8590  -1.8440  -1.8262  -1.8138  -1.7141
    -1.6796  -1.6636  -1.6105  -1.5813  -1.5638  -1.5466  -1.5279  -1.5239
    -1.5109  -1.4968  -1.4201  -1.4008  -1.3910  -1.3728  -1.3385  -1.2892
    -1.2556  -1.1595  -0.9757  -0.9406  -0.9094  -0.9071  -0.8429  -0.7989
    -0.7548  -0.7269  -0.6901  -0.6610  -0.6397  -0.5848  -0.5587  -0.5523
    -0.5130  -0.5050  -0.4897  -0.4863  -0.4737  -0.4504  -0.4312  -0.3900
    -0.3540  -0.3283  -0.3229  -0.3148  -0.3085  -0.2852  -0.2644  -0.2527
    -0.2430  -0.2353  -0.2299  -0.2235  -0.2216  -0.2207  -0.1977  -0.1710
    -0.1476  -0.1373  -0.1232  -0.1136  -0.1020  -0.0857  -0.0613  -0.0407
    -0.0296  -0.0070   0.0217   0.0553   0.0849   0.0994   0.1065   0.1325
     0.2442   0.2694   0.2786   0.3230   0.3608   0.3624   0.3952   0.4170
     0.4241   0.4329   0.4457   0.4504   0.6084   0.6663   0.7220   0.7714
     0.7805   0.7948   0.8057   0.8177   0.8707   0.8866   0.9199   0.9561
     1.0097   1.0178   1.0306   1.0762   1.0897   1.1103   1.1360   1.1726
     1.1971   1.2195   1.2452   1.2543   1.2666   1.2810   1.3180   1.3259
     1.3404   1.3690   1.4000   1.4132   1.4328   1.4427   1.4657   1.4764
     1.5082   1.5221   1.5247   1.5282   1.5516   1.6023   1.6084   1.6138
     1.6250   1.6470   1.6492   1.6819   1.6861   1.7006   1.7047   1.7088
     1.7258   1.7718   1.7782   1.7910   1.7942   1.8038   1.8146   1.8284
     1.8496   1.8536   1.8616   1.8932   1.9472   1.9640   1.9675   2.0233
     2.0474   2.1032

          k = 0.0000 0.4619 0.0000 ( 51204 PWs)   bands (ev):

   -21.8890  -9.3551  -7.2238  -6.5469  -6.1299  -5.7859  -5.6148  -5.4020
    -5.2102  -5.1497  -5.0416  -4.3930  -4.1084  -4.0242  -3.7722  -3.4679
    -3.4588  -3.3807  -3.3344  -3.1640  -3.0671  -3.0173  -2.9885  -2.8665
    -2.8590  -2.7926  -2.7505  -2.7170  -2.6449  -2.6228  -2.6080  -2.5589
    -2.5390  -2.4080  -2.3380  -2.3216  -2.2477  -2.2258  -2.1288  -2.1250
    -2.1116  -2.0903  -2.0654  -1.8393  -1.8160  -1.8052  -1.7740  -1.7508
    -1.6094  -1.5989  -1.5864  -1.5692  -1.5613  -1.5348  -1.5328  -1.5084
    -1.4988  -1.4249  -1.4187  -1.3976  -1.3785  -1.3614  -1.2120  -1.1851
    -1.0826  -1.0448  -0.9636  -0.9357  -0.9340  -0.8967  -0.8757  -0.8640
    -0.8495  -0.8235  -0.8057  -0.7763  -0.7303  -0.7012  -0.6798  -0.6487
    -0.6258  -0.6182  -0.5856  -0.5758  -0.5392  -0.5170  -0.4761  -0.4073
    -0.4002  -0.3844  -0.3618  -0.3339  -0.3079  -0.2946  -0.2670  -0.2493
    -0.2158  -0.2123  -0.1974  -0.1799  -0.1682  -0.1650  -0.1412  -0.1258
    -0.1064  -0.0911  -0.0814  -0.0661  -0.0585  -0.0521  -0.0394  -0.0172
    -0.0047   0.0223   0.0689   0.1118   0.1353   0.1432   0.1584   0.1990
     0.2066   0.2166   0.2354   0.2779   0.2928   0.3119   0.3305   0.3369
     0.3875   0.3958   0.4015   0.4212   0.4573   0.5377   0.5897   0.5920
     0.6573   0.6776   0.6975   0.7595   0.8052   0.8465   0.8684   0.8828
     0.9069   0.9239   0.9411   0.9651   0.9846   1.0676   1.1456   1.1669
     1.1776   1.1901   1.2335   1.2477   1.2808   1.3018   1.3187   1.3407
     1.3669   1.3836   1.3884   1.4521   1.4725   1.4811   1.5237   1.5326
     1.5433   1.5500   1.5732   1.5821   1.6050   1.6200   1.6286   1.6567
     1.6643   1.7160   1.7513   1.7628   1.7776   1.7922   1.8003   1.8263
     1.8294   1.8541   1.8587   1.8708   1.8905   1.8954   1.9031   1.9090
     1.9507   2.0104   2.0353   2.1167   2.1258   2.2079   2.5433   2.6043
     2.6498   2.6862

          k = 0.2000-0.1155 0.0000 ( 51134 PWs)   bands (ev):

   -21.8890  -9.3706  -7.6473  -6.4073  -5.8425  -5.6516  -5.5474  -5.3923
    -5.0001  -4.9772  -4.6180  -4.4167  -4.1054  -4.0794  -4.0403  -3.9340
    -3.8049  -3.7445  -3.4610  -3.3981  -3.3380  -3.2484  -2.9596  -2.7991
    -2.7722  -2.7441  -2.6815  -2.5985  -2.4506  -2.3804  -2.3732  -2.3621
    -2.3308  -2.3012  -2.2918  -2.2851  -2.2352  -2.2033  -2.1101  -2.1072
    -2.0206  -2.0179  -1.9693  -1.8593  -1.8436  -1.8257  -1.8075  -1.7127
    -1.6806  -1.6648  -1.6109  -1.5812  -1.5627  -1.5465  -1.5290  -1.5242
    -1.5078  -1.4965  -1.4212  -1.4010  -1.3904  -1.3706  -1.3396  -1.2914
    -1.2548  -1.1616  -0.9752  -0.9380  -0.9098  -0.9078  -0.8421  -0.7979
    -0.7614  -0.7248  -0.6901  -0.6601  -0.6392  -0.5862  -0.5582  -0.5514
    -0.5120  -0.5060  -0.4895  -0.4833  -0.4741  -0.4513  -0.4378  -0.3917
    -0.3452  -0.3292  -0.3214  -0.3194  -0.3081  -0.2825  -0.2655  -0.2542
    -0.2436  -0.2344  -0.2297  -0.2232  -0.2216  -0.2205  -0.1981  -0.1712
    -0.1464  -0.1365  -0.1228  -0.1128  -0.1043  -0.0886  -0.0607  -0.0419
    -0.0268  -0.0067   0.0235   0.0566   0.0837   0.1004   0.1064   0.1328
     0.2453   0.2699   0.2780   0.3226   0.3576   0.3635   0.3921   0.4166
     0.4220   0.4338   0.4466   0.4504   0.6054   0.6723   0.7192   0.7708
     0.7800   0.7957   0.8063   0.8178   0.8654   0.8870   0.9197   0.9566
     1.0083   1.0204   1.0294   1.0789   1.0915   1.1138   1.1361   1.1673
     1.1975   1.2165   1.2471   1.2547   1.2658   1.2826   1.3179   1.3263
     1.3412   1.3664   1.3982   1.4142   1.4343   1.4423   1.4676   1.4779
     1.5094   1.5218   1.5261   1.5285   1.5505   1.6007   1.6079   1.6134
     1.6238   1.6467   1.6496   1.6822   1.6864   1.7000   1.7048   1.7098
     1.7255   1.7718   1.7784   1.7915   1.7947   1.8039   1.8160   1.8284
     1.8485   1.8538   1.8613   1.8911   1.9470   1.9637   1.9683   2.0246
     2.0469   2.0991

          k = 0.2000 0.1155 0.0000 ( 51134 PWs)   bands (ev):

   -21.8890  -9.3699  -7.6480  -6.4105  -5.8683  -5.6377  -5.4721  -5.4559
    -4.9963  -4.9795  -4.6405  -4.3530  -4.1211  -4.0799  -4.0492  -3.9668
    -3.7932  -3.7421  -3.4680  -3.4044  -3.3104  -3.2257  -2.9813  -2.8244
    -2.7691  -2.7206  -2.7107  -2.5678  -2.4627  -2.3815  -2.3733  -2.3545
    -2.3394  -2.3069  -2.2911  -2.2882  -2.2490  -2.1848  -2.1105  -2.1048
    -2.0214  -2.0186  -1.9619  -1.8636  -1.8347  -1.8208  -1.8168  -1.7024
    -1.6825  -1.6681  -1.6036  -1.5912  -1.5721  -1.5428  -1.5239  -1.5221
    -1.5204  -1.4582  -1.4411  -1.4041  -1.3847  -1.3741  -1.3356  -1.3021
    -1.2425  -1.1678  -0.9775  -0.9436  -0.9112  -0.8998  -0.8313  -0.8094
    -0.7884  -0.6910  -0.6840  -0.6777  -0.6509  -0.5862  -0.5666  -0.5420
    -0.5174  -0.5017  -0.4948  -0.4779  -0.4754  -0.4490  -0.4459  -0.3859
    -0.3417  -0.3318  -0.3241  -0.3158  -0.3067  -0.2745  -0.2669  -0.2488
    -0.2470  -0.2338  -0.2321  -0.2276  -0.2235  -0.2207  -0.1843  -0.1745
    -0.1512  -0.1390  -0.1201  -0.1188  -0.1032  -0.0805  -0.0597  -0.0512
    -0.0247  -0.0102   0.0413   0.0671   0.0749   0.0850   0.1010   0.1325
     0.2183   0.2826   0.3017   0.3166   0.3546   0.3699   0.3804   0.4116
     0.4232   0.4360   0.4489   0.4496   0.6481   0.6633   0.6962   0.7673
     0.7852   0.7879   0.8150   0.8238   0.8605   0.8947   0.9023   0.9539
     0.9664   1.0297   1.0513   1.0785   1.0862   1.1246   1.1395   1.1491
     1.1897   1.2368   1.2480   1.2619   1.2721   1.2817   1.3188   1.3239
     1.3396   1.3733   1.4013   1.4260   1.4313   1.4440   1.4655   1.4768
     1.4962   1.5218   1.5268   1.5381   1.5439   1.5967   1.5995   1.6123
     1.6272   1.6450   1.6543   1.6844   1.6932   1.6973   1.7053   1.7083
     1.7273   1.7715   1.7797   1.7916   1.7925   1.8049   1.8130   1.8275
     1.8517   1.8572   1.8596   1.8704   1.9459   1.9619   1.9692   2.0163
     2.0524   2.0960

          k = 0.2000 0.3464 0.0000 ( 51202 PWs)   bands (ev):

   -21.8890  -9.3571  -7.3652  -6.2299  -6.0886  -6.0105  -5.6698  -5.5022
    -5.4056  -4.7801  -4.6440  -4.3374  -4.2615  -4.2564  -3.7908  -3.4445
    -3.4298  -3.4284  -3.4091  -3.2754  -3.1631  -3.1353  -3.1073  -2.8972
    -2.7630  -2.6854  -2.6794  -2.6627  -2.5928  -2.5681  -2.5530  -2.4800
    -2.4718  -2.4599  -2.4274  -2.3290  -2.3108  -2.2520  -2.0927  -2.0798
    -2.0527  -1.9972  -1.9794  -1.9522  -1.9373  -1.7999  -1.7465  -1.7328
    -1.6324  -1.6167  -1.5691  -1.5660  -1.5539  -1.5414  -1.5262  -1.5081
    -1.4856  -1.4805  -1.4237  -1.3862  -1.3475  -1.3055  -1.2055  -1.1704
    -1.1091  -1.0741  -0.9934  -0.9621  -0.9008  -0.8762  -0.8623  -0.8387
    -0.8131  -0.7807  -0.7673  -0.7330  -0.7043  -0.6914  -0.6793  -0.6528
    -0.6363  -0.6158  -0.6025  -0.5699  -0.5592  -0.4773  -0.4381  -0.4236
    -0.4112  -0.3886  -0.3638  -0.3514  -0.3251  -0.3034  -0.2898  -0.2783
    -0.2623  -0.2450  -0.2363  -0.2149  -0.2047  -0.1866  -0.1659  -0.1384
    -0.1270  -0.1158  -0.1055  -0.0922  -0.0829  -0.0760  -0.0598  -0.0463
     0.0135   0.0373   0.0436   0.0609   0.1529   0.1715   0.1938   0.2235
     0.2417   0.2733   0.2909   0.3001   0.3329   0.3622   0.3721   0.3805
     0.3886   0.4169   0.4524   0.4698   0.5255   0.5945   0.6335   0.6755
     0.7293   0.7592   0.8000   0.8242   0.8316   0.8447   0.8572   0.8768
     0.8904   0.9063   0.9178   0.9368   0.9742   1.0309   1.0624   1.0962
     1.1154   1.1377   1.1577   1.1778   1.1873   1.2421   1.2512   1.2957
     1.3365   1.4019   1.4324   1.4818   1.5004   1.5149   1.5303   1.5429
     1.5559   1.5629   1.5878   1.5952   1.6493   1.6660   1.6692   1.6747
     1.6907   1.7217   1.7304   1.7433   1.7483   1.7699   1.7784   1.8026
     1.8073   1.8157   1.8243   1.8364   1.8506   1.8656   1.9032   1.9340
     1.9462   1.9738   2.0378   2.0733   2.1763   2.2153   2.3186   2.4880
     2.5293   2.5404

          k = 0.2000-0.5774 0.0000 ( 51262 PWs)   bands (ev):

   -21.8890  -9.3500  -6.8309  -6.7905  -6.1827  -5.9871  -5.7393  -5.5537
    -5.2517  -5.1902  -4.7553  -4.3331  -4.1912  -3.7663  -3.4877  -3.4644
    -3.4553  -3.3524  -3.2177  -3.1294  -3.0529  -3.0435  -3.0291  -2.9122
    -2.9046  -2.8900  -2.8705  -2.8602  -2.7434  -2.6267  -2.5310  -2.5101
    -2.4968  -2.4559  -2.4438  -2.4245  -2.3745  -2.3146  -2.2205  -2.0758
    -1.9798  -1.9686  -1.9556  -1.9371  -1.8824  -1.8048  -1.7349  -1.7236
    -1.6859  -1.6716  -1.6670  -1.5660  -1.5191  -1.5041  -1.4964  -1.4792
    -1.4443  -1.3818  -1.3498  -1.3371  -1.2849  -1.2666  -1.2485  -1.1471
    -1.1018  -1.0125  -0.9700  -0.9533  -0.9445  -0.8868  -0.8743  -0.8336
    -0.8186  -0.8075  -0.7837  -0.7570  -0.7449  -0.6951  -0.6783  -0.6613
    -0.6452  -0.6265  -0.6136  -0.6014  -0.5862  -0.5834  -0.5446  -0.5202
    -0.5137  -0.4777  -0.4475  -0.4327  -0.4004  -0.3762  -0.3453  -0.3008
    -0.2714  -0.2373  -0.2296  -0.2087  -0.1821  -0.1710  -0.1607  -0.1380
    -0.0995  -0.0760  -0.0658  -0.0501  -0.0307  -0.0212   0.0257   0.0695
     0.0964   0.1151   0.1238   0.1302   0.1519   0.1688   0.1988   0.2206
     0.2369   0.2439   0.2986   0.3123   0.3376   0.3517   0.3746   0.3994
     0.4091   0.4262   0.4451   0.4669   0.4797   0.4974   0.5126   0.5654
     0.5997   0.6487   0.7079   0.7331   0.7682   0.7930   0.8228   0.8337
     0.8536   0.8692   0.8824   0.9443   0.9833   1.0275   1.0420   1.0611
     1.0891   1.0962   1.1476   1.1707   1.1909   1.2109   1.2362   1.2850
     1.3629   1.4078   1.4485   1.4530   1.5042   1.5400   1.5694   1.5799
     1.5941   1.6027   1.6139   1.6262   1.6526   1.6727   1.6810   1.6926
     1.7341   1.7558   1.7619   1.7752   1.7799   1.7822   1.7931   1.7966
     1.8123   1.8501   1.8589   1.8834   1.8911   1.9089   1.9150   1.9367
     1.9964   2.0686   2.2036   2.3189   2.4388   2.6380   2.7222   2.7954
     2.8348   2.9087

          k = 0.2000-0.3464 0.0000 ( 51202 PWs)   bands (ev):

   -21.8890  -9.3581  -7.3631  -6.2305  -6.0531  -6.0258  -5.6628  -5.5562
    -5.3826  -4.7746  -4.6161  -4.4028  -4.2638  -4.2335  -3.7754  -3.4451
    -3.4349  -3.4275  -3.4084  -3.3005  -3.1505  -3.1409  -3.1061  -2.8850
    -2.7612  -2.6959  -2.6817  -2.6292  -2.5952  -2.5733  -2.5644  -2.4821
    -2.4741  -2.4614  -2.4269  -2.3257  -2.2868  -2.2508  -2.0895  -2.0865
    -2.0638  -2.0140  -1.9724  -1.9521  -1.9309  -1.7964  -1.7498  -1.7295
    -1.6547  -1.5989  -1.5731  -1.5684  -1.5556  -1.5386  -1.5325  -1.5097
    -1.4984  -1.4713  -1.4308  -1.4007  -1.3533  -1.2945  -1.1997  -1.1689
    -1.1101  -1.0769  -0.9970  -0.9295  -0.8949  -0.8766  -0.8680  -0.8296
    -0.8104  -0.7894  -0.7466  -0.7356  -0.7147  -0.6897  -0.6749  -0.6573
    -0.6351  -0.6270  -0.6030  -0.5908  -0.5292  -0.4859  -0.4419  -0.4266
    -0.4086  -0.3993  -0.3591  -0.3476  -0.3124  -0.3091  -0.2952  -0.2737
    -0.2560  -0.2508  -0.2400  -0.2167  -0.2004  -0.1780  -0.1514  -0.1421
    -0.1379  -0.1226  -0.1151  -0.0853  -0.0813  -0.0664  -0.0631  -0.0458
     0.0215   0.0368   0.0480   0.0739   0.1316   0.1645   0.1974   0.2266
     0.2391   0.2605   0.2915   0.3156   0.3430   0.3638   0.3707   0.3823
     0.3864   0.4288   0.4461   0.4582   0.5156   0.5748   0.6463   0.6849
     0.7302   0.7449   0.8114   0.8246   0.8335   0.8503   0.8611   0.8799
     0.8903   0.9121   0.9242   0.9307   0.9756   1.0271   1.0587   1.0783
     1.1143   1.1419   1.1560   1.1833   1.1954   1.2295   1.2559   1.3051
     1.3150   1.3966   1.4470   1.4897   1.4931   1.5242   1.5266   1.5404
     1.5580   1.5608   1.5867   1.5945   1.6493   1.6598   1.6701   1.6778
     1.7018   1.7199   1.7262   1.7412   1.7512   1.7658   1.7779   1.7982
     1.8083   1.8166   1.8243   1.8335   1.8472   1.8593   1.9052   1.9342
[...]
     atom    8 type  1   force =    -0.00001179   -0.00136358   -0.10439576
     atom    9 type  1   force =    -0.00087449    0.00060646   -0.10588113
     atom   10 type  1   force =    -0.00056984    0.00003887   -0.01551334
     atom   11 type  1   force =     0.00140846   -0.00197808   -0.00896047
     atom   12 type  1   force =    -0.00103840    0.00052887   -0.01043293
     atom   13 type  1   force =    -0.00116974    0.00201243   -0.00867862
     atom   14 type  1   force =     0.00105954    0.00064134   -0.00552299
     atom   15 type  1   force =    -0.00008018    0.00073959   -0.00990087
     atom   16 type  1   force =    -0.00004255   -0.00123323   -0.01066251
     atom   17 type  1   force =     0.00051126   -0.00080838   -0.01025118
     atom   18 type  1   force =    -0.00089577   -0.00045629   -0.01208803
     atom   19 type  1   force =    -0.00327297   -0.00455573    0.00277148
     atom   20 type  1   force =    -0.00633166   -0.00416348   -0.00223604
     atom   21 type  1   force =     0.01161740   -0.00795296   -0.00302159
     atom   22 type  1   force =     0.00110158    0.00441411    0.00773434
     atom   23 type  1   force =    -0.00073124    0.01433114   -0.00329636
     atom   24 type  1   force =    -0.00059108    0.00029443    0.01268945
     atom   25 type  1   force =    -0.00011180   -0.00009528    0.01741006
     atom   26 type  1   force =    -0.00531915   -0.00116597    0.00497745
     atom   27 type  1   force =     0.00404117   -0.00143173    0.00729995
     atom   28 type  1   force =     0.00515931    0.00267533    0.12500870
     atom   29 type  1   force =    -0.00197535    0.04624546    0.11634809
     atom   30 type  1   force =    -0.00205100    0.01156214    0.13481800
     atom   31 type  1   force =     0.04026138   -0.02540707    0.11440508
     atom   32 type  1   force =    -0.06633155   -0.03685964    0.03263190
     atom   33 type  1   force =    -0.01080921    0.00507548    0.11471779
     atom   34 type  1   force =     0.00450927   -0.00565200    0.13066169
     atom   35 type  1   force =     0.00061105   -0.01811890    0.12439594
     atom   36 type  1   force =    -0.00064936   -0.00004108    0.10839909
     atom   37 type  2   force =    -0.06416011   -0.04472455    0.38546637
     atom   38 type  3   force =     0.44341030    0.24871739   -2.63315567
     atom   39 type  4   force =    -0.00784913   -0.00361965   -0.02433960
     The ionic contribution  to forces
     atom    1 type  1   force =    -0.00791868   -0.00045988 -111.16638430
     atom    2 type  1   force =    -0.00105995   -0.00071438 -111.18445825
     atom    3 type  1   force =     0.00897868   -0.00143376 -111.16852036
     atom    4 type  1   force =    -0.00470037    0.00821217 -111.16557361
     atom    5 type  1   force =     0.00333597    0.00867484 -111.16828828
     atom    6 type  1   force =     0.00136436    0.00101941 -111.15897569
     atom    7 type  1   force =    -0.00029050   -0.00029895 -111.15694813
     atom    8 type  1   force =    -0.00427022   -0.00680907 -111.16598609
     atom    9 type  1   force =     0.00456071   -0.00819039 -111.16539482
     atom   10 type  1   force =    -0.04557160   -0.02786132  -40.10367984
     atom   11 type  1   force =    -0.00119486   -0.07202986  -40.19901828
     atom   12 type  1   force =     0.04676920   -0.03762870  -40.10620851
     atom   13 type  1   force =    -0.06167490    0.03454651  -40.20113374
     atom   14 type  1   force =     0.05192438    0.03042372  -40.22024098
     atom   15 type  1   force =     0.00974015    0.00889729  -40.09905248
     atom   16 type  1   force =    -0.00775323    0.05971140  -40.10550721
     atom   17 type  1   force =     0.01215242    0.00528994  -40.09627679
     atom   18 type  1   force =    -0.00439479   -0.00135014  -40.08062863
     atom   19 type  1   force =    -0.39468833   -0.01858052   31.37962576
     atom   20 type  1   force =    -0.04758387   -0.03455184   30.34704602
     atom   21 type  1   force =     0.44376624   -0.08538044   31.26630040
     atom   22 type  1   force =    -0.22766909    0.39855558   31.41601270
     atom   23 type  1   force =     0.15384332    0.43576334   31.28396168
     atom   24 type  1   force =     0.07252736    0.05306682   31.68388429
     atom   25 type  1   force =    -0.01256302   -0.01334787   31.77695885
     atom   26 type  1   force =    -0.20880981   -0.34076173   31.39638269
     atom   27 type  1   force =     0.22129959   -0.39548197   31.42639700
     atom   28 type  1   force =    -1.61517966   -0.97540522  103.91707760
     atom   29 type  1   force =     0.08991495   -4.84480656   99.87911139
     atom   30 type  1   force =     1.55287603   -1.24089878  103.99599140
     atom   31 type  1   force =    -4.20230453    2.49228970   99.69667245
     atom   32 type  1   force =     3.07118640    1.88117862   98.71708554
     atom   33 type  1   force =     0.67879897    0.11269743  103.98561410
     atom   34 type  1   force =    -0.21822027    1.97767071  104.00379199
     atom   35 type  1   force =     0.36146992    0.48025469  104.11526866
     atom   36 type  1   force =    -0.10636300   -0.02136032  104.49677479
     atom   37 type  2   force =     1.21070601    0.67088324   51.40741884
     atom   38 type  3   force =    -1.70594592   -0.96232905   90.25214958
     atom   39 type  4   force =     0.88294194    0.43054535   15.26875028
     The local contribution  to forces
     atom    1 type  1   force =     0.00878124    0.00106277  111.27440042
     atom    2 type  1   force =     0.00352723    0.00206150  111.29775693
     atom    3 type  1   force =    -0.01201843    0.00227401  111.27827630
     atom    4 type  1   force =     0.00400368   -0.00739880  111.27282501
     atom    5 type  1   force =    -0.00402540   -0.01142617  111.27771047
     atom    6 type  1   force =     0.00058039    0.00024420  111.26409570
     atom    7 type  1   force =    -0.00035822   -0.00036467  111.26192081
     atom    8 type  1   force =     0.00524811    0.00707151  111.27328685
     atom    9 type  1   force =    -0.00453089    0.00733675  111.27310699
     atom   10 type  1   force =     0.04613869    0.02802392   40.10178604
     atom   11 type  1   force =    -0.00083058    0.07198959   40.18953682
     atom   12 type  1   force =    -0.04505091    0.03686836   40.10014716
     atom   13 type  1   force =     0.06076400   -0.03616629   40.19128274
     atom   14 type  1   force =    -0.05202450   -0.03049386   40.20667630
     atom   15 type  1   force =    -0.00892315   -0.01012392   40.08829411
     atom   16 type  1   force =     0.00767928   -0.05781348   40.09972438
     atom   17 type  1   force =    -0.01276476   -0.00367400   40.08598909
     atom   18 type  1   force =     0.00563658    0.00200679   40.07136736
     atom   19 type  1   force =     0.39496940    0.02067012  -31.36577975
     atom   20 type  1   force =     0.05442140    0.03920218  -30.33341152
     atom   21 type  1   force =    -0.45424179    0.09044993  -31.24983935
     atom   22 type  1   force =     0.22825906   -0.39983379  -31.40737446
     atom   23 type  1   force =    -0.15515132   -0.44754344  -31.26694691
     atom   24 type  1   force =    -0.07100554   -0.05278008  -31.67288311
     atom   25 type  1   force =     0.01204620    0.01310893  -31.76847603
     atom   26 type  1   force =     0.21052820    0.34034782  -31.38386689
     atom   27 type  1   force =    -0.22210016    0.39668312  -31.41707854
     atom   28 type  1   force =     1.60540817    0.96965523 -104.05116991
     atom   29 type  1   force =    -0.08862149    4.77720209  -99.99930726
     atom   30 type  1   force =    -1.54464416    1.21953477 -104.13963501
     atom   31 type  1   force =     4.14180273   -2.45573208  -99.81676577
     atom   32 type  1   force =    -3.01005762   -1.84619057  -98.72817985
     atom   33 type  1   force =    -0.66869937   -0.11838571 -104.10095390
     atom   34 type  1   force =     0.20905662   -1.96196263 -104.14345332
     atom   35 type  1   force =    -0.36251181   -0.46103834 -104.24290227
     atom   36 type  1   force =     0.10885887    0.02244019 -104.61548100
     atom   37 type  2   force =    -1.14480204   -0.62541906  -51.79166141
     atom   38 type  3   force =     1.27333340    0.71866762  -87.63642538
     atom   39 type  4   force =    -0.85131505   -0.41538936  -15.25512540
     The core correction contribution to forces
     atom    1 type  1   force =    -0.00017379   -0.00003731    0.01006404
     atom    2 type  1   force =     0.00036684    0.00022688    0.00899542
     atom    3 type  1   force =    -0.00020950   -0.00002703    0.01029586
     atom    4 type  1   force =     0.00001104    0.00006293    0.00999285
     atom    5 type  1   force =    -0.00007946   -0.00015505    0.01033867
     atom    6 type  1   force =     0.00022663    0.00011764    0.00989692
     atom    7 type  1   force =     0.00014821    0.00006943    0.01042830
     atom    8 type  1   force =    -0.00005587   -0.00012154    0.01004812
     atom    9 type  1   force =     0.00002232   -0.00002900    0.01000816
     atom   10 type  1   force =    -0.00020110   -0.00012392   -0.00187721
     atom   11 type  1   force =    -0.00007179   -0.00028881   -0.00195645
     atom   12 type  1   force =     0.00019637   -0.00023478   -0.00176895
     atom   13 type  1   force =    -0.00029389    0.00012498   -0.00195676
     atom   14 type  1   force =     0.00033389    0.00020264   -0.00171505
     atom   15 type  1   force =     0.00003351    0.00012108   -0.00189296
     atom   16 type  1   force =    -0.00015812    0.00030107   -0.00178755
     atom   17 type  1   force =     0.00013424    0.00001436   -0.00188719
     atom   18 type  1   force =     0.00012859    0.00003692   -0.00168947
     atom   19 type  1   force =     0.00016393   -0.00057425    0.00147735
     atom   20 type  1   force =    -0.00118949   -0.00061262    0.00073186
     atom   21 type  1   force =     0.00099004   -0.00065512    0.00072743
     atom   22 type  1   force =     0.00007017    0.00075125    0.00140674
     atom   23 type  1   force =    -0.00014382    0.00129548    0.00060223
     atom   24 type  1   force =     0.00039913    0.00019644    0.00216863
     atom   25 type  1   force =     0.00013561    0.00005425    0.00194093
     atom   26 type  1   force =    -0.00044621    0.00032409    0.00157467
     atom   27 type  1   force =     0.00067318   -0.00036652    0.00134846
     atom   28 type  1   force =     0.00195332    0.00121028   -0.00923880
     atom   29 type  1   force =     0.00045528    0.00935665   -0.00469896
     atom   30 type  1   force =    -0.00271121    0.00424312   -0.00755009
     atom   31 type  1   force =     0.00857546   -0.00429914   -0.00459190
     atom   32 type  1   force =    -0.00412178   -0.00337160   -0.00044376
     atom   33 type  1   force =    -0.00738729    0.00173172   -0.00610710
     atom   34 type  1   force =     0.00151871   -0.00434025   -0.00804205
     atom   35 type  1   force =    -0.00136868   -0.00641817   -0.00671467
     atom   36 type  1   force =    -0.00054237   -0.00044379   -0.01068524
     atom   37 type  2   force =    -0.00019660    0.00043751   -0.00176023
     atom   38 type  3   force =    -0.00335072   -0.00186248    0.01938246
     atom   39 type  4   force =     0.00000000    0.00000000    0.00000000
     The Hubbard contrib.    to forces
     atom    1 type  1   force =     0.00000000    0.00000000    0.00000000
     atom    2 type  1   force =     0.00000000    0.00000000    0.00000000
     atom    3 type  1   force =     0.00000000    0.00000000    0.00000000
     atom    4 type  1   force =     0.00000000    0.00000000    0.00000000
     atom    5 type  1   force =     0.00000000    0.00000000    0.00000000
     atom    6 type  1   force =     0.00000000    0.00000000    0.00000000
     atom    7 type  1   force =     0.00000000    0.00000000    0.00000000
     atom    8 type  1   force =     0.00000000    0.00000000    0.00000000
     atom    9 type  1   force =     0.00000000    0.00000000    0.00000000
     atom   10 type  1   force =     0.00000000    0.00000000    0.00000000
     atom   11 type  1   force =     0.00000000    0.00000000    0.00000000
     atom   12 type  1   force =     0.00000000    0.00000000    0.00000000
     atom   13 type  1   force =     0.00000000    0.00000000    0.00000000
     atom   14 type  1   force =     0.00000000    0.00000000    0.00000000
     atom   15 type  1   force =     0.00000000    0.00000000    0.00000000
     atom   16 type  1   force =     0.00000000    0.00000000    0.00000000
     atom   17 type  1   force =     0.00000000    0.00000000    0.00000000
     atom   18 type  1   force =     0.00000000    0.00000000    0.00000000
     atom   19 type  1   force =     0.00000000    0.00000000    0.00000000
     atom   20 type  1   force =     0.00000000    0.00000000    0.00000000
     atom   21 type  1   force =     0.00000000    0.00000000    0.00000000
     atom   22 type  1   force =     0.00000000    0.00000000    0.00000000
     atom   23 type  1   force =     0.00000000    0.00000000    0.00000000
     atom   24 type  1   force =     0.00000000    0.00000000    0.00000000
     atom   25 type  1   force =     0.00000000    0.00000000    0.00000000
     atom   26 type  1   force =     0.00000000    0.00000000    0.00000000
     atom   27 type  1   force =     0.00000000    0.00000000    0.00000000
     atom   28 type  1   force =     0.00000000    0.00000000    0.00000000
     atom   29 type  1   force =     0.00000000    0.00000000    0.00000000
     atom   30 type  1   force =     0.00000000    0.00000000    0.00000000
     atom   31 type  1   force =     0.00000000    0.00000000    0.00000000
     atom   32 type  1   force =     0.00000000    0.00000000    0.00000000
     atom   33 type  1   force =     0.00000000    0.00000000    0.00000000
     atom   34 type  1   force =     0.00000000    0.00000000    0.00000000
     atom   35 type  1   force =     0.00000000    0.00000000    0.00000000
     atom   36 type  1   force =     0.00000000    0.00000000    0.00000000
     atom   37 type  2   force =     0.00000000    0.00000000    0.00000000
     atom   38 type  3   force =     0.00000000    0.00000000    0.00000000
     atom   39 type  4   force =     0.00000000    0.00000000    0.00000000
     The SCF correction term to forces
     atom    1 type  1   force =     0.00000000   -0.00000000   -0.00000000
     atom    2 type  1   force =    -0.00000000   -0.00000000   -0.00000000
     atom    3 type  1   force =    -0.00000000   -0.00000000   -0.00000000
     atom    4 type  1   force =     0.00000000   -0.00000000   -0.00000000
     atom    5 type  1   force =    -0.00000000   -0.00000000   -0.00000000
     atom    6 type  1   force =     0.00000000   -0.00000000   -0.00000000
     atom    7 type  1   force =    -0.00000000    0.00000000   -0.00000000
     atom    8 type  1   force =     0.00000000    0.00000000   -0.00000000
     atom    9 type  1   force =    -0.00000000    0.00000000   -0.00000000
     atom   10 type  1   force =     0.00000000    0.00000000   -0.00000000
     atom   11 type  1   force =     0.00000000    0.00000000   -0.00000000
     atom   12 type  1   force =    -0.00000000    0.00000000   -0.00000000
     atom   13 type  1   force =     0.00000000   -0.00000000   -0.00000000
     atom   14 type  1   force =    -0.00000000   -0.00000000   -0.00000000
     atom   15 type  1   force =     0.00000000   -0.00000000   -0.00000000
     atom   16 type  1   force =    -0.00000000   -0.00000000   -0.00000000
     atom   17 type  1   force =     0.00000000   -0.00000000    0.00000000
     atom   18 type  1   force =     0.00000000    0.00000000   -0.00000000
     atom   19 type  1   force =    -0.00000000    0.00000000    0.00000000
     atom   20 type  1   force =    -0.00000000    0.00000000   -0.00000000
     atom   21 type  1   force =     0.00000000    0.00000000   -0.00000000
     atom   22 type  1   force =    -0.00000000   -0.00000000    0.00000000
     atom   23 type  1   force =     0.00000000   -0.00000000    0.00000000
     atom   24 type  1   force =    -0.00000000   -0.00000000    0.00000000
     atom   25 type  1   force =     0.00000000   -0.00000000    0.00000000
     atom   26 type  1   force =    -0.00000000   -0.00000000    0.00000000
     atom   27 type  1   force =    -0.00000000   -0.00000000   -0.00000000
     atom   28 type  1   force =    -0.00000000   -0.00000000   -0.00000000
     atom   29 type  1   force =    -0.00000000   -0.00000000   -0.00000000
     atom   30 type  1   force =     0.00000000    0.00000000   -0.00000000
     atom   31 type  1   force =    -0.00000000    0.00000000   -0.00000000
     atom   32 type  1   force =     0.00000000    0.00000000   -0.00000000
     atom   33 type  1   force =    -0.00000000    0.00000000   -0.00000000
     atom   34 type  1   force =     0.00000000   -0.00000000   -0.00000000
     atom   35 type  1   force =    -0.00000000   -0.00000000   -0.00000000
     atom   36 type  1   force =    -0.00000000   -0.00000000   -0.00000000
     atom   37 type  2   force =     0.00000375    0.00000954   -0.00001171
     atom   38 type  3   force =    -0.00000641    0.00000005    0.00004048
     atom   39 type  4   force =     0.00000406    0.00000504   -0.00000336

     Total force =     0.029794     Total SCF correction =     0.000044

     Writing all to output data dir ./pwscf.save/

     init_run     :     14.68s CPU     15.13s WALL (       1 calls)
     electrons    :    876.69s CPU    891.69s WALL (       1 calls)
     forces       :      3.42s CPU      3.46s WALL (       1 calls)

     Called by init_run:
     wfcinit      :      8.69s CPU      9.00s WALL (       1 calls)
     potinit      :      4.68s CPU      4.80s WALL (       1 calls)
     hinit0       :      0.86s CPU      0.87s WALL (       1 calls)

     Called by electrons:
     c_bands      :    752.82s CPU    765.93s WALL (      46 calls)
     sum_band     :     79.80s CPU     80.99s WALL (      46 calls)
     v_of_rho     :      9.97s CPU     10.12s WALL (      47 calls)
     newd         :      2.49s CPU      2.53s WALL (      47 calls)
     PAW_pot      :     14.70s CPU     14.86s WALL (      47 calls)
     mix_rho      :     20.82s CPU     21.09s WALL (      46 calls)
     vdW_kernel   :      3.70s CPU      3.73s WALL (       1 calls)

     Called by c_bands:
     init_us_2    :      8.05s CPU      8.20s WALL (    2444 calls)
     init_us_2:cp :      8.04s CPU      8.20s WALL (    2444 calls)
     cegterg      :    727.04s CPU    739.37s WALL (    1196 calls)

     Called by *egterg:
     cdiaghg      :    195.93s CPU    197.35s WALL (    4362 calls)
     h_psi        :    352.19s CPU    359.90s WALL (    4388 calls)
     s_psi        :     34.67s CPU     35.97s WALL (    4388 calls)
     g_psi        :      0.87s CPU      0.89s WALL (    3166 calls)

     Called by h_psi:
     h_psi:calbec :     53.20s CPU     54.65s WALL (    4388 calls)
     vloc_psi     :    261.68s CPU    266.31s WALL (    4388 calls)
     add_vuspsi   :     35.08s CPU     36.69s WALL (    4388 calls)

     General routines
     calbec       :     75.74s CPU     77.45s WALL (    5688 calls)
     fft          :      4.24s CPU      4.34s WALL (    4260 calls)
     ffts         :     11.86s CPU     12.03s WALL (   19583 calls)
     fftw         :    291.22s CPU    295.91s WALL ( 1255010 calls)
     interpolate  :      0.35s CPU      0.36s WALL (      94 calls)

     Parallel routines

     PWSCF        :  15m 6.48s CPU  15m27.44s WALL


   This run was terminated on:  20: 2:49   7Dec2025            

=------------------------------------------------------------------------------=
   JOB DONE.
=------------------------------------------------------------------------------=
