
     Program PWSCF v.7.1 starts on  5Dec2025 at 10:31:59 
        Git branch: heads/qe-7.1
        Last git commit: 48ba0178f8fede6d020eb786884699a9f063f55d-dirty
        Last git commit date: Fri Jan 27 14:22:33 2023 +0000
        Last git commit subject: Merge branch 'fix_hubbard' into 'develop'

     This program is part of the open-source Quantum ESPRESSO suite
     for quantum simulation of materials; please cite
         "P. Giannozzi et al., J. Phys.:Condens. Matter 21 395502 (2009);
         "P. Giannozzi et al., J. Phys.:Condens. Matter 29 465901 (2017);
         "P. Giannozzi et al., J. Chem. Phys. 152 154105 (2020);
          URL http://www.quantum-espresso.org", 
     in publications or presentations arising from this work. More details at
     http://www.quantum-espresso.org/quote

     Parallel version (MPI), running on    96 processors

     MPI processes distributed on     2 nodes
     100928 MiB available memory on the printing compute node when the environment starts

     Reading input from espresso.pwi
Warning: card &CELL ignored
Warning: card / ignored
Warning: card &FCP ignored
Warning: card / ignored
Warning: card &RISM ignored
Warning: card / ignored

     Current dimensions of program PWSCF are:
     Max number of different atomic species (ntypx) = 10
     Max number of k-points (npk) =  40000
     Max angular momentum in pseudopotentials (lmaxx) =  4
     file Pt.pbe-n-kjpaw_psl.1.0.0.UPF: wavefunction(s)  6S 5D renormalized
     file O.pbe-nl-kjpaw_psl.1.0.0.UPF: wavefunction(s)  2S 2P renormalized
     file H.pbe-kjpaw_psl.1.0.0.UPF: wavefunction(s)  1S renormalized
     file C.pbe-n-kjpaw_psl.1.0.0.UPF: wavefunction(s)  2S 2P renormalized

     **************************************************************************
     Initializing libbeef V0.1.2 with the BEEF-vdW functional.
     Citation: Wellendorff et al., PRB 85, 235149 (2012).
     **************************************************************************


     IMPORTANT: XC functional enforced from input :
     Exchange-correlation= BEEF-VDW
                           (   1   4  43  14   2   0   0)
     Any further DFT definition will be discarded
     Please, verify this is what you really want


     R & G space division:  proc/nbgrp/npool/nimage =      96
     Subspace diagonalization in iterative solution of the eigenvalue problem:
     one sub-group per band group will be used
     custom distributed-memory algorithm (size of sub-group:  2*  2 procs)


     Parallelization info
     --------------------
     sticks:   dense  smooth     PW     G-vecs:    dense   smooth      PW
     Min          75      29      8                14695     3575     508
     Max          76      30      9                14714     3592     526
     Sum        7267    2839    769              1411785   344073   49691

     Using Slab Decomposition



     bravais-lattice index     =            0
     lattice parameter (alat)  =      16.0349  a.u.
     unit-cell volume          =   10068.6169 (a.u.)^3
     number of atoms/cell      =           41
     number of atomic types    =            4
     number of electrons       =       373.00
     number of Kohn-Sham states=          224
     kinetic-energy cutoff     =      40.0000  Ry
     charge density cutoff     =     410.0000  Ry
     scf convergence threshold =      1.0E-06
     mixing beta               =       0.7000
     number of iterations used =            8  local-TF  mixing
     Exchange-correlation= BEEF-VDW
                           (   1   4  43  14   2   0   0)

     celldm(1)=  16.034858  celldm(2)=   0.000000  celldm(3)=   0.000000
     celldm(4)=   0.000000  celldm(5)=   0.000000  celldm(6)=   0.000000

     crystal axes: (cart. coord. in units of alat)
               a(1) = (   1.000000   0.000000   0.000000 )  
               a(2) = (   0.500000   0.866025   0.000000 )  
               a(3) = (   0.000000   0.000000   2.819966 )  

     reciprocal axes: (cart. coord. in units 2 pi/alat)
               b(1) = (  1.000000 -0.577350  0.000000 )  
               b(2) = (  0.000000  1.154701  0.000000 )  
               b(3) = (  0.000000  0.000000  0.354614 )  


     PseudoPot. # 1 for Pt read from file:
     /users/kbadger1/espresso/pseudo/pslibrary.1.0.0/pbe/PSEUDOPOTENTIALS/Pt.pbe-n-kjpaw_psl.1.0.0.UPF
     MD5 check sum: 2e24a0b5bf98a4ed1a57fa81bca8c143
     Pseudo is Projector augmented-wave + core cor, Zval = 10.0
     Generated using 'atomic' code by A. Dal Corso  v.7.0
     Shape of augmentation charge: PSQ
     Using radial grid of 1277 points,  6 beta functions with: 
                l(1) =   0
                l(2) =   0
                l(3) =   1
                l(4) =   1
                l(5) =   2
                l(6) =   2
     Q(r) pseudized with 0 coefficients 


     PseudoPot. # 2 for O  read from file:
     /users/kbadger1/espresso/pseudo/pslibrary.1.0.0/pbe/PSEUDOPOTENTIALS/O.pbe-nl-kjpaw_psl.1.0.0.UPF
     MD5 check sum: f0439fab3598ca4e468f064226030408
     Pseudo is Projector augmented-wave + core cor, Zval =  6.0
     Generated using 'atomic' code by A. Dal Corso  v.7.0
     Shape of augmentation charge: PSQ
     Using radial grid of 1095 points,  4 beta functions with: 
                l(1) =   0
                l(2) =   0
                l(3) =   1
                l(4) =   1
     Q(r) pseudized with 0 coefficients 


     PseudoPot. # 3 for H  read from file:
     /users/kbadger1/espresso/pseudo/pslibrary.1.0.0/pbe/PSEUDOPOTENTIALS/H.pbe-kjpaw_psl.1.0.0.UPF
     MD5 check sum: fe4c6fa958fa6d3815bf5d2419cbf1df
     Pseudo is Projector augmented-wave, Zval =  1.0
     Generated using 'atomic' code by A. Dal Corso  v.7.0
     Shape of augmentation charge: PSQ
     Using radial grid of  929 points,  2 beta functions with: 
                l(1) =   0
                l(2) =   0
     Q(r) pseudized with 0 coefficients 


     PseudoPot. # 4 for C  read from file:
     /users/kbadger1/espresso/pseudo/pslibrary.1.0.0/pbe/PSEUDOPOTENTIALS/C.pbe-n-kjpaw_psl.1.0.0.UPF
     MD5 check sum: 6408e75cdba28732cea38a4db8498ce4
     Pseudo is Projector augmented-wave + core cor, Zval =  4.0
     Generated using 'atomic' code by A. Dal Corso  v.7.0
     Shape of augmentation charge: PSQ
     Using radial grid of 1073 points,  4 beta functions with: 
                l(1) =   0
                l(2) =   0
                l(3) =   1
                l(4) =   1
     Q(r) pseudized with 0 coefficients 


     atomic species   valence    mass     pseudopotential
        Pt            10.00   195.08400     Pt( 1.00)
        O              6.00    15.99900     O ( 1.00)
        H              1.00     1.00800     H ( 1.00)
        C              4.00    12.01100     C ( 1.00)

     No symmetry found



   Cartesian axes

     site n.     atom                  positions (alat units)
         1           Pt  tau(   1) = (   0.0000000   0.0000000   1.0017346  )
         2           Pt  tau(   2) = (   0.3333333   0.0000000   1.0017346  )
         3           Pt  tau(   3) = (   0.6666667   0.0000000   1.0017346  )
         4           Pt  tau(   4) = (   0.1666667   0.2886751   1.0017346  )
         5           Pt  tau(   5) = (   0.5000000   0.2886751   1.0017346  )
         6           Pt  tau(   6) = (   0.8333333   0.2886751   1.0017346  )
         7           Pt  tau(   7) = (   0.3333333   0.5773503   1.0017346  )
         8           Pt  tau(   8) = (   0.6666667   0.5773503   1.0017346  )
         9           Pt  tau(   9) = (   1.0000000   0.5773503   1.0017346  )
        10           Pt  tau(  10) = (   0.1666667   0.0962250   1.2739001  )
        11           Pt  tau(  11) = (   0.5000000   0.0962250   1.2739001  )
        12           Pt  tau(  12) = (   0.8333333   0.0962250   1.2739001  )
        13           Pt  tau(  13) = (   0.3333333   0.3849002   1.2739001  )
        14           Pt  tau(  14) = (   0.6666667   0.3849002   1.2739001  )
        15           Pt  tau(  15) = (   1.0000000   0.3849002   1.2739001  )
        16           Pt  tau(  16) = (   0.5000000   0.6735753   1.2739001  )
        17           Pt  tau(  17) = (   0.8333333   0.6735753   1.2739001  )
        18           Pt  tau(  18) = (   1.1666667   0.6735753   1.2739001  )
        19           Pt  tau(  19) = (  -0.0053277   0.1991877   1.5431468  )
        20           Pt  tau(  20) = (   0.3297956   0.2000613   1.5461764  )
        21           Pt  tau(  21) = (   0.6610799   0.2002362   1.5477872  )
        22           Pt  tau(  22) = (   0.1649634   0.4903115   1.5528227  )
        23           Pt  tau(  23) = (   0.4958159   0.4857890   1.5494710  )
        24           Pt  tau(  24) = (   0.8264682   0.4901635   1.5522947  )
        25           Pt  tau(  25) = (   0.3297103   0.7757614   1.5424602  )
        26           Pt  tau(  26) = (   0.6621778   0.7762684   1.5420335  )
        27           Pt  tau(  27) = (   0.9959875   0.7755693   1.5433839  )
        28           Pt  tau(  28) = (  -0.0053440   0.0161818   1.8180932  )
        29           Pt  tau(  29) = (   0.3285558   0.0080478   1.8160211  )
        30           Pt  tau(  30) = (   0.6607549   0.0073970   1.8158306  )
        31           Pt  tau(  31) = (   0.1570614   0.2954064   1.8195091  )
        32           Pt  tau(  32) = (   0.4956499   0.2943363   1.8392294  )
        33           Pt  tau(  33) = (   0.8300271   0.2961674   1.8234137  )
        34           Pt  tau(  34) = (   0.3183625   0.5815714   1.8283869  )
        35           Pt  tau(  35) = (   0.6650590   0.5837070   1.8265970  )
        36           Pt  tau(  36) = (   0.9917512   0.5869240   1.8248700  )
        37           O   tau(  37) = (   0.4894317   0.6695703   1.9800374  )
        38           H   tau(  38) = (   0.4760026   0.4839065   2.0936535  )
        39           H   tau(  39) = (   0.5949442   0.3126988   2.1309833  )
        40           H   tau(  40) = (   0.3907470   0.2643802   2.1241615  )
        41           C   tau(  41) = (   0.4839518   0.3413954   2.0770175  )

     number of k points=    13  Marzari-Vanderbilt smearing, width (Ry)=  0.0010
                       cart. coord. in units 2pi/alat
        k(    1) = (   0.0000000   0.0000000   0.0000000), wk =   0.0800000
        k(    2) = (   0.0000000   0.2309401   0.0000000), wk =   0.1600000
        k(    3) = (   0.0000000   0.4618802   0.0000000), wk =   0.1600000
        k(    4) = (   0.2000000  -0.1154701   0.0000000), wk =   0.1600000
        k(    5) = (   0.2000000   0.1154701   0.0000000), wk =   0.1600000
        k(    6) = (   0.2000000   0.3464102   0.0000000), wk =   0.1600000
        k(    7) = (   0.2000000  -0.5773503   0.0000000), wk =   0.1600000
        k(    8) = (   0.2000000  -0.3464102   0.0000000), wk =   0.1600000
        k(    9) = (   0.4000000  -0.2309401   0.0000000), wk =   0.1600000
        k(   10) = (   0.4000000  -0.0000000   0.0000000), wk =   0.1600000
        k(   11) = (   0.4000000   0.2309401   0.0000000), wk =   0.1600000
        k(   12) = (   0.4000000  -0.6928203   0.0000000), wk =   0.1600000
        k(   13) = (   0.4000000  -0.4618802   0.0000000), wk =   0.1600000

     Dense  grid:  1411785 G-vectors     FFT dimensions: ( 108, 108, 300)

     Smooth grid:   344073 G-vectors     FFT dimensions: (  72,  72, 192)

     Estimated max dynamical RAM per process >     108.88 MB

     Estimated total dynamical RAM >      10.21 GB

     Initial potential from superposition of free atoms

     starting charge     372.9938, renormalised to     373.0000

     negative rho (up, down):  2.957E-03 0.000E+00


     %%%%%%%%%%%%%%%%%%%%%%%%%%%%%%%%%%%%%%%%%%%%%%%%%%%%%%%%%%%%%%%%%%%%%%%%
     %                                                                      %
     % You are using vdW-DF, which was implemented by the Thonhauser group. %
     % Please cite the following two papers that made this development      %
     % possible and the two reviews that describe the various versions:     %
     %                                                                      %
     %   T. Thonhauser et al., PRL 115, 136402 (2015).                      %
     %   T. Thonhauser et al., PRB 76, 125112 (2007).                       %
     %   K. Berland et al., Rep. Prog. Phys. 78, 066501 (2015).             %
     %   D.C. Langreth et al., J. Phys.: Condens. Matter 21, 084203 (2009). %
     %                                                                      %
     % If you are calculating stress with vdW-DF, please also cite:         %
     %                                                                      %
     %   R. Sabatini et al., J. Phys.: Condens. Matter 24, 424209 (2012).   %
     %                                                                      %
     %%%%%%%%%%%%%%%%%%%%%%%%%%%%%%%%%%%%%%%%%%%%%%%%%%%%%%%%%%%%%%%%%%%%%%%%

     %%%%%%%%%%%%%%%%%%%%%%%%%%%%%%%%%%%%%%%%%%%%%%%%%%%%%%%%%%%%%%%%%%%%%%%%
     %                                                                      %
     %  vdW-DF NEWS:                                                        %
     %                                                                      %
     %  * vdW-DF3 is now available. DOI: 10.1021/acs.jctc.0c00471           %
     %    use with input_dft = 'vdW-DF3-opt1' or 'vdW-DF3-opt2'             %
     %                                                                      %
     %  * Unscreened and range-separated hybrid vdW-DF-cx functionals       %
     %    DOI: 10.1063/1.4986522 and 10.1088/1361-648X/ac2ad2               %
     %    use with input_dft = 'vdW-DF-cx0'    and 'vdW-DF-ahcx'            %
     %  * Unscreened and range-separated hybrid vdW-DF2-b86r functionals    %
     %    DOI: 10.1063/1.4986522 and DOI: 10.1103/PhysRevX.12.041003        %
     %    use with input_dft = 'vdW-DF2-br0' and 'vdW-DF2-ahbr'             %
     %                                                                      %
     %%%%%%%%%%%%%%%%%%%%%%%%%%%%%%%%%%%%%%%%%%%%%%%%%%%%%%%%%%%%%%%%%%%%%%%%


     Starting wfcs are  335 randomized atomic wfcs
     Checking if some PAW data can be deallocated... 

     total cpu time spent up to now is        8.1 secs

     per-process dynamical memory:   200.2 Mb

     Self-consistent Calculation

     iteration #  1     ecut=    40.00 Ry     beta= 0.70
     Davidson diagonalization with overlap
     ethr =  1.00E-02,  avg # of iterations =  2.0

     Threshold (ethr) on eigenvalues was too large:
     Diagonalizing with lowered threshold

     Davidson diagonalization with overlap
     ethr =  8.52E-04,  avg # of iterations =  2.1

     negative rho (up, down):  8.344E-03 0.000E+00

     total cpu time spent up to now is       31.5 secs

     total energy              =  -27818.89254333 Ry
     estimated scf accuracy    <       3.35708751 Ry

     iteration #  2     ecut=    40.00 Ry     beta= 0.70
     Davidson diagonalization with overlap
     ethr =  9.00E-04,  avg # of iterations =  2.0

     negative rho (up, down):  5.764E-03 0.000E+00

     total cpu time spent up to now is       39.9 secs

     total energy              =  -27819.13934486 Ry
     estimated scf accuracy    <       1.37836264 Ry

     iteration #  3     ecut=    40.00 Ry     beta= 0.70
     Davidson diagonalization with overlap
     ethr =  3.70E-04,  avg # of iterations =  2.0

     negative rho (up, down):  2.167E-03 0.000E+00

     total cpu time spent up to now is       53.5 secs

     total energy              =  -27819.22777646 Ry
     estimated scf accuracy    <       0.52171684 Ry

     iteration #  4     ecut=    40.00 Ry     beta= 0.70
     Davidson diagonalization with overlap
     ethr =  1.40E-04,  avg # of iterations =  9.6

     negative rho (up, down):  6.078E-04 0.000E+00

     total cpu time spent up to now is       67.9 secs

     total energy              =  -27819.28360475 Ry
     estimated scf accuracy    <       0.11023839 Ry

     iteration #  5     ecut=    40.00 Ry     beta= 0.70
     Davidson diagonalization with overlap
     ethr =  2.96E-05,  avg # of iterations =  6.0

     negative rho (up, down):  2.208E-04 0.000E+00

     total cpu time spent up to now is       89.3 secs

     total energy              =  -27819.31315797 Ry
     estimated scf accuracy    <       0.05176565 Ry

     iteration #  6     ecut=    40.00 Ry     beta= 0.70
     Davidson diagonalization with overlap
     c_bands:  1 eigenvalues not converged
     c_bands:  1 eigenvalues not converged
     c_bands:  1 eigenvalues not converged
     ethr =  1.39E-05,  avg # of iterations =  8.4

     negative rho (up, down):  8.054E-05 0.000E+00

     total cpu time spent up to now is      100.6 secs

     total energy              =  -27819.31295460 Ry
     estimated scf accuracy    <       0.00956419 Ry

     iteration #  7     ecut=    40.00 Ry     beta= 0.70
     Davidson diagonalization with overlap
     c_bands:  2 eigenvalues not converged
     c_bands:  1 eigenvalues not converged
     c_bands:  2 eigenvalues not converged
     c_bands:  1 eigenvalues not converged
     ethr =  2.56E-06,  avg # of iterations = 16.1

     negative rho (up, down):  1.903E-04 0.000E+00

     total cpu time spent up to now is      128.6 secs

     total energy              =  -27819.31532247 Ry
     estimated scf accuracy    <       0.01363101 Ry

     iteration #  8     ecut=    40.00 Ry     beta= 0.70
     Davidson diagonalization with overlap
     c_bands:  1 eigenvalues not converged
     c_bands:  1 eigenvalues not converged
     ethr =  2.56E-06,  avg # of iterations = 10.8

     negative rho (up, down):  3.759E-04 0.000E+00

     total cpu time spent up to now is      145.9 secs

     total energy              =  -27819.31539526 Ry
     estimated scf accuracy    <       0.00394282 Ry

     iteration #  9     ecut=    40.00 Ry     beta= 0.70
     Davidson diagonalization with overlap
     c_bands:  1 eigenvalues not converged
     ethr =  1.06E-06,  avg # of iterations =  5.1

     negative rho (up, down):  6.023E-04 0.000E+00

     total cpu time spent up to now is      155.9 secs

     total energy              =  -27819.31568270 Ry
     estimated scf accuracy    <       0.00203227 Ry

     iteration # 10     ecut=    40.00 Ry     beta= 0.70
     Davidson diagonalization with overlap
     ethr =  5.45E-07,  avg # of iterations =  3.9

     negative rho (up, down):  1.040E-03 0.000E+00

     total cpu time spent up to now is      170.5 secs

     total energy              =  -27819.31580087 Ry
     estimated scf accuracy    <       0.00094968 Ry

     iteration # 11     ecut=    40.00 Ry     beta= 0.70
     Davidson diagonalization with overlap
     c_bands:  1 eigenvalues not converged
     ethr =  2.55E-07,  avg # of iterations =  4.2

     negative rho (up, down):  1.225E-03 0.000E+00

     total cpu time spent up to now is      180.7 secs

     total energy              =  -27819.31587588 Ry
     estimated scf accuracy    <       0.00036127 Ry

     iteration # 12     ecut=    40.00 Ry     beta= 0.70
     Davidson diagonalization with overlap
     ethr =  9.69E-08,  avg # of iterations =  2.8

     negative rho (up, down):  1.421E-03 0.000E+00

     total cpu time spent up to now is      189.7 secs

     total energy              =  -27819.31593735 Ry
     estimated scf accuracy    <       0.00016229 Ry

     iteration # 13     ecut=    40.00 Ry     beta= 0.70
     Davidson diagonalization with overlap
     ethr =  4.35E-08,  avg # of iterations =  5.1

     negative rho (up, down):  1.329E-03 0.000E+00

     total cpu time spent up to now is      205.9 secs

     total energy              =  -27819.31596727 Ry
     estimated scf accuracy    <       0.00006742 Ry

     iteration # 14     ecut=    40.00 Ry     beta= 0.70
     Davidson diagonalization with overlap
     ethr =  1.81E-08,  avg # of iterations =  3.5

     negative rho (up, down):  1.561E-03 0.000E+00

     total cpu time spent up to now is      215.8 secs

     total energy              =  -27819.31600291 Ry
     estimated scf accuracy    <       0.00005431 Ry

     iteration # 15     ecut=    40.00 Ry     beta= 0.70
     Davidson diagonalization with overlap
     ethr =  1.46E-08,  avg # of iterations =  4.5

     negative rho (up, down):  1.665E-03 0.000E+00

     total cpu time spent up to now is      230.6 secs

     total energy              =  -27819.31601206 Ry
     estimated scf accuracy    <       0.00002641 Ry

     iteration # 16     ecut=    40.00 Ry     beta= 0.70
     Davidson diagonalization with overlap
     ethr =  7.08E-09,  avg # of iterations =  2.8

     negative rho (up, down):  1.939E-03 0.000E+00

     total cpu time spent up to now is      240.0 secs

     total energy              =  -27819.31601465 Ry
     estimated scf accuracy    <       0.00001044 Ry

     iteration # 17     ecut=    40.00 Ry     beta= 0.70
     Davidson diagonalization with overlap
     ethr =  2.80E-09,  avg # of iterations =  4.1

     negative rho (up, down):  2.321E-03 0.000E+00

     total cpu time spent up to now is      251.3 secs

     total energy              =  -27819.31601408 Ry
     estimated scf accuracy    <       0.00000727 Ry

     iteration # 18     ecut=    40.00 Ry     beta= 0.70
     Davidson diagonalization with overlap
     ethr =  1.95E-09,  avg # of iterations =  2.0

     negative rho (up, down):  2.445E-03 0.000E+00

     total cpu time spent up to now is      265.2 secs

     total energy              =  -27819.31601398 Ry
     estimated scf accuracy    <       0.00000612 Ry

     iteration # 19     ecut=    40.00 Ry     beta= 0.70
     Davidson diagonalization with overlap
     ethr =  1.64E-09,  avg # of iterations =  1.0

     negative rho (up, down):  2.541E-03 0.000E+00

     total cpu time spent up to now is      272.7 secs

     total energy              =  -27819.31601400 Ry
     estimated scf accuracy    <       0.00000182 Ry

     iteration # 20     ecut=    40.00 Ry     beta= 0.70
     Davidson diagonalization with overlap
     ethr =  4.87E-10,  avg # of iterations =  4.3

     negative rho (up, down):  2.995E-03 0.000E+00

     total cpu time spent up to now is      290.4 secs

     End of self-consistent calculation

          k = 0.0000 0.0000 0.0000 ( 42913 PWs)   bands (ev):

   -15.9907  -9.1040  -6.0405  -4.8114  -3.8376  -3.7297  -3.7200  -3.6641
    -3.6278  -3.6199  -3.6012  -3.5926  -3.4528  -3.2850  -3.1661  -3.1066
    -3.0962  -3.0887  -3.0159  -2.9229  -2.8786  -2.6766  -2.6667  -2.6429
    -2.6165  -2.5075  -2.4870  -2.4512  -2.4258  -2.4024  -2.3949  -2.3371
    -2.3182  -2.3135  -2.2679  -2.2245  -2.1965  -2.1668  -2.1526  -2.1306
    -2.1209  -2.0854  -2.0739  -2.0561  -1.8916  -1.7492  -1.6202  -1.6040
    -1.5656  -1.5587  -1.5500  -1.5288  -1.5223  -1.5158  -1.4510  -1.4311
    -1.3158  -1.3142  -1.2807  -1.2334  -1.0165  -0.9583  -0.8277  -0.8123
    -0.7975  -0.7808  -0.7673  -0.7009  -0.6330  -0.6251  -0.6164  -0.5791
    -0.5628  -0.5572  -0.5481  -0.5276  -0.5261  -0.4866  -0.4800  -0.4570
    -0.4423  -0.4358  -0.4302  -0.4239  -0.3760  -0.3729  -0.3617  -0.3399
    -0.3018  -0.1489  -0.1482  -0.1202  -0.1115  -0.1020  -0.0698  -0.0675
    -0.0483  -0.0436  -0.0260  -0.0105   0.0098   0.0673   0.0682   0.1108
     0.1190   0.1826   0.2033   0.2253   0.2510   0.2751   0.3028   0.3186
     0.3473   0.3883   0.6577   0.6983   0.7276   0.7323   0.7509   0.7696
     0.7811   0.7887   0.8419   0.8909   0.9105   0.9294   0.9348   0.9684
     0.9965   1.0276   1.0724   1.0861   1.1152   1.1722   1.1951   1.2133
     1.2683   1.2716   1.3268   1.3513   1.4471   1.5060   1.5186   1.5265
     1.5605   1.5662   1.5898   1.5997   1.6557   1.6870   1.7386   1.7557
     1.7688   1.7773   1.8253   1.8716   1.8949   1.9127   1.9313   1.9385
     1.9578   1.9637   1.9669   1.9861   1.9966   2.0069   2.0445   2.0553
     2.0694   2.0786   2.0980   2.1070   2.1357   2.1816   2.1877   2.1957
     2.2017   2.2221   2.2477   2.2980   2.3077   2.3197   2.3225   2.3366
     2.3479   2.3592   2.3898   2.4042   2.4245   2.4314   2.4722   2.4806
     2.5337   2.5484   2.6566   2.6821   2.7284   2.7335   2.7479   2.7802
     2.8437   2.8947   3.1441   3.1876   3.6139   3.6435   3.6754   3.8453
     3.9745   4.7356   5.1740   5.9248   5.9295   6.0646   6.1546   6.4700
     6.9320   7.5509   7.5704   7.5895   7.5992   7.6415   7.6853   7.7585

          k = 0.0000 0.2309 0.0000 ( 42996 PWs)   bands (ev):

   -15.9906  -9.1040  -5.8941  -4.6692  -4.1431  -3.7938  -3.7795  -3.6891
    -3.5337  -3.5103  -3.4492  -3.4110  -3.3732  -3.2443  -3.2263  -3.1724
    -3.0338  -3.0158  -2.9611  -2.8958  -2.8444  -2.6942  -2.6386  -2.6032
    -2.5624  -2.5389  -2.5167  -2.4968  -2.4631  -2.4047  -2.3900  -2.3652
    -2.3362  -2.2876  -2.2588  -2.2458  -2.2190  -2.2049  -2.1428  -2.0886
    -2.0544  -1.9779  -1.9651  -1.9431  -1.8319  -1.7282  -1.7176  -1.6907
    -1.6629  -1.6350  -1.6074  -1.5559  -1.5330  -1.4648  -1.4118  -1.3744
    -1.3316  -1.3006  -1.2422  -1.2204  -1.1001  -1.0672  -1.0002  -0.9440
    -0.9264  -0.8931  -0.8565  -0.7993  -0.7730  -0.7644  -0.7571  -0.7236
    -0.7000  -0.6503  -0.6044  -0.5864  -0.5534  -0.5129  -0.4966  -0.4673
    -0.4526  -0.4399  -0.3735  -0.3679  -0.3309  -0.3221  -0.3090  -0.2954
    -0.2240  -0.1904  -0.1788  -0.1607  -0.1283  -0.1144  -0.1117  -0.1049
    -0.0796  -0.0315  -0.0204  -0.0106   0.0434   0.0545   0.0705   0.0824
     0.1038   0.1283   0.1517   0.2045   0.2233   0.2676   0.2874   0.3043
     0.3331   0.3479   0.3620   0.3698   0.4216   0.4417   0.4935   0.6702
     0.6792   0.7431   0.7564   0.7813   0.7915   0.8190   0.8862   0.9137
     0.9701   0.9948   1.0562   1.0978   1.1267   1.1370   1.1450   1.1833
     1.2313   1.2558   1.2775   1.3197   1.3327   1.3635   1.4025   1.4185
     1.4315   1.5374   1.5492   1.5871   1.6051   1.6138   1.6599   1.6994
     1.7375   1.7475   1.7617   1.7843   1.7994   1.8477   1.8723   1.8826
     1.9149   1.9756   1.9882   2.0239   2.0599   2.1118   2.1232   2.1511
     2.1696   2.1766   2.2464   2.2705   2.2793   2.2946   2.3255   2.3458
     2.3652   2.3962   2.4013   2.4287   2.4395   2.4772   2.4842   2.5316
     2.5564   2.6073   2.6407   2.6478   2.6719   2.6978   2.7051   2.7161
     2.7383   2.7552   2.7984   2.8265   2.8898   2.9436   2.9684   2.9969
     3.0669   3.0824   3.1468   3.3655   3.7095   3.7350   4.1648   4.2956
     4.3594   4.7787   5.3929   5.4520   5.7763   6.2994   6.4128   6.5063
     6.5934   6.7739   7.2418   7.3626   7.4659   7.7088   7.7883   7.8675

          k = 0.0000 0.4619 0.0000 ( 43046 PWs)   bands (ev):

   -15.9905  -9.1041  -5.4729  -4.8388  -4.2736  -3.8245  -3.8102  -3.7303
    -3.4691  -3.4106  -3.3113  -3.2442  -3.2150  -3.1400  -3.0456  -3.0297
    -2.9314  -2.8945  -2.8596  -2.8233  -2.7879  -2.7353  -2.7173  -2.6624
    -2.6532  -2.6031  -2.5922  -2.5709  -2.5518  -2.4852  -2.4664  -2.4241
    -2.2790  -2.2604  -2.2413  -2.2257  -2.1774  -2.1083  -2.0253  -2.0172
    -1.9858  -1.9700  -1.9581  -1.8514  -1.8055  -1.7524  -1.7116  -1.6750
    -1.6458  -1.6307  -1.6171  -1.5597  -1.5262  -1.5027  -1.4760  -1.4380
    -1.4024  -1.3443  -1.2890  -1.2781  -1.2520  -1.1848  -1.1476  -1.1101
    -1.0857  -1.0787  -1.0459  -0.9580  -0.9013  -0.8588  -0.8449  -0.8180
    -0.7733  -0.7492  -0.7364  -0.6543  -0.6350  -0.5696  -0.5489  -0.5165
    -0.5069  -0.4966  -0.4452  -0.4278  -0.4162  -0.3907  -0.3819  -0.3545
    -0.3347  -0.3070  -0.2860  -0.2525  -0.2478  -0.1952  -0.1569  -0.1504
    -0.1372  -0.1192  -0.1006  -0.0664  -0.0151   0.0178   0.0534   0.0743
     0.0911   0.1044   0.1287   0.1714   0.2162   0.2509   0.2594   0.2967
     0.3590   0.3730   0.3931   0.4399   0.4648   0.5357   0.5811   0.6130
     0.6252   0.6640   0.7015   0.7210   0.7651   0.7738   0.8068   0.8192
     0.8494   0.8798   0.8850   0.9048   0.9312   0.9696   0.9919   1.0652
     1.0847   1.1046   1.1504   1.1674   1.2704   1.2847   1.3213   1.3617
     1.4266   1.4883   1.5053   1.5212   1.5707   1.5800   1.6125   1.6322
     1.6498   1.6872   1.7189   1.7364   1.7758   1.8162   1.8759   1.8822
     1.9250   1.9424   1.9533   1.9778   2.0927   2.1339   2.1436   2.1753
     2.1922   2.2691   2.2994   2.3150   2.3195   2.3465   2.3918   2.4302
     2.4698   2.4884   2.5053   2.5600   2.5671   2.6091   2.6242   2.6554
     2.6732   2.6832   2.7183   2.7388   2.8034   2.8840   2.8974   2.9178
     2.9572   2.9815   3.0661   3.1468   3.1536   3.4845   3.6962   3.7381
     3.8808   3.9961   4.0058   4.3267   4.3601   4.5453   4.7437   4.9293
     5.1920   5.2179   5.3078   5.3872   5.4706   5.6799   5.8072   5.8795
     6.0728   6.3637   6.5634   6.8052   7.0402   7.3697   7.5277   7.7951

          k = 0.2000-0.1155 0.0000 ( 42996 PWs)   bands (ev):

   -15.9906  -9.1039  -5.8950  -4.6719  -4.1666  -3.7914  -3.7485  -3.6929
    -3.5400  -3.5103  -3.4654  -3.3956  -3.3614  -3.2980  -3.1809  -3.1057
    -3.0610  -3.0316  -3.0115  -2.8734  -2.8068  -2.7062  -2.6265  -2.6068
    -2.5762  -2.5510  -2.5121  -2.4733  -2.4569  -2.4076  -2.3743  -2.3595
    -2.3419  -2.3109  -2.2761  -2.2577  -2.2252  -2.1890  -2.1739  -2.0999
    -2.0278  -1.9779  -1.9619  -1.9323  -1.8678  -1.7863  -1.7192  -1.6742
    -1.6471  -1.6265  -1.6061  -1.5750  -1.4922  -1.4496  -1.4393  -1.3397
    -1.3299  -1.2926  -1.2784  -1.2194  -1.0885  -1.0451  -0.9673  -0.9205
    -0.8892  -0.8677  -0.8512  -0.8314  -0.7970  -0.7566  -0.7421  -0.7119
    -0.6735  -0.6477  -0.6269  -0.5928  -0.5799  -0.5510  -0.5126  -0.4951
    -0.4717  -0.4499  -0.3575  -0.3536  -0.3318  -0.3244  -0.2993  -0.2628
    -0.2311  -0.2208  -0.1816  -0.1528  -0.1377  -0.1179  -0.1082  -0.0947
    -0.0632  -0.0440  -0.0131   0.0036   0.0267   0.0378   0.0512   0.0802
     0.1074   0.1458   0.1608   0.2018   0.2282   0.2496   0.2853   0.3048
     0.3292   0.3472   0.3622   0.3716   0.4115   0.4538   0.5910   0.6369
     0.6962   0.7262   0.7448   0.7683   0.8097   0.8306   0.8827   0.9074
     0.9643   0.9864   1.0505   1.0769   1.1092   1.1435   1.1631   1.1857
     1.2209   1.2519   1.2604   1.2793   1.3410   1.3848   1.3952   1.4049
     1.4363   1.5325   1.5566   1.5645   1.6055   1.6339   1.6782   1.7021
     1.7235   1.7591   1.7825   1.8017   1.8323   1.8542   1.8679   1.8939
     1.9172   1.9639   1.9875   2.0114   2.0403   2.0718   2.1061   2.1230
     2.1588   2.1965   2.2303   2.2622   2.2848   2.3025   2.3116   2.3428
     2.3651   2.4006   2.4091   2.4247   2.4458   2.4608   2.4743   2.5192
     2.5318   2.5916   2.6390   2.6565   2.6810   2.7031   2.7156   2.7325
     2.7548   2.7762   2.8164   2.8327   2.8787   2.9327   2.9437   2.9952
     3.0624   3.0886   3.2480   3.3933   3.5859   3.9433   4.0187   4.2868
     4.3389   4.8467   5.2826   5.5218   5.8914   6.1394   6.4196   6.4650
     6.6273   6.8819   7.1780   7.3791   7.4585   7.7153   7.7959   7.8523

          k = 0.2000 0.1155 0.0000 ( 42996 PWs)   bands (ev):

   -15.9906  -9.1039  -5.8948  -4.6720  -4.1584  -3.7938  -3.7540  -3.6923
    -3.5394  -3.5092  -3.4576  -3.4044  -3.3643  -3.2954  -3.1890  -3.1033
    -3.0513  -3.0273  -3.0071  -2.8807  -2.8094  -2.7008  -2.6432  -2.6161
    -2.5753  -2.5444  -2.4922  -2.4808  -2.4695  -2.4149  -2.3948  -2.3390
    -2.3266  -2.2981  -2.2782  -2.2557  -2.2232  -2.1915  -2.1409  -2.0979
    -2.0401  -1.9928  -1.9643  -1.9367  -1.8663  -1.7928  -1.7210  -1.6787
    -1.6463  -1.6332  -1.6025  -1.5726  -1.5024  -1.4626  -1.4346  -1.3425
    -1.3310  -1.2944  -1.2653  -1.2207  -1.0935  -1.0558  -0.9748  -0.9228
    -0.8978  -0.8831  -0.8554  -0.8326  -0.7942  -0.7525  -0.7367  -0.7118
    -0.6806  -0.6477  -0.6341  -0.6114  -0.5931  -0.5418  -0.4976  -0.4701
    -0.4508  -0.4236  -0.3668  -0.3584  -0.3464  -0.3258  -0.3097  -0.2802
    -0.2114  -0.1930  -0.1853  -0.1579  -0.1468  -0.1130  -0.1090  -0.1027
    -0.0691  -0.0459  -0.0173   0.0094   0.0254   0.0517   0.0589   0.0804
     0.1122   0.1421   0.1490   0.2093   0.2271   0.2477   0.2795   0.3019
     0.3357   0.3496   0.3636   0.3807   0.4183   0.4577   0.5814   0.6338
     0.6800   0.7335   0.7522   0.7775   0.8097   0.8327   0.8898   0.9060
     0.9666   0.9940   1.0622   1.0844   1.1173   1.1405   1.1619   1.2130
     1.2280   1.2545   1.2654   1.3009   1.3426   1.3862   1.3890   1.4137
     1.4319   1.5343   1.5563   1.5592   1.6038   1.6212   1.6682   1.7042
     1.7207   1.7525   1.7807   1.7914   1.8298   1.8381   1.8658   1.8857
     1.9163   1.9680   1.9833   2.0255   2.0523   2.0784   2.1066   2.1137
     2.1643   2.2100   2.2388   2.2607   2.2841   2.3019   2.3113   2.3401
     2.3678   2.3996   2.4093   2.4268   2.4394   2.4634   2.4741   2.5173
     2.5372   2.6149   2.6275   2.6566   2.6636   2.6976   2.7051   2.7158
     2.7368   2.7697   2.8107   2.8383   2.8780   2.9251   2.9479   2.9961
     3.0600   3.0805   3.2656   3.3742   3.5726   3.9510   4.0083   4.2932
     4.3540   4.8580   5.2658   5.5279   5.8985   6.1234   6.4199   6.4651
     6.6336   6.8824   7.1758   7.3868   7.4622   7.7437   7.7869   7.8190

          k = 0.2000 0.3464 0.0000 ( 43046 PWs)   bands (ev):

   -15.9905  -9.1039  -5.6100  -4.4300  -4.3852  -4.3763  -3.5893  -3.4749
    -3.4307  -3.3218  -3.3111  -3.2854  -3.2592  -3.2469  -3.2239  -3.1361
    -3.0941  -2.9690  -2.8420  -2.7447  -2.7256  -2.7188  -2.7005  -2.6552
    -2.6137  -2.5449  -2.5294  -2.5019  -2.4760  -2.4419  -2.4148  -2.3932
    -2.3536  -2.3006  -2.2782  -2.2489  -2.2441  -2.2202  -2.1746  -2.1199
    -2.0386  -1.8992  -1.8711  -1.8136  -1.7716  -1.7394  -1.7230  -1.7012
    -1.6800  -1.6514  -1.6207  -1.5493  -1.5172  -1.4870  -1.4079  -1.3682
    -1.3394  -1.3096  -1.2799  -1.2612  -1.2373  -1.2073  -1.1374  -1.0634
    -1.0395  -1.0201  -0.9565  -0.9070  -0.8882  -0.8786  -0.8471  -0.8286
    -0.7719  -0.7257  -0.6598  -0.6464  -0.6294  -0.6079  -0.5772  -0.5475
    -0.5159  -0.4611  -0.4447  -0.4228  -0.3677  -0.3532  -0.3285  -0.3048
    -0.2796  -0.2595  -0.2472  -0.2193  -0.2044  -0.1819  -0.1514  -0.1035
    -0.0869  -0.0623  -0.0368  -0.0142  -0.0000   0.0102   0.0430   0.0598
     0.0741   0.0915   0.1054   0.1160   0.1550   0.1737   0.2051   0.2503
     0.2773   0.2992   0.3305   0.4255   0.4515   0.4728   0.5222   0.5422
     0.6448   0.6541   0.6769   0.7353   0.7773   0.7869   0.8193   0.8592
     0.8919   0.9251   0.9320   0.9479   0.9732   1.0102   1.0406   1.1341
     1.1667   1.1896   1.2109   1.2384   1.2740   1.3236   1.3583   1.3786
     1.4156   1.4664   1.4918   1.5117   1.5578   1.5907   1.6230   1.6529
     1.6774   1.6974   1.7295   1.7446   1.7561   1.7671   1.7910   1.8053
     1.8402   1.9196   1.9708   2.0284   2.0798   2.1267   2.1857   2.2392
     2.2845   2.2969   2.3375   2.3832   2.4023   2.4110   2.4472   2.4656
     2.4833   2.5083   2.5199   2.5302   2.5554   2.5717   2.5948   2.6364
     2.6868   2.7023   2.7198   2.7351   2.7827   2.8129   2.8726   2.9005
     2.9216   2.9380   3.0155   3.0640   3.1453   3.1746   3.3039   3.4434
     3.6656   3.7736   3.8554   4.1068   4.2479   4.2733   4.5737   4.7066
     5.0634   5.0822   5.2265   5.2429   5.6745   5.9412   5.9869   6.3934
     6.5815   6.6848   6.7788   7.1313   7.1831   7.2520   7.3285   7.5570

          k = 0.2000-0.5774 0.0000 ( 43014 PWs)   bands (ev):

   -15.9904  -9.1039  -5.0984  -5.0555  -4.4860  -3.9437  -3.9054  -3.5165
    -3.4257  -3.3147  -3.1876  -3.1684  -3.0979  -3.0609  -3.0296  -2.9805
    -2.9144  -2.8741  -2.8550  -2.8042  -2.7762  -2.7545  -2.7481  -2.7102
    -2.6664  -2.6194  -2.5907  -2.5708  -2.5421  -2.5039  -2.4734  -2.4322
    -2.3474  -2.3355  -2.2647  -2.2364  -2.1919  -2.1690  -2.1447  -2.0998
    -2.0046  -1.9782  -1.9626  -1.8543  -1.7639  -1.7545  -1.7221  -1.6618
    -1.6021  -1.5751  -1.5466  -1.4928  -1.4707  -1.4232  -1.4104  -1.3666
    -1.3175  -1.2968  -1.2701  -1.2394  -1.2136  -1.1880  -1.1690  -1.1528
    -1.1192  -1.0883  -1.0726  -1.0372  -1.0195  -0.9335  -0.9156  -0.8653
    -0.8484  -0.7988  -0.7710  -0.6983  -0.6780  -0.6569  -0.6351  -0.6066
    -0.5694  -0.5591  -0.5327  -0.5093  -0.4923  -0.4601  -0.4335  -0.3878
    -0.3206  -0.2769  -0.2724  -0.2508  -0.2252  -0.1693  -0.1450  -0.1010
    -0.0881  -0.0663  -0.0353   0.0025   0.0062   0.0242   0.0337   0.0564
     0.0630   0.0986   0.1218   0.1296   0.1433   0.1583   0.1799   0.1912
     0.2040   0.2788   0.3080   0.4335   0.4761   0.4931   0.5075   0.5317
     0.6293   0.6592   0.6801   0.7106   0.7326   0.7426   0.7709   0.8151
     0.8263   0.8534   0.8802   0.9067   0.9453   0.9881   1.0321   1.0586
     1.0810   1.1428   1.1923   1.2232   1.2732   1.3189   1.3371   1.3623
     1.3999   1.4063   1.4377   1.4731   1.5064   1.5463   1.5764   1.5883
     1.6246   1.6398   1.6516   1.6918   1.7217   1.7636   1.8049   1.8761
     1.9027   1.9908   2.0584   2.0671   2.0891   2.1396   2.1828   2.2231
     2.2383   2.2955   2.3468   2.3815   2.4327   2.4485   2.4618   2.4996
     2.5139   2.5313   2.5820   2.5971   2.6271   2.6449   2.6722   2.6905
     2.7166   2.7339   2.7920   2.8141   2.8926   2.8974   2.9155   2.9306
     2.9648   2.9948   3.0896   3.1141   3.2970   3.5626   3.8828   4.0816
     4.1058   4.3339   4.4020   4.4320   4.5365   4.6918   4.8714   5.0727
     5.1291   5.4038   5.5555   5.6048   5.7307   5.7416   5.8385   5.9413
     6.0680   6.2302   6.2974   6.6042   6.7442   6.9378   7.1753   7.2462

          k = 0.2000-0.3464 0.0000 ( 43046 PWs)   bands (ev):

   -15.9905  -9.1039  -5.6106  -4.4304  -4.3871  -4.3777  -3.5926  -3.4826
    -3.4318  -3.3312  -3.3130  -3.2831  -3.2614  -3.2312  -3.2079  -3.1316
    -3.0992  -2.9779  -2.8335  -2.7687  -2.7409  -2.7138  -2.6968  -2.6415
    -2.5937  -2.5631  -2.5243  -2.5098  -2.4600  -2.4338  -2.4070  -2.3762
    -2.3552  -2.3122  -2.2991  -2.2627  -2.2440  -2.2188  -2.1842  -2.1280
    -2.0505  -1.8937  -1.8750  -1.8108  -1.7636  -1.7270  -1.7214  -1.7041
    -1.6713  -1.6413  -1.6178  -1.5460  -1.5006  -1.4840  -1.4074  -1.3669
    -1.3333  -1.3183  -1.2694  -1.2656  -1.2296  -1.2087  -1.1232  -1.0698
    -1.0264  -1.0145  -0.9470  -0.9001  -0.8783  -0.8606  -0.8462  -0.8119
    -0.7699  -0.7176  -0.6714  -0.6441  -0.6290  -0.6221  -0.5937  -0.5554
    -0.5117  -0.4945  -0.4446  -0.4219  -0.3643  -0.3506  -0.3251  -0.3073
    -0.2886  -0.2613  -0.2423  -0.2225  -0.2169  -0.1839  -0.1650  -0.1215
    -0.0826  -0.0633  -0.0534  -0.0134   0.0033   0.0127   0.0376   0.0521
     0.0878   0.0974   0.1118   0.1367   0.1523   0.1639   0.2139   0.2437
     0.2799   0.3064   0.3312   0.4208   0.4316   0.4727   0.5110   0.5339
     0.6391   0.6561   0.6841   0.7340   0.7629   0.7722   0.8184   0.8546
     0.8934   0.9148   0.9268   0.9481   0.9797   1.0076   1.0613   1.1189
     1.1522   1.1827   1.2110   1.2285   1.2673   1.3260   1.3516   1.3768
     1.4181   1.4640   1.4860   1.5058   1.5472   1.5740   1.6234   1.6641
     1.6887   1.7127   1.7326   1.7515   1.7683   1.7745   1.8053   1.8108
     1.8543   1.9184   1.9682   2.0119   2.0767   2.1256   2.1853   2.2368
     2.2839   2.3013   2.3335   2.3705   2.3984   2.4156   2.4460   2.4723
     2.4777   2.5080   2.5143   2.5242   2.5534   2.5812   2.5996   2.6287
     2.6801   2.7022   2.7207   2.7353   2.7857   2.8148   2.8799   2.9213
     2.9368   2.9617   3.0194   3.0668   3.1490   3.1801   3.3037   3.4171
     3.6710   3.7673   3.8674   4.1047   4.2561   4.2958   4.5700   4.7143
     5.0542   5.0821   5.2197   5.2442   5.6808   5.9384   5.9957   6.3962
     6.5800   6.6777   6.7794   7.1260   7.1757   7.2376   7.3319   7.5665

          k = 0.4000-0.2309 0.0000 ( 43046 PWs)   bands (ev):

   -15.9904  -9.1037  -5.4767  -4.8510  -4.2821  -3.8199  -3.7976  -3.7318
    -3.5128  -3.4170  -3.3013  -3.2546  -3.1468  -3.1143  -3.0472  -3.0258
    -2.9601  -2.8851  -2.8524  -2.8262  -2.7927  -2.7258  -2.6884  -2.6522
    -2.6338  -2.6111  -2.5939  -2.5656  -2.5329  -2.4926  -2.4694  -2.4496
    -2.3154  -2.2604  -2.2190  -2.2036  -2.1924  -2.1432  -2.0911  -2.0127
    -1.9950  -1.9667  -1.9568  -1.8890  -1.8407  -1.7625  -1.7197  -1.6958
    -1.6474  -1.6159  -1.5900  -1.5509  -1.5202  -1.5010  -1.4774  -1.4634
    -1.3482  -1.3060  -1.2815  -1.2603  -1.2108  -1.1787  -1.1429  -1.0903
    -1.0584  -1.0237  -0.9767  -0.9264  -0.8966  -0.8666  -0.8549  -0.8286
    -0.8066  -0.7459  -0.7294  -0.7073  -0.6485  -0.6216  -0.5864  -0.5466
    -0.5047  -0.4821  -0.4526  -0.4313  -0.4132  -0.3873  -0.3654  -0.3460
    -0.3321  -0.3133  -0.2878  -0.2640  -0.2383  -0.2055  -0.1756  -0.1532
    -0.1409  -0.1115  -0.0906  -0.0543  -0.0228   0.0093   0.0469   0.0566
     0.0852   0.1086   0.1331   0.1532   0.2087   0.2481   0.2880   0.3154
     0.3489   0.3859   0.4250   0.4472   0.4786   0.5466   0.5754   0.5971
     0.6310   0.6582   0.7096   0.7339   0.7495   0.7799   0.8005   0.8171
     0.8317   0.8554   0.8711   0.8981   0.9551   0.9720   1.0070   1.0330
     1.0639   1.0911   1.1439   1.1650   1.2407   1.2773   1.2944   1.3523
     1.4072   1.5052   1.5271   1.5419   1.5739   1.6117   1.6230   1.6433
     1.6724   1.7064   1.7268   1.7558   1.7845   1.8182   1.8675   1.8911
     1.9151   1.9295   1.9373   2.0206   2.0757   2.0898   2.1283   2.1602
     2.1966   2.2127   2.2941   2.3110   2.3211   2.3445   2.3587   2.3963
     2.4519   2.4588   2.4863   2.5479   2.5736   2.6197   2.6418   2.6605
     2.6704   2.7109   2.7527   2.7797   2.8111   2.8711   2.9209   2.9259
     2.9590   2.9828   3.0701   3.1482   3.1870   3.4447   3.6327   3.7791
     3.8787   3.9825   4.0370   4.2860   4.4340   4.5243   4.7730   4.9457
     5.1891   5.2252   5.3136   5.3998   5.5334   5.5793   5.8029   5.8699
     6.1828   6.2508   6.6354   6.7568   7.1208   7.3191   7.6220   7.7057

          k = 0.4000-0.0000 0.0000 ( 43046 PWs)   bands (ev):

   -15.9904  -9.1037  -5.6128  -4.4334  -4.4126  -4.3601  -3.5998  -3.4976
    -3.3941  -3.3303  -3.3083  -3.2799  -3.2644  -3.2325  -3.2067  -3.1389
    -3.0795  -2.9151  -2.8938  -2.7647  -2.7272  -2.7221  -2.6767  -2.6328
    -2.6159  -2.5708  -2.5396  -2.5098  -2.4615  -2.4338  -2.3943  -2.3636
    -2.3394  -2.3241  -2.2979  -2.2475  -2.2286  -2.2023  -2.1700  -2.1252
    -2.0936  -2.0365  -1.8731  -1.8085  -1.7877  -1.7700  -1.7275  -1.6922
    -1.6664  -1.6283  -1.5870  -1.5537  -1.5161  -1.4751  -1.3983  -1.3635
    -1.3250  -1.3114  -1.2813  -1.2541  -1.2138  -1.1924  -1.0904  -1.0607
    -1.0096  -0.9676  -0.9405  -0.9079  -0.8784  -0.8594  -0.8182  -0.7967
    -0.7708  -0.7501  -0.7049  -0.6673  -0.6388  -0.6200  -0.6062  -0.5623
    -0.5036  -0.4936  -0.4578  -0.4499  -0.3660  -0.3501  -0.3206  -0.3147
    -0.2841  -0.2578  -0.2402  -0.2174  -0.2085  -0.1940  -0.1648  -0.1229
    -0.0846  -0.0514  -0.0439  -0.0298  -0.0046   0.0206   0.0321   0.0551
     0.0838   0.1034   0.1278   0.1340   0.1618   0.1741   0.1921   0.2307
     0.3043   0.3161   0.3533   0.3863   0.4308   0.4669   0.4980   0.5696
     0.6119   0.6953   0.7154   0.7292   0.7600   0.8025   0.8204   0.8602
     0.8663   0.8849   0.9349   0.9601   0.9872   1.0291   1.0693   1.1003
     1.1556   1.1775   1.2198   1.2495   1.2748   1.2939   1.3391   1.4016
     1.4133   1.4495   1.4722   1.5107   1.5301   1.5628   1.6314   1.6746
     1.6989   1.7205   1.7438   1.7490   1.7668   1.7879   1.8165   1.8207
     1.8517   1.9234   1.9555   2.0060   2.0328   2.0908   2.2072   2.2262
     2.2886   2.2934   2.3429   2.3543   2.4033   2.4269   2.4299   2.4654
     2.4850   2.5034   2.5118   2.5215   2.5520   2.5674   2.6025   2.6365
     2.6692   2.6899   2.7061   2.7388   2.7576   2.8293   2.8979   2.9215
     2.9389   3.0185   3.0344   3.0629   3.1337   3.1797   3.2083   3.5131
     3.6181   3.7366   3.8300   4.1656   4.2902   4.3394   4.5444   4.6657
     5.0503   5.1252   5.1916   5.2615   5.6405   5.8632   6.1789   6.4119
     6.5825   6.6372   6.7258   7.0874   7.1973   7.2245   7.4113   7.5540

          k = 0.4000 0.2309 0.0000 ( 43046 PWs)   bands (ev):

   -15.9904  -9.1037  -5.4757  -4.8476  -4.2828  -3.8143  -3.8086  -3.7337
    -3.5042  -3.4000  -3.2954  -3.2475  -3.1428  -3.1169  -3.0566  -3.0298
    -2.9634  -2.8760  -2.8484  -2.8218  -2.8095  -2.7238  -2.6872  -2.6688
    -2.6333  -2.6121  -2.6010  -2.5810  -2.5281  -2.5133  -2.4668  -2.4207
    -2.2798  -2.2379  -2.2287  -2.2084  -2.1775  -2.1580  -2.0930  -2.0265
    -2.0002  -1.9724  -1.9570  -1.8945  -1.8486  -1.7560  -1.7260  -1.7008
    -1.6611  -1.6108  -1.5836  -1.5559  -1.5248  -1.4962  -1.4719  -1.4648
    -1.3736  -1.3165  -1.3008  -1.2752  -1.2079  -1.1805  -1.1505  -1.1149
    -1.0688  -1.0431  -0.9942  -0.9225  -0.9008  -0.8711  -0.8511  -0.8156
    -0.7928  -0.7663  -0.7318  -0.7010  -0.6354  -0.5924  -0.5546  -0.5418
    -0.5147  -0.4925  -0.4511  -0.4354  -0.4202  -0.3911  -0.3582  -0.3503
    -0.3320  -0.3122  -0.2874  -0.2700  -0.2308  -0.2048  -0.1723  -0.1589
    -0.1472  -0.1077  -0.0850  -0.0592  -0.0223   0.0184   0.0503   0.0643
     0.1089   0.1221   0.1423   0.1628   0.2081   0.2589   0.2942   0.3134
     0.3484   0.3844   0.4301   0.4487   0.4884   0.5397   0.5748   0.5942
     0.6374   0.6648   0.7090   0.7228   0.7421   0.7883   0.7935   0.8111
     0.8479   0.8639   0.8710   0.9121   0.9553   0.9773   1.0175   1.0654
     1.0765   1.1036   1.1509   1.1829   1.2508   1.2956   1.3111   1.3506
     1.4049   1.4820   1.5197   1.5480   1.5641   1.5981   1.6157   1.6279
     1.6672   1.7007   1.7225   1.7453   1.7700   1.8107   1.8630   1.8917
     1.9187   1.9330   1.9526   2.0256   2.0782   2.0851   2.1370   2.1741
     2.1991   2.2263   2.2898   2.3124   2.3229   2.3322   2.3618   2.4077
     2.4575   2.4723   2.5005   2.5489   2.5844   2.6128   2.6349   2.6504
     2.6678   2.6955   2.7334   2.7785   2.7883   2.8729   2.8998   2.9169
     2.9513   2.9899   3.0578   3.1471   3.1678   3.4305   3.6247   3.7794
     3.8745   3.9837   4.0385   4.2991   4.4361   4.5238   4.7469   4.9392
     5.1900   5.2279   5.3134   5.4054   5.5323   5.5713   5.8127   5.8710
     6.1866   6.2427   6.6217   6.7555   7.1333   7.3328   7.6217   7.7067

          k = 0.4000-0.6928 0.0000 ( 43014 PWs)   bands (ev):

   -15.9904  -9.1037  -5.0953  -5.0678  -4.4774  -3.9773  -3.8914  -3.5247
    -3.3994  -3.3036  -3.2080  -3.1511  -3.0847  -3.0568  -3.0273  -2.9630
    -2.9129  -2.8817  -2.8383  -2.8093  -2.7993  -2.7694  -2.7304  -2.7024
    -2.6381  -2.6078  -2.5867  -2.5776  -2.5625  -2.5339  -2.4820  -2.4130
    -2.3333  -2.3177  -2.2704  -2.2175  -2.1978  -2.1843  -2.1477  -2.1239
    -2.0533  -1.9818  -1.9702  -1.8783  -1.7954  -1.7445  -1.7124  -1.6585
    -1.6246  -1.5796  -1.5489  -1.4892  -1.4558  -1.4248  -1.3980  -1.3809
    -1.3188  -1.3109  -1.2599  -1.2412  -1.1907  -1.1791  -1.1453  -1.1291
    -1.1043  -1.0843  -1.0532  -1.0343  -1.0014  -0.9324  -0.9061  -0.8777
    -0.8445  -0.8060  -0.7708  -0.7164  -0.6957  -0.6738  -0.6426  -0.6106
    -0.6002  -0.5746  -0.5409  -0.5208  -0.4798  -0.4601  -0.4122  -0.3627
    -0.3262  -0.2833  -0.2665  -0.2336  -0.1865  -0.1726  -0.1428  -0.1285
    -0.0879  -0.0523  -0.0417  -0.0197  -0.0027   0.0158   0.0275   0.0516
     0.0667   0.0858   0.1281   0.1439   0.1600   0.1693   0.1743   0.2014
     0.2145   0.2708   0.3621   0.4112   0.4471   0.4758   0.5306   0.5458
     0.6220   0.6597   0.6795   0.7005   0.7265   0.7561   0.7695   0.7889
     0.8119   0.8476   0.8780   0.9439   0.9780   1.0146   1.0340   1.0617
     1.0852   1.1364   1.1679   1.2306   1.2539   1.2951   1.3507   1.3866
     1.4045   1.4185   1.4436   1.4650   1.5030   1.5281   1.5724   1.6113
     1.6255   1.6355   1.6868   1.6989   1.7286   1.7585   1.8053   1.8627
     1.9155   1.9768   2.0094   2.0431   2.1146   2.1503   2.1840   2.1969
     2.2677   2.2833   2.3238   2.3697   2.4269   2.4441   2.4504   2.4941
     2.5146   2.5383   2.5749   2.6103   2.6182   2.6476   2.6677   2.6835
     2.7053   2.7513   2.7730   2.8197   2.8751   2.9012   2.9116   2.9488
     2.9725   3.0256   3.1192   3.1428   3.2439   3.5008   3.8750   4.0835
     4.1067   4.3303   4.4204   4.4766   4.5519   4.6254   4.8949   5.0926
     5.1441   5.2720   5.5825   5.6202   5.7387   5.7883   5.8525   5.9722
     6.1139   6.1749   6.4157   6.4969   6.6877   7.0345   7.1626   7.2026

          k = 0.4000-0.4619 0.0000 ( 43014 PWs)   bands (ev):

   -15.9904  -9.1037  -5.0935  -5.0729  -4.4751  -3.9695  -3.8966  -3.5410
    -3.3965  -3.3098  -3.2166  -3.1513  -3.0875  -3.0568  -3.0204  -2.9603
    -2.9125  -2.8754  -2.8313  -2.8087  -2.8013  -2.7613  -2.7275  -2.7090
    -2.6375  -2.5948  -2.5919  -2.5734  -2.5592  -2.5279  -2.5015  -2.4256
    -2.3277  -2.3071  -2.2807  -2.2397  -2.2035  -2.1780  -2.1511  -2.1200
    -2.0387  -1.9728  -1.9610  -1.8727  -1.8071  -1.7366  -1.7173  -1.6580
    -1.6137  -1.5963  -1.5525  -1.5027  -1.4560  -1.4294  -1.3816  -1.3592
    -1.3144  -1.2946  -1.2487  -1.2200  -1.1880  -1.1732  -1.1405  -1.1266
    -1.1124  -1.0840  -1.0460  -1.0346  -1.0037  -0.9255  -0.9037  -0.8712
    -0.8443  -0.7968  -0.7697  -0.7137  -0.6991  -0.6839  -0.6577  -0.6218
    -0.6115  -0.5716  -0.5446  -0.5066  -0.4845  -0.4594  -0.4020  -0.3698
    -0.3318  -0.2912  -0.2565  -0.2405  -0.2021  -0.1868  -0.1368  -0.1103
    -0.0777  -0.0587  -0.0463  -0.0250  -0.0134   0.0003   0.0254   0.0506
     0.0578   0.0924   0.1245   0.1376   0.1536   0.1696   0.1826   0.2065
     0.2234   0.2522   0.3599   0.4096   0.4389   0.4774   0.5203   0.5463
     0.6199   0.6554   0.6844   0.7014   0.7252   0.7502   0.7632   0.7976
     0.8094   0.8466   0.8830   0.9358   0.9796   1.0092   1.0228   1.0555
     1.0903   1.1365   1.1607   1.2275   1.2535   1.2908   1.3428   1.3824
     1.4088   1.4202   1.4492   1.4739   1.5009   1.5257   1.5642   1.6067
     1.6280   1.6405   1.6927   1.6974   1.7300   1.7616   1.8134   1.8600
     1.9141   1.9877   2.0077   2.0317   2.1133   2.1573   2.1800   2.1946
     2.2652   2.2818   2.3268   2.3638   2.4217   2.4381   2.4515   2.4852
     2.5146   2.5420   2.5815   2.6086   2.6287   2.6486   2.6719   2.6850
     2.6967   2.7389   2.7673   2.8215   2.8850   2.9160   2.9269   2.9622
     2.9822   3.0274   3.1130   3.1383   3.2629   3.5188   3.8647   4.0843
     4.1052   4.3333   4.4098   4.4659   4.5560   4.6428   4.8824   5.0998
     5.1471   5.2646   5.5971   5.6235   5.7355   5.7926   5.8754   5.9940
     6.1118   6.1685   6.4108   6.4896   6.6875   7.0162   7.1520   7.2039

     the Fermi energy is     2.6963 ev

!    total energy              =  -27819.31601139 Ry
     total all-electron energy =  -1326872.692412 Ry
     estimated scf accuracy    <       0.00000096 Ry
     smearing contrib. (-TS)   =      -0.00000720 Ry
     internal energy E=F+TS    =  -27819.31600420 Ry

     The total energy is F=E-TS. E is the sum of the following terms:
     one-electron contribution =  -20730.08419333 Ry
     hartree contribution      =   10680.54407412 Ry
     xc contribution           =    -904.60872147 Ry
     ewald contribution        =    8625.49938543 Ry
     one-center paw contrib.   =  -25490.66654895 Ry

     convergence has been achieved in  20 iterations

     negative rho (up, down):  2.995E-03 0.000E+00

     Forces acting on atoms (cartesian axes, Ry/au):

     atom    1 type  1   force =     0.00074027   -0.00119444   -0.01013043
     atom    2 type  1   force =     0.00117593   -0.00009389   -0.00736026
     atom    3 type  1   force =     0.00026598    0.00010677   -0.00714104
     atom    4 type  1   force =     0.00138354   -0.00208100   -0.00599071
     atom    5 type  1   force =     0.00067471   -0.00231195   -0.00834085
     atom    6 type  1   force =    -0.00074012   -0.00212892   -0.00630096
     atom    7 type  1   force =     0.00027952   -0.00061160   -0.00324413
     atom    8 type  1   force =     0.00090919   -0.00049568   -0.00381361
     atom    9 type  1   force =     0.00051358   -0.00049610   -0.00650535
     atom   10 type  1   force =    -0.00244546    0.00426096   -0.00283584
     atom   11 type  1   force =    -0.00082967    0.00533697    0.00845552
     atom   12 type  1   force =    -0.00092343    0.00451986   -0.00136999
     atom   13 type  1   force =    -0.00263894    0.00319808    0.01398127
     atom   14 type  1   force =     0.00049731    0.00211114    0.01420949
     atom   15 type  1   force =    -0.00086695    0.00585639    0.01701695
     atom   16 type  1   force =    -0.00153665    0.00028875    0.00369739
     atom   17 type  1   force =    -0.00027715   -0.00221329    0.00595284
     atom   18 type  1   force =    -0.00271699   -0.00270688    0.00676849
     atom   19 type  1   force =     0.00166179   -0.00718806    0.00988877
     atom   20 type  1   force =     0.00338802   -0.00067570    0.00292858
     atom   21 type  1   force =    -0.00074699   -0.00131845    0.00073444
     atom   22 type  1   force =     0.00082354   -0.00119628   -0.00229346
     atom   23 type  1   force =    -0.00155112    0.00082133   -0.00498237
     atom   24 type  1   force =    -0.00138096   -0.00214874   -0.00008247
     atom   25 type  1   force =    -0.00016125   -0.00159458    0.00217105
     atom   26 type  1   force =     0.00182798   -0.00149803    0.00283943
     atom   27 type  1   force =     0.00096902   -0.00096449    0.00024254
     atom   28 type  1   force =    -0.00246125   -0.00847837    0.01544565
     atom   29 type  1   force =     0.00271623    0.00528636   -0.00036143
     atom   30 type  1   force =    -0.00513623    0.00523983    0.00113191
     atom   31 type  1   force =     0.00486927    0.00203198    0.00013601
     atom   32 type  1   force =    -0.00166516    0.00142045   -0.00752796
     atom   33 type  1   force =    -0.00540113    0.00077765   -0.00298225
     atom   34 type  1   force =    -0.00525947    0.00142228   -0.00615324
     atom   35 type  1   force =     0.00334317   -0.00179808    0.00215253
     atom   36 type  1   force =     0.00250014   -0.00082509   -0.00239069
     atom   37 type  2   force =     0.00708025    0.03042703   -0.04787210
     atom   38 type  3   force =    -0.01820082   -0.12228849   -0.00119630
     atom   39 type  3   force =     0.02288286   -0.01828097    0.00378393
     atom   40 type  3   force =     0.00144078    0.02481057    0.00036418
     atom   41 type  4   force =    -0.00500334    0.08467267    0.02697449
     The non-local contrib.  to forces
     atom    1 type  1   force =    -0.00053384    0.00096319   -0.02078288
     atom    2 type  1   force =     0.00013661   -0.00130266   -0.02033102
     atom    3 type  1   force =    -0.00007673   -0.00119798   -0.02073199
     atom    4 type  1   force =    -0.00370176    0.00268075   -0.02124104
     atom    5 type  1   force =    -0.00017285    0.00101410   -0.02004633
     atom    6 type  1   force =     0.00332643    0.00257694   -0.02102947
     atom    7 type  1   force =    -0.00031277    0.00027842   -0.01792862
     atom    8 type  1   force =    -0.00002037    0.00035910   -0.01784402
     atom    9 type  1   force =    -0.00010075   -0.00269059   -0.02097226
     atom   10 type  1   force =     0.00054509    0.00180969   -0.00103388
     atom   11 type  1   force =    -0.00118606    0.00239853   -0.00018329
     atom   12 type  1   force =    -0.00395123    0.00139013   -0.00099068
     atom   13 type  1   force =    -0.00028802    0.00356186    0.00293755
     atom   14 type  1   force =    -0.00233069    0.00303444    0.00340528
     atom   15 type  1   force =    -0.00086727    0.00447421    0.00718832
     atom   16 type  1   force =    -0.00145153   -0.00000502   -0.00000315
     atom   17 type  1   force =    -0.00242246    0.00267629   -0.00017433
     atom   18 type  1   force =    -0.00089188    0.00282127   -0.00006567
     atom   19 type  1   force =     0.00219353    0.00594255    0.00462562
     atom   20 type  1   force =    -0.00855614   -0.00872190    0.00337312
     atom   21 type  1   force =     0.01162410   -0.00997137    0.00050860
     atom   22 type  1   force =    -0.01583500   -0.00776654   -0.01615924
     atom   23 type  1   force =    -0.00082407    0.01177836    0.01385195
     atom   24 type  1   force =     0.01554201   -0.00797085   -0.01261583
     atom   25 type  1   force =    -0.00008416   -0.00172770    0.01590875
     atom   26 type  1   force =     0.00188289   -0.00178307    0.01629366
     atom   27 type  1   force =     0.00035676   -0.00091378    0.00736570
     atom   28 type  1   force =    -0.00318361   -0.09813833    0.02776202
     atom   29 type  1   force =    -0.00742050   -0.00097809    0.02351699
     atom   30 type  1   force =     0.00841830   -0.00249034    0.02456906
     atom   31 type  1   force =     0.01314782    0.00381579    0.01990574
     atom   32 type  1   force =    -0.00399116    0.00443474   -0.12015818
     atom   33 type  1   force =    -0.00907537    0.00236904    0.01565644
     atom   34 type  1   force =     0.06782095    0.01673950   -0.00053178
     atom   35 type  1   force =    -0.06674953    0.02071069    0.00535247
     atom   36 type  1   force =     0.00395958   -0.00570333    0.01262676
     atom   37 type  2   force =    -0.00536465   -0.12020240   -1.49326109
     atom   38 type  3   force =     0.00104280   -0.05699631   -0.00631042
     atom   39 type  3   force =    -0.07174204    0.01723299   -0.03567958
     atom   40 type  3   force =     0.05442071    0.04667406   -0.02763258
     atom   41 type  4   force =     0.01614803    0.00486210   -0.16890085
     The ionic contribution  to forces
     atom    1 type  1   force =    -0.00294353    0.01346514  -94.92043829
     atom    2 type  1   force =     0.01299361    0.00286122  -94.89878256
     atom    3 type  1   force =    -0.01019053    0.00463723  -94.89212272
     atom    4 type  1   force =    -0.00617480    0.03857586  -94.84136883
     atom    5 type  1   force =     0.00302599    0.01717592  -94.85212214
     atom    6 type  1   force =     0.00287929    0.03601834  -94.83723737
     atom    7 type  1   force =    -0.01804666   -0.03611116  -94.86275272
     atom    8 type  1   force =     0.01714700   -0.03909393  -94.86400840
     atom    9 type  1   force =     0.00079158   -0.03682956  -94.82776315
     atom   10 type  1   force =     0.06765866    0.25610847  -34.47961650
     atom   11 type  1   force =     0.02372064    0.15527337  -34.37135644
     atom   12 type  1   force =    -0.15121509    0.24730199  -34.45538028
     atom   13 type  1   force =    -0.14184331    0.10801980  -34.19195319
     atom   14 type  1   force =     0.11575034    0.06486324  -34.16381189
     atom   15 type  1   force =    -0.00542872    0.28643136  -33.94711090
     atom   16 type  1   force =    -0.02777559   -0.25823234  -34.50740333
     atom   17 type  1   force =     0.10420607   -0.29774106  -34.38854813
     atom   18 type  1   force =    -0.12878265   -0.28712416  -34.38046067
     atom   19 type  1   force =    -0.00332501    0.55327722   25.84494055
     atom   20 type  1   force =     0.03459966    0.06674594   26.68943619
     atom   21 type  1   force =     0.03484148    0.05065726   26.94266644
     atom   22 type  1   force =    -0.59139155   -0.35241333   27.34117545
     atom   23 type  1   force =    -0.02291678   -0.23741787   26.83989475
     atom   24 type  1   force =     0.58139396   -0.38465268   27.34075164
     atom   25 type  1   force =    -0.12761016    0.06268130   25.83744092
     atom   26 type  1   force =     0.15038980    0.05982397   25.76615605
     atom   27 type  1   force =     0.00780011   -0.07849958   26.14230096
     atom   28 type  1   force =     0.02985876    3.17759234   85.38686640
     atom   29 type  1   force =     0.44895252   -0.17276731   87.33978272
     atom   30 type  1   force =    -0.49951744   -0.12284867   87.32085322
     atom   31 type  1   force =    -0.92560636   -0.31038951   87.81396522
     atom   32 type  1   force =     0.11214301   -2.73811176   84.95505008
     atom   33 type  1   force =     0.98442459   -0.27275120   88.53977708
     atom   34 type  1   force =    -4.61356063   -0.48394480   84.68544565
     atom   35 type  1   force =     4.58940027   -0.43519029   84.65235209
     atom   36 type  1   force =     0.00671371    0.14562340   89.69230099
     atom   37 type  2   force =     0.13489413    3.03085252   67.71806895
     atom   38 type  3   force =    -0.17994711    0.99547368   11.13089278
     atom   39 type  3   force =     2.02123627   -0.69028881   11.05371482
     atom   40 type  3   force =    -1.60040800   -1.38331686   10.92856364
     atom   41 type  4   force =    -0.42813752   -0.75573471   42.71984092
     The local contribution  to forces
     atom    1 type  1   force =     0.00435319   -0.01576862   94.91366642
     atom    2 type  1   force =    -0.01187641   -0.00175166   94.89479115
     atom    3 type  1   force =     0.01038804   -0.00332672   94.88877516
     atom    4 type  1   force =     0.01113326   -0.04337798   94.83941906
     atom    5 type  1   force =    -0.00206318   -0.02060987   94.84675668
     atom    6 type  1   force =    -0.00684521   -0.04060462   94.83484411
     atom    7 type  1   force =     0.01872740    0.03522289   94.86009392
     atom    8 type  1   force =    -0.01606600    0.03821974   94.86080071
     atom    9 type  1   force =    -0.00032610    0.03900711   94.82527437
     atom   10 type  1   force =    -0.07058066   -0.25313046   34.47741386
     atom   11 type  1   force =    -0.02330794   -0.15205528   34.38022467
     atom   12 type  1   force =     0.15373627   -0.24338583   34.45486168
     atom   13 type  1   force =     0.13907886   -0.10793051   34.20378375
     atom   14 type  1   force =    -0.11243247   -0.06536773   34.17565890
     atom   15 type  1   force =     0.00513844   -0.28402273   33.95862459
     atom   16 type  1   force =     0.02777859    0.25815040   34.51086636
     atom   17 type  1   force =    -0.10193692    0.29221109   34.39465885
     atom   18 type  1   force =     0.12648849    0.28107450   34.38731957
     atom   19 type  1   force =     0.00267550   -0.56533954  -25.83731363
     atom   20 type  1   force =    -0.02204177   -0.05841068  -26.68661740
     atom   21 type  1   force =    -0.04734192   -0.04156523  -26.93960632
     atom   22 type  1   force =     0.60672353    0.35804729  -27.32724835
     atom   23 type  1   force =     0.02229606    0.22668325  -26.85533338
     atom   24 type  1   force =    -0.59729015    0.38929511  -27.32786417
     atom   25 type  1   force =     0.12800265   -0.06270324  -25.84740964
     atom   26 type  1   force =    -0.15081628   -0.05991119  -25.77600697
     atom   27 type  1   force =    -0.00715145    0.07820123  -26.14728024
     atom   28 type  1   force =    -0.02934287   -3.08438991  -85.38865134
     atom   29 type  1   force =    -0.43932042    0.17913837  -87.34794469
     atom   30 type  1   force =     0.48653132    0.13051119  -87.32844392
     atom   31 type  1   force =     0.91948775    0.30885299  -87.81759173
     atom   32 type  1   force =    -0.10947818    2.73237807  -84.84214520
     atom   33 type  1   force =    -0.98275291    0.27131204  -88.54250871
     atom   34 type  1   force =     4.53201854    0.46472562  -84.68498337
     atom   35 type  1   force =    -4.51116255    0.40897789  -84.64876810
     atom   36 type  1   force =    -0.00803299   -0.14020883  -89.69057431
     atom   37 type  2   force =    -0.12240244   -2.88118993  -66.28926300
     atom   38 type  3   force =     0.16070850   -1.06081148  -11.12593836
     atom   39 type  3   force =    -1.92664603    0.65478269  -11.01443183
     atom   40 type  3   force =     1.54746129    1.36147745  -10.90073525
     atom   41 type  4   force =     0.40706949    0.83584246  -42.52742063
     The core correction contribution to forces
     atom    1 type  1   force =    -0.00004632    0.00015556    0.01728472
     atom    2 type  1   force =    -0.00005021   -0.00003003    0.01692487
     atom    3 type  1   force =     0.00002454    0.00001793    0.01687058
     atom    4 type  1   force =     0.00007968    0.00001214    0.01702470
     atom    5 type  1   force =    -0.00002251    0.00007438    0.01694323
     atom    6 type  1   force =    -0.00014539    0.00000789    0.01704675
     atom    7 type  1   force =    -0.00008807    0.00000876    0.01715935
     atom    8 type  1   force =     0.00002341    0.00002404    0.01718375
     atom    9 type  1   force =    -0.00002871    0.00007734    0.01692777
     atom   10 type  1   force =    -0.00000971   -0.00070624    0.00074938
     atom   11 type  1   force =    -0.00000138   -0.00043914    0.00018415
     atom   12 type  1   force =     0.00038685   -0.00068654    0.00064077
     atom   13 type  1   force =     0.00048672   -0.00048613   -0.00048710
     atom   14 type  1   force =    -0.00030396   -0.00037375   -0.00062487
     atom   15 type  1   force =     0.00002503   -0.00089578   -0.00133637
     atom   16 type  1   force =     0.00011671    0.00040889    0.00065790
     atom   17 type  1   force =    -0.00008779    0.00061114    0.00039354
     atom   18 type  1   force =     0.00022361    0.00067247    0.00038433
     atom   19 type  1   force =    -0.00012977   -0.00113155   -0.00145447
     atom   20 type  1   force =    -0.00047582   -0.00049156   -0.00236754
     atom   21 type  1   force =     0.00024778   -0.00049368   -0.00192858
     atom   22 type  1   force =     0.00117317    0.00111273    0.00081866
     atom   23 type  1   force =     0.00015518   -0.00016329   -0.00240685
     atom   24 type  1   force =    -0.00111973    0.00120803    0.00042786
     atom   25 type  1   force =    -0.00053816    0.00033607   -0.00278137
     atom   26 type  1   force =     0.00044524    0.00025160   -0.00273208
     atom   27 type  1   force =    -0.00004277    0.00027606   -0.00134033
     atom   28 type  1   force =     0.00007588   -0.00357383   -0.01059268
     atom   29 type  1   force =     0.00055758   -0.00017495   -0.01570478
     atom   30 type  1   force =    -0.00049730    0.00016996   -0.01588029
     atom   31 type  1   force =    -0.00219372   -0.00025384   -0.01598256
     atom   32 type  1   force =    -0.00014975    0.00278757   -0.00017305
     atom   33 type  1   force =     0.00182595   -0.00018124   -0.01591242
     atom   34 type  1   force =     0.00855914    0.00395632   -0.00606161
     atom   35 type  1   force =    -0.00815945    0.00357175   -0.00685426
     atom   36 type  1   force =    -0.00022274   -0.00049685   -0.01673902
     atom   37 type  2   force =    -0.00004636    0.00080821    0.01605599
     atom   38 type  3   force =     0.00000000    0.00000000    0.00000000
     atom   39 type  3   force =     0.00000000    0.00000000    0.00000000
     atom   40 type  3   force =     0.00000000    0.00000000    0.00000000
     atom   41 type  4   force =    -0.00004659   -0.00034172    0.00310874
     The Hubbard contrib.    to forces
     atom    1 type  1   force =     0.00000000    0.00000000    0.00000000
     atom    2 type  1   force =     0.00000000    0.00000000    0.00000000
     atom    3 type  1   force =     0.00000000    0.00000000    0.00000000
     atom    4 type  1   force =     0.00000000    0.00000000    0.00000000
     atom    5 type  1   force =     0.00000000    0.00000000    0.00000000
     atom    6 type  1   force =     0.00000000    0.00000000    0.00000000
     atom    7 type  1   force =     0.00000000    0.00000000    0.00000000
     atom    8 type  1   force =     0.00000000    0.00000000    0.00000000
     atom    9 type  1   force =     0.00000000    0.00000000    0.00000000
     atom   10 type  1   force =     0.00000000    0.00000000    0.00000000
     atom   11 type  1   force =     0.00000000    0.00000000    0.00000000
     atom   12 type  1   force =     0.00000000    0.00000000    0.00000000
     atom   13 type  1   force =     0.00000000    0.00000000    0.00000000
     atom   14 type  1   force =     0.00000000    0.00000000    0.00000000
     atom   15 type  1   force =     0.00000000    0.00000000    0.00000000
     atom   16 type  1   force =     0.00000000    0.00000000    0.00000000
     atom   17 type  1   force =     0.00000000    0.00000000    0.00000000
     atom   18 type  1   force =     0.00000000    0.00000000    0.00000000
     atom   19 type  1   force =     0.00000000    0.00000000    0.00000000
     atom   20 type  1   force =     0.00000000    0.00000000    0.00000000
     atom   21 type  1   force =     0.00000000    0.00000000    0.00000000
     atom   22 type  1   force =     0.00000000    0.00000000    0.00000000
     atom   23 type  1   force =     0.00000000    0.00000000    0.00000000
     atom   24 type  1   force =     0.00000000    0.00000000    0.00000000
     atom   25 type  1   force =     0.00000000    0.00000000    0.00000000
     atom   26 type  1   force =     0.00000000    0.00000000    0.00000000
     atom   27 type  1   force =     0.00000000    0.00000000    0.00000000
     atom   28 type  1   force =     0.00000000    0.00000000    0.00000000
     atom   29 type  1   force =     0.00000000    0.00000000    0.00000000
     atom   30 type  1   force =     0.00000000    0.00000000    0.00000000
     atom   31 type  1   force =     0.00000000    0.00000000    0.00000000
     atom   32 type  1   force =     0.00000000    0.00000000    0.00000000
     atom   33 type  1   force =     0.00000000    0.00000000    0.00000000
     atom   34 type  1   force =     0.00000000    0.00000000    0.00000000
     atom   35 type  1   force =     0.00000000    0.00000000    0.00000000
     atom   36 type  1   force =     0.00000000    0.00000000    0.00000000
     atom   37 type  2   force =     0.00000000    0.00000000    0.00000000
     atom   38 type  3   force =     0.00000000    0.00000000    0.00000000
     atom   39 type  3   force =     0.00000000    0.00000000    0.00000000
     atom   40 type  3   force =     0.00000000    0.00000000    0.00000000
     atom   41 type  4   force =     0.00000000    0.00000000    0.00000000
     The SCF correction term to forces
     atom    1 type  1   force =    -0.00000000   -0.00000000    0.00000000
     atom    2 type  1   force =    -0.00000000    0.00000000   -0.00000000
     atom    3 type  1   force =     0.00000000   -0.00000000   -0.00000000
     atom    4 type  1   force =     0.00000000    0.00000000    0.00000000
     atom    5 type  1   force =    -0.00000000    0.00000000    0.00000000
     atom    6 type  1   force =     0.00000000   -0.00000000   -0.00000000
     atom    7 type  1   force =    -0.00000000   -0.00000000    0.00000000
     atom    8 type  1   force =    -0.00000000    0.00000000   -0.00000000
     atom    9 type  1   force =     0.00000000   -0.00000000   -0.00000000
     atom   10 type  1   force =    -0.00000000    0.00000000   -0.00000000
     atom   11 type  1   force =    -0.00000000    0.00000000   -0.00000000
     atom   12 type  1   force =     0.00000000   -0.00000000   -0.00000000
     atom   13 type  1   force =    -0.00000000    0.00000000   -0.00000000
     atom   14 type  1   force =    -0.00000000   -0.00000000   -0.00000000
     atom   15 type  1   force =     0.00000000   -0.00000000   -0.00000000
     atom   16 type  1   force =    -0.00000000   -0.00000000   -0.00000000
     atom   17 type  1   force =    -0.00000000    0.00000000   -0.00000000
     atom   18 type  1   force =     0.00000000   -0.00000000   -0.00000000
     atom   19 type  1   force =     0.00024679    0.00006839   -0.00099800
     atom   20 type  1   force =    -0.00013866    0.00020764   -0.00098450
     atom   21 type  1   force =    -0.00011917    0.00005971   -0.00099439
     atom   22 type  1   force =     0.00015265   -0.00017129   -0.00096869
     atom   23 type  1   force =    -0.00026226   -0.00005398   -0.00107755
     atom   24 type  1   force =     0.00009220   -0.00002320   -0.00087067
     atom   25 type  1   force =     0.00006784   -0.00017585   -0.00107630
     atom   26 type  1   force =    -0.00007441    0.00012581   -0.00095992
     atom   27 type  1   force =     0.00000562   -0.00002327   -0.00089225
     atom   28 type  1   force =     0.00012984    0.00003651   -0.00002744
     atom   29 type  1   force =    -0.00005369    0.00007349   -0.00010035
     atom   30 type  1   force =    -0.00007184   -0.00009716   -0.00005485
     atom   31 type  1   force =     0.00003303    0.00001169   -0.00024937
     atom   32 type  1   force =    -0.00018982   -0.00006302   -0.00019031
     atom   33 type  1   force =     0.00017587    0.00003416   -0.00008333
     atom   34 type  1   force =    -0.00009821   -0.00004921   -0.00011083
     atom   35 type  1   force =     0.00001369    0.00013703   -0.00001836
     atom   36 type  1   force =     0.00008183   -0.00003434   -0.00009380
     atom   37 type  2   force =    -0.00000118    0.00016377    0.00043835
     atom   38 type  3   force =    -0.00000576    0.00005077    0.00007100
     atom   39 type  3   force =     0.00003393   -0.00000268    0.00009181
     atom   40 type  3   force =    -0.00003396   -0.00001892    0.00007967
     atom   41 type  4   force =    -0.00003749    0.00004969    0.00025761

     Total force =     0.169828     Total SCF correction =     0.003104

     Writing all to output data dir ./pwscf.save/

     init_run     :      7.45s CPU      7.76s WALL (       1 calls)
     electrons    :    273.64s CPU    282.57s WALL (       1 calls)
     forces       :      2.47s CPU      2.53s WALL (       1 calls)

     Called by init_run:
     wfcinit      :      3.79s CPU      4.01s WALL (       1 calls)
     potinit      :      2.23s CPU      2.28s WALL (       1 calls)
     hinit0       :      0.87s CPU      0.89s WALL (       1 calls)

     Called by electrons:
     c_bands      :    243.46s CPU    250.47s WALL (      21 calls)
     sum_band     :     18.92s CPU     19.80s WALL (      21 calls)
     v_of_rho     :      5.18s CPU      5.54s WALL (      21 calls)
     newd         :      1.68s CPU      1.96s WALL (      21 calls)
     PAW_pot      :      2.54s CPU      2.67s WALL (      21 calls)
     mix_rho      :      3.16s CPU      3.29s WALL (      21 calls)
     vdW_kernel   :      1.08s CPU      1.09s WALL (       1 calls)

     Called by c_bands:
     init_us_2    :      1.51s CPU      1.59s WALL (     572 calls)
     init_us_2:cp :      1.51s CPU      1.59s WALL (     572 calls)
     cegterg      :    238.96s CPU    245.74s WALL (     273 calls)

     Called by *egterg:
     cdiaghg      :     91.85s CPU     94.05s WALL (    1590 calls)
     h_psi        :     91.54s CPU     94.19s WALL (    1616 calls)
     s_psi        :      8.57s CPU      8.81s WALL (    1616 calls)
     g_psi        :      0.20s CPU      0.21s WALL (    1330 calls)

     Called by h_psi:
     h_psi:calbec :     14.67s CPU     15.22s WALL (    1616 calls)
     vloc_psi     :     67.26s CPU     68.78s WALL (    1616 calls)
     add_vuspsi   :      9.13s CPU      9.68s WALL (    1616 calls)

     General routines
     calbec       :     19.69s CPU     20.40s WALL (    1941 calls)
     fft          :      3.30s CPU      3.40s WALL (    1383 calls)
     ffts         :      2.38s CPU      2.46s WALL (    5371 calls)
     fftw         :     69.54s CPU     71.08s WALL (  348086 calls)
     interpolate  :      0.57s CPU      0.58s WALL (      21 calls)

     Parallel routines

     PWSCF        :   4m46.53s CPU   4m58.96s WALL


   This run was terminated on:  10:36:58   5Dec2025            

=------------------------------------------------------------------------------=
   JOB DONE.
=------------------------------------------------------------------------------=
