  37  37   0   0
  0.4190497E+02  0.8468310E-09  0.8468310E-09  0.2496566E-08  0.5000000E-15
  1.000000000000000E-004
  CAR 
 unknown system                          
      8.63476649     -9.89817832  301     -0.07643250      1.00000000
     -9.898  0.0000E+00  0.0000E+00
     -9.836  0.0000E+00  0.0000E+00
     -9.775  0.0000E+00  0.0000E+00
     -9.713 -0.4467E-28 -0.2760E-29
     -9.651 -0.6628E-24 -0.4095E-25
     -9.589 -0.4554E-20 -0.2813E-21
     -9.528 -0.1446E-16 -0.8938E-18
     -9.466 -0.2056E-13 -0.1271E-14
     -9.404 -0.1377E-10 -0.8517E-12
     -9.342 -0.4213E-08 -0.2611E-09
     -9.280 -0.5846E-06 -0.3638E-07
     -9.219 -0.3623E-04 -0.2274E-05
     -9.157 -0.9723E-03 -0.6234E-04
     -9.095 -0.1047E-01 -0.7088E-03
     -9.033 -0.3357E-01 -0.2783E-02
     -8.972  0.5324E-01  0.5063E-03
     -8.910  0.3328E+00  0.2106E-01
     -8.848  0.6106E+00  0.5878E-01
     -8.786  0.2062E+01  0.1862E+00
     -8.724  0.3813E+01  0.4217E+00
     -8.663  0.2231E+01  0.5596E+00
     -8.601 -0.2996E-01  0.5577E+00
     -8.539  0.1963E+00  0.5698E+00
     -8.477  0.2574E+01  0.7289E+00
     -8.416  0.3808E+01  0.9641E+00
     -8.354  0.3551E+01  0.1183E+01
     -8.292  0.3741E+01  0.1415E+01
     -8.230  0.1867E+01  0.1530E+01
     -8.168  0.1651E-02  0.1530E+01
     -8.107 -0.3625E+00  0.1508E+01
     -8.045 -0.2667E+00  0.1491E+01
     -7.983  0.2146E+01  0.1624E+01
     -7.921  0.6665E+01  0.2035E+01
     -7.860  0.5970E+01  0.2404E+01
     -7.798  0.1579E+01  0.2502E+01
     -7.736  0.1708E+01  0.2607E+01
     -7.674  0.5083E+01  0.2921E+01
     -7.612  0.6100E+01  0.3298E+01
     -7.551  0.3192E+01  0.3495E+01
     -7.489  0.8418E+00  0.3547E+01
     -7.427  0.2538E+01  0.3704E+01
     -7.365  0.5375E+01  0.4036E+01
     -7.304  0.7391E+01  0.4493E+01
     -7.242  0.9510E+01  0.5080E+01
     -7.180  0.9765E+01  0.5684E+01
     -7.118  0.6402E+01  0.6079E+01
     -7.056  0.4911E+01  0.6382E+01
     -6.995  0.5345E+01  0.6713E+01
     -6.933  0.4250E+01  0.6975E+01
     -6.871  0.3947E+01  0.7219E+01
     -6.809  0.6411E+01  0.7615E+01
     -6.748  0.8571E+01  0.8145E+01
     -6.686  0.7173E+01  0.8588E+01
     -6.624  0.8066E+01  0.9086E+01
     -6.562  0.1394E+02  0.9947E+01
     -6.500  0.1390E+02  0.1081E+02
     -6.439  0.1071E+02  0.1147E+02
     -6.377  0.1110E+02  0.1215E+02
     -6.315  0.9363E+01  0.1273E+02
     -6.253  0.1051E+02  0.1338E+02
     -6.192  0.1967E+02  0.1460E+02
     -6.130  0.3233E+02  0.1659E+02
     -6.068  0.3686E+02  0.1887E+02
     -6.006  0.3149E+02  0.2082E+02
     -5.944  0.2918E+02  0.2262E+02
     -5.883  0.3235E+02  0.2462E+02
     -5.821  0.3638E+02  0.2687E+02
     -5.759  0.3002E+02  0.2872E+02
     -5.697  0.2604E+02  0.3033E+02
     -5.636  0.3348E+02  0.3240E+02
     -5.574  0.4032E+02  0.3489E+02
     -5.512  0.4309E+02  0.3755E+02
     -5.450  0.5241E+02  0.4079E+02
     -5.388  0.6328E+02  0.4470E+02
     -5.327  0.6423E+02  0.4866E+02
     -5.265  0.5556E+02  0.5210E+02
     -5.203  0.4450E+02  0.5485E+02
     -5.141  0.4041E+02  0.5734E+02
     -5.080  0.5052E+02  0.6046E+02
     -5.018  0.7067E+02  0.6483E+02
     -4.956  0.6076E+02  0.6858E+02
     -4.894  0.3048E+02  0.7046E+02
     -4.833  0.2507E+02  0.7201E+02
     -4.771  0.4100E+02  0.7455E+02
     -4.709  0.3886E+02  0.7695E+02
     -4.647  0.2294E+02  0.7836E+02
     -4.585  0.2628E+02  0.7999E+02
     -4.524  0.4354E+02  0.8268E+02
     -4.462  0.5851E+02  0.8629E+02
     -4.400  0.6247E+02  0.9015E+02
     -4.338  0.5274E+02  0.9341E+02
     -4.277  0.4397E+02  0.9612E+02
     -4.215  0.4238E+02  0.9874E+02
     -4.153  0.4861E+02  0.1017E+03
     -4.091  0.5992E+02  0.1054E+03
     -4.029  0.5819E+02  0.1090E+03
     -3.968  0.4688E+02  0.1119E+03
     -3.906  0.4172E+02  0.1145E+03
     -3.844  0.3998E+02  0.1170E+03
     -3.782  0.3668E+02  0.1193E+03
     -3.721  0.4365E+02  0.1219E+03
     -3.659  0.6080E+02  0.1257E+03
     -3.597  0.6295E+02  0.1296E+03
     -3.535  0.5627E+02  0.1331E+03
     -3.473  0.5735E+02  0.1366E+03
     -3.412  0.6867E+02  0.1409E+03
     -3.350  0.7628E+02  0.1456E+03
     -3.288  0.7170E+02  0.1500E+03
     -3.226  0.6621E+02  0.1541E+03
     -3.165  0.7463E+02  0.1587E+03
     -3.103  0.8873E+02  0.1642E+03
     -3.041  0.8285E+02  0.1693E+03
     -2.979  0.7596E+02  0.1740E+03
     -2.917  0.7787E+02  0.1788E+03
     -2.856  0.7578E+02  0.1835E+03
     -2.794  0.8631E+02  0.1888E+03
     -2.732  0.1029E+03  0.1952E+03
     -2.670  0.1025E+03  0.2015E+03
     -2.609  0.8044E+02  0.2065E+03
     -2.547  0.6189E+02  0.2103E+03
     -2.485  0.6330E+02  0.2142E+03
     -2.423  0.5925E+02  0.2179E+03
     -2.361  0.4313E+02  0.2205E+03
     -2.300  0.2880E+02  0.2223E+03
     -2.238  0.2518E+02  0.2239E+03
     -2.176  0.3223E+02  0.2259E+03
     -2.114  0.4604E+02  0.2287E+03
     -2.053  0.6757E+02  0.2329E+03
     -1.991  0.8917E+02  0.2384E+03
     -1.929  0.9121E+02  0.2440E+03
     -1.867  0.7746E+02  0.2488E+03
     -1.805  0.5776E+02  0.2524E+03
     -1.744  0.4382E+02  0.2551E+03
     -1.682  0.4316E+02  0.2577E+03
     -1.620  0.4840E+02  0.2607E+03
     -1.558  0.5695E+02  0.2642E+03
     -1.497  0.5822E+02  0.2678E+03
     -1.435  0.5475E+02  0.2712E+03
     -1.373  0.5961E+02  0.2749E+03
     -1.311  0.5912E+02  0.2786E+03
     -1.249  0.5083E+02  0.2817E+03
     -1.188  0.5741E+02  0.2852E+03
     -1.126  0.7621E+02  0.2900E+03
     -1.064  0.8579E+02  0.2953E+03
     -1.002  0.8405E+02  0.3004E+03
     -0.941  0.6765E+02  0.3046E+03
     -0.879  0.5648E+02  0.3081E+03
     -0.817  0.5720E+02  0.3117E+03
     -0.755  0.4985E+02  0.3147E+03
     -0.693  0.4256E+02  0.3174E+03
     -0.632  0.5360E+02  0.3207E+03
     -0.570  0.6302E+02  0.3246E+03
     -0.508  0.5946E+02  0.3282E+03
     -0.446  0.6053E+02  0.3320E+03
     -0.385  0.7206E+02  0.3364E+03
     -0.323  0.9022E+02  0.3420E+03
     -0.261  0.9239E+02  0.3477E+03
     -0.199  0.6713E+02  0.3519E+03
     -0.137  0.5912E+02  0.3555E+03
     -0.076  0.9008E+02  0.3611E+03
     -0.014  0.9134E+02  0.3667E+03
      0.048  0.4877E+02  0.3697E+03
      0.110  0.3420E+02  0.3718E+03
      0.171  0.5444E+02  0.3752E+03
      0.233  0.5418E+02  0.3786E+03
      0.295  0.4247E+02  0.3812E+03
      0.357  0.3705E+02  0.3835E+03
      0.418  0.2443E+02  0.3850E+03
      0.480  0.1118E+02  0.3857E+03
      0.542  0.3717E+01  0.3859E+03
      0.604  0.2277E+01  0.3860E+03
      0.666  0.5538E+01  0.3864E+03
      0.727  0.1277E+02  0.3872E+03
      0.789  0.1632E+02  0.3882E+03
      0.851  0.1067E+02  0.3888E+03
      0.913  0.7674E+01  0.3893E+03
      0.974  0.1123E+02  0.3900E+03
      1.036  0.8631E+01  0.3905E+03
      1.098  0.2029E+01  0.3907E+03
      1.160  0.4274E+01  0.3909E+03
      1.222  0.1218E+02  0.3917E+03
      1.283  0.1385E+02  0.3925E+03
      1.345  0.1153E+02  0.3932E+03
      1.407  0.1023E+02  0.3939E+03
      1.469  0.1636E+02  0.3949E+03
      1.530  0.2728E+02  0.3966E+03
      1.592  0.2472E+02  0.3981E+03
      1.654  0.1751E+02  0.3992E+03
      1.716  0.1540E+02  0.4001E+03
      1.778  0.8965E+01  0.4007E+03
      1.839  0.1547E+01  0.4008E+03
      1.901  0.2064E+01  0.4009E+03
      1.963  0.5811E+01  0.4013E+03
      2.025  0.7225E+01  0.4017E+03
      2.086  0.5161E+01  0.4020E+03
      2.148  0.4578E+01  0.4023E+03
      2.210  0.9235E+01  0.4029E+03
      2.272  0.1138E+02  0.4036E+03
      2.334  0.1116E+02  0.4043E+03
      2.395  0.1578E+02  0.4053E+03
      2.457  0.2219E+02  0.4066E+03
      2.519  0.1935E+02  0.4078E+03
      2.581  0.9679E+01  0.4084E+03
      2.642  0.6270E+01  0.4088E+03
      2.704  0.7533E+01  0.4093E+03
      2.766  0.1348E+02  0.4101E+03
      2.828  0.1945E+02  0.4113E+03
      2.890  0.1669E+02  0.4123E+03
      2.951  0.1102E+02  0.4130E+03
      3.013  0.8238E+01  0.4135E+03
      3.075  0.1221E+02  0.4143E+03
      3.137  0.1417E+02  0.4152E+03
      3.198  0.1118E+02  0.4158E+03
      3.260  0.9731E+01  0.4164E+03
      3.322  0.7221E+01  0.4169E+03
      3.384  0.2316E+01  0.4170E+03
      3.446  0.1639E+01  0.4171E+03
      3.507  0.6820E+01  0.4176E+03
      3.569  0.1311E+02  0.4184E+03
      3.631  0.1955E+02  0.4196E+03
      3.693  0.2374E+02  0.4210E+03
      3.754  0.1980E+02  0.4223E+03
      3.816  0.1073E+02  0.4229E+03
      3.878  0.4454E+01  0.4232E+03
      3.940  0.3194E+01  0.4234E+03
      4.002  0.4231E+01  0.4237E+03
      4.063  0.6204E+01  0.4240E+03
      4.125  0.8003E+01  0.4245E+03
      4.187  0.7732E+01  0.4250E+03
      4.249  0.5629E+01  0.4254E+03
      4.310  0.5662E+01  0.4257E+03
      4.372  0.1545E+02  0.4267E+03
      4.434  0.2562E+02  0.4283E+03
      4.496  0.1850E+02  0.4294E+03
      4.558  0.7883E+01  0.4299E+03
      4.619  0.8227E+01  0.4304E+03
      4.681  0.1250E+02  0.4312E+03
      4.743  0.1458E+02  0.4321E+03
      4.805  0.1176E+02  0.4328E+03
      4.866  0.7516E+01  0.4333E+03
      4.928  0.6580E+01  0.4337E+03
      4.990  0.9570E+01  0.4342E+03
      5.052  0.9200E+01  0.4348E+03
      5.114  0.6671E+01  0.4352E+03
      5.175  0.9277E+01  0.4358E+03
      5.237  0.1306E+02  0.4366E+03
      5.299  0.1332E+02  0.4374E+03
      5.361  0.9636E+01  0.4380E+03
      5.422  0.9584E+01  0.4386E+03
      5.484  0.1665E+02  0.4396E+03
      5.546  0.2304E+02  0.4411E+03
      5.608  0.2447E+02  0.4426E+03
      5.669  0.2442E+02  0.4441E+03
      5.731  0.2336E+02  0.4455E+03
      5.793  0.1973E+02  0.4468E+03
      5.855  0.1725E+02  0.4478E+03
      5.917  0.1830E+02  0.4489E+03
      5.978  0.2496E+02  0.4505E+03
      6.040  0.3088E+02  0.4524E+03
      6.102  0.2315E+02  0.4538E+03
      6.164  0.1140E+02  0.4545E+03
      6.225  0.1365E+02  0.4554E+03
      6.287  0.2589E+02  0.4570E+03
      6.349  0.3305E+02  0.4590E+03
      6.411  0.2356E+02  0.4605E+03
      6.473  0.1164E+02  0.4612E+03
      6.534  0.1644E+02  0.4622E+03
      6.596  0.2780E+02  0.4639E+03
      6.658  0.2982E+02  0.4658E+03
      6.720  0.2724E+02  0.4675E+03
      6.781  0.2313E+02  0.4689E+03
      6.843  0.1482E+02  0.4698E+03
      6.905  0.1167E+02  0.4705E+03
      6.967  0.1524E+02  0.4715E+03
      7.029  0.1608E+02  0.4725E+03
      7.090  0.1767E+02  0.4735E+03
      7.152  0.2221E+02  0.4749E+03
      7.214  0.2433E+02  0.4764E+03
      7.276  0.2003E+02  0.4777E+03
      7.337  0.1068E+02  0.4783E+03
      7.399  0.3616E+01  0.4785E+03
      7.461  0.3003E+01  0.4787E+03
      7.523  0.5442E+01  0.4791E+03
      7.585  0.7379E+01  0.4795E+03
      7.646  0.6231E+01  0.4799E+03
      7.708  0.2015E+01  0.4800E+03
      7.770 -0.1803E+00  0.4800E+03
      7.832 -0.1982E+00  0.4800E+03
      7.893 -0.3266E-01  0.4800E+03
      7.955 -0.2123E-02  0.4800E+03
      8.017 -0.6183E-04  0.4800E+03
      8.079 -0.8388E-06  0.4800E+03
      8.141 -0.5359E-08  0.4800E+03
      8.202 -0.1613E-10  0.4800E+03
      8.264 -0.2358E-13  0.4800E+03
      8.326  0.0000E+00  0.4800E+03
      8.388  0.0000E+00  0.4800E+03
      8.449  0.0000E+00  0.4800E+03
      8.511  0.0000E+00  0.4800E+03
      8.573  0.0000E+00  0.4800E+03
      8.635  0.0000E+00  0.4800E+03
