   37   37    1    1
  0.4190497E+02  0.8468310E-09  0.8468310E-09  0.2496566E-08  0.5000000E-15
  1.000000000000000E-004
  CAR 
 unknown system                          
    361     13    240
 
  0.1276756E-14  0.1276756E-14  0.1276756E-14  0.4000000E-01
      1         -8.898178   1.000000
      2         -7.748906   1.000000
      3         -7.000141   1.000000
      4         -6.502556   1.000000
      5         -6.480097   1.000000
      6         -6.455917   1.000000
      7         -6.452661   1.000000
      8         -6.442423   1.000000
      9         -6.441264   1.000000
     10         -6.425324   1.000000
     11         -6.142909   1.000000
     12         -5.919388   1.000000
     13         -5.917144   1.000000
     14         -5.908220   1.000000
     15         -5.900802   1.000000
     16         -5.896606   1.000000
     17         -5.828500   1.000000
     18         -5.465840   1.000000
     19         -5.459388   1.000000
     20         -5.458079   1.000000
     21         -5.448913   1.000000
     22         -5.445739   1.000000
     23         -5.336945   1.000000
     24         -5.235800   1.000000
     25         -5.228678   1.000000
     26         -5.225546   1.000000
     27         -5.219231   1.000000
     28         -5.218343   1.000000
     29         -5.120734   1.000000
     30         -5.028898   1.000000
     31         -5.028100   1.000000
     32         -5.025283   1.000000
     33         -5.019444   1.000000
     34         -5.015516   1.000000
     35         -4.977182   1.000000
     36         -4.960105   1.000000
     37         -4.954637   1.000000
     38         -4.949331   1.000000
     39         -4.919917   1.000000
     40         -4.910098   1.000000
     41         -4.588713   1.000000
     42         -4.381826   1.000000
     43         -4.381325   1.000000
     44         -4.357791   1.000000
     45         -4.341546   1.000000
     46         -4.328948   1.000000
     47         -4.314203   1.000000
     48         -4.300586   1.000000
     49         -4.291539   1.000000
     50         -4.290464   1.000000
     51         -4.146363   1.000000
     52         -4.134432   1.000000
     53         -4.130290   1.000000
     54         -4.042595   1.000000
     55         -4.031333   1.000000
     56         -3.592565   1.000000
     57         -3.577599   1.000000
     58         -3.574606   1.000000
     59         -3.567002   1.000000
     60         -3.550777   1.000000
     61         -3.500271   1.000000
     62         -3.495389   1.000000
     63         -3.393228   1.000000
     64         -3.375721   1.000000
     65         -3.374674   1.000000
     66         -3.372879   1.000000
     67         -3.367412   1.000000
     68         -3.363594   1.000000
     69         -3.353813   1.000000
     70         -3.321558   1.000000
     71         -3.308395   1.000000
     72         -3.304648   1.000000
     73         -3.301700   1.000000
     74         -3.292877   1.000000
     75         -3.272114   1.000000
     76         -3.263706   1.000000
     77         -3.254579   1.000000
     78         -3.163571   1.000000
     79         -3.155039   1.000000
     80         -3.141907   1.000000
     81         -3.140692   1.000000
     82         -3.130247   1.000000
     83         -3.123313   1.000000
     84         -2.957671   1.000000
     85         -2.926372   1.000000
     86         -2.925667   1.000000
     87         -2.916999   1.000000
     88         -2.902406   1.000000
     89         -2.901858   1.000000
     90         -2.886858   1.000000
     91         -2.884878   1.000000
     92         -2.842981   1.000000
     93         -2.824155   1.000000
     94         -2.805934   1.000000
     95         -2.787462   1.000000
     96         -2.742110   1.000000
     97         -2.739180   1.000000
     98         -2.695522   1.000000
     99         -2.693618   1.000000
    100         -2.682775   1.000000
    101         -2.617565   1.000000
    102         -2.533499   1.000000
    103         -2.519292   1.000000
    104         -2.518022   1.000000
    105         -2.507996   1.000000
    106         -2.504522   1.000000
    107         -2.486448   1.000000
    108         -2.260047   1.000000
    109         -2.034125   1.000000
    110         -2.007670   1.000000
    111         -2.006655   1.000000
    112         -1.996754   1.000000
    113         -1.994365   1.000000
    114         -1.979931   1.000000
    115         -1.979108   1.000000
    116         -1.967528   1.000000
    117         -1.959134   1.000000
    118         -1.953081   1.000000
    119         -1.936343   1.000000
    120         -1.876981   1.000000
    121         -1.861874   1.000000
    122         -1.816656   1.000000
    123         -1.739061   1.000000
    124         -1.728102   1.000000
    125         -1.719246   1.000000
    126         -1.718426   1.000000
    127         -1.700330   1.000000
    128         -1.610860   1.000000
    129         -1.588748   1.000000
    130         -1.540702   1.000000
    131         -1.535379   1.000000
    132         -1.532270   1.000000
    133         -1.484391   1.000000
    134         -1.303500   1.000000
    135         -1.287665   1.000000
    136         -1.277645   1.000000
    137         -1.259743   1.000000
    138         -1.252630   1.000000
    139         -1.248020   1.000000
    140         -1.193966   1.000000
    141         -1.176743   1.000000
    142         -1.073963   1.000000
    143         -1.048831   1.000000
    144         -1.032258   1.000000
    145         -1.024729   1.000000
    146         -1.024075   1.000000
    147         -1.020163   1.000000
    148         -0.913173   1.000000
    149         -0.885289   1.000000
    150         -0.860415   1.000000
    151         -0.845109   1.000000
    152         -0.833666   1.000000
    153         -0.832087   1.000000
    154         -0.828267   1.000000
    155         -0.816376   1.000000
    156         -0.812641   1.000000
    157         -0.806107   1.000000
    158         -0.799187   1.000000
    159         -0.793635   1.000000
    160         -0.740224   1.000000
    161         -0.707480   1.000000
    162         -0.694106   1.000000
    163         -0.693881   1.000000
    164         -0.670054   1.000000
    165         -0.664229   1.000000
    166         -0.643608   1.000000
    167         -0.642308   1.000000
    168         -0.605403   1.000000
    169         -0.594330   1.000000
    170         -0.577810   1.000000
    171         -0.567882   1.000000
    172         -0.558876   1.000000
    173         -0.542606   1.000000
    174         -0.539037   1.000000
    175         -0.537952   1.000000
    176         -0.461283   1.000000
    177         -0.451959   1.000001
    178         -0.446237   1.000001
    179         -0.439140   1.000002
    180         -0.429282   1.000004
    181         -0.428428   1.000004
    182         -0.393391   1.000035
    183         -0.351521   1.000351
    184         -0.339538   1.000632
    185         -0.323395   1.001325
    186         -0.322554   1.001375
    187         -0.309539   1.002382
    188         -0.305708   1.002779
    189         -0.120635   0.836616
    190         -0.106766   0.744082
    191         -0.020308   0.098135
    192         -0.018122   0.087710
    193         -0.008447   0.047358
    194          0.003344   0.010527
    195          0.009991  -0.004704
    196          0.011087  -0.006863
    197          0.510055  -0.000000
    198          0.820977  -0.000000
    199          0.833028  -0.000000
    200          0.880578  -0.000000
    201          0.890253  -0.000000
    202          0.900592  -0.000000
    203          0.904954  -0.000000
    204          2.780096   0.000000
    205          3.119522   0.000000
    206          3.170937   0.000000
    207          3.188883   0.000000
    208          3.219524   0.000000
    209          3.225676   0.000000
    210          4.525149   0.000000
    211          4.720613   0.000000
    212          4.794920   0.000000
    213          4.812148   0.000000
    214          4.812786   0.000000
    215          4.823023   0.000000
    216          4.897537   0.000000
    217          5.079176   0.000000
    218          5.147437   0.000000
    219          5.435940   0.000000
    220          5.543305   0.000000
    221          5.784011   0.000000
    222          5.828514   0.000000
    223          5.843435   0.000000
    224          5.847507   0.000000
    225          5.869338   0.000000
    226          6.171166   0.000000
    227          6.384720   0.000000
    228          6.606871   0.000000
    229          6.620100   0.000000
    230          6.623650   0.000000
    231          6.834077   0.000000
    232          6.991712   0.000000
    233          7.116087   0.000000
    234          7.145155   0.000000
    235          7.150466   0.000000
    236          7.156095   0.000000
    237          7.163066   0.000000
    238          7.209862   0.000000
    239          7.252046   0.000000
    240          7.634766   0.000000
 
  0.2000000E+00  0.1278043E-14  0.1276756E-14  0.8000000E-01
      1         -8.749717   1.000000
      2         -7.615520   1.000000
      3         -6.988218   1.000000
      4         -6.893393   1.000000
      5         -6.560451   1.000000
      6         -6.548461   1.000000
      7         -6.360236   1.000000
      8         -6.264233   1.000000
      9         -6.232398   1.000000
     10         -6.212423   1.000000
     11         -6.103265   1.000000
     12         -6.005859   1.000000
     13         -5.987710   1.000000
     14         -5.848150   1.000000
     15         -5.834594   1.000000
     16         -5.827698   1.000000
     17         -5.732792   1.000000
     18         -5.539084   1.000000
     19         -5.426748   1.000000
     20         -5.418498   1.000000
     21         -5.407665   1.000000
     22         -5.390751   1.000000
     23         -5.332889   1.000000
     24         -5.304914   1.000000
     25         -5.276131   1.000000
     26         -5.226482   1.000000
     27         -5.219561   1.000000
     28         -5.207519   1.000000
     29         -5.172409   1.000000
     30         -5.120723   1.000000
     31         -5.110896   1.000000
     32         -5.035585   1.000000
     33         -5.017118   1.000000
     34         -5.010921   1.000000
     35         -5.009427   1.000000
     36         -4.875492   1.000000
     37         -4.810784   1.000000
     38         -4.785927   1.000000
     39         -4.767260   1.000000
     40         -4.751277   1.000000
     41         -4.598569   1.000000
     42         -4.502413   1.000000
     43         -4.495629   1.000000
     44         -4.449904   1.000000
     45         -4.418941   1.000000
     46         -4.399938   1.000000
     47         -4.390178   1.000000
     48         -4.303736   1.000000
     49         -4.213394   1.000000
     50         -4.158378   1.000000
     51         -4.131286   1.000000
     52         -4.109323   1.000000
     53         -4.079722   1.000000
     54         -4.055319   1.000000
     55         -4.031590   1.000000
     56         -3.836885   1.000000
     57         -3.739878   1.000000
     58         -3.732751   1.000000
     59         -3.688527   1.000000
     60         -3.663695   1.000000
     61         -3.630345   1.000000
     62         -3.590760   1.000000
     63         -3.561963   1.000000
     64         -3.556096   1.000000
     65         -3.534020   1.000000
     66         -3.523786   1.000000
     67         -3.467678   1.000000
     68         -3.450240   1.000000
     69         -3.413817   1.000000
     70         -3.376052   1.000000
     71         -3.364925   1.000000
     72         -3.342070   1.000000
     73         -3.268278   1.000000
     74         -3.260644   1.000000
     75         -3.243502   1.000000
     76         -3.185642   1.000000
     77         -3.179620   1.000000
     78         -3.157556   1.000000
     79         -3.132215   1.000000
     80         -3.104646   1.000000
     81         -3.095065   1.000000
     82         -3.066499   1.000000
     83         -3.026453   1.000000
     84         -2.996791   1.000000
     85         -2.966539   1.000000
     86         -2.954398   1.000000
     87         -2.945632   1.000000
     88         -2.936346   1.000000
     89         -2.914943   1.000000
     90         -2.897923   1.000000
     91         -2.870854   1.000000
     92         -2.813297   1.000000
     93         -2.810386   1.000000
     94         -2.782527   1.000000
     95         -2.774423   1.000000
     96         -2.761196   1.000000
     97         -2.744537   1.000000
     98         -2.718495   1.000000
     99         -2.693798   1.000000
    100         -2.686934   1.000000
    101         -2.609689   1.000000
    102         -2.568177   1.000000
    103         -2.540554   1.000000
    104         -2.529986   1.000000
    105         -2.508834   1.000000
    106         -2.503004   1.000000
    107         -2.496373   1.000000
    108         -2.479423   1.000000
    109         -2.445907   1.000000
    110         -2.438012   1.000000
    111         -2.425496   1.000000
    112         -2.410365   1.000000
    113         -2.203789   1.000000
    114         -2.079876   1.000000
    115         -2.042966   1.000000
    116         -2.009211   1.000000
    117         -2.001518   1.000000
    118         -1.992178   1.000000
    119         -1.984578   1.000000
    120         -1.954015   1.000000
    121         -1.942934   1.000000
    122         -1.857982   1.000000
    123         -1.802527   1.000000
    124         -1.780966   1.000000
    125         -1.713200   1.000000
    126         -1.661598   1.000000
    127         -1.648128   1.000000
    128         -1.616358   1.000000
    129         -1.593911   1.000000
    130         -1.565071   1.000000
    131         -1.548994   1.000000
    132         -1.530968   1.000000
    133         -1.519532   1.000000
    134         -1.448849   1.000000
    135         -1.415296   1.000000
    136         -1.402434   1.000000
    137         -1.386845   1.000000
    138         -1.378134   1.000000
    139         -1.301305   1.000000
    140         -1.193392   1.000000
    141         -1.184770   1.000000
    142         -1.160756   1.000000
    143         -1.154339   1.000000
    144         -1.139160   1.000000
    145         -1.122357   1.000000
    146         -1.072343   1.000000
    147         -1.036163   1.000000
    148         -1.004167   1.000000
    149         -0.991753   1.000000
    150         -0.983133   1.000000
    151         -0.941530   1.000000
    152         -0.921837   1.000000
    153         -0.905881   1.000000
    154         -0.891658   1.000000
    155         -0.823323   1.000000
    156         -0.795321   1.000000
    157         -0.780280   1.000000
    158         -0.760511   1.000000
    159         -0.727647   1.000000
    160         -0.662059   1.000000
    161         -0.641084   1.000000
    162         -0.627137   1.000000
    163         -0.601873   1.000000
    164         -0.590533   1.000000
    165         -0.565434   1.000000
    166         -0.548311   1.000000
    167         -0.484774   1.000000
    168         -0.473355   1.000000
    169         -0.423537   1.000005
    170         -0.405817   1.000016
    171         -0.401691   1.000021
    172         -0.383227   1.000064
    173         -0.364397   1.000180
    174         -0.353932   1.000311
    175         -0.343332   1.000527
    176         -0.339697   1.000627
    177         -0.331215   1.000933
    178         -0.272202   1.009143
    179         -0.268541   1.010230
    180         -0.136708   0.921247
    181         -0.119900   0.832138
    182         -0.105407   0.734164
    183         -0.093512   0.642225
    184         -0.077121   0.505826
    185         -0.071263   0.456319
    186         -0.038537   0.203405
    187         -0.028526   0.141616
    188         -0.007618   0.044332
    189          0.002279   0.013324
    190          0.071266  -0.028665
    191          0.108765  -0.012515
    192          0.129991  -0.006460
    193          0.186079  -0.000650
    194          0.289568  -0.000001
    195          0.300714  -0.000001
    196          0.313133  -0.000000
    197          0.354808  -0.000000
    198          0.684008  -0.000000
    199          0.748439  -0.000000
    200          1.238751  -0.000000
    201          1.467576  -0.000000
    202          1.483360  -0.000000
    203          1.599655  -0.000000
    204          2.392107  -0.000000
    205          2.772817   0.000000
    206          2.904547   0.000000
    207          3.533382   0.000000
    208          3.644912   0.000000
    209          3.660123   0.000000
    210          3.743713   0.000000
    211          3.988225   0.000000
    212          4.405582   0.000000
    213          4.604390   0.000000
    214          4.742568   0.000000
    215          4.931625   0.000000
    216          4.992983   0.000000
    217          4.998617   0.000000
    218          5.187841   0.000000
    219          5.249250   0.000000
    220          5.467145   0.000000
    221          5.659178   0.000000
    222          5.686078   0.000000
    223          5.797049   0.000000
    224          5.912880   0.000000
    225          6.109987   0.000000
    226          6.198634   0.000000
    227          6.283761   0.000000
    228          6.319842   0.000000
    229          6.350231   0.000000
    230          6.554443   0.000000
    231          6.707276   0.000000
    232          6.745642   0.000000
    233          6.785397   0.000000
    234          6.877751   0.000000
    235          6.933309   0.000000
    236          7.062909   0.000000
    237          7.285996   0.000000
    238          7.465879   0.000000
    239          7.539064   0.000000
    240          7.591848   0.000000
 
  0.2000000E+00  0.2000000E+00  0.1276756E-14  0.8000000E-01
      1         -8.750970   1.000000
      2         -7.626963   1.000000
      3         -7.047455   1.000000
      4         -6.836365   1.000000
      5         -6.561943   1.000000
      6         -6.553398   1.000000
      7         -6.361311   1.000000
      8         -6.277763   1.000000
      9         -6.213237   1.000000
     10         -6.211905   1.000000
     11         -6.154602   1.000000
     12         -6.002347   1.000000
     13         -5.882680   1.000000
     14         -5.852633   1.000000
     15         -5.835582   1.000000
     16         -5.830554   1.000000
     17         -5.803630   1.000000
     18         -5.531523   1.000000
     19         -5.419286   1.000000
     20         -5.414874   1.000000
     21         -5.410691   1.000000
     22         -5.340625   1.000000
     23         -5.332255   1.000000
     24         -5.298074   1.000000
     25         -5.273568   1.000000
     26         -5.269269   1.000000
     27         -5.227067   1.000000
     28         -5.215794   1.000000
     29         -5.118107   1.000000
     30         -5.110499   1.000000
     31         -5.104336   1.000000
     32         -5.025361   1.000000
     33         -5.018129   1.000000
     34         -5.011881   1.000000
     35         -5.004423   1.000000
     36         -4.835943   1.000000
     37         -4.810366   1.000000
     38         -4.783250   1.000000
     39         -4.779003   1.000000
     40         -4.763981   1.000000
     41         -4.577569   1.000000
     42         -4.495385   1.000000
     43         -4.492821   1.000000
     44         -4.456984   1.000000
     45         -4.420848   1.000000
     46         -4.418003   1.000000
     47         -4.392750   1.000000
     48         -4.323311   1.000000
     49         -4.214138   1.000000
     50         -4.168322   1.000000
     51         -4.127804   1.000000
     52         -4.120651   1.000000
     53         -4.072633   1.000000
     54         -4.047640   1.000000
     55         -4.014961   1.000000
     56         -3.825407   1.000000
     57         -3.737309   1.000000
     58         -3.732993   1.000000
     59         -3.672555   1.000000
     60         -3.661384   1.000000
     61         -3.631942   1.000000
     62         -3.584572   1.000000
     63         -3.579506   1.000000
     64         -3.557045   1.000000
     65         -3.534322   1.000000
     66         -3.525601   1.000000
     67         -3.497747   1.000000
     68         -3.443997   1.000000
     69         -3.391240   1.000000
     70         -3.376543   1.000000
     71         -3.364300   1.000000
     72         -3.352975   1.000000
     73         -3.293900   1.000000
     74         -3.274221   1.000000
     75         -3.268843   1.000000
     76         -3.185957   1.000000
     77         -3.165442   1.000000
     78         -3.158805   1.000000
     79         -3.134884   1.000000
     80         -3.083892   1.000000
     81         -3.068959   1.000000
     82         -3.064718   1.000000
     83         -3.048852   1.000000
     84         -2.981264   1.000000
     85         -2.966585   1.000000
     86         -2.963430   1.000000
     87         -2.936038   1.000000
     88         -2.928651   1.000000
     89         -2.906135   1.000000
     90         -2.902297   1.000000
     91         -2.864922   1.000000
     92         -2.828767   1.000000
     93         -2.802669   1.000000
     94         -2.787898   1.000000
     95         -2.779742   1.000000
     96         -2.760361   1.000000
     97         -2.758141   1.000000
     98         -2.724763   1.000000
     99         -2.708586   1.000000
    100         -2.690839   1.000000
    101         -2.611216   1.000000
    102         -2.560239   1.000000
    103         -2.551264   1.000000
    104         -2.545994   1.000000
    105         -2.520400   1.000000
    106         -2.506911   1.000000
    107         -2.501193   1.000000
    108         -2.492551   1.000000
    109         -2.450651   1.000000
    110         -2.437395   1.000000
    111         -2.430932   1.000000
    112         -2.417569   1.000000
    113         -2.166919   1.000000
    114         -2.078036   1.000000
    115         -2.047543   1.000000
    116         -2.031428   1.000000
    117         -2.007626   1.000000
    118         -1.990816   1.000000
    119         -1.981036   1.000000
    120         -1.952018   1.000000
    121         -1.932774   1.000000
    122         -1.913870   1.000000
    123         -1.822943   1.000000
    124         -1.789856   1.000000
    125         -1.715310   1.000000
    126         -1.665247   1.000000
    127         -1.653802   1.000000
    128         -1.611242   1.000000
    129         -1.607016   1.000000
    130         -1.570695   1.000000
    131         -1.554840   1.000000
    132         -1.535658   1.000000
    133         -1.531322   1.000000
    134         -1.440269   1.000000
    135         -1.402851   1.000000
    136         -1.397103   1.000000
    137         -1.380274   1.000000
    138         -1.374821   1.000000
    139         -1.203958   1.000000
    140         -1.201818   1.000000
    141         -1.193037   1.000000
    142         -1.173372   1.000000
    143         -1.158419   1.000000
    144         -1.139408   1.000000
    145         -1.117161   1.000000
    146         -1.056486   1.000000
    147         -1.046726   1.000000
    148         -1.025186   1.000000
    149         -0.993605   1.000000
    150         -0.980971   1.000000
    151         -0.933935   1.000000
    152         -0.923403   1.000000
    153         -0.908378   1.000000
    154         -0.905223   1.000000
    155         -0.823637   1.000000
    156         -0.804883   1.000000
    157         -0.771498   1.000000
    158         -0.757072   1.000000
    159         -0.710554   1.000000
    160         -0.676696   1.000000
    161         -0.668827   1.000000
    162         -0.625005   1.000000
    163         -0.614987   1.000000
    164         -0.608458   1.000000
    165         -0.567342   1.000000
    166         -0.546989   1.000000
    167         -0.487594   1.000000
    168         -0.474286   1.000000
    169         -0.412109   1.000011
    170         -0.406316   1.000016
    171         -0.392839   1.000036
    172         -0.372082   1.000119
    173         -0.364169   1.000182
    174         -0.349238   1.000394
    175         -0.345595   1.000472
    176         -0.339005   1.000648
    177         -0.326604   1.001149
    178         -0.279572   1.007214
    179         -0.275149   1.008331
    180         -0.134397   0.910669
    181         -0.127960   0.878370
    182         -0.104200   0.725244
    183         -0.081385   0.541859
    184         -0.063646   0.392769
    185         -0.060691   0.368599
    186         -0.032023   0.162134
    187         -0.008627   0.048022
    188         -0.000127   0.020017
    189          0.009657  -0.004027
    190          0.091151  -0.019612
    191          0.104103  -0.014227
    192          0.127033  -0.007136
    193          0.188824  -0.000570
    194          0.295346  -0.000001
    195          0.301680  -0.000001
    196          0.309290  -0.000000
    197          0.350605  -0.000000
    198          0.710221  -0.000000
    199          0.743349  -0.000000
    200          1.249002  -0.000000
    201          1.448919  -0.000000
    202          1.479980  -0.000000
    203          1.605444  -0.000000
    204          2.342862  -0.000000
    205          2.862635   0.000000
    206          2.905270   0.000000
    207          3.491824   0.000000
    208          3.649580   0.000000
    209          3.688128   0.000000
    210          3.731323   0.000000
    211          3.927855   0.000000
    212          4.386118   0.000000
    213          4.607627   0.000000
    214          4.719678   0.000000
    215          4.974382   0.000000
    216          4.994134   0.000000
    217          5.005384   0.000000
    218          5.222797   0.000000
    219          5.320553   0.000000
    220          5.449105   0.000000
    221          5.582059   0.000000
    222          5.700362   0.000000
    223          5.884061   0.000000
    224          5.896742   0.000000
    225          6.079702   0.000000
    226          6.256393   0.000000
    227          6.286368   0.000000
    228          6.336038   0.000000
    229          6.349183   0.000000
    230          6.620777   0.000000
    231          6.686675   0.000000
    232          6.727389   0.000000
    233          6.776460   0.000000
    234          6.783983   0.000000
    235          6.939420   0.000000
    236          7.045415   0.000000
    237          7.228439   0.000000
    238          7.454410   0.000000
    239          7.596637   0.000000
    240          7.603777   0.000000
 
  0.1276756E-14  0.2000000E+00  0.1276756E-14  0.8000000E-01
      1         -8.749713   1.000000
      2         -7.615523   1.000000
      3         -6.988036   1.000000
      4         -6.893438   1.000000
      5         -6.560715   1.000000
      6         -6.548389   1.000000
      7         -6.360226   1.000000
      8         -6.263978   1.000000
      9         -6.232412   1.000000
     10         -6.212683   1.000000
     11         -6.103354   1.000000
     12         -6.005832   1.000000
     13         -5.987692   1.000000
     14         -5.848058   1.000000
     15         -5.834503   1.000000
     16         -5.827607   1.000000
     17         -5.732814   1.000000
     18         -5.539200   1.000000
     19         -5.426690   1.000000
     20         -5.418477   1.000000
     21         -5.407509   1.000000
     22         -5.390806   1.000000
     23         -5.332996   1.000000
     24         -5.304917   1.000000
     25         -5.276203   1.000000
     26         -5.226316   1.000000
     27         -5.219488   1.000000
     28         -5.207625   1.000000
     29         -5.172370   1.000000
     30         -5.120907   1.000000
     31         -5.110894   1.000000
     32         -5.035260   1.000000
     33         -5.017188   1.000000
     34         -5.010897   1.000000
     35         -5.009496   1.000000
     36         -4.875499   1.000000
     37         -4.810817   1.000000
     38         -4.785774   1.000000
     39         -4.767428   1.000000
     40         -4.751518   1.000000
     41         -4.598600   1.000000
     42         -4.502478   1.000000
     43         -4.495747   1.000000
     44         -4.449846   1.000000
     45         -4.418872   1.000000
     46         -4.399889   1.000000
     47         -4.390151   1.000000
     48         -4.303772   1.000000
     49         -4.213480   1.000000
     50         -4.158365   1.000000
     51         -4.131179   1.000000
     52         -4.109407   1.000000
     53         -4.079673   1.000000
     54         -4.055258   1.000000
     55         -4.031666   1.000000
     56         -3.837195   1.000000
     57         -3.739781   1.000000
     58         -3.732764   1.000000
     59         -3.688897   1.000000
     60         -3.663959   1.000000
     61         -3.630459   1.000000
     62         -3.591183   1.000000
     63         -3.561724   1.000000
     64         -3.555763   1.000000
     65         -3.533877   1.000000
     66         -3.523588   1.000000
     67         -3.467607   1.000000
     68         -3.450198   1.000000
     69         -3.413921   1.000000
     70         -3.375992   1.000000
     71         -3.364976   1.000000
     72         -3.342163   1.000000
     73         -3.268197   1.000000
     74         -3.259935   1.000000
     75         -3.242918   1.000000
     76         -3.185832   1.000000
     77         -3.179727   1.000000
     78         -3.157668   1.000000