<?xml version="1.0" encoding="ISO-8859-1"?>
<modeling>
 <generator>
  <i name="program" type="string">vasp </i>
  <i name="version" type="string">6.4.2  </i>
  <i name="subversion" type="string">20Jul23 (build Mar 01 2024 16:46:03) complex                          parallel </i>
  <i name="platform" type="string">LinuxIFC </i>
  <i name="date" type="string">2025 01 15 </i>
  <i name="time" type="string">11:09:04 </i>
 </generator>
 <incar>
  <i type="string" name="ALGO">Fast</i>
  <i type="int" name="ISPIN">     1</i>
  <i type="int" name="IBRION">    -1</i>
  <i name="EDIFF">      0.00001000</i>
  <i type="int" name="ISYM">     0</i>
  <i name="ENCUT">    680.29000000</i>
  <i type="string" name="LREAL">Auto</i>
  <i type="int" name="ISMEAR">     1</i>
  <i name="SIGMA">      0.10000000</i>
  <i type="string" name="GGA">BF</i>
  <i type="logical" name="LUSE_VDW"> T  </i>
  <i name="Zab_VDW">     -1.88670000</i>
 </incar>
 <primitive_cell>
  <structure name="primitive_cell" >
   <crystal>
    <varray name="basis" >
     <v>       8.46831000       0.00000000       0.00000000 </v>
     <v>       4.23415500       7.33377159       0.00000000 </v>
     <v>       0.00000000       0.00000000      24.96566199 </v>
    </varray>
    <i name="volume">   1550.48373159 </i>
    <varray name="rec_basis" >
     <v>       0.11808732      -0.06817774       0.00000000 </v>
     <v>       0.00000000       0.13635549       0.00000000 </v>
     <v>       0.00000000       0.00000000       0.04005502 </v>
    </varray>
   </crystal>
   <varray name="positions" >
    <v>       0.00000000       0.00000000       0.34046764 </v>
    <v>       0.33400137       0.00000000       0.34046764 </v>
    <v>       0.66800274       0.00000000       0.34046764 </v>
    <v>       1.00000000       0.33400137       0.34046764 </v>
    <v>       0.33400137       0.33400137       0.34046764 </v>
    <v>       0.66800274       0.33400137       0.34046764 </v>
    <v>       1.00000000       0.66800274       0.34046764 </v>
    <v>       0.33400137       0.66800274       0.34046764 </v>
    <v>       0.66800274       0.66800274       0.34046764 </v>
    <v>       0.11133379       0.11133379       0.43297074 </v>
    <v>       0.44533516       0.11133379       0.43297074 </v>
    <v>       0.77933653       0.11133379       0.43297074 </v>
    <v>       0.11133379       0.44533516       0.43297074 </v>
    <v>       0.44533516       0.44533516       0.43297074 </v>
    <v>       0.77933653       0.44533516       0.43297074 </v>
    <v>       0.11133379       0.77933653       0.43297074 </v>
    <v>       0.44533516       0.77933653       0.43297074 </v>
    <v>       0.77933653       0.77933653       0.43297074 </v>
    <v>       0.89155192       0.22481551       0.52493797 </v>
    <v>       0.22414972       0.22424175       0.52562745 </v>
    <v>       0.55804756       0.22418840       0.52418203 </v>
    <v>       0.89159231       0.55598753       0.52523809 </v>
    <v>       0.22412871       0.55814463       0.52417543 </v>
    <v>       0.55770445       0.55785124       0.52436170 </v>
    <v>       0.89059463       0.89064702       0.52411590 </v>
    <v>       0.22468861       0.89173122       0.52494910 </v>
    <v>       0.55591020       0.89170518       0.52523855 </v>
    <v>       0.00053665       0.00071409       0.61717919 </v>
    <v>       0.33939324       0.00187407       0.62096833 </v>
    <v>       0.67000785       0.00336790       0.61774445 </v>
    <v>       0.00163208       0.33954933       0.62095235 </v>
    <v>       0.33925423       0.33949886       0.61745483 </v>
    <v>       0.66971873       0.33676119       0.61763203 </v>
    <v>       0.00326357       0.67010189       0.61773625 </v>
    <v>       0.33661440       0.66993653       0.61763777 </v>
    <v>       0.66980230       0.66996206       0.61790417 </v>
    <v>       0.16737006       0.16774386       0.66182323 </v>
   </varray>
  </structure>
  <varray name="primitive_index" >
   <v type="int" >        1 </v>
   <v type="int" >        2 </v>
   <v type="int" >        3 </v>
   <v type="int" >        4 </v>
   <v type="int" >        5 </v>
   <v type="int" >        6 </v>
   <v type="int" >        7 </v>
   <v type="int" >        8 </v>
   <v type="int" >        9 </v>
   <v type="int" >       10 </v>
   <v type="int" >       11 </v>
   <v type="int" >       12 </v>
   <v type="int" >       13 </v>
   <v type="int" >       14 </v>
   <v type="int" >       15 </v>
   <v type="int" >       16 </v>
   <v type="int" >       17 </v>
   <v type="int" >       18 </v>
   <v type="int" >       19 </v>
   <v type="int" >       20 </v>
   <v type="int" >       21 </v>
   <v type="int" >       22 </v>
   <v type="int" >       23 </v>
   <v type="int" >       24 </v>
   <v type="int" >       25 </v>
   <v type="int" >       26 </v>
   <v type="int" >       27 </v>
   <v type="int" >       28 </v>
   <v type="int" >       29 </v>
   <v type="int" >       30 </v>
   <v type="int" >       31 </v>
   <v type="int" >       32 </v>
   <v type="int" >       33 </v>
   <v type="int" >       34 </v>
   <v type="int" >       35 </v>
   <v type="int" >       36 </v>
   <v type="int" >       37 </v>
  </varray>
 </primitive_cell>
 <kpoints>
  <generation param="Monkhorst-Pack">
   <v type="int" name="divisions">       5        5        1 </v>
   <v name="usershift">      0.00000000       0.00000000       0.00000000 </v>
   <v name="genvec1">      0.20000000      -0.00000000       0.00000000 </v>
   <v name="genvec2">      0.00000000       0.20000000       0.00000000 </v>
   <v name="genvec3">      0.00000000       0.00000000       1.00000000 </v>
   <v name="shift">      0.00000000       0.00000000       0.00000000 </v>
  </generation>
  <varray name="kpointlist" >
   <v>       0.00000000       0.00000000       0.00000000 </v>
   <v>       0.20000000       0.00000000       0.00000000 </v>
   <v>       0.20000000       0.20000000       0.00000000 </v>
   <v>       0.00000000       0.20000000       0.00000000 </v>
   <v>       0.40000000       0.00000000       0.00000000 </v>
   <v>       0.40000000       0.40000000       0.00000000 </v>
   <v>       0.00000000       0.40000000       0.00000000 </v>
   <v>       0.40000000       0.20000000       0.00000000 </v>
   <v>       0.20000000       0.40000000       0.00000000 </v>
   <v>      -0.20000000       0.20000000       0.00000000 </v>
   <v>      -0.40000000       0.20000000       0.00000000 </v>
   <v>       0.40000000      -0.40000000       0.00000000 </v>
   <v>      -0.20000000       0.40000000       0.00000000 </v>
  </varray>
  <varray name="weights" >
   <v>       0.04000000 </v>
   <v>       0.08000000 </v>
   <v>       0.08000000 </v>
   <v>       0.08000000 </v>
   <v>       0.08000000 </v>
   <v>       0.08000000 </v>
   <v>       0.08000000 </v>
   <v>       0.08000000 </v>
   <v>       0.08000000 </v>
   <v>       0.08000000 </v>
   <v>       0.08000000 </v>
   <v>       0.08000000 </v>
   <v>       0.08000000 </v>
  </varray>
 </kpoints>
 <parameters>
  <separator name="general" >
   <i type="string" name="SYSTEM">unknown system</i>
   <i type="logical" name="LCOMPAT"> F  </i>
  </separator>
  <separator name="electronic" >
   <i type="string" name="PREC">normal</i>
   <i name="ENMAX">    680.29000000</i>
   <i name="ENAUG">    400.00000000</i>
   <i name="EDIFF">      0.00001000</i>
   <i type="int" name="IALGO">    68</i>
   <i type="int" name="IWAVPR">    10</i>
   <i type="int" name="NBANDS">   240</i>
   <i type="int" name="NBANDSLOW">    -1</i>
   <i type="int" name="NBANDSHIGH">    -1</i>
   <i name="NELECT">    361.00000000</i>
   <i type="int" name="TURBO">     0</i>
   <i type="int" name="IRESTART">     0</i>
   <i type="int" name="NREBOOT">     0</i>
   <i type="int" name="NMIN">     0</i>
   <i name="EREF">      0.00000000</i>
   <separator name="electronic smearing" >
    <i type="int" name="ISMEAR">     1</i>
    <i name="SIGMA">      0.10000000</i>
    <i name="KSPACING">      0.50000000</i>
    <i type="logical" name="KGAMMA"> T  </i>
    <i type="logical" name="KBLOWUP"> T  </i>
   </separator>
   <separator name="electronic projectors" >
    <i type="logical" name="LREAL"> T  </i>
    <v name="ROPT">     -0.00050000     -0.00050000</v>
    <i type="int" name="LMAXPAW">  -100</i>
    <i type="int" name="LMAXMIX">     2</i>
    <i type="logical" name="NLSPLINE"> F  </i>
   </separator>
   <separator name="electronic startup" >
    <i type="int" name="ISTART">     1</i>
    <i type="int" name="ICHARG">     0</i>
    <i type="int" name="INIWAV">     1</i>
   </separator>
   <separator name="electronic spin" >
    <i type="int" name="ISPIN">     1</i>
    <i type="logical" name="LNONCOLLINEAR"> F  </i>
    <v name="MAGMOM">      1.00000000      1.00000000      1.00000000      1.00000000      1.00000000      1.00000000      1.00000000      1.00000000      1.00000000      1.00000000      1.00000000      1.00000000      1.00000000      1.00000000      1.00000000      1.00000000      1.00000000      1.00000000      1.00000000      1.00000000
      1.00000000      1.00000000      1.00000000      1.00000000      1.00000000      1.00000000      1.00000000      1.00000000      1.00000000      1.00000000      1.00000000      1.00000000      1.00000000      1.00000000      1.00000000      1.00000000      1.00000000</v>
    <i name="NUPDOWN">     -1.00000000</i>
    <i type="logical" name="LSORBIT"> F  </i>
    <v name="SAXIS">      0.00000000      0.00000000      1.00000000</v>
    <i type="logical" name="LSPIRAL"> F  </i>
    <v name="QSPIRAL">      0.00000000      0.00000000      0.00000000</v>
    <i type="logical" name="LZEROZ"> F  </i>
   </separator>
   <separator name="electronic exchange-correlation" >
    <i type="logical" name="LASPH"> F  </i>
    <i type="logical" name="LMETAGGA"> F  </i>
   </separator>
   <separator name="electronic convergence" >
    <i type="int" name="NELM">    60</i>
    <i type="int" name="NELMDL">     0</i>
    <i type="int" name="NELMIN">     2</i>
    <i name="ENINI">    680.29000000</i>
    <separator name="electronic convergence detail" >
     <i type="logical" name="LDIAG"> T  </i>
     <i type="logical" name="LSUBROT"> F  </i>
     <i name="WEIMIN">      0.00000000</i>
     <i name="EBREAK">      0.00000001</i>
     <i name="DEPER">      0.30000000</i>
     <i type="int" name="NRMM">     4</i>
     <i name="TIME">      0.40000000</i>
    </separator>
   </separator>
   <separator name="electronic mixer" >
    <i name="AMIX">      0.40000000</i>
    <i name="BMIX">      1.00000000</i>
    <i name="AMIN">      0.10000000</i>
    <i name="AMIX_MAG">      1.60000000</i>
    <i name="BMIX_MAG">      1.00000000</i>
    <separator name="electronic mixer details" >
     <i type="int" name="IMIX">     4</i>
     <i type="logical" name="MIXFIRST"> F  </i>
     <i type="int" name="MAXMIX">   -45</i>
     <i name="WC">    100.00000000</i>
     <i type="int" name="INIMIX">     1</i>
     <i type="int" name="MIXPRE">     1</i>
     <i type="int" name="MREMOVE">     5</i>
    </separator>
   </separator>
   <separator name="electronic dipolcorrection" >
    <i type="logical" name="LDIPOL"> F  </i>
    <i type="logical" name="LMONO"> F  </i>
    <i type="int" name="IDIPOL">     0</i>
    <i name="EPSILON">      1.00000000</i>
    <v name="DIPOL">   -100.00000000   -100.00000000   -100.00000000</v>
    <i name="EFIELD">      0.00000000</i>
   </separator>
  </separator>
  <separator name="grids" >
   <i type="int" name="NGX">    54</i>
   <i type="int" name="NGY">    54</i>
   <i type="int" name="NGZ">   160</i>
   <i type="int" name="NGXF">   108</i>
   <i type="int" name="NGYF">   108</i>
   <i type="int" name="NGZF">   320</i>
   <i type="logical" name="ADDGRID"> F  </i>
  </separator>
  <separator name="ionic" >
   <i type="int" name="NSW">     0</i>
   <i type="int" name="IBRION">    -1</i>
   <i type="int" name="MDALGO">     0</i>
   <i type="int" name="ISIF">     2</i>
   <i name="PSTRESS">      0.00000000</i>
   <i name="EDIFFG">      0.00010000</i>
   <i type="int" name="NFREE">     0</i>
   <i name="POTIM">      0.50000000</i>
   <i name="SMASS">     -3.00000000</i>
   <i name="SCALEE">      1.00000000</i>
  </separator>
  <separator name="ionic md" >
   <i name="TEBEG">      0.00010000</i>
   <i name="TEEND">      0.00010000</i>
   <i type="int" name="NBLOCK">     1</i>
   <i type="int" name="KBLOCK">     1</i>
   <i type="int" name="NPACO">   256</i>
   <i name="APACO">     10.00000000</i>
  </separator>
  <separator name="symmetry" >
   <i type="int" name="ISYM">     0</i>
   <i name="SYMPREC">      0.00001000</i>
  </separator>
  <separator name="dos" >
   <i type="int" name="LORBIT">     0</i>
   <v name="RWIGS">     -1.00000000     -1.00000000</v>
   <i type="int" name="NEDOS">   301</i>
   <i name="EMIN">     10.00000000</i>
   <i name="EMAX">    -10.00000000</i>
   <i name="EFERMI">      0.00000000</i>
  </separator>
  <separator name="writing" >
   <i type="int" name="NWRITE">     2</i>
   <i type="logical" name="LWAVE"> T  </i>
   <i type="logical" name="LDOWNSAMPLE"> F  </i>
   <i type="logical" name="LCHARG"> T  </i>
   <i type="logical" name="LPARD"> F  </i>
   <i type="logical" name="LVTOT"> F  </i>
   <i type="logical" name="LVHAR"> F  </i>
   <i type="logical" name="LELF"> F  </i>
   <i type="logical" name="LOPTICS"> F  </i>
   <v name="STM">      0.00000000      0.00000000      0.00000000      0.00000000      0.00000000      0.00000000      0.00000000</v>
  </separator>
  <separator name="performance" >
   <i type="int" name="NPAR">    48</i>
   <i type="int" name="NSIM">     4</i>
   <i type="int" name="NBLK">    -1</i>
   <i type="logical" name="LPLANE"> T  </i>
   <i type="logical" name="LSCALAPACK"> T  </i>
   <i type="logical" name="LSCAAWARE"> F  </i>
   <i type="logical" name="LSCALU"> F  </i>
   <i type="logical" name="LASYNC"> F  </i>
   <i type="logical" name="LORBITALREAL"> F  </i>
  </separator>
  <separator name="miscellaneous" >
   <i type="int" name="IDIOT">     3</i>
   <i type="int" name="PHON_NSTRUCT">    -1</i>
   <i type="logical" name="LMUSIC"> F  </i>
   <v name="POMASS">    195.08000000      1.00000000</v>
   <v name="DARWINR">      0.00000000      0.00000000</v>
   <v name="DARWINV">      1.00000000      1.00000000</v>
   <i type="logical" name="LCORR"> T  </i>
  </separator>
  <i type="logical" name="GGA_COMPAT"> T  </i>
  <i type="logical" name="LBERRY"> F  </i>
  <i type="int" name="ICORELEVEL">     0</i>
  <i type="logical" name="LDAU"> F  </i>
  <i type="int" name="I_CONSTRAINED_M">     0</i>
  <separator name="electronic exchange-correlation" >
   <i type="string" name="GGA">BF</i>
   <i type="int" name="VOSKOWN">     0</i>
   <i type="logical" name="LHFCALC"> F  </i>
   <i type="string" name="PRECFOCK"></i>
   <i type="logical" name="LSYMGRAD"> F  </i>
   <i type="logical" name="LHFONE"> F  </i>
   <i type="logical" name="LRHFCALC"> F  </i>
   <i type="logical" name="LTHOMAS"> F  </i>
   <i type="logical" name="LMODELHF"> F  </i>
   <i type="logical" name="LFOCKACE"> F  </i>
   <i name="ENCUT4O">     -1.00000000</i>
   <i type="int" name="EXXOEP">     0</i>
   <i type="int" name="FOURORBIT">     0</i>
   <i name="AEXX">      0.00000000</i>
   <i name="HFALPHA">      0.00000000</i>
   <i name="MCALPHA">      0.00000000</i>
   <i name="ALDAX">      1.00000000</i>
   <i name="AGGAX">      1.00000000</i>
   <i name="ALDAC">      1.00000000</i>
   <i name="AGGAC">      1.00000000</i>
   <i type="int" name="NKREDX">     1</i>
   <i type="int" name="NKREDY">     1</i>
   <i type="int" name="NKREDZ">     1</i>
   <i type="logical" name="SHIFTRED"> F  </i>
   <i type="logical" name="ODDONLY"> F  </i>
   <i type="logical" name="EVENONLY"> F  </i>
   <i type="int" name="LMAXFOCK">     0</i>
   <i type="int" name="NMAXFOCKAE">     0</i>
   <i type="logical" name="LFOCKAEDFT"> F  </i>
   <i name="HFSCREEN">      0.00000000</i>
   <i name="HFSCREENC">      0.00000000</i>
   <i type="int" name="NBANDSGWLOW">     0</i>
  </separator>
  <separator name="vdW DFT" >
   <i type="logical" name="LUSE_VDW"> T  </i>
   <i type="int" name="IVDW_NL">     1</i>
   <i type="logical" name="LSPIN_VDW"> F  </i>
   <i name="Zab_VDW">     -1.88670000</i>
   <i name="PARAM1">      0.12340000</i>
   <i name="PARAM2">      1.00000000</i>
   <i name="PARAM3">      0.00000000</i>
  </separator>
  <separator name="model GW" >
   <i type="int" name="MODEL_GW">     0</i>
   <i name="MODEL_EPS0">     25.14297943</i>
   <i name="MODEL_ALPHA">      1.00000000</i>
  </separator>
  <separator name="linear response parameters" >
   <i type="logical" name="LEPSILON"> F  </i>
   <i type="logical" name="LRPA"> F  </i>
   <i type="logical" name="LNABLA"> F  </i>
   <i type="logical" name="LVEL"> F  </i>
   <i name="CSHIFT">      0.10000000</i>
   <i name="OMEGAMAX">     -1.00000000</i>
   <i name="DEG_THRESHOLD">      0.00200000</i>
   <i name="RTIME">     -0.10000000</i>
   <i name="WPLASMAI">      0.00000000</i>
   <v name="DFIELD">      0.00000000      0.00000000      0.00000000</v>
   <v name="WPLASMA">      0.00000000      0.00000000      0.00000000      0.00000000      0.00000000      0.00000000      0.00000000      0.00000000      0.00000000</v>
  </separator>
  <separator name="orbital magnetization" >
   <i type="logical" name="NUCIND"> F  </i>
   <v name="MAGPOS">      0.00000000      0.00000000      0.00000000</v>
   <i type="logical" name="LNICSALL"> T  </i>
   <i type="logical" name="ORBITALMAG"> F  </i>
   <i type="logical" name="LMAGBLOCH"> F  </i>
   <i type="logical" name="LCHIMAG"> F  </i>
   <i type="logical" name="LGAUGE"> T  </i>
   <i type="int" name="MAGATOM">     0</i>
   <v name="MAGDIPOL">      0.00000000      0.00000000      0.00000000</v>
   <v name="AVECCONST">      0.00000000      0.00000000      0.00000000</v>
  </separator>
  <separator name="response functions" >
   <i type="logical" name="LALL_IN_ONE"> F  </i>
   <i type="int" name="IALL_IN_ONE">    -1</i>
   <i type="int" name="NBANDS_WAVE">    -1</i>
   <i type="logical" name="LFINITE_TEMPERATURE"> F  </i>
   <i type="logical" name="LADDER"> F  </i>
   <i type="logical" name="LRPAFORCE"> F  </i>
   <i type="logical" name="LFXC"> F  </i>
   <i type="logical" name="LHARTREE"> T  </i>
   <i type="int" name="IBSE">     0</i>
   <v type="int" name="KPOINT">    -1     0     0     0</v>
   <i type="logical" name="LTCTC"> F  </i>
   <i type="logical" name="LTCTE"> F  </i>
   <i type="logical" name="LTETE"> F  </i>
   <i type="logical" name="LTRIPLET"> F  </i>
   <i type="logical" name="LFXCEPS"> F  </i>
   <i type="logical" name="LFXHEG"> F  </i>
   <i type="int" name="NATURALO">     2</i>
   <i type="logical" name="LHOLEGF"> F  </i>
   <i type="logical" name="L2ORDER"> F  </i>
   <i type="logical" name="LDMP1"> F  </i>
   <i type="logical" name="LMP2LT"> F  </i>
   <i type="logical" name="LSMP2LT"> F  </i>
   <i type="logical" name="LGWLF"> F  </i>
   <i name="ENCUTGW">     -1.60000002</i>
   <i name="ENCUTGWSOFT">     -1.60000002</i>
   <i name="ENCUTLF">     -1.00000000</i>
   <i type="logical" name="LESF_SPLINES"> F  </i>
   <i type="int" name="LMAXMP2">    -1</i>
   <i name="SCISSOR">      0.00000000</i>
   <i type="int" name="NOMEGA">     0</i>
   <i type="int" name="NOMEGAR">     0</i>
   <i type="int" name="NBANDSGW">    -1</i>
   <i type="int" name="NBANDSO">    -1</i>
   <i type="int" name="NBANDSV">    -1</i>
   <i type="int" name="NELMGW">     1</i>
   <i type="int" name="NELMHF">     1</i>
   <i type="int" name="DIM">     3</i>
   <i type="int" name="IESPILON">     4</i>
   <i type="int" name="ANTIRES">     0</i>
   <i name="OMEGAMAX">    -30.00000000</i>
   <i name="OMEGAMIN">    -30.00000000</i>
   <i name="OMEGATL">   -200.00000000</i>
   <i type="int" name="OMEGAGRID">     0</i>
   <i name="CSHIFT">     -0.10000000</i>
   <i type="logical" name="LSELFENERGY"> F  </i>
   <i type="logical" name="LSPECTRAL"> F  </i>
   <i type="logical" name="LSPECTRALGW"> F  </i>
   <i type="logical" name="LSINGLES"> F  </i>
   <i type="logical" name="LFERMIGW"> F  </i>
   <i type="logical" name="ODDONLYGW"> F  </i>
   <i type="logical" name="EVENONLYGW"> F  </i>
   <i type="int" name="NKREDLFX">     1</i>
   <i type="int" name="NKREDLFY">     1</i>
   <i type="int" name="NKREDLFZ">     1</i>
   <i type="int" name="MAXMEM">  2800</i>
   <i type="int" name="TELESCOPE">     0</i>
   <i type="int" name="NTAUPAR">    -1</i>
   <i type="int" name="NOMEGAPAR">    -1</i>
   <i name="DAMP_NEWTON">      0.80000001</i>
   <i name="LAMBDA">      1.00000000</i>
  </separator>
  <separator name="External order field" >
   <i name="OFIELD_KAPPA">      0.00000000</i>
   <v name="OFIELD_K">      0.00000000      0.00000000      0.00000000</v>
   <i name="OFIELD_Q6_NEAR">      0.00000000</i>
   <i name="OFIELD_Q6_FAR">      0.00000000</i>
   <i name="OFIELD_A">      0.00000000</i>
  </separator>
  <separator name="optional k-points parameters" >
   <i type="int" name="KPOINTS_OPT_MODE">     1</i>
   <i type="logical" name="LKPOINTS_OPT"> F  </i>
  </separator>
 </parameters>
 <atominfo>
  <atoms>      37 </atoms>
  <types>       2 </types>
  <array name="atoms" >
   <dimension dim="1">ion</dimension>
   <field type="string">element</field>
   <field type="int">atomtype</field>
   <set>
    <rc><c>Pt</c><c>   1</c></rc>
    <rc><c>Pt</c><c>   1</c></rc>
    <rc><c>Pt</c><c>   1</c></rc>
    <rc><c>Pt</c><c>   1</c></rc>
    <rc><c>Pt</c><c>   1</c></rc>
    <rc><c>Pt</c><c>   1</c></rc>
    <rc><c>Pt</c><c>   1</c></rc>
    <rc><c>Pt</c><c>   1</c></rc>
    <rc><c>Pt</c><c>   1</c></rc>
    <rc><c>Pt</c><c>   1</c></rc>
    <rc><c>Pt</c><c>   1</c></rc>
    <rc><c>Pt</c><c>   1</c></rc>
    <rc><c>Pt</c><c>   1</c></rc>
    <rc><c>Pt</c><c>   1</c></rc>
    <rc><c>Pt</c><c>   1</c></rc>
    <rc><c>Pt</c><c>   1</c></rc>
    <rc><c>Pt</c><c>   1</c></rc>
    <rc><c>Pt</c><c>   1</c></rc>
    <rc><c>Pt</c><c>   1</c></rc>
    <rc><c>Pt</c><c>   1</c></rc>
    <rc><c>Pt</c><c>   1</c></rc>
    <rc><c>Pt</c><c>   1</c></rc>
    <rc><c>Pt</c><c>   1</c></rc>
    <rc><c>Pt</c><c>   1</c></rc>
    <rc><c>Pt</c><c>   1</c></rc>
    <rc><c>Pt</c><c>   1</c></rc>
    <rc><c>Pt</c><c>   1</c></rc>
    <rc><c>Pt</c><c>   1</c></rc>
    <rc><c>Pt</c><c>   1</c></rc>
    <rc><c>Pt</c><c>   1</c></rc>
    <rc><c>Pt</c><c>   1</c></rc>
    <rc><c>Pt</c><c>   1</c></rc>
    <rc><c>Pt</c><c>   1</c></rc>
    <rc><c>Pt</c><c>   1</c></rc>
    <rc><c>Pt</c><c>   1</c></rc>
    <rc><c>Pt</c><c>   1</c></rc>
    <rc><c>H </c><c>   2</c></rc>
   </set>
  </array>
  <array name="atomtypes" >
   <dimension dim="1">type</dimension>
   <field type="int">atomspertype</field>
   <field type="string">element</field>
   <field>mass</field>
   <field>valence</field>
   <field type="string">pseudopotential</field>
   <set>
    <rc><c>  36</c><c>Pt</c><c>    195.08000000</c><c>     10.00000000</c><c>  PAW_PBE Pt 04Feb2005                  </c></rc>
    <rc><c>   1</c><c>H </c><c>      1.00000000</c><c>      1.00000000</c><c>  PAW_PBE H 15Jun2001                   </c></rc>
   </set>
  </array>
 </atominfo>
 <structure name="initialpos" >
  <crystal>
   <varray name="basis" >
    <v>       8.46831000       0.00000000       0.00000000 </v>
    <v>       4.23415500       7.33377159       0.00000000 </v>
    <v>       0.00000000       0.00000000      24.96566199 </v>
   </varray>
   <i name="volume">   1550.48373159 </i>
   <varray name="rec_basis" >
    <v>       0.11808732      -0.06817774       0.00000000 </v>
    <v>       0.00000000       0.13635549       0.00000000 </v>
    <v>       0.00000000       0.00000000       0.04005502 </v>
   </varray>
  </crystal>
  <varray name="positions" >
   <v>       0.00000000       0.00000000       0.34046764 </v>
   <v>       0.33400137       0.00000000       0.34046764 </v>
   <v>       0.66800274       0.00000000       0.34046764 </v>
   <v>       0.00000000       0.33400137       0.34046764 </v>
   <v>       0.33400137       0.33400137       0.34046764 </v>
   <v>       0.66800274       0.33400137       0.34046764 </v>
   <v>       0.00000000       0.66800274       0.34046764 </v>
   <v>       0.33400137       0.66800274       0.34046764 </v>
   <v>       0.66800274       0.66800274       0.34046764 </v>
   <v>       0.11133379       0.11133379       0.43297074 </v>
   <v>       0.44533516       0.11133379       0.43297074 </v>
   <v>       0.77933653       0.11133379       0.43297074 </v>
   <v>       0.11133379       0.44533516       0.43297074 </v>
   <v>       0.44533516       0.44533516       0.43297074 </v>
   <v>       0.77933653       0.44533516       0.43297074 </v>
   <v>       0.11133379       0.77933653       0.43297074 </v>
   <v>       0.44533516       0.77933653       0.43297074 </v>
   <v>       0.77933653       0.77933653       0.43297074 </v>
   <v>       0.89155192       0.22481551       0.52493797 </v>
   <v>       0.22414972       0.22424175       0.52562745 </v>
   <v>       0.55804756       0.22418840       0.52418203 </v>
   <v>       0.89159231       0.55598753       0.52523809 </v>
   <v>       0.22412871       0.55814463       0.52417543 </v>
   <v>       0.55770445       0.55785124       0.52436170 </v>
   <v>       0.89059463       0.89064702       0.52411590 </v>
   <v>       0.22468861       0.89173122       0.52494910 </v>
   <v>       0.55591020       0.89170518       0.52523855 </v>
   <v>       0.00053665       0.00071409       0.61717919 </v>
   <v>       0.33939324       0.00187407       0.62096833 </v>
   <v>       0.67000785       0.00336790       0.61774445 </v>
   <v>       0.00163208       0.33954933       0.62095235 </v>
   <v>       0.33925423       0.33949886       0.61745483 </v>
   <v>       0.66971873       0.33676119       0.61763203 </v>
   <v>       0.00326357       0.67010189       0.61773625 </v>
   <v>       0.33661440       0.66993653       0.61763777 </v>
   <v>       0.66980230       0.66996206       0.61790417 </v>
   <v>       0.16737006       0.16774386       0.66182323 </v>
  </varray>
  <varray name="selective"  type="logical" >
   <v type="logical" >  F  F  F </v>
   <v type="logical" >  F  F  F </v>
   <v type="logical" >  F  F  F </v>
   <v type="logical" >  F  F  F </v>
   <v type="logical" >  F  F  F </v>
   <v type="logical" >  F  F  F </v>
   <v type="logical" >  F  F  F </v>
   <v type="logical" >  F  F  F </v>
   <v type="logical" >  F  F  F </v>
   <v type="logical" >  F  F  F </v>
   <v type="logical" >  F  F  F </v>
   <v type="logical" >  F  F  F </v>
   <v type="logical" >  F  F  F </v>
   <v type="logical" >  F  F  F </v>
   <v type="logical" >  F  F  F </v>
   <v type="logical" >  F  F  F </v>
   <v type="logical" >  F  F  F </v>
   <v type="logical" >  F  F  F </v>
   <v type="logical" >  T  T  T </v>
   <v type="logical" >  T  T  T </v>
   <v type="logical" >  T  T  T </v>
   <v type="logical" >  T  T  T </v>
   <v type="logical" >  T  T  T </v>
   <v type="logical" >  T  T  T </v>
   <v type="logical" >  T  T  T </v>
   <v type="logical" >  T  T  T </v>
   <v type="logical" >  T  T  T </v>
   <v type="logical" >  T  T  T </v>
   <v type="logical" >  T  T  T </v>
   <v type="logical" >  T  T  T </v>
   <v type="logical" >  T  T  T </v>
   <v type="logical" >  T  T  T </v>
   <v type="logical" >  T  T  T </v>
   <v type="logical" >  T  T  T </v>
   <v type="logical" >  T  T  T </v>
   <v type="logical" >  T  T  T </v>
   <v type="logical" >  T  T  T </v>
  </varray>
  <nose>
   <v>      -3.00000000       0.00000000       0.00010000       0.00010000 </v>
  </nose>
 </structure>
 <calculation>
  <scstep>
   <time name="dav">   18.41   18.72</time>
   <time name="total">   23.29   23.62</time>
   <energy>
    <i name="alphaZ">    797.33612757 </i>
    <i name="ewald"> 132190.71342237 </i>
    <i name="hartreedc">-159585.22975421 </i>
    <i name="XCdc">     89.63341619 </i>
    <i name="pawpsdc">  32173.59495463 </i>
    <i name="pawaedc"> -31175.77806673 </i>
    <i name="eentropy">     -0.09273151 </i>
    <i name="bandstr">  -1091.55611116 </i>
    <i name="atom">  26496.80315902 </i>
    <i name="e_fr_energy">   -104.57558382 </i>
    <i name="e_wo_entrp">   -104.48285231 </i>
    <i name="e_0_energy">   -104.54467331 </i>
   </energy>
  </scstep>
  <scstep>
   <time name="diag">    2.77    2.79</time>
   <time name="diis">    8.54    8.60</time>
   <time name="orth">    0.70    0.71</time>
   <time name="total">   15.19   15.32</time>
   <energy>
    <i name="e_fr_energy">   -105.02608236 </i>
    <i name="e_wo_entrp">   -104.95271010 </i>
    <i name="e_0_energy">   -105.00162494 </i>
   </energy>
  </scstep>
  <scstep>
   <time name="diag">    2.89    2.91</time>
   <time name="diis">    8.60    8.66</time>
   <time name="orth">    0.55    0.55</time>
   <time name="total">   15.24   15.39</time>
   <energy>
    <i name="e_fr_energy">   -104.58998934 </i>
    <i name="e_wo_entrp">   -104.49909461 </i>
    <i name="e_0_energy">   -104.55969110 </i>
   </energy>
  </scstep>
  <scstep>
   <time name="diag">    2.79    2.81</time>
   <time name="diis">   10.97   11.03</time>
   <time name="orth">    0.57    0.58</time>
   <time name="total">   17.47   17.59</time>
   <energy>
    <i name="e_fr_energy">   -104.56869131 </i>
    <i name="e_wo_entrp">   -104.47602021 </i>
    <i name="e_0_energy">   -104.53780094 </i>
   </energy>
  </scstep>
  <scstep>
   <time name="diag">    3.00    3.02</time>
   <time name="diis">    8.62    8.69</time>
   <time name="orth">    0.66    0.66</time>
   <time name="total">   15.48   15.64</time>
   <energy>
    <i name="e_fr_energy">   -104.56812427 </i>
    <i name="e_wo_entrp">   -104.47522774 </i>
    <i name="e_0_energy">   -104.53715876 </i>
   </energy>
  </scstep>
  <scstep>
   <time name="diag">    6.94    6.98</time>
   <time name="diis">   10.20   10.27</time>
   <time name="orth">    0.74    0.75</time>
   <time name="total">   21.09   21.23</time>
   <energy>
    <i name="e_fr_energy">   -104.56795997 </i>
    <i name="e_wo_entrp">   -104.47518664 </i>
    <i name="e_0_energy">   -104.53703553 </i>
   </energy>
  </scstep>
  <scstep>
   <time name="diag">    2.73    2.75</time>
   <time name="diis">    8.92    8.99</time>
   <time name="orth">    3.36    3.38</time>
   <time name="total">   18.19   18.37</time>
   <energy>
    <i name="e_fr_energy">   -104.56795182 </i>
    <i name="e_wo_entrp">   -104.47512107 </i>
    <i name="e_0_energy">   -104.53700823 </i>
   </energy>
  </scstep>
  <scstep>
   <time name="diag">    2.84    2.86</time>
   <time name="diis">    7.73    7.77</time>
   <time name="orth">    0.77    0.78</time>
   <time name="total">   14.61   14.73</time>
   <energy>
    <i name="e_fr_energy">   -104.56792557 </i>
    <i name="e_wo_entrp">   -104.47508774 </i>
    <i name="e_0_energy">   -104.53697962 </i>
   </energy>
  </scstep>
  <scstep>
   <time name="diag">    2.91    2.93</time>
   <time name="diis">    6.77    6.92</time>
   <time name="orth">    2.46    2.57</time>
   <time name="total">   15.41   15.78</time>
   <energy>
    <i name="e_fr_energy">   -104.56791133 </i>
    <i name="e_wo_entrp">   -104.47508224 </i>
    <i name="e_0_energy">   -104.53696830 </i>
   </energy>
  </scstep>
  <scstep>
   <time name="diag">    2.96    2.98</time>
   <time name="diis">    6.47    6.51</time>
   <time name="orth">    0.78    0.78</time>
   <time name="total">   13.54   13.65</time>
   <energy>
    <i name="e_fr_energy">   -104.56790119 </i>
    <i name="e_wo_entrp">   -104.47504855 </i>
    <i name="e_0_energy">   -104.53695031 </i>
   </energy>
  </scstep>
  <scstep>
   <time name="diag">    2.91    2.93</time>
   <time name="diis">    6.17    6.34</time>
   <time name="orth">    3.28    3.57</time>
   <time name="total">   14.72   15.20</time>
   <energy>
    <i name="alphaZ">    797.33612757 </i>
    <i name="ewald"> 132190.71342237 </i>
    <i name="hartreedc">-159588.61936152 </i>
    <i name="XCdc">     89.63849436 </i>
    <i name="pawpsdc">  32173.94854354 </i>
    <i name="pawaedc"> -31176.13504042 </i>
    <i name="eentropy">     -0.09284207 </i>
    <i name="bandstr">  -1088.16040104 </i>
    <i name="atom">  26496.80315902 </i>
    <i name="e_fr_energy">   -104.56789820 </i>
    <i name="e_wo_entrp">   -104.47505613 </i>
    <i name="e_0_energy">   -104.53695084 </i>
   </energy>
  </scstep>
  <structure>
   <crystal>
    <varray name="basis" >
     <v>       8.46831000       0.00000000       0.00000000 </v>
     <v>       4.23415500       7.33377159       0.00000000 </v>
     <v>       0.00000000       0.00000000      24.96566199 </v>
    </varray>
    <i name="volume">   1550.48373159 </i>
    <varray name="rec_basis" >
     <v>       0.11808732      -0.06817774       0.00000000 </v>
     <v>       0.00000000       0.13635549       0.00000000 </v>
     <v>       0.00000000       0.00000000       0.04005502 </v>
    </varray>
   </crystal>
   <varray name="positions" >
    <v>       0.00000000       0.00000000       0.34046764 </v>
    <v>       0.33400137       0.00000000       0.34046764 </v>
    <v>       0.66800274       0.00000000       0.34046764 </v>
    <v>       0.00000000       0.33400137       0.34046764 </v>
    <v>       0.33400137       0.33400137       0.34046764 </v>
    <v>       0.66800274       0.33400137       0.34046764 </v>
    <v>       0.00000000       0.66800274       0.34046764 </v>
    <v>       0.33400137       0.66800274       0.34046764 </v>
    <v>       0.66800274       0.66800274       0.34046764 </v>
    <v>       0.11133379       0.11133379       0.43297074 </v>
    <v>       0.44533516       0.11133379       0.43297074 </v>
    <v>       0.77933653       0.11133379       0.43297074 </v>
    <v>       0.11133379       0.44533516       0.43297074 </v>
    <v>       0.44533516       0.44533516       0.43297074 </v>
    <v>       0.77933653       0.44533516       0.43297074 </v>
    <v>       0.11133379       0.77933653       0.43297074 </v>
    <v>       0.44533516       0.77933653       0.43297074 </v>
    <v>       0.77933653       0.77933653       0.43297074 </v>
    <v>       0.89155192       0.22481551       0.52493797 </v>
    <v>       0.22414972       0.22424175       0.52562745 </v>
    <v>       0.55804756       0.22418840       0.52418203 </v>
    <v>       0.89159231       0.55598753       0.52523809 </v>
    <v>       0.22412871       0.55814463       0.52417543 </v>
    <v>       0.55770445       0.55785124       0.52436170 </v>
    <v>       0.89059463       0.89064702       0.52411590 </v>
    <v>       0.22468861       0.89173122       0.52494910 </v>
    <v>       0.55591020       0.89170518       0.52523855 </v>
    <v>       0.00053665       0.00071409       0.61717919 </v>
    <v>       0.33939324       0.00187407       0.62096833 </v>
    <v>       0.67000785       0.00336790       0.61774445 </v>
    <v>       0.00163208       0.33954933       0.62095235 </v>
    <v>       0.33925423       0.33949886       0.61745483 </v>
    <v>       0.66971873       0.33676119       0.61763203 </v>
    <v>       0.00326357       0.67010189       0.61773625 </v>
    <v>       0.33661440       0.66993653       0.61763777 </v>
    <v>       0.66980230       0.66996206       0.61790417 </v>
    <v>       0.16737006       0.16774386       0.66182323 </v>
   </varray>
  </structure>
  <varray name="forces" >
   <v>       0.04156290       0.02385672      -0.12766977 </v>
   <v>       0.01196225       0.04949893      -0.08131012 </v>
   <v>      -0.04470258       0.08627179      -0.15083251 </v>
   <v>       0.04896329      -0.01453663      -0.08128150 </v>
   <v>      -0.00602257      -0.00352795      -0.07301041 </v>
   <v>      -0.05722867       0.00533481      -0.08706668 </v>
   <v>       0.05215417      -0.08199601      -0.15082098 </v>
   <v>      -0.02408342      -0.05224389      -0.08721088 </v>
   <v>      -0.06252753      -0.03632493      -0.07766637 </v>
   <v>       0.10223425       0.05989404       0.19023198 </v>
   <v>      -0.00218884       0.04163516       0.12652987 </v>
   <v>      -0.04819512       0.10292087       0.04374538 </v>
   <v>       0.03421217      -0.02177633       0.12655775 </v>
   <v>       0.01323997       0.00780795       0.03167658 </v>
   <v>      -0.03759336       0.02465136       0.15532309 </v>
   <v>       0.06529977      -0.09184286       0.04402058 </v>
   <v>       0.00155509      -0.04304185       0.15590664 </v>
   <v>      -0.07194684      -0.04087034       0.05224485 </v>
   <v>      -0.00034424       0.00147601       0.00115194 </v>
   <v>      -0.00130551      -0.00052663       0.00566727 </v>
   <v>      -0.00001032      -0.00041909      -0.00046686 </v>
   <v>      -0.00182103       0.00143244      -0.00328803 </v>
   <v>       0.00017010       0.00063094      -0.00006816 </v>
   <v>      -0.00207567      -0.00242748      -0.00173476 </v>
   <v>       0.00397385       0.00174027      -0.00040870 </v>
   <v>      -0.00165862      -0.00023941      -0.00272614 </v>
   <v>      -0.00151128      -0.00257656      -0.00105803 </v>
   <v>       0.00547489       0.00039347      -0.00106029 </v>
   <v>       0.00197432       0.00291766       0.00390047 </v>
   <v>      -0.00188876       0.00113221      -0.00248297 </v>
   <v>       0.00417458       0.00135731       0.00367359 </v>
   <v>      -0.00066606      -0.00112838       0.00218313 </v>
   <v>       0.00404848      -0.00091414      -0.00318087 </v>
   <v>       0.00086175       0.00224528      -0.00094587 </v>
   <v>       0.00175637       0.00072088      -0.00444343 </v>
   <v>       0.00146458      -0.00244503      -0.00589954 </v>
   <v>      -0.02931238      -0.01908056       0.00181976 </v>
  </varray>
  <varray name="stress" >
   <v>     -33.93729869       0.38561180       0.01311005 </v>
   <v>       0.38561177     -34.38106177       0.00218226 </v>
   <v>       0.01311004       0.00218215       2.29538667 </v>
  </varray>
  <energy>
   <i name="e_fr_energy">   -104.56789820 </i>
   <i name="e_wo_entrp">   -104.47505613 </i>
   <i name="e_0_energy">   -104.53695084 </i>
  </energy>
  <time name="totalsc">  215.65  219.17</time>
  <eigenvalues>
   <array>
    <dimension dim="1">band</dimension>
    <dimension dim="2">kpoint</dimension>
    <dimension dim="3">spin</dimension>
    <field>eigene</field>
    <field>occ</field>
    <set>
     <set comment="spin 1">
      <set comment="kpoint 1">
       <r>   -8.8982    1.0000 </r>
       <r>   -7.7489    1.0000 </r>
       <r>   -7.0001    1.0000 </r>
       <r>   -6.5026    1.0000 </r>
       <r>   -6.4801    1.0000 </r>
       <r>   -6.4559    1.0000 </r>
       <r>   -6.4527    1.0000 </r>
       <r>   -6.4424    1.0000 </r>
       <r>   -6.4413    1.0000 </r>
       <r>   -6.4253    1.0000 </r>
       <r>   -6.1429    1.0000 </r>
       <r>   -5.9194    1.0000 </r>
       <r>   -5.9171    1.0000 </r>
       <r>   -5.9082    1.0000 </r>
       <r>   -5.9008    1.0000 </r>
       <r>   -5.8966    1.0000 </r>
       <r>   -5.8285    1.0000 </r>
       <r>   -5.4658    1.0000 </r>
       <r>   -5.4594    1.0000 </r>
       <r>   -5.4581    1.0000 </r>
       <r>   -5.4489    1.0000 </r>
       <r>   -5.4457    1.0000 </r>
       <r>   -5.3369    1.0000 </r>
       <r>   -5.2358    1.0000 </r>
       <r>   -5.2287    1.0000 </r>
       <r>   -5.2255    1.0000 </r>
       <r>   -5.2192    1.0000 </r>
       <r>   -5.2183    1.0000 </r>
       <r>   -5.1207    1.0000 </r>
       <r>   -5.0289    1.0000 </r>
       <r>   -5.0281    1.0000 </r>
       <r>   -5.0253    1.0000 </r>
       <r>   -5.0194    1.0000 </r>
       <r>   -5.0155    1.0000 </r>
       <r>   -4.9772    1.0000 </r>
       <r>   -4.9601    1.0000 </r>
       <r>   -4.9546    1.0000 </r>
       <r>   -4.9493    1.0000 </r>
       <r>   -4.9199    1.0000 </r>
       <r>   -4.9101    1.0000 </r>
       <r>   -4.5887    1.0000 </r>
       <r>   -4.3818    1.0000 </r>
       <r>   -4.3813    1.0000 </r>
       <r>   -4.3578    1.0000 </r>
       <r>   -4.3415    1.0000 </r>
       <r>   -4.3289    1.0000 </r>
       <r>   -4.3142    1.0000 </r>
       <r>   -4.3006    1.0000 </r>
       <r>   -4.2915    1.0000 </r>
       <r>   -4.2905    1.0000 </r>
       <r>   -4.1464    1.0000 </r>
       <r>   -4.1344    1.0000 </r>
       <r>   -4.1303    1.0000 </r>
       <r>   -4.0426    1.0000 </r>
       <r>   -4.0313    1.0000 </r>
       <r>   -3.5926    1.0000 </r>
       <r>   -3.5776    1.0000 </r>
       <r>   -3.5746    1.0000 </r>
       <r>   -3.5670    1.0000 </r>
       <r>   -3.5508    1.0000 </r>
       <r>   -3.5003    1.0000 </r>
       <r>   -3.4954    1.0000 </r>
       <r>   -3.3932    1.0000 </r>
       <r>   -3.3757    1.0000 </r>
       <r>   -3.3747    1.0000 </r>
       <r>   -3.3729    1.0000 </r>
       <r>   -3.3674    1.0000 </r>
       <r>   -3.3636    1.0000 </r>
       <r>   -3.3538    1.0000 </r>
       <r>   -3.3216    1.0000 </r>
       <r>   -3.3084    1.0000 </r>
       <r>   -3.3046    1.0000 </r>
       <r>   -3.3017    1.0000 </r>
       <r>   -3.2929    1.0000 </r>
       <r>   -3.2721    1.0000 </r>
       <r>   -3.2637    1.0000 </r>
       <r>   -3.2546    1.0000 </r>
       <r>   -3.1636    1.0000 </r>
       <r>   -3.1550    1.0000 </r>
       <r>   -3.1419    1.0000 </r>
       <r>   -3.1407    1.0000 </r>
       <r>   -3.1302    1.0000 </r>
       <r>   -3.1233    1.0000 </r>
       <r>   -2.9577    1.0000 </r>
       <r>   -2.9264    1.0000 </r>
       <r>   -2.9257    1.0000 </r>
       <r>   -2.9170    1.0000 </r>
       <r>   -2.9024    1.0000 </r>
       <r>   -2.9019    1.0000 </r>
       <r>   -2.8869    1.0000 </r>
       <r>   -2.8849    1.0000 </r>
       <r>   -2.8430    1.0000 </r>
       <r>   -2.8242    1.0000 </r>
       <r>   -2.8059    1.0000 </r>
       <r>   -2.7875    1.0000 </r>
       <r>   -2.7421    1.0000 </r>
       <r>   -2.7392    1.0000 </r>
       <r>   -2.6955    1.0000 </r>
       <r>   -2.6936    1.0000 </r>
       <r>   -2.6828    1.0000 </r>
       <r>   -2.6176    1.0000 </r>
       <r>   -2.5335    1.0000 </r>
       <r>   -2.5193    1.0000 </r>
       <r>   -2.5180    1.0000 </r>
       <r>   -2.5080    1.0000 </r>
       <r>   -2.5045    1.0000 </r>
       <r>   -2.4864    1.0000 </r>
       <r>   -2.2600    1.0000 </r>
       <r>   -2.0341    1.0000 </r>
       <r>   -2.0077    1.0000 </r>
       <r>   -2.0067    1.0000 </r>
       <r>   -1.9968    1.0000 </r>
       <r>   -1.9944    1.0000 </r>
       <r>   -1.9799    1.0000 </r>
       <r>   -1.9791    1.0000 </r>
       <r>   -1.9675    1.0000 </r>
       <r>   -1.9591    1.0000 </r>
       <r>   -1.9531    1.0000 </r>
       <r>   -1.9363    1.0000 </r>
       <r>   -1.8770    1.0000 </r>
       <r>   -1.8619    1.0000 </r>
       <r>   -1.8167    1.0000 </r>
       <r>   -1.7391    1.0000 </r>
       <r>   -1.7281    1.0000 </r>
       <r>   -1.7192    1.0000 </r>
       <r>   -1.7184    1.0000 </r>
       <r>   -1.7003    1.0000 </r>
       <r>   -1.6109    1.0000 </r>
       <r>   -1.5887    1.0000 </r>
       <r>   -1.5407    1.0000 </r>
       <r>   -1.5354    1.0000 </r>
       <r>   -1.5323    1.0000 </r>
       <r>   -1.4844    1.0000 </r>
       <r>   -1.3035    1.0000 </r>
       <r>   -1.2877    1.0000 </r>
       <r>   -1.2776    1.0000 </r>
       <r>   -1.2597    1.0000 </r>
       <r>   -1.2526    1.0000 </r>
       <r>   -1.2480    1.0000 </r>
       <r>   -1.1940    1.0000 </r>
       <r>   -1.1767    1.0000 </r>
       <r>   -1.0740    1.0000 </r>
       <r>   -1.0488    1.0000 </r>
       <r>   -1.0323    1.0000 </r>
       <r>   -1.0247    1.0000 </r>
       <r>   -1.0241    1.0000 </r>
       <r>   -1.0202    1.0000 </r>
       <r>   -0.9132    1.0000 </r>
       <r>   -0.8853    1.0000 </r>
       <r>   -0.8604    1.0000 </r>
       <r>   -0.8451    1.0000 </r>
       <r>   -0.8337    1.0000 </r>
       <r>   -0.8321    1.0000 </r>
       <r>   -0.8283    1.0000 </r>
       <r>   -0.8164    1.0000 </r>
       <r>   -0.8126    1.0000 </r>
       <r>   -0.8061    1.0000 </r>
       <r>   -0.7992    1.0000 </r>
       <r>   -0.7936    1.0000 </r>
       <r>   -0.7402    1.0000 </r>
       <r>   -0.7075    1.0000 </r>
       <r>   -0.6941    1.0000 </r>
       <r>   -0.6939    1.0000 </r>
       <r>   -0.6701    1.0000 </r>
       <r>   -0.6642    1.0000 </r>
       <r>   -0.6436    1.0000 </r>
       <r>   -0.6423    1.0000 </r>
       <r>   -0.6054    1.0000 </r>
       <r>   -0.5943    1.0000 </r>
       <r>   -0.5778    1.0000 </r>
       <r>   -0.5679    1.0000 </r>
       <r>   -0.5589    1.0000 </r>
       <r>   -0.5426    1.0000 </r>
       <r>   -0.5390    1.0000 </r>
       <r>   -0.5380    1.0000 </r>
       <r>   -0.4613    1.0000 </r>
       <r>   -0.4520    1.0000 </r>
       <r>   -0.4462    1.0000 </r>
       <r>   -0.4391    1.0000 </r>
       <r>   -0.4293    1.0000 </r>
       <r>   -0.4284    1.0000 </r>
       <r>   -0.3934    1.0000 </r>
       <r>   -0.3515    1.0004 </r>
       <r>   -0.3395    1.0006 </r>
       <r>   -0.3234    1.0013 </r>
       <r>   -0.3226    1.0014 </r>
       <r>   -0.3095    1.0024 </r>
       <r>   -0.3057    1.0028 </r>
       <r>   -0.1206    0.8366 </r>
       <r>   -0.1068    0.7441 </r>
       <r>   -0.0203    0.0981 </r>
       <r>   -0.0181    0.0877 </r>
       <r>   -0.0084    0.0474 </r>
       <r>    0.0033    0.0105 </r>
       <r>    0.0100   -0.0047 </r>
       <r>    0.0111   -0.0069 </r>
       <r>    0.5101   -0.0000 </r>
       <r>    0.8210   -0.0000 </r>
       <r>    0.8330   -0.0000 </r>
       <r>    0.8806   -0.0000 </r>
       <r>    0.8903   -0.0000 </r>
       <r>    0.9006   -0.0000 </r>
       <r>    0.9050   -0.0000 </r>
       <r>    2.7801    0.0000 </r>
       <r>    3.1195    0.0000 </r>
       <r>    3.1709    0.0000 </r>
       <r>    3.1889    0.0000 </r>
       <r>    3.2195    0.0000 </r>
       <r>    3.2257    0.0000 </r>
       <r>    4.5251    0.0000 </r>
       <r>    4.7206    0.0000 </r>
       <r>    4.7949    0.0000 </r>
       <r>    4.8121    0.0000 </r>
       <r>    4.8128    0.0000 </r>
       <r>    4.8230    0.0000 </r>
       <r>    4.8975    0.0000 </r>
       <r>    5.0792    0.0000 </r>
       <r>    5.1474    0.0000 </r>
       <r>    5.4359    0.0000 </r>
       <r>    5.5433    0.0000 </r>
       <r>    5.7840    0.0000 </r>
       <r>    5.8285    0.0000 </r>
       <r>    5.8434    0.0000 </r>
       <r>    5.8475    0.0000 </r>
       <r>    5.8693    0.0000 </r>
       <r>    6.1712    0.0000 </r>
       <r>    6.3847    0.0000 </r>
       <r>    6.6069    0.0000 </r>
       <r>    6.6201    0.0000 </r>
       <r>    6.6236    0.0000 </r>
       <r>    6.8341    0.0000 </r>
       <r>    6.9917    0.0000 </r>
       <r>    7.1161    0.0000 </r>
       <r>    7.1452    0.0000 </r>
       <r>    7.1505    0.0000 </r>
       <r>    7.1561    0.0000 </r>
       <r>    7.1631    0.0000 </r>
       <r>    7.2099    0.0000 </r>
       <r>    7.2520    0.0000 </r>
       <r>    7.6348    0.0000 </r>
      </set>
      <set comment="kpoint 2">
       <r>   -8.7497    1.0000 </r>
       <r>   -7.6155    1.0000 </r>
       <r>   -6.9882    1.0000 </r>
       <r>   -6.8934    1.0000 </r>
       <r>   -6.5605    1.0000 </r>
       <r>   -6.5485    1.0000 </r>
       <r>   -6.3602    1.0000 </r>
       <r>   -6.2642    1.0000 </r>
       <r>   -6.2324    1.0000 </r>
       <r>   -6.2124    1.0000 </r>
       <r>   -6.1033    1.0000 </r>
       <r>   -6.0059    1.0000 </r>
       <r>   -5.9877    1.0000 </r>
       <r>   -5.8481    1.0000 </r>
       <r>   -5.8346    1.0000 </r>
       <r>   -5.8277    1.0000 </r>
       <r>   -5.7328    1.0000 </r>
       <r>   -5.5391    1.0000 </r>
       <r>   -5.4267    1.0000 </r>
       <r>   -5.4185    1.0000 </r>
       <r>   -5.4077    1.0000 </r>
       <r>   -5.3908    1.0000 </r>
       <r>   -5.3329    1.0000 </r>
       <r>   -5.3049    1.0000 </r>
       <r>   -5.2761    1.0000 </r>
       <r>   -5.2265    1.0000 </r>
       <r>   -5.2196    1.0000 </r>
       <r>   -5.2075    1.0000 </r>
       <r>   -5.1724    1.0000 </r>
       <r>   -5.1207    1.0000 </r>
       <r>   -5.1109    1.0000 </r>
       <r>   -5.0356    1.0000 </r>
       <r>   -5.0171    1.0000 </r>
       <r>   -5.0109    1.0000 </r>
       <r>   -5.0094    1.0000 </r>
       <r>   -4.8755    1.0000 </r>
       <r>   -4.8108    1.0000 </r>
       <r>   -4.7859    1.0000 </r>
       <r>   -4.7673    1.0000 </r>
       <r>   -4.7513    1.0000 </r>
       <r>   -4.5986    1.0000 </r>
       <r>   -4.5024    1.0000 </r>
       <r>   -4.4956    1.0000 </r>
       <r>   -4.4499    1.0000 </r>
       <r>   -4.4189    1.0000 </r>
       <r>   -4.3999    1.0000 </r>
       <r>   -4.3902    1.0000 </r>
       <r>   -4.3037    1.0000 </r>
       <r>   -4.2134    1.0000 </r>
       <r>   -4.1584    1.0000 </r>
       <r>   -4.1313    1.0000 </r>
       <r>   -4.1093    1.0000 </r>
       <r>   -4.0797    1.0000 </r>
       <r>   -4.0553    1.0000 </r>
       <r>   -4.0316    1.0000 </r>
       <r>   -3.8369    1.0000 </r>
       <r>   -3.7399    1.0000 </r>
       <r>   -3.7328    1.0000 </r>
       <r>   -3.6885    1.0000 </r>
       <r>   -3.6637    1.0000 </r>
       <r>   -3.6303    1.0000 </r>
       <r>   -3.5908    1.0000 </r>
       <r>   -3.5620    1.0000 </r>
       <r>   -3.5561    1.0000 </r>
       <r>   -3.5340    1.0000 </r>
       <r>   -3.5238    1.0000 </r>
       <r>   -3.4677    1.0000 </r>
       <r>   -3.4502    1.0000 </r>
       <r>   -3.4138    1.0000 </r>
       <r>   -3.3761    1.0000 </r>
       <r>   -3.3649    1.0000 </r>
       <r>   -3.3421    1.0000 </r>
       <r>   -3.2683    1.0000 </r>
       <r>   -3.2606    1.0000 </r>
       <r>   -3.2435    1.0000 </r>
       <r>   -3.1856    1.0000 </r>
       <r>   -3.1796    1.0000 </r>
       <r>   -3.1576    1.0000 </r>
       <r>   -3.1322    1.0000 </r>
       <r>   -3.1046    1.0000 </r>
       <r>   -3.0951    1.0000 </r>
       <r>   -3.0665    1.0000 </r>
       <r>   -3.0265    1.0000 </r>
       <r>   -2.9968    1.0000 </r>
       <r>   -2.9665    1.0000 </r>
       <r>   -2.9544    1.0000 </r>
       <r>   -2.9456    1.0000 </r>
       <r>   -2.9363    1.0000 </r>
       <r>   -2.9149    1.0000 </r>
       <r>   -2.8979    1.0000 </r>
       <r>   -2.8709    1.0000 </r>
       <r>   -2.8133    1.0000 </r>
       <r>   -2.8104    1.0000 </r>
       <r>   -2.7825    1.0000 </r>
       <r>   -2.7744    1.0000 </r>
       <r>   -2.7612    1.0000 </r>
       <r>   -2.7445    1.0000 </r>
       <r>   -2.7185    1.0000 </r>
       <r>   -2.6938    1.0000 </r>
       <r>   -2.6869    1.0000 </r>
       <r>   -2.6097    1.0000 </r>
       <r>   -2.5682    1.0000 </r>
       <r>   -2.5406    1.0000 </r>
       <r>   -2.5300    1.0000 </r>
       <r>   -2.5088    1.0000 </r>
       <r>   -2.5030    1.0000 </r>
       <r>   -2.4964    1.0000 </r>
       <r>   -2.4794    1.0000 </r>
       <r>   -2.4459    1.0000 </r>
       <r>   -2.4380    1.0000 </r>
       <r>   -2.4255    1.0000 </r>
       <r>   -2.4104    1.0000 </r>
       <r>   -2.2038    1.0000 </r>
       <r>   -2.0799    1.0000 </r>
       <r>   -2.0430    1.0000 </r>
       <r>   -2.0092    1.0000 </r>
       <r>   -2.0015    1.0000 </r>
       <r>   -1.9922    1.0000 </r>
       <r>   -1.9846    1.0000 </r>
       <r>   -1.9540    1.0000 </r>
       <r>   -1.9429    1.0000 </r>
       <r>   -1.8580    1.0000 </r>
       <r>   -1.8025    1.0000 </r>
       <r>   -1.7810    1.0000 </r>
       <r>   -1.7132    1.0000 </r>
       <r>   -1.6616    1.0000 </r>
       <r>   -1.6481    1.0000 </r>
       <r>   -1.6164    1.0000 </r>
       <r>   -1.5939    1.0000 </r>
       <r>   -1.5651    1.0000 </r>
       <r>   -1.5490    1.0000 </r>
       <r>   -1.5310    1.0000 </r>
       <r>   -1.5195    1.0000 </r>
       <r>   -1.4488    1.0000 </r>
       <r>   -1.4153    1.0000 </r>
       <r>   -1.4024    1.0000 </r>
       <r>   -1.3868    1.0000 </r>
       <r>   -1.3781    1.0000 </r>
       <r>   -1.3013    1.0000 </r>
       <r>   -1.1934    1.0000 </r>
       <r>   -1.1848    1.0000 </r>
       <r>   -1.1608    1.0000 </r>
       <r>   -1.1543    1.0000 </r>
       <r>   -1.1392    1.0000 </r>
       <r>   -1.1224    1.0000 </r>
       <r>   -1.0723    1.0000 </r>
       <r>   -1.0362    1.0000 </r>
       <r>   -1.0042    1.0000 </r>
       <r>   -0.9918    1.0000 </r>
       <r>   -0.9831    1.0000 </r>
       <r>   -0.9415    1.0000 </r>
       <r>   -0.9218    1.0000 </r>
       <r>   -0.9059    1.0000 </r>
       <r>   -0.8917    1.0000 </r>
       <r>   -0.8233    1.0000 </r>
       <r>   -0.7953    1.0000 </r>
       <r>   -0.7803    1.0000 </r>
       <r>   -0.7605    1.0000 </r>
       <r>   -0.7276    1.0000 </r>
       <r>   -0.6621    1.0000 </r>
       <r>   -0.6411    1.0000 </r>
       <r>   -0.6271    1.0000 </r>
       <r>   -0.6019    1.0000 </r>
       <r>   -0.5905    1.0000 </r>
       <r>   -0.5654    1.0000 </r>
       <r>   -0.5483    1.0000 </r>
       <r>   -0.4848    1.0000 </r>
       <r>   -0.4734    1.0000 </r>
       <r>   -0.4235    1.0000 </r>
       <r>   -0.4058    1.0000 </r>
       <r>   -0.4017    1.0000 </r>
       <r>   -0.3832    1.0001 </r>
       <r>   -0.3644    1.0002 </r>
       <r>   -0.3539    1.0003 </r>
       <r>   -0.3433    1.0005 </r>
       <r>   -0.3397    1.0006 </r>
       <r>   -0.3312    1.0009 </r>
       <r>   -0.2722    1.0091 </r>
       <r>   -0.2685    1.0102 </r>
       <r>   -0.1367    0.9212 </r>
       <r>   -0.1199    0.8321 </r>
       <r>   -0.1054    0.7342 </r>
       <r>   -0.0935    0.6422 </r>
       <r>   -0.0771    0.5058 </r>
       <r>   -0.0713    0.4563 </r>
       <r>   -0.0385    0.2034 </r>
       <r>   -0.0285    0.1416 </r>
       <r>   -0.0076    0.0443 </r>
       <r>    0.0023    0.0133 </r>
       <r>    0.0713   -0.0287 </r>
       <r>    0.1088   -0.0125 </r>
       <r>    0.1300   -0.0065 </r>
       <r>    0.1861   -0.0007 </r>
       <r>    0.2896   -0.0000 </r>
       <r>    0.3007   -0.0000 </r>
       <r>    0.3131   -0.0000 </r>
       <r>    0.3548   -0.0000 </r>
       <r>    0.6840   -0.0000 </r>
       <r>    0.7484   -0.0000 </r>
       <r>    1.2388   -0.0000 </r>
       <r>    1.4676   -0.0000 </r>
       <r>    1.4834   -0.0000 </r>
       <r>    1.5997   -0.0000 </r>
       <r>    2.3921   -0.0000 </r>
       <r>    2.7728    0.0000 </r>
       <r>    2.9045    0.0000 </r>
       <r>    3.5334    0.0000 </r>
       <r>    3.6449    0.0000 </r>
       <r>    3.6601    0.0000 </r>
       <r>    3.7437    0.0000 </r>
       <r>    3.9882    0.0000 </r>
       <r>    4.4056    0.0000 </r>
       <r>    4.6044    0.0000 </r>
       <r>    4.7426    0.0000 </r>
       <r>    4.9316    0.0000 </r>
       <r>    4.9930    0.0000 </r>
       <r>    4.9986    0.0000 </r>
       <r>    5.1878    0.0000 </r>
       <r>    5.2492    0.0000 </r>
       <r>    5.4671    0.0000 </r>
       <r>    5.6592    0.0000 </r>
       <r>    5.6861    0.0000 </r>
       <r>    5.7970    0.0000 </r>
       <r>    5.9129    0.0000 </r>
       <r>    6.1100    0.0000 </r>
       <r>    6.1986    0.0000 </r>
       <r>    6.2838    0.0000 </r>
       <r>    6.3198    0.0000 </r>
       <r>    6.3502    0.0000 </r>
       <r>    6.5544    0.0000 </r>
       <r>    6.7073    0.0000 </r>
       <r>    6.7456    0.0000 </r>
       <r>    6.7854    0.0000 </r>
       <r>    6.8778    0.0000 </r>
       <r>    6.9333    0.0000 </r>
       <r>    7.0629    0.0000 </r>
       <r>    7.2860    0.0000 </r>
       <r>    7.4659    0.0000 </r>
       <r>    7.5391    0.0000 </r>
       <r>    7.5918    0.0000 </r>
      </set>
      <set comment="kpoint 3">
       <r>   -8.7510    1.0000 </r>
       <r>   -7.6270    1.0000 </r>
       <r>   -7.0475    1.0000 </r>
       <r>   -6.8364    1.0000 </r>
       <r>   -6.5619    1.0000 </r>
       <r>   -6.5534    1.0000 </r>
       <r>   -6.3613    1.0000 </r>
       <r>   -6.2778    1.0000 </r>
       <r>   -6.2132    1.0000 </r>
       <r>   -6.2119    1.0000 </r>
       <r>   -6.1546    1.0000 </r>
       <r>   -6.0023    1.0000 </r>
       <r>   -5.8827    1.0000 </r>
       <r>   -5.8526    1.0000 </r>
       <r>   -5.8356    1.0000 </r>
       <r>   -5.8306    1.0000 </r>
       <r>   -5.8036    1.0000 </r>
       <r>   -5.5315    1.0000 </r>
       <r>   -5.4193    1.0000 </r>
       <r>   -5.4149    1.0000 </r>
       <r>   -5.4107    1.0000 </r>
       <r>   -5.3406    1.0000 </r>
       <r>   -5.3323    1.0000 </r>
       <r>   -5.2981    1.0000 </r>
       <r>   -5.2736    1.0000 </r>
       <r>   -5.2693    1.0000 </r>
       <r>   -5.2271    1.0000 </r>
       <r>   -5.2158    1.0000 </r>
       <r>   -5.1181    1.0000 </r>
       <r>   -5.1105    1.0000 </r>
       <r>   -5.1043    1.0000 </r>
       <r>   -5.0254    1.0000 </r>
       <r>   -5.0181    1.0000 </r>
       <r>   -5.0119    1.0000 </r>
       <r>   -5.0044    1.0000 </r>
       <r>   -4.8359    1.0000 </r>
       <r>   -4.8104    1.0000 </r>
       <r>   -4.7833    1.0000 </r>
       <r>   -4.7790    1.0000 </r>
       <r>   -4.7640    1.0000 </r>
       <r>   -4.5776    1.0000 </r>
       <r>   -4.4954    1.0000 </r>
       <r>   -4.4928    1.0000 </r>
       <r>   -4.4570    1.0000 </r>
       <r>   -4.4208    1.0000 </r>
       <r>   -4.4180    1.0000 </r>
       <r>   -4.3928    1.0000 </r>
       <r>   -4.3233    1.0000 </r>
       <r>   -4.2141    1.0000 </r>
       <r>   -4.1683    1.0000 </r>
       <r>   -4.1278    1.0000 </r>
       <r>   -4.1207    1.0000 </r>
       <r>   -4.0726    1.0000 </r>
       <r>   -4.0476    1.0000 </r>
       <r>   -4.0150    1.0000 </r>
       <r>   -3.8254    1.0000 </r>
       <r>   -3.7373    1.0000 </r>
       <r>   -3.7330    1.0000 </r>
       <r>   -3.6726    1.0000 </r>
       <r>   -3.6614    1.0000 </r>
       <r>   -3.6319    1.0000 </r>
       <r>   -3.5846    1.0000 </r>
       <r>   -3.5795    1.0000 </r>
       <r>   -3.5570    1.0000 </r>
       <r>   -3.5343    1.0000 </r>
       <r>   -3.5256    1.0000 </r>
       <r>   -3.4977    1.0000 </r>
       <r>   -3.4440    1.0000 </r>
       <r>   -3.3912    1.0000 </r>
       <r>   -3.3765    1.0000 </r>
       <r>   -3.3643    1.0000 </r>
       <r>   -3.3530    1.0000 </r>
       <r>   -3.2939    1.0000 </r>
       <r>   -3.2742    1.0000 </r>
       <r>   -3.2688    1.0000 </r>
       <r>   -3.1860    1.0000 </r>
       <r>   -3.1654    1.0000 </r>
       <r>   -3.1588    1.0000 </r>
       <r>   -3.1349    1.0000 </r>
       <r>   -3.0839    1.0000 </r>
       <r>   -3.0690    1.0000 </r>
       <r>   -3.0647    1.0000 </r>
       <r>   -3.0489    1.0000 </r>
       <r>   -2.9813    1.0000 </r>
       <r>   -2.9666    1.0000 </r>
       <r>   -2.9634    1.0000 </r>
       <r>   -2.9360    1.0000 </r>
       <r>   -2.9287    1.0000 </r>
       <r>   -2.9061    1.0000 </r>
       <r>   -2.9023    1.0000 </r>
       <r>   -2.8649    1.0000 </r>
       <r>   -2.8288    1.0000 </r>
       <r>   -2.8027    1.0000 </r>
       <r>   -2.7879    1.0000 </r>
       <r>   -2.7797    1.0000 </r>
       <r>   -2.7604    1.0000 </r>
       <r>   -2.7581    1.0000 </r>
       <r>   -2.7248    1.0000 </r>
       <r>   -2.7086    1.0000 </r>
       <r>   -2.6908    1.0000 </r>
       <r>   -2.6112    1.0000 </r>
       <r>   -2.5602    1.0000 </r>
       <r>   -2.5513    1.0000 </r>
       <r>   -2.5460    1.0000 </r>
       <r>   -2.5204    1.0000 </r>
       <r>   -2.5069    1.0000 </r>
       <r>   -2.5012    1.0000 </r>
       <r>   -2.4926    1.0000 </r>
       <r>   -2.4507    1.0000 </r>
       <r>   -2.4374    1.0000 </r>
       <r>   -2.4309    1.0000 </r>
       <r>   -2.4176    1.0000 </r>
       <r>   -2.1669    1.0000 </r>
       <r>   -2.0780    1.0000 </r>
       <r>   -2.0475    1.0000 </r>
       <r>   -2.0314    1.0000 </r>
       <r>   -2.0076    1.0000 </r>
       <r>   -1.9908    1.0000 </r>
       <r>   -1.9810    1.0000 </r>
       <r>   -1.9520    1.0000 </r>
       <r>   -1.9328    1.0000 </r>
       <r>   -1.9139    1.0000 </r>
       <r>   -1.8229    1.0000 </r>
       <r>   -1.7899    1.0000 </r>
       <r>   -1.7153    1.0000 </r>
       <r>   -1.6652    1.0000 </r>
       <r>   -1.6538    1.0000 </r>
       <r>   -1.6112    1.0000 </r>
       <r>   -1.6070    1.0000 </r>
       <r>   -1.5707    1.0000 </r>
       <r>   -1.5548    1.0000 </r>
       <r>   -1.5357    1.0000 </r>
       <r>   -1.5313    1.0000 </r>
       <r>   -1.4403    1.0000 </r>
       <r>   -1.4029    1.0000 </r>
       <r>   -1.3971    1.0000 </r>
       <r>   -1.3803    1.0000 </r>
       <r>   -1.3748    1.0000 </r>
       <r>   -1.2040    1.0000 </r>
       <r>   -1.2018    1.0000 </r>
       <r>   -1.1930    1.0000 </r>
       <r>   -1.1734    1.0000 </r>
       <r>   -1.1584    1.0000 </r>
       <r>   -1.1394    1.0000 </r>
       <r>   -1.1172    1.0000 </r>
       <r>   -1.0565    1.0000 </r>
       <r>   -1.0467    1.0000 </r>
       <r>   -1.0252    1.0000 </r>
       <r>   -0.9936    1.0000 </r>
       <r>   -0.9810    1.0000 </r>
       <r>   -0.9339    1.0000 </r>
       <r>   -0.9234    1.0000 </r>
       <r>   -0.9084    1.0000 </r>
       <r>   -0.9052    1.0000 </r>
       <r>   -0.8236    1.0000 </r>
       <r>   -0.8049    1.0000 </r>
       <r>   -0.7715    1.0000 </r>
       <r>   -0.7571    1.0000 </r>
       <r>   -0.7106    1.0000 </r>
       <r>   -0.6767    1.0000 </r>
       <r>   -0.6688    1.0000 </r>
       <r>   -0.6250    1.0000 </r>
       <r>   -0.6150    1.0000 </r>
       <r>   -0.6085    1.0000 </r>
       <r>   -0.5673    1.0000 </r>
       <r>   -0.5470    1.0000 </r>
       <r>   -0.4876    1.0000 </r>
       <r>   -0.4743    1.0000 </r>
       <r>   -0.4121    1.0000 </r>
       <r>   -0.4063    1.0000 </r>
       <r>   -0.3928    1.0000 </r>
       <r>   -0.3721    1.0001 </r>
       <r>   -0.3642    1.0002 </r>
       <r>   -0.3492    1.0004 </r>
       <r>   -0.3456    1.0005 </r>
       <r>   -0.3390    1.0006 </r>
       <r>   -0.3266    1.0011 </r>
       <r>   -0.2796    1.0072 </r>
       <r>   -0.2751    1.0083 </r>
       <r>   -0.1344    0.9107 </r>
       <r>   -0.1280    0.8784 </r>
       <r>   -0.1042    0.7252 </r>
       <r>   -0.0814    0.5419 </r>
       <r>   -0.0636    0.3928 </r>
       <r>   -0.0607    0.3686 </r>
       <r>   -0.0320    0.1621 </r>
       <r>   -0.0086    0.0480 </r>
       <r>   -0.0001    0.0200 </r>
       <r>    0.0097   -0.0040 </r>
       <r>    0.0912   -0.0196 </r>
       <r>    0.1041   -0.0142 </r>
       <r>    0.1270   -0.0071 </r>
       <r>    0.1888   -0.0006 </r>
       <r>    0.2953   -0.0000 </r>
       <r>    0.3017   -0.0000 </r>
       <r>    0.3093   -0.0000 </r>
       <r>    0.3506   -0.0000 </r>
       <r>    0.7102   -0.0000 </r>
       <r>    0.7433   -0.0000 </r>
       <r>    1.2490   -0.0000 </r>
       <r>    1.4489   -0.0000 </r>
       <r>    1.4800   -0.0000 </r>
       <r>    1.6054   -0.0000 </r>
       <r>    2.3429   -0.0000 </r>
       <r>    2.8626    0.0000 </r>
       <r>    2.9053    0.0000 </r>
       <r>    3.4918    0.0000 </r>
       <r>    3.6496    0.0000 </r>
       <r>    3.6881    0.0000 </r>
       <r>    3.7313    0.0000 </r>
       <r>    3.9279    0.0000 </r>
       <r>    4.3861    0.0000 </r>
       <r>    4.6076    0.0000 </r>
       <r>    4.7197    0.0000 </r>
       <r>    4.9744    0.0000 </r>
       <r>    4.9941    0.0000 </r>
       <r>    5.0054    0.0000 </r>
       <r>    5.2228    0.0000 </r>
       <r>    5.3206    0.0000 </r>
       <r>    5.4491    0.0000 </r>
       <r>    5.5821    0.0000 </r>
       <r>    5.7004    0.0000 </r>
       <r>    5.8841    0.0000 </r>
       <r>    5.8967    0.0000 </r>
       <r>    6.0797    0.0000 </r>
       <r>    6.2564    0.0000 </r>
       <r>    6.2864    0.0000 </r>
       <r>    6.3360    0.0000 </r>
       <r>    6.3492    0.0000 </r>
       <r>    6.6208    0.0000 </r>
       <r>    6.6867    0.0000 </r>
       <r>    6.7274    0.0000 </r>
       <r>    6.7765    0.0000 </r>
       <r>    6.7840    0.0000 </r>
       <r>    6.9394    0.0000 </r>
       <r>    7.0454    0.0000 </r>
       <r>    7.2284    0.0000 </r>
       <r>    7.4544    0.0000 </r>
       <r>    7.5966    0.0000 </r>
       <r>    7.6038    0.0000 </r>
      </set>
      <set comment="kpoint 4">
       <r>   -8.7497    1.0000 </r>
       <r>   -7.6155    1.0000 </r>
       <r>   -6.9880    1.0000 </r>
       <r>   -6.8934    1.0000 </r>
       <r>   -6.5607    1.0000 </r>
       <r>   -6.5484    1.0000 </r>
       <r>   -6.3602    1.0000 </r>
       <r>   -6.2640    1.0000 </r>
       <r>   -6.2324    1.0000 </r>
       <r>   -6.2127    1.0000 </r>
       <r>   -6.1034    1.0000 </r>
       <r>   -6.0058    1.0000 </r>
       <r>   -5.9877    1.0000 </r>
       <r>   -5.8481    1.0000 </r>
       <r>   -5.8345    1.0000 </r>
       <r>   -5.8276    1.0000 </r>
       <r>   -5.7328    1.0000 </r>
       <r>   -5.5392    1.0000 </r>
       <r>   -5.4267    1.0000 </r>
       <r>   -5.4185    1.0000 </r>
       <r>   -5.4075    1.0000 </r>
       <r>   -5.3908    1.0000 </r>
       <r>   -5.3330    1.0000 </r>
       <r>   -5.3049    1.0000 </r>
       <r>   -5.2762    1.0000 </r>
       <r>   -5.2263    1.0000 </r>
       <r>   -5.2195    1.0000 </r>
       <r>   -5.2076    1.0000 </r>
       <r>   -5.1724    1.0000 </r>
       <r>   -5.1209    1.0000 </r>
       <r>   -5.1109    1.0000 </r>
       <r>   -5.0353    1.0000 </r>
       <r>   -5.0172    1.0000 </r>
       <r>   -5.0109    1.0000 </r>
       <r>   -5.0095    1.0000 </r>
       <r>   -4.8755    1.0000 </r>
       <r>   -4.8108    1.0000 </r>
       <r>   -4.7858    1.0000 </r>
       <r>   -4.7674    1.0000 </r>
       <r>   -4.7515    1.0000 </r>
       <r>   -4.5986    1.0000 </r>
       <r>   -4.5025    1.0000 </r>
       <r>   -4.4957    1.0000 </r>
       <r>   -4.4498    1.0000 </r>
       <r>   -4.4189    1.0000 </r>
       <r>   -4.3999    1.0000 </r>
       <r>   -4.3902    1.0000 </r>
       <r>   -4.3038    1.0000 </r>
       <r>   -4.2135    1.0000 </r>
       <r>   -4.1584    1.0000 </r>
       <r>   -4.1312    1.0000 </r>
       <r>   -4.1094    1.0000 </r>
       <r>   -4.0797    1.0000 </r>
       <r>   -4.0553    1.0000 </r>
       <r>   -4.0317    1.0000 </r>
       <r>   -3.8372    1.0000 </r>
       <r>   -3.7398    1.0000 </r>
       <r>   -3.7328    1.0000 </r>
       <r>   -3.6889    1.0000 </r>
       <r>   -3.6640    1.0000 </r>
       <r>   -3.6305    1.0000 </r>
       <r>   -3.5912    1.0000 </r>
       <r>   -3.5617    1.0000 </r>
       <r>   -3.5558    1.0000 </r>
       <r>   -3.5339    1.0000 </r>
       <r>   -3.5236    1.0000 </r>
       <r>   -3.4676    1.0000 </r>
       <r>   -3.4502    1.0000 </r>
       <r>   -3.4139    1.0000 </r>
       <r>   -3.3760    1.0000 </r>
       <r>   -3.3650    1.0000 </r>
       <r>   -3.3422    1.0000 </r>
       <r>   -3.2682    1.0000 </r>
       <r>   -3.2599    1.0000 </r>
       <r>   -3.2429    1.0000 </r>
       <r>   -3.1858    1.0000 </r>
       <r>   -3.1797    1.0000 </r>
       <r>   -3.1577    1.0000 </r>
       <r>   -3.1321    1.0000 </r>
       <r>   -3.1048    1.0000 </r>
       <r>   -3.0953    1.0000 </r>
       <r>   -3.0673    1.0000 </r>
       <r>   -3.0262    1.0000 </r>
       <r>   -2.9968    1.0000 </r>
       <r>   -2.9663    1.0000 </r>
       <r>   -2.9543    1.0000 </r>
       <r>   -2.9456    1.0000 </r>
       <r>   -2.9363    1.0000 </r>
       <r>   -2.9150    1.0000 </r>
       <r>   -2.8979    1.0000 </r>
       <r>   -2.8708    1.0000 </r>
       <r>   -2.8132    1.0000 </r>
       <r>   -2.8107    1.0000 </r>
       <r>   -2.7825    1.0000 </r>
       <r>   -2.7745    1.0000 </r>
       <r>   -2.7611    1.0000 </r>
       <r>   -2.7444    1.0000 </r>
       <r>   -2.7185    1.0000 </r>
       <r>   -2.6937    1.0000 </r>
       <r>   -2.6870    1.0000 </r>
       <r>   -2.6097    1.0000 </r>
       <r>   -2.5683    1.0000 </r>
       <r>   -2.5407    1.0000 </r>
       <r>   -2.5299    1.0000 </r>
       <r>   -2.5089    1.0000 </r>
       <r>   -2.5028    1.0000 </r>
       <r>   -2.4962    1.0000 </r>
       <r>   -2.4795    1.0000 </r>
       <r>   -2.4460    1.0000 </r>
       <r>   -2.4380    1.0000 </r>
       <r>   -2.4254    1.0000 </r>
       <r>   -2.4104    1.0000 </r>
       <r>   -2.2039    1.0000 </r>
       <r>   -2.0802    1.0000 </r>
       <r>   -2.0431    1.0000 </r>
       <r>   -2.0092    1.0000 </r>
       <r>   -2.0014    1.0000 </r>
       <r>   -1.9921    1.0000 </r>
       <r>   -1.9846    1.0000 </r>
       <r>   -1.9539    1.0000 </r>
       <r>   -1.9429    1.0000 </r>
       <r>   -1.8580    1.0000 </r>
       <r>   -1.8025    1.0000 </r>
       <r>   -1.7808    1.0000 </r>
       <r>   -1.7130    1.0000 </r>
       <r>   -1.6615    1.0000 </r>
       <r>   -1.6482    1.0000 </r>
       <r>   -1.6166    1.0000 </r>
       <r>   -1.5938    1.0000 </r>
       <r>   -1.5649    1.0000 </r>
       <r>   -1.5489    1.0000 </r>
       <r>   -1.5310    1.0000 </r>
       <r>   -1.5194    1.0000 </r>
       <r>   -1.4488    1.0000 </r>
       <r>   -1.4152    1.0000 </r>
       <r>   -1.4024    1.0000 </r>
       <r>   -1.3867    1.0000 </r>
       <r>   -1.3783    1.0000 </r>
       <r>   -1.3012    1.0000 </r>
       <r>   -1.1934    1.0000 </r>
       <r>   -1.1848    1.0000 </r>
       <r>   -1.1607    1.0000 </r>
       <r>   -1.1543    1.0000 </r>
       <r>   -1.1393    1.0000 </r>
       <r>   -1.1225    1.0000 </r>
       <r>   -1.0723    1.0000 </r>
       <r>   -1.0362    1.0000 </r>
       <r>   -1.0041    1.0000 </r>
       <r>   -0.9918    1.0000 </r>
       <r>   -0.9833    1.0000 </r>
       <r>   -0.9417    1.0000 </r>
       <r>   -0.9220    1.0000 </r>
       <r>   -0.9058    1.0000 </r>
       <r>   -0.8915    1.0000 </r>
       <r>   -0.8232    1.0000 </r>
       <r>   -0.7953    1.0000 </r>
       <r>   -0.7804    1.0000 </r>
       <r>   -0.7607    1.0000 </r>
       <r>   -0.7275    1.0000 </r>
       <r>   -0.6620    1.0000 </r>
       <r>   -0.6412    1.0000 </r>
       <r>   -0.6271    1.0000 </r>
       <r>   -0.6018    1.0000 </r>
       <r>   -0.5903    1.0000 </r>
       <r>   -0.5653    1.0000 </r>
       <r>   -0.5483    1.0000 </r>
       <r>   -0.4848    1.0000 </r>
       <r>   -0.4734    1.0000 </r>
       <r>   -0.4235    1.0000 </r>
       <r>   -0.4060    1.0000 </r>
       <r>   -0.4017    1.0000 </r>
       <r>   -0.3832    1.0001 </r>
       <r>   -0.3643    1.0002 </r>
       <r>   -0.3540    1.0003 </r>
       <r>   -0.3433    1.0005 </r>
       <r>   -0.3397    1.0006 </r>
       <r>   -0.3312    1.0009 </r>
       <r>   -0.2720    1.0092 </r>
       <r>   -0.2683    1.0103 </r>
       <r>   -0.1367    0.9211 </r>
       <r>   -0.1199    0.8323 </r>
       <r>   -0.1054    0.7341 </r>
       <r>   -0.0936    0.6431 </r>
       <r>   -0.0772    0.5061 </r>
       <r>   -0.0714    0.4577 </r>
       <r>   -0.0387    0.2047 </r>
       <r>   -0.0286    0.1423 </r>
       <r>   -0.0078    0.0450 </r>
       <r>    0.0020    0.0141 </r>
       <r>    0.0713   -0.0286 </r>
       <r>    0.1088   -0.0125 </r>
       <r>    0.1301   -0.0064 </r>
       <r>    0.1861   -0.0007 </r>
       <r>    0.2895   -0.0000 </r>
       <r>    0.3006   -0.0000 </r>
       <r>    0.3132   -0.0000 </r>
       <r>    0.3551   -0.0000 </r>
       <r>    0.6839   -0.0000 </r>
       <r>    0.7481   -0.0000 </r>
       <r>    1.2389   -0.0000 </r>
       <r>    1.4676   -0.0000 </r>
       <r>    1.4835   -0.0000 </r>
       <r>    1.5997   -0.0000 </r>
       <r>    2.3923   -0.0000 </r>
       <r>    2.7727    0.0000 </r>
       <r>    2.9042    0.0000 </r>
       <r>    3.5335    0.0000 </r>
       <r>    3.6449    0.0000 </r>
       <r>    3.6601    0.0000 </r>
       <r>    3.7436    0.0000 </r>
       <r>    3.9883    0.0000 </r>
       <r>    4.4058    0.0000 </r>
       <r>    4.6044    0.0000 </r>
       <r>    4.7429    0.0000 </r>
       <r>    4.9315    0.0000 </r>
       <r>    4.9930    0.0000 </r>
       <r>    4.9986    0.0000 </r>
       <r>    5.1879    0.0000 </r>
       <r>    5.2493    0.0000 </r>
       <r>    5.4667    0.0000 </r>
       <r>    5.6592    0.0000 </r>
       <r>    5.6864    0.0000 </r>
       <r>    5.7970    0.0000 </r>
       <r>    5.9128    0.0000 </r>
       <r>    6.1101    0.0000 </r>
       <r>    6.1986    0.0000 </r>
       <r>    6.2837    0.0000 </r>
       <r>    6.3197    0.0000 </r>
       <r>    6.3497    0.0000 </r>
       <r>    6.5540    0.0000 </r>
       <r>    6.7071    0.0000 </r>
       <r>    6.7457    0.0000 </r>
       <r>    6.7855    0.0000 </r>
       <r>    6.8780    0.0000 </r>
       <r>    6.9333    0.0000 </r>
       <r>    7.0631    0.0000 </r>
       <r>    7.2863    0.0000 </r>
       <r>    7.4662    0.0000 </r>
       <r>    7.5389    0.0000 </r>
       <r>    7.5921    0.0000 </r>
      </set>
      <set comment="kpoint 5">
       <r>   -8.3228    1.0000 </r>
       <r>   -7.6845    1.0000 </r>
       <r>   -7.2676    1.0000 </r>
       <r>   -6.7925    1.0000 </r>
       <r>   -6.5920    1.0000 </r>
       <r>   -6.5713    1.0000 </r>
       <r>   -6.3822    1.0000 </r>
       <r>   -6.2347    1.0000 </r>
       <r>   -6.0912    1.0000 </r>
       <r>   -5.9739    1.0000 </r>
       <r>   -5.8894    1.0000 </r>
       <r>   -5.8739    1.0000 </r>
       <r>   -5.8367    1.0000 </r>
       <r>   -5.7169    1.0000 </r>
       <r>   -5.6693    1.0000 </r>
       <r>   -5.6551    1.0000 </r>
       <r>   -5.6504    1.0000 </r>
       <r>   -5.6305    1.0000 </r>
       <r>   -5.5098    1.0000 </r>
       <r>   -5.4859    1.0000 </r>
       <r>   -5.4723    1.0000 </r>
       <r>   -5.4521    1.0000 </r>
       <r>   -5.4333    1.0000 </r>
       <r>   -5.4259    1.0000 </r>
       <r>   -5.3486    1.0000 </r>
       <r>   -5.3238    1.0000 </r>
       <r>   -5.3117    1.0000 </r>
       <r>   -5.2886    1.0000 </r>
       <r>   -5.0620    1.0000 </r>
       <r>   -5.0535    1.0000 </r>
       <r>   -5.0472    1.0000 </r>
       <r>   -5.0355    1.0000 </r>
       <r>   -5.0230    1.0000 </r>
       <r>   -4.9476    1.0000 </r>
       <r>   -4.7984    1.0000 </r>
       <r>   -4.7948    1.0000 </r>
       <r>   -4.7873    1.0000 </r>
       <r>   -4.7587    1.0000 </r>
       <r>   -4.7393    1.0000 </r>
       <r>   -4.6635    1.0000 </r>
       <r>   -4.5462    1.0000 </r>
       <r>   -4.4821    1.0000 </r>
       <r>   -4.4702    1.0000 </r>
       <r>   -4.4529    1.0000 </r>
       <r>   -4.4187    1.0000 </r>
       <r>   -4.3970    1.0000 </r>
       <r>   -4.3469    1.0000 </r>
       <r>   -4.3282    1.0000 </r>
       <r>   -4.3112    1.0000 </r>
       <r>   -4.2826    1.0000 </r>
       <r>   -4.2548    1.0000 </r>
       <r>   -4.1884    1.0000 </r>
       <r>   -4.0945    1.0000 </r>
       <r>   -4.0902    1.0000 </r>
       <r>   -4.0718    1.0000 </r>
       <r>   -4.0066    1.0000 </r>
       <r>   -3.9481    1.0000 </r>
       <r>   -3.9176    1.0000 </r>
       <r>   -3.8807    1.0000 </r>
       <r>   -3.8659    1.0000 </r>
       <r>   -3.8267    1.0000 </r>
       <r>   -3.7211    1.0000 </r>
       <r>   -3.6677    1.0000 </r>
       <r>   -3.6590    1.0000 </r>
       <r>   -3.6475    1.0000 </r>
       <r>   -3.6230    1.0000 </r>
       <r>   -3.5510    1.0000 </r>
       <r>   -3.5479    1.0000 </r>
       <r>   -3.5026    1.0000 </r>
       <r>   -3.4238    1.0000 </r>
       <r>   -3.4097    1.0000 </r>
       <r>   -3.3851    1.0000 </r>
       <r>   -3.3529    1.0000 </r>
       <r>   -3.3010    1.0000 </r>
       <r>   -3.2905    1.0000 </r>
       <r>   -3.2617    1.0000 </r>
       <r>   -3.2487    1.0000 </r>
       <r>   -3.2284    1.0000 </r>
       <r>   -3.1968    1.0000 </r>
       <r>   -3.1817    1.0000 </r>
       <r>   -3.1566    1.0000 </r>
       <r>   -3.1453    1.0000 </r>
       <r>   -3.1398    1.0000 </r>
       <r>   -3.1247    1.0000 </r>
       <r>   -3.1060    1.0000 </r>
       <r>   -3.0948    1.0000 </r>
       <r>   -3.0416    1.0000 </r>
       <r>   -2.9943    1.0000 </r>
       <r>   -2.9866    1.0000 </r>
       <r>   -2.9700    1.0000 </r>
       <r>   -2.9642    1.0000 </r>
       <r>   -2.9550    1.0000 </r>
       <r>   -2.9202    1.0000 </r>
       <r>   -2.8423    1.0000 </r>
       <r>   -2.7940    1.0000 </r>
       <r>   -2.7786    1.0000 </r>
       <r>   -2.7455    1.0000 </r>
       <r>   -2.7369    1.0000 </r>
       <r>   -2.7128    1.0000 </r>
       <r>   -2.6934    1.0000 </r>
       <r>   -2.6503    1.0000 </r>
       <r>   -2.6401    1.0000 </r>
       <r>   -2.5745    1.0000 </r>
       <r>   -2.5285    1.0000 </r>
       <r>   -2.4993    1.0000 </r>
       <r>   -2.4803    1.0000 </r>
       <r>   -2.4506    1.0000 </r>
       <r>   -2.4303    1.0000 </r>
       <r>   -2.3870    1.0000 </r>
       <r>   -2.2861    1.0000 </r>
       <r>   -2.2616    1.0000 </r>
       <r>   -2.1877    1.0000 </r>
       <r>   -2.1657    1.0000 </r>
       <r>   -2.1331    1.0000 </r>
       <r>   -2.1131    1.0000 </r>
       <r>   -2.0683    1.0000 </r>
       <r>   -2.0614    1.0000 </r>
       <r>   -2.0539    1.0000 </r>
       <r>   -2.0481    1.0000 </r>
       <r>   -2.0043    1.0000 </r>
       <r>   -1.9850    1.0000 </r>
       <r>   -1.9491    1.0000 </r>
       <r>   -1.9439    1.0000 </r>
       <r>   -1.9316    1.0000 </r>
       <r>   -1.9144    1.0000 </r>
       <r>   -1.8917    1.0000 </r>
       <r>   -1.8758    1.0000 </r>
       <r>   -1.8536    1.0000 </r>
       <r>   -1.8410    1.0000 </r>
       <r>   -1.7311    1.0000 </r>
       <r>   -1.7032    1.0000 </r>
       <r>   -1.6948    1.0000 </r>
       <r>   -1.6412    1.0000 </r>
       <r>   -1.6141    1.0000 </r>
       <r>   -1.5105    1.0000 </r>
       <r>   -1.5018    1.0000 </r>
       <r>   -1.4287    1.0000 </r>
       <r>   -1.4018    1.0000 </r>
       <r>   -1.3603    1.0000 </r>
       <r>   -1.3026    1.0000 </r>
       <r>   -1.2413    1.0000 </r>
       <r>   -1.2236    1.0000 </r>
       <r>   -1.1727    1.0000 </r>
       <r>   -1.1641    1.0000 </r>
       <r>   -1.1390    1.0000 </r>
       <r>   -1.1205    1.0000 </r>
       <r>   -1.0961    1.0000 </r>
       <r>   -1.0703    1.0000 </r>
       <r>   -1.0330    1.0000 </r>
       <r>   -1.0250    1.0000 </r>
       <r>   -0.9693    1.0000 </r>
       <r>   -0.9324    1.0000 </r>
       <r>   -0.9131    1.0000 </r>
       <r>   -0.8725    1.0000 </r>
       <r>   -0.8520    1.0000 </r>
       <r>   -0.8477    1.0000 </r>
       <r>   -0.8399    1.0000 </r>
       <r>   -0.7883    1.0000 </r>
       <r>   -0.7007    1.0000 </r>
       <r>   -0.6549    1.0000 </r>
       <r>   -0.5919    1.0000 </r>
       <r>   -0.5866    1.0000 </r>
       <r>   -0.5632    1.0000 </r>
       <r>   -0.5523    1.0000 </r>
       <r>   -0.5071    1.0000 </r>
       <r>   -0.4599    1.0000 </r>
       <r>   -0.4475    1.0000 </r>
       <r>   -0.3856    1.0001 </r>
       <r>   -0.3670    1.0002 </r>
       <r>   -0.3455    1.0005 </r>
       <r>   -0.3379    1.0007 </r>
       <r>   -0.2906    1.0049 </r>
       <r>   -0.2663    1.0109 </r>
       <r>   -0.2479    1.0179 </r>
       <r>   -0.2277    1.0271 </r>
       <r>   -0.1296    0.8870 </r>
       <r>   -0.1152    0.8025 </r>
       <r>   -0.1053    0.7331 </r>
       <r>   -0.0885    0.6009 </r>
       <r>   -0.0842    0.5657 </r>
       <r>   -0.0786    0.5181 </r>
       <r>   -0.0569    0.3378 </r>
       <r>   -0.0455    0.2515 </r>
       <r>    0.1278   -0.0070 </r>
       <r>    0.1406   -0.0044 </r>
       <r>    0.1562   -0.0024 </r>
       <r>    0.1639   -0.0018 </r>
[...]
       <r>    6.9681    0.0000 </r>
       <r>    6.9793    0.0000 </r>
       <r>    7.1096    0.0000 </r>
       <r>    7.2190    0.0000 </r>
       <r>    7.3223    0.0000 </r>
      </set>
     </set>
    </set>
   </array>
  </eigenvalues>
  <separator name="orbital magnetization" >
   <v name="MAGDIPOLOUT">      0.00000000      0.00000000      0.00000000</v>
  </separator>
  <dos>
   <i name="efermi">     -0.07643250 </i>
   <total>
    <array>
     <dimension dim="1">gridpoints</dimension>
     <dimension dim="2">spin</dimension>
     <field>energy</field>
     <field>total</field>
     <field>integrated</field>
     <set>
      <set comment="spin 1">
       <r>    -9.8982     0.0000     0.0000 </r>
       <r>    -9.8364     0.0000     0.0000 </r>
       <r>    -9.7746     0.0000     0.0000 </r>
       <r>    -9.7128    -0.0000    -0.0000 </r>
       <r>    -9.6511    -0.0000    -0.0000 </r>
       <r>    -9.5893    -0.0000    -0.0000 </r>
       <r>    -9.5275    -0.0000    -0.0000 </r>
       <r>    -9.4657    -0.0000    -0.0000 </r>
       <r>    -9.4040    -0.0000    -0.0000 </r>
       <r>    -9.3422    -0.0000    -0.0000 </r>
       <r>    -9.2804    -0.0000    -0.0000 </r>
       <r>    -9.2186    -0.0000    -0.0000 </r>
       <r>    -9.1569    -0.0010    -0.0001 </r>
       <r>    -9.0951    -0.0105    -0.0007 </r>
       <r>    -9.0333    -0.0336    -0.0028 </r>
       <r>    -8.9715     0.0532     0.0005 </r>
       <r>    -8.9098     0.3328     0.0211 </r>
       <r>    -8.8480     0.6106     0.0588 </r>
       <r>    -8.7862     2.0624     0.1862 </r>
       <r>    -8.7244     3.8126     0.4217 </r>
       <r>    -8.6626     2.2314     0.5596 </r>
       <r>    -8.6009    -0.0300     0.5577 </r>
       <r>    -8.5391     0.1963     0.5698 </r>
       <r>    -8.4773     2.5739     0.7289 </r>
       <r>    -8.4155     3.8080     0.9641 </r>
       <r>    -8.3538     3.5514     1.1835 </r>
       <r>    -8.2920     3.7406     1.4146 </r>
       <r>    -8.2302     1.8669     1.5299 </r>
       <r>    -8.1684     0.0017     1.5300 </r>
       <r>    -8.1067    -0.3625     1.5076 </r>
       <r>    -8.0449    -0.2667     1.4911 </r>
       <r>    -7.9831     2.1457     1.6237 </r>
       <r>    -7.9213     6.6649     2.0354 </r>
       <r>    -7.8596     5.9698     2.4042 </r>
       <r>    -7.7978     1.5791     2.5018 </r>
       <r>    -7.7360     1.7081     2.6073 </r>
       <r>    -7.6742     5.0828     2.9213 </r>
       <r>    -7.6124     6.1004     3.2981 </r>
       <r>    -7.5507     3.1922     3.4954 </r>
       <r>    -7.4889     0.8418     3.5474 </r>
       <r>    -7.4271     2.5383     3.7042 </r>
       <r>    -7.3653     5.3749     4.0362 </r>
       <r>    -7.3036     7.3913     4.4928 </r>
       <r>    -7.2418     9.5100     5.0803 </r>
       <r>    -7.1800     9.7650     5.6836 </r>
       <r>    -7.1182     6.4024     6.0791 </r>
       <r>    -7.0565     4.9110     6.3825 </r>
       <r>    -6.9947     5.3450     6.7127 </r>
       <r>    -6.9329     4.2501     6.9752 </r>
       <r>    -6.8711     3.9474     7.2191 </r>
       <r>    -6.8094     6.4111     7.6151 </r>
       <r>    -6.7476     8.5709     8.1446 </r>
       <r>    -6.6858     7.1730     8.5877 </r>
       <r>    -6.6240     8.0657     9.0860 </r>
       <r>    -6.5622    13.9441     9.9474 </r>
       <r>    -6.5005    13.8977    10.8060 </r>
       <r>    -6.4387    10.7135    11.4678 </r>
       <r>    -6.3769    11.1009    12.1536 </r>
       <r>    -6.3151     9.3631    12.7320 </r>
       <r>    -6.2534    10.5067    13.3811 </r>
       <r>    -6.1916    19.6728    14.5964 </r>
       <r>    -6.1298    32.3340    16.5939 </r>
       <r>    -6.0680    36.8618    18.8711 </r>
       <r>    -6.0063    31.4892    20.8164 </r>
       <r>    -5.9445    29.1791    22.6189 </r>
       <r>    -5.8827    32.3545    24.6177 </r>
       <r>    -5.8209    36.3834    26.8653 </r>
       <r>    -5.7592    30.0188    28.7198 </r>
       <r>    -5.6974    26.0442    30.3287 </r>
       <r>    -5.6356    33.4753    32.3967 </r>
       <r>    -5.5738    40.3229    34.8877 </r>
       <r>    -5.5120    43.0875    37.5495 </r>
       <r>    -5.4503    52.4085    40.7871 </r>
       <r>    -5.3885    63.2816    44.6964 </r>
       <r>    -5.3267    64.2320    48.6644 </r>
       <r>    -5.2649    55.5600    52.0967 </r>
       <r>    -5.2032    44.4973    54.8456 </r>
       <r>    -5.1414    40.4072    57.3418 </r>
       <r>    -5.0796    50.5167    60.4626 </r>
       <r>    -5.0178    70.6717    64.8284 </r>
       <r>    -4.9561    60.7607    68.5820 </r>
       <r>    -4.8943    30.4778    70.4648 </r>
       <r>    -4.8325    25.0698    72.0135 </r>
       <r>    -4.7707    41.0010    74.5464 </r>
       <r>    -4.7090    38.8575    76.9469 </r>
       <r>    -4.6472    22.9358    78.3638 </r>
       <r>    -4.5854    26.2776    79.9871 </r>
       <r>    -4.5236    43.5442    82.6772 </r>
       <r>    -4.4618    58.5112    86.2918 </r>
       <r>    -4.4001    62.4669    90.1508 </r>
       <r>    -4.3383    52.7359    93.4086 </r>
       <r>    -4.2765    43.9705    96.1249 </r>
       <r>    -4.2147    42.3827    98.7432 </r>
       <r>    -4.1530    48.6058   101.7459 </r>
       <r>    -4.0912    59.9185   105.4474 </r>
       <r>    -4.0294    58.1926   109.0424 </r>
       <r>    -3.9676    46.8761   111.9382 </r>
       <r>    -3.9059    41.7228   114.5157 </r>
       <r>    -3.8441    39.9804   116.9856 </r>
       <r>    -3.7823    36.6815   119.2516 </r>
       <r>    -3.7205    43.6454   121.9479 </r>
       <r>    -3.6588    60.7972   125.7037 </r>
       <r>    -3.5970    62.9535   129.5928 </r>
       <r>    -3.5352    56.2711   133.0690 </r>
       <r>    -3.4734    57.3486   136.6118 </r>
       <r>    -3.4116    68.6661   140.8537 </r>
       <r>    -3.3499    76.2766   145.5658 </r>
       <r>    -3.2881    71.7016   149.9953 </r>
       <r>    -3.2263    66.2106   154.0856 </r>
       <r>    -3.1645    74.6327   158.6961 </r>
       <r>    -3.1028    88.7331   164.1777 </r>
       <r>    -3.0410    82.8452   169.2956 </r>
       <r>    -2.9792    75.9641   173.9884 </r>
       <r>    -2.9174    77.8739   178.7992 </r>
       <r>    -2.8557    75.7762   183.4804 </r>
       <r>    -2.7939    86.3111   188.8124 </r>
       <r>    -2.7321   102.9082   195.1697 </r>
       <r>    -2.6703   102.4733   201.5001 </r>
       <r>    -2.6086    80.4361   206.4692 </r>
       <r>    -2.5468    61.8892   210.2925 </r>
       <r>    -2.4850    63.2953   214.2026 </r>
       <r>    -2.4232    59.2473   217.8627 </r>
       <r>    -2.3614    43.1266   220.5269 </r>
       <r>    -2.2997    28.7992   222.3060 </r>
       <r>    -2.2379    25.1833   223.8618 </r>
       <r>    -2.1761    32.2263   225.8526 </r>
       <r>    -2.1143    46.0396   228.6968 </r>
       <r>    -2.0526    67.5722   232.8711 </r>
       <r>    -1.9908    89.1683   238.3796 </r>
       <r>    -1.9290    91.2116   244.0144 </r>
       <r>    -1.8672    77.4616   248.7997 </r>
       <r>    -1.8055    57.7595   252.3679 </r>
       <r>    -1.7437    43.8176   255.0747 </r>
       <r>    -1.6819    43.1573   257.7409 </r>
       <r>    -1.6201    48.3954   260.7306 </r>
       <r>    -1.5584    56.9534   264.2489 </r>
       <r>    -1.4966    58.2241   267.8458 </r>
       <r>    -1.4348    54.7460   271.2278 </r>
       <r>    -1.3730    59.6113   274.9104 </r>
       <r>    -1.3112    59.1214   278.5627 </r>
       <r>    -1.2495    50.8342   281.7031 </r>
       <r>    -1.1877    57.4086   285.2496 </r>
       <r>    -1.1259    76.2123   289.9577 </r>
       <r>    -1.0641    85.7927   295.2577 </r>
       <r>    -1.0024    84.0463   300.4498 </r>
       <r>    -0.9406    67.6534   304.6292 </r>
       <r>    -0.8788    56.4789   308.1182 </r>
       <r>    -0.8170    57.2028   311.6520 </r>
       <r>    -0.7553    49.8470   314.7314 </r>
       <r>    -0.6935    42.5550   317.3603 </r>
       <r>    -0.6317    53.5952   320.6712 </r>
       <r>    -0.5699    63.0196   324.5643 </r>
       <r>    -0.5082    59.4593   328.2375 </r>
       <r>    -0.4464    60.5258   331.9766 </r>
       <r>    -0.3846    72.0571   336.4280 </r>
       <r>    -0.3228    90.2172   342.0013 </r>
       <r>    -0.2610    92.3850   347.7086 </r>
       <r>    -0.1993    67.1257   351.8553 </r>
       <r>    -0.1375    59.1235   355.5078 </r>
       <r>    -0.0757    90.0791   361.0726 </r>
       <r>    -0.0139    91.3353   366.7149 </r>
       <r>     0.0478    48.7734   369.7280 </r>
       <r>     0.1096    34.1991   371.8407 </r>
       <r>     0.1714    54.4443   375.2041 </r>
       <r>     0.2332    54.1787   378.5510 </r>
       <r>     0.2949    42.4675   381.1745 </r>
       <r>     0.3567    37.0526   383.4635 </r>
       <r>     0.4185    24.4336   384.9729 </r>
       <r>     0.4803    11.1779   385.6634 </r>
       <r>     0.5420     3.7172   385.8931 </r>
       <r>     0.6038     2.2765   386.0337 </r>
       <r>     0.6656     5.5385   386.3759 </r>
       <r>     0.7274    12.7661   387.1645 </r>
       <r>     0.7892    16.3220   388.1728 </r>
       <r>     0.8509    10.6697   388.8320 </r>
       <r>     0.9127     7.6737   389.3060 </r>
       <r>     0.9745    11.2320   389.9999 </r>
       <r>     1.0363     8.6306   390.5331 </r>
       <r>     1.0980     2.0288   390.6584 </r>
       <r>     1.1598     4.2743   390.9224 </r>
       <r>     1.2216    12.1848   391.6752 </r>
       <r>     1.2834    13.8470   392.5306 </r>
       <r>     1.3451    11.5266   393.2427 </r>
       <r>     1.4069    10.2281   393.8745 </r>
       <r>     1.4687    16.3643   394.8855 </r>
       <r>     1.5305    27.2799   396.5707 </r>
       <r>     1.5922    24.7193   398.0978 </r>
       <r>     1.6540    17.5136   399.1797 </r>
       <r>     1.7158    15.3954   400.1308 </r>
       <r>     1.7776     8.9650   400.6846 </r>
       <r>     1.8394     1.5467   400.7802 </r>
       <r>     1.9011     2.0636   400.9076 </r>
       <r>     1.9629     5.8111   401.2666 </r>
       <r>     2.0247     7.2250   401.7130 </r>
       <r>     2.0865     5.1607   402.0318 </r>
       <r>     2.1482     4.5778   402.3146 </r>
       <r>     2.2100     9.2354   402.8851 </r>
       <r>     2.2718    11.3822   403.5883 </r>
       <r>     2.3336    11.1554   404.2774 </r>
       <r>     2.3953    15.7771   405.2521 </r>
       <r>     2.4571    22.1891   406.6228 </r>
       <r>     2.5189    19.3520   407.8183 </r>
       <r>     2.5807     9.6794   408.4163 </r>
       <r>     2.6424     6.2698   408.8036 </r>
       <r>     2.7042     7.5333   409.2690 </r>
       <r>     2.7660    13.4822   410.1019 </r>
       <r>     2.8278    19.4460   411.3032 </r>
       <r>     2.8896    16.6925   412.3344 </r>
       <r>     2.9513    11.0238   413.0154 </r>
       <r>     3.0131     8.2385   413.5243 </r>
       <r>     3.0749    12.2110   414.2787 </r>
       <r>     3.1367    14.1730   415.1543 </r>
       <r>     3.1984    11.1818   415.8450 </r>
       <r>     3.2602     9.7309   416.4462 </r>
       <r>     3.3220     7.2208   416.8922 </r>
       <r>     3.3838     2.3163   417.0353 </r>
       <r>     3.4455     1.6386   417.1366 </r>
       <r>     3.5073     6.8197   417.5579 </r>
       <r>     3.5691    13.1090   418.3677 </r>
       <r>     3.6309    19.5507   419.5755 </r>
       <r>     3.6926    23.7411   421.0421 </r>
       <r>     3.7544    19.7952   422.2650 </r>
       <r>     3.8162    10.7260   422.9276 </r>
       <r>     3.8780     4.4541   423.2028 </r>
       <r>     3.9398     3.1938   423.4001 </r>
       <r>     4.0015     4.2306   423.6614 </r>
       <r>     4.0633     6.2045   424.0447 </r>
       <r>     4.1251     8.0033   424.5391 </r>
       <r>     4.1869     7.7320   425.0168 </r>
       <r>     4.2486     5.6289   425.3645 </r>
       <r>     4.3104     5.6619   425.7143 </r>
       <r>     4.3722    15.4464   426.6685 </r>
       <r>     4.4340    25.6157   428.2509 </r>
       <r>     4.4957    18.4955   429.3935 </r>
       <r>     4.5575     7.8830   429.8805 </r>
       <r>     4.6193     8.2270   430.3888 </r>
       <r>     4.6811    12.4962   431.1607 </r>
       <r>     4.7428    14.5763   432.0612 </r>
       <r>     4.8046    11.7578   432.7876 </r>
       <r>     4.8664     7.5155   433.2518 </r>
       <r>     4.9282     6.5795   433.6583 </r>
       <r>     4.9900     9.5698   434.2495 </r>
       <r>     5.0517     9.2002   434.8178 </r>
       <r>     5.1135     6.6708   435.2299 </r>
       <r>     5.1753     9.2771   435.8030 </r>
       <r>     5.2371    13.0591   436.6098 </r>
       <r>     5.2988    13.3209   437.4327 </r>
       <r>     5.3606     9.6359   438.0280 </r>
       <r>     5.4224     9.5843   438.6201 </r>
       <r>     5.4842    16.6538   439.6489 </r>
       <r>     5.5459    23.0374   441.0720 </r>
       <r>     5.6077    24.4730   442.5839 </r>
       <r>     5.6695    24.4153   444.0922 </r>
       <r>     5.7313    23.3594   445.5353 </r>
       <r>     5.7930    19.7258   446.7538 </r>
       <r>     5.8548    17.2495   447.8195 </r>
       <r>     5.9166    18.2981   448.9498 </r>
       <r>     5.9784    24.9608   450.4918 </r>
       <r>     6.0402    30.8781   452.3994 </r>
       <r>     6.1019    23.1477   453.8294 </r>
       <r>     6.1637    11.3952   454.5333 </r>
       <r>     6.2255    13.6540   455.3768 </r>
       <r>     6.2873    25.8928   456.9764 </r>
       <r>     6.3490    33.0478   459.0180 </r>
       <r>     6.4108    23.5575   460.4733 </r>
       <r>     6.4726    11.6388   461.1923 </r>
       <r>     6.5344    16.4449   462.2082 </r>
       <r>     6.5961    27.8017   463.9257 </r>
       <r>     6.6579    29.8235   465.7681 </r>
       <r>     6.7197    27.2444   467.4511 </r>
       <r>     6.7815    23.1265   468.8798 </r>
       <r>     6.8432    14.8211   469.7954 </r>
       <r>     6.9050    11.6693   470.5163 </r>
       <r>     6.9668    15.2430   471.4579 </r>
       <r>     7.0286    16.0805   472.4513 </r>
       <r>     7.0904    17.6650   473.5426 </r>
       <r>     7.1521    22.2104   474.9147 </r>
       <r>     7.2139    24.3317   476.4178 </r>
       <r>     7.2757    20.0290   477.6551 </r>
       <r>     7.3375    10.6844   478.3152 </r>
       <r>     7.3992     3.6159   478.5386 </r>
       <r>     7.4610     3.0031   478.7241 </r>
       <r>     7.5228     5.4422   479.0603 </r>
       <r>     7.5846     7.3786   479.5161 </r>
       <r>     7.6463     6.2306   479.9010 </r>
       <r>     7.7081     2.0155   480.0255 </r>
       <r>     7.7699    -0.1803   480.0144 </r>
       <r>     7.8317    -0.1982   480.0022 </r>
       <r>     7.8934    -0.0327   480.0001 </r>
       <r>     7.9552    -0.0021   480.0000 </r>
       <r>     8.0170    -0.0001   480.0000 </r>
       <r>     8.0788    -0.0000   480.0000 </r>
       <r>     8.1406    -0.0000   480.0000 </r>
       <r>     8.2023    -0.0000   480.0000 </r>
       <r>     8.2641    -0.0000   480.0000 </r>
       <r>     8.3259     0.0000   480.0000 </r>
       <r>     8.3877     0.0000   480.0000 </r>
       <r>     8.4494     0.0000   480.0000 </r>
       <r>     8.5112     0.0000   480.0000 </r>
       <r>     8.5730     0.0000   480.0000 </r>
       <r>     8.6348     0.0000   480.0000 </r>
      </set>
     </set>
    </array>
   </total>
  </dos>
 </calculation>
 <structure name="finalpos" >
  <crystal>
   <varray name="basis" >
    <v>       8.46831000       0.00000000       0.00000000 </v>
    <v>       4.23415500       7.33377159       0.00000000 </v>
    <v>       0.00000000       0.00000000      24.96566199 </v>
   </varray>
   <i name="volume">   1550.48373159 </i>
   <varray name="rec_basis" >
    <v>       0.11808732      -0.06817774       0.00000000 </v>
    <v>       0.00000000       0.13635549       0.00000000 </v>
    <v>       0.00000000       0.00000000       0.04005502 </v>
   </varray>
  </crystal>
  <varray name="positions" >
   <v>       0.00000000       0.00000000       0.34046764 </v>
   <v>       0.33400137       0.00000000       0.34046764 </v>
   <v>       0.66800274       0.00000000       0.34046764 </v>
   <v>       0.00000000       0.33400137       0.34046764 </v>
   <v>       0.33400137       0.33400137       0.34046764 </v>
   <v>       0.66800274       0.33400137       0.34046764 </v>
   <v>       0.00000000       0.66800274       0.34046764 </v>
   <v>       0.33400137       0.66800274       0.34046764 </v>
   <v>       0.66800274       0.66800274       0.34046764 </v>
   <v>       0.11133379       0.11133379       0.43297074 </v>
   <v>       0.44533516       0.11133379       0.43297074 </v>
   <v>       0.77933653       0.11133379       0.43297074 </v>
   <v>       0.11133379       0.44533516       0.43297074 </v>
   <v>       0.44533516       0.44533516       0.43297074 </v>
   <v>       0.77933653       0.44533516       0.43297074 </v>
   <v>       0.11133379       0.77933653       0.43297074 </v>
   <v>       0.44533516       0.77933653       0.43297074 </v>
   <v>       0.77933653       0.77933653       0.43297074 </v>
   <v>       0.89155192       0.22481551       0.52493797 </v>
   <v>       0.22414972       0.22424175       0.52562745 </v>
   <v>       0.55804756       0.22418840       0.52418203 </v>
   <v>       0.89159231       0.55598753       0.52523809 </v>
   <v>       0.22412871       0.55814463       0.52417543 </v>
   <v>       0.55770445       0.55785124       0.52436170 </v>
   <v>       0.89059463       0.89064702       0.52411590 </v>
   <v>       0.22468861       0.89173122       0.52494910 </v>
   <v>       0.55591020       0.89170518       0.52523855 </v>
   <v>       0.00053665       0.00071409       0.61717919 </v>
   <v>       0.33939324       0.00187407       0.62096833 </v>
   <v>       0.67000785       0.00336790       0.61774445 </v>
   <v>       0.00163208       0.33954933       0.62095235 </v>
   <v>       0.33925423       0.33949886       0.61745483 </v>
   <v>       0.66971873       0.33676119       0.61763203 </v>
   <v>       0.00326357       0.67010189       0.61773625 </v>
   <v>       0.33661440       0.66993653       0.61763777 </v>
   <v>       0.66980230       0.66996206       0.61790417 </v>
   <v>       0.16737006       0.16774386       0.66182323 </v>
  </varray>
  <varray name="selective"  type="logical" >
   <v type="logical" >  F  F  F </v>
   <v type="logical" >  F  F  F </v>
   <v type="logical" >  F  F  F </v>
   <v type="logical" >  F  F  F </v>
   <v type="logical" >  F  F  F </v>
   <v type="logical" >  F  F  F </v>
   <v type="logical" >  F  F  F </v>
   <v type="logical" >  F  F  F </v>
   <v type="logical" >  F  F  F </v>
   <v type="logical" >  F  F  F </v>
   <v type="logical" >  F  F  F </v>
   <v type="logical" >  F  F  F </v>
   <v type="logical" >  F  F  F </v>
   <v type="logical" >  F  F  F </v>
   <v type="logical" >  F  F  F </v>
   <v type="logical" >  F  F  F </v>
   <v type="logical" >  F  F  F </v>
   <v type="logical" >  F  F  F </v>
   <v type="logical" >  T  T  T </v>
   <v type="logical" >  T  T  T </v>
   <v type="logical" >  T  T  T </v>
   <v type="logical" >  T  T  T </v>
   <v type="logical" >  T  T  T </v>
   <v type="logical" >  T  T  T </v>
   <v type="logical" >  T  T  T </v>
   <v type="logical" >  T  T  T </v>
   <v type="logical" >  T  T  T </v>
   <v type="logical" >  T  T  T </v>
   <v type="logical" >  T  T  T </v>
   <v type="logical" >  T  T  T </v>
   <v type="logical" >  T  T  T </v>
   <v type="logical" >  T  T  T </v>
   <v type="logical" >  T  T  T </v>
   <v type="logical" >  T  T  T </v>
   <v type="logical" >  T  T  T </v>
   <v type="logical" >  T  T  T </v>
   <v type="logical" >  T  T  T </v>
  </varray>
  <nose>
   <v>      -3.00000000       0.00000000       0.00010000       0.00010000 </v>
  </nose>
 </structure>
</modeling>
