unknown system                          
           1
     8.468310    0.000000    0.000000
     4.234155    7.333772    0.000000
     0.000000    0.000000   24.965662
   Pt   H 
    36     1
Direct configuration=     1
   0.00000000  0.00000000  0.34046764
   0.33400137  0.00000000  0.34046764
   0.66800274  0.00000000  0.34046764
   0.00000000  0.33400137  0.34046764
   0.33400137  0.33400137  0.34046764
   0.66800274  0.33400137  0.34046764
   0.00000000  0.66800274  0.34046764
   0.33400137  0.66800274  0.34046764
   0.66800274  0.66800274  0.34046764
   0.11133379  0.11133379  0.43297074
   0.44533516  0.11133379  0.43297074
   0.77933653  0.11133379  0.43297074
   0.11133379  0.44533516  0.43297074
   0.44533516  0.44533516  0.43297074
   0.77933653  0.44533516  0.43297074
   0.11133379  0.77933653  0.43297074
   0.44533516  0.77933653  0.43297074
   0.77933653  0.77933653  0.43297074
   0.89155192  0.22481551  0.52493797
   0.22414972  0.22424175  0.52562745
   0.55804756  0.22418840  0.52418203
   0.89159231  0.55598753  0.52523809
   0.22412871  0.55814463  0.52417543
   0.55770445  0.55785124  0.52436170
   0.89059463  0.89064702  0.52411590
   0.22468861  0.89173122  0.52494910
   0.55591020  0.89170518  0.52523855
   0.00053665  0.00071409  0.61717919
   0.33939324  0.00187407  0.62096833
   0.67000785  0.00336790  0.61774445
   0.00163208  0.33954933  0.62095235
   0.33925423  0.33949886  0.61745483
   0.66971873  0.33676119  0.61763203
   0.00326357  0.67010189  0.61773625
   0.33661440  0.66993653  0.61763777
   0.66980230  0.66996206  0.61790417
   0.16737006  0.16774386  0.66182323
