
     Program PWSCF v.7.1 starts on  9Dec2025 at 14:26:11 
        Git branch: heads/qe-7.1
        Last git commit: 48ba0178f8fede6d020eb786884699a9f063f55d-dirty
        Last git commit date: Fri Jan 27 14:22:33 2023 +0000
        Last git commit subject: Merge branch 'fix_hubbard' into 'develop'

     This program is part of the open-source Quantum ESPRESSO suite
     for quantum simulation of materials; please cite
         "P. Giannozzi et al., J. Phys.:Condens. Matter 21 395502 (2009);
         "P. Giannozzi et al., J. Phys.:Condens. Matter 29 465901 (2017);
         "P. Giannozzi et al., J. Chem. Phys. 152 154105 (2020);
          URL http://www.quantum-espresso.org", 
     in publications or presentations arising from this work. More details at
     http://www.quantum-espresso.org/quote

     Parallel version (MPI), running on    96 processors

     MPI processes distributed on     2 nodes
     48149 MiB available memory on the printing compute node when the environment starts

     Reading input from espresso.pwi
Warning: card &CELL ignored
Warning: card / ignored
Warning: card &FCP ignored
Warning: card / ignored
Warning: card &RISM ignored
Warning: card / ignored

     Current dimensions of program PWSCF are:
     Max number of different atomic species (ntypx) = 10
     Max number of k-points (npk) =  40000
     Max angular momentum in pseudopotentials (lmaxx) =  4
     file Co.pbe-n-kjpaw_psl.1.0.0.UPF: wavefunction(s)  4S 3D renormalized
     file C.pbe-n-kjpaw_psl.1.0.0.UPF: wavefunction(s)  2S 2P renormalized
     file O.pbe-nl-kjpaw_psl.1.0.0.UPF: wavefunction(s)  2S 2P renormalized
     file H.pbe-kjpaw_psl.1.0.0.UPF: wavefunction(s)  1S renormalized

     **************************************************************************
     Initializing libbeef V0.1.2 with the BEEF-vdW functional.
     Citation: Wellendorff et al., PRB 85, 235149 (2012).
     **************************************************************************


     IMPORTANT: XC functional enforced from input :
     Exchange-correlation= BEEF-VDW
                           (   1   4  43  14   2   0   0)
     Any further DFT definition will be discarded
     Please, verify this is what you really want


     R & G space division:  proc/nbgrp/npool/nimage =      96
     Subspace diagonalization in iterative solution of the eigenvalue problem:
     one sub-group per band group will be used
     custom distributed-memory algorithm (size of sub-group:  2*  2 procs)


     Parallelization info
     --------------------
     sticks:   dense  smooth     PW     G-vecs:    dense   smooth      PW
     Min          43      28      7                 7829     4248     595
     Max          44      29      8                 7845     4281     630
     Sum        4153    2773    757               752179   409445   59217

     Using Slab Decomposition



     bravais-lattice index     =            0
     lattice parameter (alat)  =      14.1729  a.u.
     unit-cell volume          =    8574.3059 (a.u.)^3
     number of atoms/cell      =           39
     number of atomic types    =            4
     number of electrons       =       335.00
     number of Kohn-Sham states=          202
     kinetic-energy cutoff     =      50.0000  Ry
     charge density cutoff     =     300.0000  Ry
     scf convergence threshold =      1.0E-08
     mixing beta               =       0.7000
     number of iterations used =            8  local-TF  mixing
     Exchange-correlation= BEEF-VDW
                           (   1   4  43  14   2   0   0)

     celldm(1)=  14.172946  celldm(2)=   0.000000  celldm(3)=   0.000000
     celldm(4)=   0.000000  celldm(5)=   0.000000  celldm(6)=   0.000000

     crystal axes: (cart. coord. in units of alat)
               a(1) = (   1.000000   0.000000   0.000000 )  
               a(2) = (   0.500000   0.866025   0.000000 )  
               a(3) = (   0.000000   0.000000   3.477667 )  

     reciprocal axes: (cart. coord. in units 2 pi/alat)
               b(1) = (  1.000000 -0.577350  0.000000 )  
               b(2) = (  0.000000  1.154701  0.000000 )  
               b(3) = (  0.000000  0.000000  0.287549 )  


     PseudoPot. # 1 for Co read from file:
     /users/kbadger1/espresso/pseudo/pslibrary.1.0.0/pbe/PSEUDOPOTENTIALS/Co.pbe-n-kjpaw_psl.1.0.0.UPF
     MD5 check sum: 88af6ec42553d4236c267fdfcb472151
     Pseudo is Projector augmented-wave + core cor, Zval =  9.0
     Generated using 'atomic' code by A. Dal Corso  v.7.0
     Shape of augmentation charge: PSQ
     Using radial grid of 1193 points,  6 beta functions with: 
                l(1) =   0
                l(2) =   0
                l(3) =   1
                l(4) =   1
                l(5) =   2
                l(6) =   2
     Q(r) pseudized with 0 coefficients 


     PseudoPot. # 2 for C  read from file:
     /users/kbadger1/espresso/pseudo/pslibrary.1.0.0/pbe/PSEUDOPOTENTIALS/C.pbe-n-kjpaw_psl.1.0.0.UPF
     MD5 check sum: 6408e75cdba28732cea38a4db8498ce4
     Pseudo is Projector augmented-wave + core cor, Zval =  4.0
     Generated using 'atomic' code by A. Dal Corso  v.7.0
     Shape of augmentation charge: PSQ
     Using radial grid of 1073 points,  4 beta functions with: 
                l(1) =   0
                l(2) =   0
                l(3) =   1
                l(4) =   1
     Q(r) pseudized with 0 coefficients 


     PseudoPot. # 3 for O  read from file:
     /users/kbadger1/espresso/pseudo/pslibrary.1.0.0/pbe/PSEUDOPOTENTIALS/O.pbe-nl-kjpaw_psl.1.0.0.UPF
     MD5 check sum: f0439fab3598ca4e468f064226030408
     Pseudo is Projector augmented-wave + core cor, Zval =  6.0
     Generated using 'atomic' code by A. Dal Corso  v.7.0
     Shape of augmentation charge: PSQ
     Using radial grid of 1095 points,  4 beta functions with: 
                l(1) =   0
                l(2) =   0
                l(3) =   1
                l(4) =   1
     Q(r) pseudized with 0 coefficients 


     PseudoPot. # 4 for H  read from file:
     /users/kbadger1/espresso/pseudo/pslibrary.1.0.0/pbe/PSEUDOPOTENTIALS/H.pbe-kjpaw_psl.1.0.0.UPF
     MD5 check sum: fe4c6fa958fa6d3815bf5d2419cbf1df
     Pseudo is Projector augmented-wave, Zval =  1.0
     Generated using 'atomic' code by A. Dal Corso  v.7.0
     Shape of augmentation charge: PSQ
     Using radial grid of  929 points,  2 beta functions with: 
                l(1) =   0
                l(2) =   0
     Q(r) pseudized with 0 coefficients 


     atomic species   valence    mass     pseudopotential
        Co             9.00    58.93319     Co( 1.00)
        C              4.00    12.01100     C ( 1.00)
        O              6.00    15.99900     O ( 1.00)
        H              1.00     1.00800     H ( 1.00)

     Starting magnetic structure 
     atomic species   magnetization
        Co           1.000
        C            1.000
        O            0.000
        H            0.000

     No symmetry found



   Cartesian axes

     site n.     atom                  positions (alat units)
         1           Co  tau(   1) = (   0.0000000   0.1924501   1.3333333  )
         2           Co  tau(   2) = (   0.3333333   0.1924501   1.3333333  )
         3           Co  tau(   3) = (   0.6666667   0.1924501   1.3333333  )
         4           Co  tau(   4) = (   0.1666667   0.4811252   1.3333333  )
         5           Co  tau(   5) = (   0.5000000   0.4811252   1.3333333  )
         6           Co  tau(   6) = (   0.8333333   0.4811252   1.3333333  )
         7           Co  tau(   7) = (   0.3333333   0.7698004   1.3333333  )
         8           Co  tau(   8) = (   0.6666667   0.7698004   1.3333333  )
         9           Co  tau(   9) = (   1.0000000   0.7698004   1.3333333  )
        10           Co  tau(  10) = (   0.0000000   0.0000000   1.6036667  )
        11           Co  tau(  11) = (   0.3333333   0.0000000   1.6036667  )
        12           Co  tau(  12) = (   0.6666667   0.0000000   1.6036667  )
        13           Co  tau(  13) = (   0.1666667   0.2886751   1.6036667  )
        14           Co  tau(  14) = (   0.5000000   0.2886751   1.6036667  )
        15           Co  tau(  15) = (   0.8333333   0.2886751   1.6036667  )
        16           Co  tau(  16) = (   0.3333333   0.5773503   1.6036667  )
        17           Co  tau(  17) = (   0.6666667   0.5773503   1.6036667  )
        18           Co  tau(  18) = (   1.0000000   0.5773503   1.6036667  )
        19           Co  tau(  19) = (   0.0000000   0.1924501   1.8740000  )
        20           Co  tau(  20) = (   0.3333333   0.1924501   1.8740000  )
        21           Co  tau(  21) = (   0.6666667   0.1924501   1.8740000  )
        22           Co  tau(  22) = (   0.1666667   0.4811252   1.8740000  )
        23           Co  tau(  23) = (   0.5000000   0.4811252   1.8740000  )
        24           Co  tau(  24) = (   0.8333333   0.4811252   1.8740000  )
        25           Co  tau(  25) = (   0.3333333   0.7698004   1.8740000  )
        26           Co  tau(  26) = (   0.6666667   0.7698004   1.8740000  )
        27           Co  tau(  27) = (   1.0000000   0.7698004   1.8740000  )
        28           Co  tau(  28) = (   0.0000000   0.0000000   2.1443333  )
        29           Co  tau(  29) = (   0.3333333   0.0000000   2.1443333  )
        30           Co  tau(  30) = (   0.6666667   0.0000000   2.1443333  )
        31           Co  tau(  31) = (   0.1666667   0.2886751   2.1443333  )
        32           Co  tau(  32) = (   0.5000000   0.2886751   2.1443333  )
        33           Co  tau(  33) = (   0.8333333   0.2886751   2.1443333  )
        34           Co  tau(  34) = (   0.3333333   0.5773503   2.1443333  )
        35           Co  tau(  35) = (   0.6666667   0.5773503   2.1443333  )
        36           Co  tau(  36) = (   1.0000000   0.5773503   2.1443333  )
        37           C   tau(  37) = (   0.1676957  -0.0443747   2.3332478  )
        38           O   tau(  38) = (   0.1535889  -0.0567501   2.4906597  )
        39           H   tau(  39) = (   0.4881443   0.0508098   2.2877745  )

     number of k points=    13  Marzari-Vanderbilt smearing, width (Ry)=  0.0010
                       cart. coord. in units 2pi/alat
        k(    1) = (   0.0000000   0.0000000   0.0000000), wk =   0.0400000
        k(    2) = (   0.0000000   0.2309401   0.0000000), wk =   0.0800000
        k(    3) = (   0.0000000   0.4618802   0.0000000), wk =   0.0800000
        k(    4) = (   0.2000000  -0.1154701   0.0000000), wk =   0.0800000
        k(    5) = (   0.2000000   0.1154701   0.0000000), wk =   0.0800000
        k(    6) = (   0.2000000   0.3464102   0.0000000), wk =   0.0800000
        k(    7) = (   0.2000000  -0.5773503   0.0000000), wk =   0.0800000
        k(    8) = (   0.2000000  -0.3464102   0.0000000), wk =   0.0800000
        k(    9) = (   0.4000000  -0.2309401   0.0000000), wk =   0.0800000
        k(   10) = (   0.4000000   0.0000000   0.0000000), wk =   0.0800000
        k(   11) = (   0.4000000   0.2309401   0.0000000), wk =   0.0800000
        k(   12) = (   0.4000000  -0.6928203   0.0000000), wk =   0.0800000
        k(   13) = (   0.4000000  -0.4618802   0.0000000), wk =   0.0800000

     Dense  grid:   752179 G-vectors     FFT dimensions: (  80,  80, 288)

     Smooth grid:   409445 G-vectors     FFT dimensions: (  64,  64, 225)

     Estimated max dynamical RAM per process >      99.02 MB

     Estimated total dynamical RAM >       9.28 GB
     Generating pointlists ...
     new r_m :   0.0895 (alat units)  1.2691 (a.u.) for type    1
     new r_m :   0.0654 (alat units)  0.9268 (a.u.) for type    2
     new r_m :   0.0654 (alat units)  0.9268 (a.u.) for type    3
     new r_m :   0.0895 (alat units)  1.2691 (a.u.) for type    4

     Initial potential from superposition of free atoms

     starting charge     334.9897, renormalised to     335.0000

     negative rho (up, down):  3.047E-03 4.516E-04


     %%%%%%%%%%%%%%%%%%%%%%%%%%%%%%%%%%%%%%%%%%%%%%%%%%%%%%%%%%%%%%%%%%%%%%%%
     %                                                                      %
     % You are using vdW-DF, which was implemented by the Thonhauser group. %
     % Please cite the following two papers that made this development      %
     % possible and the two reviews that describe the various versions:     %
     %                                                                      %
     %   T. Thonhauser et al., PRL 115, 136402 (2015).                      %
     %   T. Thonhauser et al., PRB 76, 125112 (2007).                       %
     %   K. Berland et al., Rep. Prog. Phys. 78, 066501 (2015).             %
     %   D.C. Langreth et al., J. Phys.: Condens. Matter 21, 084203 (2009). %
     %                                                                      %
     % If you are calculating stress with vdW-DF, please also cite:         %
     %                                                                      %
     %   R. Sabatini et al., J. Phys.: Condens. Matter 24, 424209 (2012).   %
     %   C.M. Frostenson et al., Electr. Struct. 4, 014001 (2022).          %
     %                                                                      %
     %%%%%%%%%%%%%%%%%%%%%%%%%%%%%%%%%%%%%%%%%%%%%%%%%%%%%%%%%%%%%%%%%%%%%%%%

     %%%%%%%%%%%%%%%%%%%%%%%%%%%%%%%%%%%%%%%%%%%%%%%%%%%%%%%%%%%%%%%%%%%%%%%%
     %                                                                      %
     %  vdW-DF NEWS:                                                        %
     %                                                                      %
     %  * vdW-DF3 is now available. DOI: 10.1021/acs.jctc.0c00471           %
     %    use with input_dft = 'vdW-DF3-opt1' or 'vdW-DF3-opt2'             %
     %                                                                      %
     %  * Unscreened and range-separated hybrid vdW-DF-cx functionals       %
     %    DOI: 10.1063/1.4986522 and 10.1088/1361-648X/ac2ad2               %
     %    use with input_dft = 'vdW-DF-cx0'    and 'vdW-DF-ahcx'            %
     %  * Unscreened and range-separated hybrid vdW-DF2-b86r functionals    %
     %    DOI: 10.1063/1.4986522 and DOI: 10.1103/PhysRevX.12.041003        %
     %    use with input_dft = 'vdW-DF2-br0' and 'vdW-DF2-ahbr'             %
     %                                                                      %
     %%%%%%%%%%%%%%%%%%%%%%%%%%%%%%%%%%%%%%%%%%%%%%%%%%%%%%%%%%%%%%%%%%%%%%%%


     Starting wfcs are  333 randomized atomic wfcs
     Checking if some PAW data can be deallocated... 

     total cpu time spent up to now is       12.1 secs

     per-process dynamical memory:   231.9 Mb

     Self-consistent Calculation

     iteration #  1     ecut=    50.00 Ry     beta= 0.70
     Davidson diagonalization with overlap
     ethr =  1.00E-02,  avg # of iterations =  2.0

     negative rho (up, down):  3.364E-05 7.928E-08

     total cpu time spent up to now is       33.9 secs

     total energy              =   -6053.11979052 Ry
     estimated scf accuracy    <      39.09629093 Ry

     total magnetization       =    69.00 Bohr mag/cell
     absolute magnetization    =    81.21 Bohr mag/cell

     iteration #  2     ecut=    50.00 Ry     beta= 0.70
     Davidson diagonalization with overlap
     ethr =  1.00E-02,  avg # of iterations =  1.0

     negative rho (up, down):  5.260E-06 4.113E-08

     total cpu time spent up to now is       51.7 secs

     total energy              =   -6052.65162826 Ry
     estimated scf accuracy    <      24.44213617 Ry

     total magnetization       =    69.00 Bohr mag/cell
     absolute magnetization    =    76.81 Bohr mag/cell

     iteration #  3     ecut=    50.00 Ry     beta= 0.70
     Davidson diagonalization with overlap
     ethr =  7.30E-03,  avg # of iterations =  1.3

     negative rho (up, down):  3.903E-08 0.000E+00

     total cpu time spent up to now is       65.9 secs

     total energy              =   -6055.19536054 Ry
     estimated scf accuracy    <      85.35899159 Ry

     total magnetization       =    66.12 Bohr mag/cell
     absolute magnetization    =    73.57 Bohr mag/cell

     iteration #  4     ecut=    50.00 Ry     beta= 0.70
     Davidson diagonalization with overlap
     ethr =  7.30E-03,  avg # of iterations =  1.0

     total cpu time spent up to now is       84.2 secs

     total energy              =   -6056.45807662 Ry
     estimated scf accuracy    <       5.51871976 Ry

     total magnetization       =    60.42 Bohr mag/cell
     absolute magnetization    =    70.21 Bohr mag/cell

     iteration #  5     ecut=    50.00 Ry     beta= 0.70
     Davidson diagonalization with overlap
     ethr =  1.65E-03,  avg # of iterations =  1.2

     total cpu time spent up to now is       97.4 secs

     total energy              =   -6056.44734803 Ry
     estimated scf accuracy    <       2.12623012 Ry

     total magnetization       =    60.40 Bohr mag/cell
     absolute magnetization    =    69.75 Bohr mag/cell

     iteration #  6     ecut=    50.00 Ry     beta= 0.70
     Davidson diagonalization with overlap
     ethr =  6.35E-04,  avg # of iterations =  1.7

     total cpu time spent up to now is      115.9 secs

     total energy              =   -6056.55207189 Ry
     estimated scf accuracy    <       0.83433554 Ry

     total magnetization       =    59.88 Bohr mag/cell
     absolute magnetization    =    68.98 Bohr mag/cell

     iteration #  7     ecut=    50.00 Ry     beta= 0.70
     Davidson diagonalization with overlap
     ethr =  2.49E-04,  avg # of iterations =  4.5

     total cpu time spent up to now is      132.3 secs

     total energy              =   -6056.57625761 Ry
     estimated scf accuracy    <       0.62367608 Ry

     total magnetization       =    59.89 Bohr mag/cell
     absolute magnetization    =    68.69 Bohr mag/cell

     iteration #  8     ecut=    50.00 Ry     beta= 0.70
     Davidson diagonalization with overlap
     ethr =  1.86E-04,  avg # of iterations =  1.9

     total cpu time spent up to now is      151.7 secs

     total energy              =   -6056.60285491 Ry
     estimated scf accuracy    <       0.16255611 Ry

     total magnetization       =    59.97 Bohr mag/cell
     absolute magnetization    =    68.58 Bohr mag/cell

     iteration #  9     ecut=    50.00 Ry     beta= 0.70
     Davidson diagonalization with overlap
     c_bands:  1 eigenvalues not converged
     c_bands:  2 eigenvalues not converged
     ethr =  4.85E-05,  avg # of iterations =  8.8

     total cpu time spent up to now is      178.3 secs

     total energy              =   -6056.60942174 Ry
     estimated scf accuracy    <       0.12311359 Ry

     total magnetization       =    60.28 Bohr mag/cell
     absolute magnetization    =    68.52 Bohr mag/cell

     iteration # 10     ecut=    50.00 Ry     beta= 0.70
     Davidson diagonalization with overlap
     ethr =  3.68E-05,  avg # of iterations =  3.3

     total cpu time spent up to now is      199.0 secs

     total energy              =   -6056.61502520 Ry
     estimated scf accuracy    <       0.14431319 Ry

     total magnetization       =    60.60 Bohr mag/cell
     absolute magnetization    =    68.56 Bohr mag/cell

     iteration # 11     ecut=    50.00 Ry     beta= 0.70
     Davidson diagonalization with overlap
     ethr =  3.68E-05,  avg # of iterations =  1.4

     total cpu time spent up to now is      212.5 secs

     total energy              =   -6056.61058265 Ry
     estimated scf accuracy    <       0.10387917 Ry

     total magnetization       =    60.53 Bohr mag/cell
     absolute magnetization    =    68.45 Bohr mag/cell

     iteration # 12     ecut=    50.00 Ry     beta= 0.70
     Davidson diagonalization with overlap
     ethr =  3.10E-05,  avg # of iterations =  1.9

     total cpu time spent up to now is      231.1 secs

     total energy              =   -6056.61197828 Ry
     estimated scf accuracy    <       0.09091051 Ry

     total magnetization       =    60.41 Bohr mag/cell
     absolute magnetization    =    68.25 Bohr mag/cell

     iteration # 13     ecut=    50.00 Ry     beta= 0.70
     Davidson diagonalization with overlap
     ethr =  2.71E-05,  avg # of iterations =  1.2

     total cpu time spent up to now is      245.4 secs

     total energy              =   -6056.61194406 Ry
     estimated scf accuracy    <       0.10347178 Ry

     total magnetization       =    60.53 Bohr mag/cell
     absolute magnetization    =    68.29 Bohr mag/cell

     iteration # 14     ecut=    50.00 Ry     beta= 0.70
     Davidson diagonalization with overlap
     ethr =  2.71E-05,  avg # of iterations =  1.3

     negative rho (up, down):  2.739E-03 1.750E-03

     total cpu time spent up to now is      263.2 secs

     total energy              =   -6056.60619641 Ry
     estimated scf accuracy    <       0.07952128 Ry

     total magnetization       =    60.50 Bohr mag/cell
     absolute magnetization    =    68.23 Bohr mag/cell

     iteration # 15     ecut=    50.00 Ry     beta= 0.70
     Davidson diagonalization with overlap
     ethr =  2.37E-05,  avg # of iterations =  1.4

     negative rho (up, down):  1.392E-02 1.233E-02

     total cpu time spent up to now is      276.8 secs

     total energy              =   -6056.60264005 Ry
     estimated scf accuracy    <       0.04444433 Ry

     total magnetization       =    60.48 Bohr mag/cell
     absolute magnetization    =    68.22 Bohr mag/cell

     iteration # 16     ecut=    50.00 Ry     beta= 0.70
     Davidson diagonalization with overlap
     c_bands:  1 eigenvalues not converged
     c_bands:  1 eigenvalues not converged
     c_bands:  3 eigenvalues not converged
     ethr =  1.33E-05,  avg # of iterations =  4.4

     negative rho (up, down):  1.637E-02 1.475E-02

     total cpu time spent up to now is      298.6 secs

     total energy              =   -6056.60314501 Ry
     estimated scf accuracy    <       0.02396090 Ry

     total magnetization       =    60.40 Bohr mag/cell
     absolute magnetization    =    68.12 Bohr mag/cell

     iteration # 17     ecut=    50.00 Ry     beta= 0.70
     Davidson diagonalization with overlap
     c_bands:  3 eigenvalues not converged
     c_bands:  2 eigenvalues not converged
     ethr =  7.15E-06,  avg # of iterations =  6.8

     negative rho (up, down):  1.248E-02 1.109E-02

     total cpu time spent up to now is      321.9 secs

     total energy              =   -6056.60305583 Ry
     estimated scf accuracy    <       0.01893330 Ry

     total magnetization       =    60.47 Bohr mag/cell
     absolute magnetization    =    68.12 Bohr mag/cell

     iteration # 18     ecut=    50.00 Ry     beta= 0.70
     Davidson diagonalization with overlap
     c_bands:  2 eigenvalues not converged
     ethr =  5.65E-06,  avg # of iterations =  2.7

     negative rho (up, down):  1.219E-02 1.079E-02

     total cpu time spent up to now is      336.9 secs

     total energy              =   -6056.60261979 Ry
     estimated scf accuracy    <       0.00982374 Ry

     total magnetization       =    60.49 Bohr mag/cell
     absolute magnetization    =    68.13 Bohr mag/cell

     iteration # 19     ecut=    50.00 Ry     beta= 0.70
     Davidson diagonalization with overlap
     c_bands:  1 eigenvalues not converged
     c_bands:  1 eigenvalues not converged
     c_bands:  2 eigenvalues not converged
     ethr =  2.93E-06,  avg # of iterations =  5.8

     negative rho (up, down):  1.243E-02 1.117E-02

     total cpu time spent up to now is      360.4 secs

     total energy              =   -6056.60131624 Ry
     estimated scf accuracy    <       0.02148779 Ry

     total magnetization       =    60.51 Bohr mag/cell
     absolute magnetization    =    68.13 Bohr mag/cell

     iteration # 20     ecut=    50.00 Ry     beta= 0.70
     Davidson diagonalization with overlap
     ethr =  2.93E-06,  avg # of iterations =  2.1

     negative rho (up, down):  1.616E-02 1.521E-02

     total cpu time spent up to now is      378.8 secs

     total energy              =   -6056.60000150 Ry
     estimated scf accuracy    <       0.01017140 Ry

     total magnetization       =    60.49 Bohr mag/cell
     absolute magnetization    =    68.10 Bohr mag/cell

     iteration # 21     ecut=    50.00 Ry     beta= 0.70
     Davidson diagonalization with overlap
     ethr =  2.93E-06,  avg # of iterations =  2.0

     negative rho (up, down):  1.287E-02 1.201E-02

     total cpu time spent up to now is      393.4 secs

     total energy              =   -6056.60021105 Ry
     estimated scf accuracy    <       0.00621489 Ry

     total magnetization       =    60.53 Bohr mag/cell
     absolute magnetization    =    68.11 Bohr mag/cell

     iteration # 22     ecut=    50.00 Ry     beta= 0.70
     Davidson diagonalization with overlap
     ethr =  1.86E-06,  avg # of iterations =  1.6

     negative rho (up, down):  1.570E-02 1.481E-02

     total cpu time spent up to now is      411.4 secs

     total energy              =   -6056.60035735 Ry
     estimated scf accuracy    <       0.00617093 Ry

     total magnetization       =    60.53 Bohr mag/cell
     absolute magnetization    =    68.11 Bohr mag/cell

     iteration # 23     ecut=    50.00 Ry     beta= 0.70
     Davidson diagonalization with overlap
     ethr =  1.84E-06,  avg # of iterations =  1.3

     negative rho (up, down):  1.193E-02 1.113E-02

     total cpu time spent up to now is      426.2 secs

     total energy              =   -6056.60032524 Ry
     estimated scf accuracy    <       0.00216872 Ry

     total magnetization       =    60.52 Bohr mag/cell
     absolute magnetization    =    68.10 Bohr mag/cell

     iteration # 24     ecut=    50.00 Ry     beta= 0.70
     Davidson diagonalization with overlap
     ethr =  6.47E-07,  avg # of iterations =  3.4

     negative rho (up, down):  8.222E-03 7.386E-03

     total cpu time spent up to now is      446.2 secs

     total energy              =   -6056.60029190 Ry
     estimated scf accuracy    <       0.00333288 Ry

     total magnetization       =    60.54 Bohr mag/cell
     absolute magnetization    =    68.12 Bohr mag/cell

     iteration # 25     ecut=    50.00 Ry     beta= 0.70
     Davidson diagonalization with overlap
     ethr =  6.47E-07,  avg # of iterations =  1.7

     negative rho (up, down):  7.453E-03 6.753E-03

     total cpu time spent up to now is      460.3 secs

     total energy              =   -6056.60058037 Ry
     estimated scf accuracy    <       0.00128585 Ry

     total magnetization       =    60.53 Bohr mag/cell
     absolute magnetization    =    68.12 Bohr mag/cell

     iteration # 26     ecut=    50.00 Ry     beta= 0.70
     Davidson diagonalization with overlap
     ethr =  3.84E-07,  avg # of iterations =  1.5

     negative rho (up, down):  6.775E-03 6.068E-03

     total cpu time spent up to now is      479.1 secs

     total energy              =   -6056.60063164 Ry
     estimated scf accuracy    <       0.00033759 Ry

     total magnetization       =    60.54 Bohr mag/cell
     absolute magnetization    =    68.12 Bohr mag/cell

     iteration # 27     ecut=    50.00 Ry     beta= 0.70
     Davidson diagonalization with overlap
     ethr =  1.01E-07,  avg # of iterations =  6.5

     negative rho (up, down):  4.356E-03 3.514E-03

     total cpu time spent up to now is      503.7 secs

     total energy              =   -6056.60068452 Ry
     estimated scf accuracy    <       0.00019618 Ry

     total magnetization       =    60.54 Bohr mag/cell
     absolute magnetization    =    68.12 Bohr mag/cell

     iteration # 28     ecut=    50.00 Ry     beta= 0.70
     Davidson diagonalization with overlap
     ethr =  5.86E-08,  avg # of iterations =  2.9

     negative rho (up, down):  3.934E-03 3.057E-03

     total cpu time spent up to now is      519.2 secs

     total energy              =   -6056.60067927 Ry
     estimated scf accuracy    <       0.00012284 Ry

     total magnetization       =    60.54 Bohr mag/cell
     absolute magnetization    =    68.11 Bohr mag/cell

     iteration # 29     ecut=    50.00 Ry     beta= 0.70
     Davidson diagonalization with overlap
     ethr =  3.67E-08,  avg # of iterations =  2.0

     negative rho (up, down):  3.380E-03 2.328E-03

     total cpu time spent up to now is      538.3 secs

     total energy              =   -6056.60071159 Ry
     estimated scf accuracy    <       0.00017436 Ry

     total magnetization       =    60.54 Bohr mag/cell
     absolute magnetization    =    68.11 Bohr mag/cell

     iteration # 30     ecut=    50.00 Ry     beta= 0.70
     Davidson diagonalization with overlap
     ethr =  3.67E-08,  avg # of iterations =  1.7

     negative rho (up, down):  2.934E-03 1.831E-03

     total cpu time spent up to now is      557.9 secs

     total energy              =   -6056.60070856 Ry
     estimated scf accuracy    <       0.00006442 Ry

     total magnetization       =    60.54 Bohr mag/cell
     absolute magnetization    =    68.11 Bohr mag/cell

     iteration # 31     ecut=    50.00 Ry     beta= 0.70
     Davidson diagonalization with overlap
     ethr =  1.92E-08,  avg # of iterations =  2.3

     negative rho (up, down):  2.331E-03 1.197E-03

     total cpu time spent up to now is      573.0 secs

     total energy              =   -6056.60071590 Ry
     estimated scf accuracy    <       0.00009550 Ry

     total magnetization       =    60.53 Bohr mag/cell
     absolute magnetization    =    68.11 Bohr mag/cell

     iteration # 32     ecut=    50.00 Ry     beta= 0.70
     Davidson diagonalization with overlap
     ethr =  1.92E-08,  avg # of iterations =  1.6

     negative rho (up, down):  2.230E-03 1.155E-03

     total cpu time spent up to now is      591.0 secs

     total energy              =   -6056.60072193 Ry
     estimated scf accuracy    <       0.00007261 Ry

     total magnetization       =    60.53 Bohr mag/cell
     absolute magnetization    =    68.11 Bohr mag/cell

     iteration # 33     ecut=    50.00 Ry     beta= 0.70
     Davidson diagonalization with overlap
     ethr =  1.92E-08,  avg # of iterations =  1.8

     negative rho (up, down):  2.396E-03 1.365E-03

     total cpu time spent up to now is      606.7 secs

     total energy              =   -6056.60072411 Ry
     estimated scf accuracy    <       0.00001334 Ry

     total magnetization       =    60.53 Bohr mag/cell
     absolute magnetization    =    68.11 Bohr mag/cell

     iteration # 34     ecut=    50.00 Ry     beta= 0.70
     Davidson diagonalization with overlap
     ethr =  3.98E-09,  avg # of iterations =  6.8

     negative rho (up, down):  2.394E-03 1.356E-03

     total cpu time spent up to now is      631.1 secs

     total energy              =   -6056.60072600 Ry
     estimated scf accuracy    <       0.00000451 Ry

     total magnetization       =    60.53 Bohr mag/cell
     absolute magnetization    =    68.11 Bohr mag/cell

     iteration # 35     ecut=    50.00 Ry     beta= 0.70
     Davidson diagonalization with overlap
     ethr =  1.34E-09,  avg # of iterations =  3.2

     negative rho (up, down):  2.387E-03 1.323E-03

     total cpu time spent up to now is      651.3 secs

     total energy              =   -6056.60072684 Ry
     estimated scf accuracy    <       0.00000195 Ry

     total magnetization       =    60.53 Bohr mag/cell
     absolute magnetization    =    68.10 Bohr mag/cell

     iteration # 36     ecut=    50.00 Ry     beta= 0.70
     Davidson diagonalization with overlap
     ethr =  5.81E-10,  avg # of iterations =  4.4

     negative rho (up, down):  2.385E-03 1.313E-03

     total cpu time spent up to now is      669.5 secs

     total energy              =   -6056.60072710 Ry
     estimated scf accuracy    <       0.00000231 Ry

     total magnetization       =    60.53 Bohr mag/cell
     absolute magnetization    =    68.10 Bohr mag/cell

     iteration # 37     ecut=    50.00 Ry     beta= 0.70
     Davidson diagonalization with overlap
     ethr =  5.81E-10,  avg # of iterations =  1.5

     negative rho (up, down):  2.411E-03 1.316E-03

     total cpu time spent up to now is      687.8 secs

     total energy              =   -6056.60072722 Ry
     estimated scf accuracy    <       0.00000234 Ry

     total magnetization       =    60.53 Bohr mag/cell
     absolute magnetization    =    68.10 Bohr mag/cell

     iteration # 38     ecut=    50.00 Ry     beta= 0.70
     Davidson diagonalization with overlap
     ethr =  5.81E-10,  avg # of iterations =  2.0

     negative rho (up, down):  2.348E-03 1.264E-03

     total cpu time spent up to now is      704.3 secs

     total energy              =   -6056.60072718 Ry
     estimated scf accuracy    <       0.00000153 Ry

     total magnetization       =    60.53 Bohr mag/cell
     absolute magnetization    =    68.10 Bohr mag/cell

     iteration # 39     ecut=    50.00 Ry     beta= 0.70
     Davidson diagonalization with overlap
     ethr =  4.58E-10,  avg # of iterations =  1.7

     negative rho (up, down):  2.349E-03 1.262E-03

     total cpu time spent up to now is      721.6 secs

     total energy              =   -6056.60072723 Ry
     estimated scf accuracy    <       0.00000301 Ry

     total magnetization       =    60.53 Bohr mag/cell
     absolute magnetization    =    68.10 Bohr mag/cell

     iteration # 40     ecut=    50.00 Ry     beta= 0.70
     Davidson diagonalization with overlap
     ethr =  4.58E-10,  avg # of iterations =  1.0

     negative rho (up, down):  2.346E-03 1.256E-03

     total cpu time spent up to now is      740.4 secs

     total energy              =   -6056.60072728 Ry
     estimated scf accuracy    <       0.00000082 Ry

     total magnetization       =    60.53 Bohr mag/cell
     absolute magnetization    =    68.10 Bohr mag/cell

     iteration # 41     ecut=    50.00 Ry     beta= 0.70
     Davidson diagonalization with overlap
     ethr =  2.44E-10,  avg # of iterations =  1.9

     negative rho (up, down):  2.343E-03 1.252E-03

     total cpu time spent up to now is      754.9 secs

     total energy              =   -6056.60072726 Ry
     estimated scf accuracy    <       0.00000151 Ry

     total magnetization       =    60.53 Bohr mag/cell
     absolute magnetization    =    68.10 Bohr mag/cell

     iteration # 42     ecut=    50.00 Ry     beta= 0.70
     Davidson diagonalization with overlap
     ethr =  2.44E-10,  avg # of iterations =  1.3

     negative rho (up, down):  2.330E-03 1.238E-03

     total cpu time spent up to now is      772.9 secs

     total energy              =   -6056.60072727 Ry
     estimated scf accuracy    <       0.00000121 Ry

     total magnetization       =    60.53 Bohr mag/cell
     absolute magnetization    =    68.10 Bohr mag/cell

     iteration # 43     ecut=    50.00 Ry     beta= 0.70
     Davidson diagonalization with overlap
     ethr =  2.44E-10,  avg # of iterations =  1.0

     negative rho (up, down):  2.324E-03 1.233E-03

     total cpu time spent up to now is      787.5 secs

     total energy              =   -6056.60072732 Ry
     estimated scf accuracy    <       0.00000014 Ry

     total magnetization       =    60.53 Bohr mag/cell
     absolute magnetization    =    68.10 Bohr mag/cell

     iteration # 44     ecut=    50.00 Ry     beta= 0.70
     Davidson diagonalization with overlap
     c_bands:  1 eigenvalues not converged
     c_bands:  1 eigenvalues not converged
     ethr =  4.21E-11,  avg # of iterations =  6.0

     negative rho (up, down):  2.295E-03 1.204E-03

     total cpu time spent up to now is      809.9 secs

     total energy              =   -6056.60072729 Ry
     estimated scf accuracy    <       0.00000030 Ry

     total magnetization       =    60.53 Bohr mag/cell
     absolute magnetization    =    68.10 Bohr mag/cell

     iteration # 45     ecut=    50.00 Ry     beta= 0.70
     Davidson diagonalization with overlap
     ethr =  4.21E-11,  avg # of iterations =  2.2

     negative rho (up, down):  2.274E-03 1.184E-03

     total cpu time spent up to now is      829.3 secs

     total energy              =   -6056.60072727 Ry
     estimated scf accuracy    <       0.00000018 Ry

     total magnetization       =    60.53 Bohr mag/cell
     absolute magnetization    =    68.10 Bohr mag/cell

     iteration # 46     ecut=    50.00 Ry     beta= 0.70
     Davidson diagonalization with overlap
     ethr =  4.21E-11,  avg # of iterations =  1.3

     negative rho (up, down):  2.279E-03 1.189E-03

     total cpu time spent up to now is      843.1 secs

     total energy              =   -6056.60072728 Ry
     estimated scf accuracy    <       0.00000014 Ry

     total magnetization       =    60.53 Bohr mag/cell
     absolute magnetization    =    68.10 Bohr mag/cell

     iteration # 47     ecut=    50.00 Ry     beta= 0.70
     Davidson diagonalization with overlap
     ethr =  4.20E-11,  avg # of iterations =  1.6

     negative rho (up, down):  2.278E-03 1.188E-03

     total cpu time spent up to now is      862.9 secs

     total energy              =   -6056.60072728 Ry
     estimated scf accuracy    <       0.00000031 Ry

     total magnetization       =    60.53 Bohr mag/cell
     absolute magnetization    =    68.10 Bohr mag/cell

     iteration # 48     ecut=    50.00 Ry     beta= 0.70
     Davidson diagonalization with overlap
     ethr =  4.20E-11,  avg # of iterations =  1.0

     negative rho (up, down):  2.263E-03 1.173E-03

     total cpu time spent up to now is      876.4 secs

     total energy              =   -6056.60072727 Ry
     estimated scf accuracy    <       0.00000010 Ry

     total magnetization       =    60.53 Bohr mag/cell
     absolute magnetization    =    68.10 Bohr mag/cell

     iteration # 49     ecut=    50.00 Ry     beta= 0.70
     Davidson diagonalization with overlap
     ethr =  2.92E-11,  avg # of iterations =  1.3

     negative rho (up, down):  2.253E-03 1.164E-03

     total cpu time spent up to now is      894.6 secs

     total energy              =   -6056.60072725 Ry
     estimated scf accuracy    <       0.00000014 Ry

     total magnetization       =    60.53 Bohr mag/cell
     absolute magnetization    =    68.10 Bohr mag/cell

     iteration # 50     ecut=    50.00 Ry     beta= 0.70
     Davidson diagonalization with overlap
     ethr =  2.92E-11,  avg # of iterations =  1.0

     negative rho (up, down):  2.247E-03 1.158E-03

     total cpu time spent up to now is      909.6 secs

     total energy              =   -6056.60072725 Ry
     estimated scf accuracy    <       0.00000004 Ry

     total magnetization       =    60.53 Bohr mag/cell
     absolute magnetization    =    68.10 Bohr mag/cell

     iteration # 51     ecut=    50.00 Ry     beta= 0.70
     Davidson diagonalization with overlap
     ethr =  1.18E-11,  avg # of iterations =  1.6

     negative rho (up, down):  2.247E-03 1.159E-03

     Magnetic moment per site  (integrated on atomic sphere of radius R)
     atom   1 (R=0.090)  charge=  5.6301  magn=  1.6439
     atom   2 (R=0.090)  charge=  5.6294  magn=  1.6383
     atom   3 (R=0.090)  charge=  5.6286  magn=  1.6476
     atom   4 (R=0.090)  charge=  5.6286  magn=  1.6532
     atom   5 (R=0.090)  charge=  5.6290  magn=  1.6475
     atom   6 (R=0.090)  charge=  5.6289  magn=  1.6458
     atom   7 (R=0.090)  charge=  5.6299  magn=  1.6461
     atom   8 (R=0.090)  charge=  5.6310  magn=  1.6377
     atom   9 (R=0.090)  charge=  5.6288  magn=  1.6441
     atom  10 (R=0.090)  charge=  5.6268  magn=  1.5830
     atom  11 (R=0.090)  charge=  5.6261  magn=  1.5791
     atom  12 (R=0.090)  charge=  5.6259  magn=  1.5887
     atom  13 (R=0.090)  charge=  5.6252  magn=  1.5915
     atom  14 (R=0.090)  charge=  5.6249  magn=  1.5876
     atom  15 (R=0.090)  charge=  5.6258  magn=  1.5863
     atom  16 (R=0.090)  charge=  5.6254  magn=  1.5809
     atom  17 (R=0.090)  charge=  5.6257  magn=  1.5867
     atom  18 (R=0.090)  charge=  5.6248  magn=  1.5839
     atom  19 (R=0.090)  charge=  5.6264  magn=  1.5716
     atom  20 (R=0.090)  charge=  5.6252  magn=  1.5797
     atom  21 (R=0.090)  charge=  5.6239  magn=  1.6044
     atom  22 (R=0.090)  charge=  5.6247  magn=  1.5790
     atom  23 (R=0.090)  charge=  5.6249  magn=  1.5640
     atom  24 (R=0.090)  charge=  5.6247  magn=  1.5783
     atom  25 (R=0.090)  charge=  5.6257  magn=  1.5485
     atom  26 (R=0.090)  charge=  5.6247  magn=  1.5943
     atom  27 (R=0.090)  charge=  5.6249  magn=  1.5758
     atom  28 (R=0.090)  charge=  5.6401  magn=  1.2782
     atom  29 (R=0.090)  charge=  5.6398  magn=  0.9892
     atom  30 (R=0.090)  charge=  5.6269  magn=  1.5443
     atom  31 (R=0.090)  charge=  5.6305  magn=  1.6749
     atom  32 (R=0.090)  charge=  5.6290  magn=  1.6340
     atom  33 (R=0.090)  charge=  5.6274  magn=  1.6681
     atom  34 (R=0.090)  charge=  5.6273  magn=  1.6805
     atom  35 (R=0.090)  charge=  5.6344  magn=  1.5742
     atom  36 (R=0.090)  charge=  5.6284  magn=  1.6860
     atom  37 (R=0.065)  charge=  1.0429  magn= -0.0204
     atom  38 (R=0.065)  charge=  2.9154  magn= -0.0390
     atom  39 (R=0.090)  charge=  0.8241  magn= -0.0156

     total cpu time spent up to now is      927.7 secs

     End of self-consistent calculation

 ------ SPIN UP ------------


          k = 0.0000 0.0000 0.0000 ( 51087 PWs)   bands (ev):

   -21.9803  -9.1659  -7.6580  -6.5060  -5.8202  -5.6196  -5.3866  -5.0816
    -4.8302  -4.8220  -4.8174  -4.8047  -4.7920  -4.7762  -4.6116  -4.3785
    -4.2881  -4.2879  -4.2653  -4.2543  -4.2386  -4.0753  -3.7735  -3.7717
    -3.7610  -3.7494  -3.7271  -3.6892  -3.6384  -3.6367  -3.6322  -3.6283
    -3.6108  -3.5590  -3.5571  -3.4516  -3.2559  -3.2494  -3.2462  -3.2441
    -3.1897  -3.1849  -3.1798  -3.1770  -3.1730  -3.1656  -3.1585  -3.1003
    -3.0191  -3.0161  -2.9517  -2.9461  -2.9434  -2.9366  -2.9285  -2.9136
    -2.9102  -2.9074  -2.8841  -2.8683  -2.8137  -2.8052  -2.8026  -2.7951
    -2.7364  -2.5920  -2.3119  -2.2731  -2.2717  -2.2678  -2.2658  -2.1648
    -2.1441  -2.1305  -2.1232  -2.1121  -2.1019  -2.0968  -2.0885  -2.0824
    -2.0453  -2.0390  -2.0164  -2.0034  -1.9897  -1.9842  -1.9693  -1.9600
    -1.9582  -1.9489  -1.9436  -1.9372  -1.9265  -1.9164  -1.9119  -1.9011
    -1.8997  -1.8966  -1.8948  -1.8923  -1.8897  -1.8889  -1.8844  -1.8717
    -1.8622  -1.8554  -1.8359  -1.8228  -1.8168  -1.7426  -1.7373  -1.6425
    -1.5398  -1.4522  -1.4485  -1.4468  -1.4406  -1.4342  -1.4218  -1.4058
    -1.4006  -1.3971  -1.3839  -1.3550  -1.3522  -1.2269  -1.2203  -1.2055
    -1.1928  -1.1542  -1.0885  -1.0546  -1.0342  -1.0169  -0.9821  -0.9694
    -0.9654  -0.9627  -0.9539  -0.9365  -0.9119  -0.8940  -0.8401  -0.8176
    -0.7430  -0.7067  -0.7044  -0.7028  -0.6865  -0.6625  -0.6486  -0.6407
    -0.6372  -0.6341  -0.6315  -0.6284  -0.6248  -0.6176  -0.6124  -0.6017
    -0.6009  -0.5919  -0.5817  -0.5693  -0.5659  -0.5597  -0.5480  -0.5428
    -0.5358  -0.5281  -0.5196  -0.5103  -0.5054  -0.4963  -0.4927  -0.4870
    -0.4842  -0.4781  -0.4614  -0.4427  -0.4269  -0.4089  -0.4029  -0.3950
    -0.3941  -0.3849  -0.3810  -0.3696  -0.3646  -0.3244  -0.3157  -0.3091
    -0.3044  -0.3015  -0.2457  -0.2400  -0.2353  -0.2269  -0.2068  -0.1927
     0.4961   0.7453

          k = 0.0000 0.2309 0.0000 ( 51134 PWs)   bands (ev):

   -21.9803  -9.1560  -7.5165  -6.4095  -5.8355  -5.6564  -5.5216  -5.3576
    -5.0957  -5.0328  -4.9838  -4.6434  -4.4850  -4.4758  -4.4586  -4.4076
    -4.3175  -4.2937  -4.2364  -4.1609  -4.1484  -4.0841  -3.8715  -3.7785
    -3.7691  -3.6979  -3.6538  -3.6425  -3.6391  -3.6281  -3.6233  -3.6057
    -3.5912  -3.5294  -3.5154  -3.4930  -3.4901  -3.4155  -3.2690  -3.2641
    -3.2506  -3.2101  -3.2061  -3.1985  -3.1732  -3.1024  -3.0757  -3.0619
    -3.0420  -3.0397  -3.0206  -2.9994  -2.9667  -2.9021  -2.8954  -2.8646
    -2.8367  -2.8278  -2.7995  -2.7951  -2.7713  -2.7339  -2.7282  -2.7177
    -2.6949  -2.5873  -2.3924  -2.3833  -2.3629  -2.3487  -2.3299  -2.2431
    -2.2336  -2.2172  -2.2120  -2.2046  -2.1979  -2.1890  -2.1643  -2.1093
    -2.0992  -2.0870  -2.0666  -2.0334  -2.0261  -2.0204  -2.0101  -2.0034
    -1.9901  -1.9870  -1.9801  -1.9778  -1.9698  -1.9585  -1.9371  -1.8905
    -1.8745  -1.8682  -1.8072  -1.7989  -1.7897  -1.7881  -1.7798  -1.7765
    -1.7637  -1.7566  -1.7482  -1.7439  -1.7380  -1.7158  -1.7055  -1.6872
    -1.6767  -1.6693  -1.6279  -1.5800  -1.5670  -1.4804  -1.4720  -1.4703
    -1.4624  -1.4419  -1.4357  -1.4275  -1.4028  -1.3988  -1.3794  -1.2726
    -1.2520  -1.1969  -1.1864  -1.1697  -1.1563  -1.0985  -1.0842  -1.0761
    -1.0595  -0.9817  -0.9707  -0.9623  -0.9378  -0.9312  -0.8997  -0.8904
    -0.8720  -0.8589  -0.8504  -0.8258  -0.8112  -0.7910  -0.7860  -0.7821
    -0.7236  -0.7104  -0.7042  -0.7000  -0.6847  -0.6678  -0.6437  -0.6298
    -0.6264  -0.6202  -0.6172  -0.6020  -0.5880  -0.5774  -0.5639  -0.5506
    -0.5194  -0.5030  -0.4919  -0.4631  -0.4409  -0.4281  -0.4096  -0.3823
    -0.3785  -0.3653  -0.3607  -0.3473  -0.3307  -0.3227  -0.3172  -0.2846
    -0.2515  -0.2428  -0.2300  -0.2104  -0.2038  -0.1868  -0.1802  -0.1596
    -0.1034  -0.0305   0.1259   0.1451   0.2195   0.2833   0.4048   0.4200
     0.4559   0.7639

          k = 0.0000 0.4619 0.0000 ( 51204 PWs)   bands (ev):

   -21.9803  -9.1405  -7.0992  -6.4594  -6.1471  -5.7714  -5.5914  -5.3661
    -5.2217  -5.1410  -5.0952  -4.8202  -4.3211  -4.3075  -4.2877  -4.2457
    -4.1986  -4.1177  -4.1139  -4.0467  -3.9855  -3.9797  -3.9727  -3.8173
    -3.8024  -3.7989  -3.7887  -3.7863  -3.7261  -3.6840  -3.6782  -3.5445
    -3.5147  -3.5060  -3.4894  -3.4712  -3.4652  -3.4267  -3.3597  -3.3544
    -3.3403  -3.3347  -3.2574  -3.2023  -3.1369  -3.0995  -3.0446  -3.0334
    -3.0025  -2.9823  -2.9583  -2.9440  -2.9379  -2.9214  -2.9004  -2.8519
    -2.8422  -2.8193  -2.7899  -2.7783  -2.6508  -2.6416  -2.6185  -2.6112
    -2.5514  -2.5284  -2.5022  -2.4914  -2.4771  -2.4126  -2.3606  -2.3579
    -2.3533  -2.3439  -2.3383  -2.3165  -2.3037  -2.2854  -2.2704  -2.2592
    -2.2298  -2.1948  -2.1773  -2.1560  -2.1340  -2.1022  -2.0630  -2.0375
    -2.0264  -2.0130  -1.9865  -1.9764  -1.9743  -1.9295  -1.9156  -1.9088
    -1.9036  -1.8899  -1.8720  -1.8498  -1.8418  -1.8329  -1.8287  -1.8085
    -1.7911  -1.7596  -1.7343  -1.7272  -1.6594  -1.6409  -1.6246  -1.6213
    -1.6021  -1.5739  -1.5429  -1.5241  -1.5118  -1.4899  -1.4868  -1.4798
    -1.4777  -1.4677  -1.4568  -1.4469  -1.4429  -1.4353  -1.4224  -1.4133
    -1.4070  -1.3527  -1.2908  -1.2855  -1.2663  -1.2485  -1.2242  -1.2168
    -1.1861  -1.1264  -1.1137  -1.1044  -1.0617  -1.0491  -1.0179  -0.9786
    -0.9633  -0.9509  -0.9283  -0.9099  -0.8972  -0.8805  -0.8575  -0.7705
    -0.7468  -0.7406  -0.7214  -0.7089  -0.7023  -0.6945  -0.6890  -0.6784
    -0.6693  -0.6397  -0.5613  -0.5536  -0.5421  -0.5341  -0.5278  -0.5172
    -0.5051  -0.4924  -0.4688  -0.4609  -0.4511  -0.4253  -0.3744  -0.3562
    -0.3496  -0.3294  -0.3142  -0.2558  -0.2504  -0.2243  -0.2179  -0.1757
    -0.1458  -0.1432  -0.1330  -0.1211  -0.1064  -0.1015  -0.0967  -0.0490
    -0.0027   0.0223   0.4949   0.5782   0.9008   1.1068   1.1334   1.3309
     1.4814   1.4916

          k = 0.2000-0.1155 0.0000 ( 51134 PWs)   bands (ev):

   -21.9803  -9.1543  -7.5176  -6.4101  -5.8557  -5.6636  -5.5074  -5.3488
    -5.0794  -5.0468  -4.9866  -4.6066  -4.5073  -4.4750  -4.4635  -4.4075
    -4.3396  -4.2894  -4.2154  -4.1913  -4.1487  -4.0416  -3.8887  -3.7737
    -3.7617  -3.6966  -3.6603  -3.6440  -3.6388  -3.6349  -3.6241  -3.6070
    -3.5791  -3.5413  -3.5157  -3.4941  -3.4891  -3.4224  -3.2814  -3.2668
    -3.2588  -3.2115  -3.2064  -3.1913  -3.1703  -3.1113  -3.0775  -3.0566
    -3.0416  -3.0347  -3.0276  -2.9949  -2.9578  -2.9039  -2.8952  -2.8719
    -2.8299  -2.8232  -2.7987  -2.7939  -2.7703  -2.7322  -2.7277  -2.7194
    -2.6827  -2.5943  -2.3955  -2.3824  -2.3574  -2.3431  -2.3278  -2.2428
    -2.2355  -2.2213  -2.2159  -2.2041  -2.1970  -2.1824  -2.1553  -2.1064
    -2.1029  -2.0859  -2.0688  -2.0355  -2.0302  -2.0231  -2.0090  -2.0009
    -1.9923  -1.9905  -1.9826  -1.9798  -1.9660  -1.9581  -1.9213  -1.8822
    -1.8775  -1.8595  -1.8127  -1.8035  -1.7965  -1.7861  -1.7796  -1.7781
    -1.7681  -1.7591  -1.7525  -1.7428  -1.7408  -1.7209  -1.7013  -1.6902
    -1.6790  -1.6619  -1.6353  -1.5907  -1.5671  -1.5042  -1.4703  -1.4661
    -1.4517  -1.4482  -1.4366  -1.4316  -1.4113  -1.3840  -1.3198  -1.2804
    -1.2439  -1.2023  -1.1871  -1.1728  -1.1486  -1.1179  -1.0939  -1.0787
    -1.0255  -0.9985  -0.9892  -0.9710  -0.9430  -0.9345  -0.9044  -0.8955
    -0.8788  -0.8536  -0.8370  -0.8160  -0.8099  -0.7974  -0.7885  -0.7742
    -0.7163  -0.7092  -0.7029  -0.6981  -0.6753  -0.6546  -0.6401  -0.6336
    -0.6271  -0.6232  -0.6154  -0.6050  -0.5915  -0.5778  -0.5666  -0.5446
    -0.5088  -0.4946  -0.4839  -0.4630  -0.4468  -0.4366  -0.4009  -0.3849
    -0.3743  -0.3644  -0.3557  -0.3502  -0.3321  -0.3237  -0.3169  -0.2777
    -0.2525  -0.2389  -0.2311  -0.2112  -0.2012  -0.1902  -0.1760  -0.1546
    -0.1079  -0.0400   0.1086   0.1432   0.1816   0.2743   0.3883   0.4195
     0.4582   0.8040

          k = 0.2000 0.1155 0.0000 ( 51134 PWs)   bands (ev):

   -21.9803  -9.1537  -7.5183  -6.4114  -5.8770  -5.6561  -5.4589  -5.3867
    -5.0724  -5.0392  -5.0036  -4.5806  -4.5114  -4.4733  -4.4661  -4.4047
    -4.3404  -4.3055  -4.2178  -4.1900  -4.1511  -4.0309  -3.8906  -3.7792
    -3.7530  -3.6909  -3.6536  -3.6452  -3.6398  -3.6375  -3.6251  -3.6176
    -3.5572  -3.5492  -3.5256  -3.4937  -3.4891  -3.4235  -3.2863  -3.2650
    -3.2622  -3.2114  -3.2089  -3.1954  -3.1648  -3.1103  -3.0807  -3.0532
    -3.0392  -3.0364  -3.0274  -3.0024  -2.9542  -2.9045  -2.8951  -2.8714
    -2.8365  -2.8117  -2.8002  -2.7932  -2.7789  -2.7310  -2.7299  -2.7164
    -2.6690  -2.5969  -2.3933  -2.3814  -2.3565  -2.3433  -2.3305  -2.2425
    -2.2362  -2.2283  -2.2136  -2.2056  -2.1980  -2.1850  -2.1367  -2.1085
    -2.1025  -2.0879  -2.0629  -2.0334  -2.0280  -2.0228  -2.0199  -2.0003
    -1.9936  -1.9890  -1.9839  -1.9802  -1.9679  -1.9519  -1.9328  -1.8861
    -1.8723  -1.8587  -1.8138  -1.8068  -1.7980  -1.7876  -1.7809  -1.7763
    -1.7671  -1.7589  -1.7562  -1.7427  -1.7409  -1.7285  -1.6955  -1.6925
    -1.6773  -1.6691  -1.6325  -1.5917  -1.5723  -1.5151  -1.4725  -1.4647
    -1.4528  -1.4450  -1.4368  -1.4313  -1.4134  -1.3737  -1.2970  -1.2851
    -1.2423  -1.2000  -1.1882  -1.1732  -1.1494  -1.1294  -1.0929  -1.0849
    -1.0191  -0.9951  -0.9861  -0.9630  -0.9471  -0.9363  -0.9045  -0.8993
    -0.8769  -0.8547  -0.8387  -0.8171  -0.8117  -0.7979  -0.7928  -0.7742
    -0.7132  -0.7071  -0.7012  -0.6954  -0.6831  -0.6500  -0.6414  -0.6320
    -0.6278  -0.6213  -0.6153  -0.6000  -0.5894  -0.5783  -0.5697  -0.5562
    -0.5074  -0.4868  -0.4794  -0.4647  -0.4523  -0.4393  -0.4000  -0.3845
    -0.3767  -0.3658  -0.3561  -0.3472  -0.3314  -0.3221  -0.3175  -0.2758
    -0.2464  -0.2392  -0.2295  -0.2097  -0.2027  -0.1760  -0.1611  -0.1557
    -0.1055  -0.0631   0.1097   0.1441   0.1806   0.2674   0.3928   0.4162
     0.4529   0.7489

          k = 0.2000 0.3464 0.0000 ( 51202 PWs)   bands (ev):

   -21.9803  -9.1410  -7.2390  -6.2668  -6.0240  -5.9208  -5.6774  -5.4841
    -5.3557  -5.0206  -4.7350  -4.6269  -4.4844  -4.4694  -4.3200  -4.2623
    -4.2540  -4.1636  -4.1571  -4.0621  -4.0312  -3.9929  -3.8900  -3.8661
    -3.8170  -3.7706  -3.6792  -3.6639  -3.6397  -3.6285  -3.6205  -3.6146
    -3.5814  -3.5736  -3.5339  -3.5098  -3.4706  -3.4337  -3.4287  -3.3791
    -3.2900  -3.2304  -3.2066  -3.1857  -3.1619  -3.1474  -3.0929  -3.0462
    -3.0085  -2.9861  -2.9706  -2.9543  -2.9408  -2.9102  -2.9028  -2.8768
    -2.8629  -2.8385  -2.7509  -2.7173  -2.6820  -2.6612  -2.6495  -2.6299
    -2.6029  -2.5593  -2.4946  -2.4277  -2.4129  -2.3842  -2.3697  -2.3379
    -2.3248  -2.3156  -2.3089  -2.2859  -2.2722  -2.2578  -2.2464  -2.2410
    -2.2318  -2.1813  -2.1554  -2.1147  -2.0624  -2.0571  -2.0328  -2.0189
    -2.0121  -1.9888  -1.9618  -1.9539  -1.9427  -1.9194  -1.9017  -1.9005
    -1.8931  -1.8816  -1.8760  -1.8568  -1.8474  -1.8378  -1.8245  -1.8131
    -1.7970  -1.7856  -1.7585  -1.7181  -1.7102  -1.6713  -1.6658  -1.6627
    -1.6536  -1.6398  -1.6075  -1.5746  -1.5580  -1.5502  -1.5334  -1.5007
    -1.4973  -1.4872  -1.4729  -1.4557  -1.4346  -1.4262  -1.4148  -1.3665
    -1.3524  -1.3260  -1.3085  -1.2378  -1.2157  -1.1860  -1.1694  -1.0956
    -1.0719  -1.0506  -1.0410  -1.0344  -1.0291  -1.0219  -0.9927  -0.9853
    -0.9696  -0.9568  -0.9337  -0.8944  -0.8872  -0.8651  -0.8542  -0.8410
    -0.8161  -0.7980  -0.7847  -0.7704  -0.7594  -0.7444  -0.6269  -0.6038
    -0.6007  -0.5799  -0.5649  -0.5534  -0.5391  -0.5302  -0.5125  -0.5061
    -0.4871  -0.4636  -0.4353  -0.4258  -0.4035  -0.3916  -0.3538  -0.3371
    -0.3271  -0.3251  -0.3204  -0.2959  -0.2864  -0.2781  -0.2732  -0.2583
    -0.2454  -0.1718  -0.1574  -0.1540  -0.1100  -0.1043  -0.0894   0.0370
     0.1521   0.2381   0.2618   0.4285   0.5281   0.6449   1.0097   1.1282
     1.2399   1.4314

          k = 0.2000-0.5774 0.0000 ( 51262 PWs)   bands (ev):

   -21.9803  -9.1339  -6.7245  -6.6778  -6.1372  -6.0126  -5.6955  -5.5266
    -5.2427  -5.1968  -4.8795  -4.6496  -4.4650  -4.2273  -4.1776  -4.0749
    -4.0480  -4.0368  -4.0173  -4.0129  -3.9628  -3.9455  -3.9344  -3.9331
    -3.9070  -3.8520  -3.7865  -3.7796  -3.7583  -3.7549  -3.7061  -3.6110
    -3.6013  -3.5944  -3.5716  -3.5203  -3.4623  -3.4397  -3.3704  -3.3085
    -3.3013  -3.2503  -3.2218  -3.2028  -3.1759  -3.1231  -3.0899  -3.0833
    -3.0455  -3.0222  -2.9958  -2.9284  -2.8940  -2.8657  -2.8567  -2.8145
    -2.8043  -2.7287  -2.7217  -2.7098  -2.6988  -2.6880  -2.6648  -2.6429
    -2.5603  -2.5140  -2.5010  -2.4860  -2.4595  -2.4277  -2.4074  -2.3638
    -2.3601  -2.3195  -2.3102  -2.3072  -2.2976  -2.2775  -2.2516  -2.2495
    -2.2310  -2.2214  -2.2033  -2.1772  -2.1748  -2.1435  -2.0997  -2.0841
    -2.0667  -2.0322  -2.0069  -1.9820  -1.9622  -1.9383  -1.9266  -1.9158
    -1.8988  -1.8878  -1.8815  -1.8722  -1.8595  -1.8357  -1.8310  -1.7963
    -1.7663  -1.7436  -1.7346  -1.7251  -1.7070  -1.7015  -1.6950  -1.6837
    -1.6732  -1.6679  -1.6505  -1.6186  -1.5861  -1.5757  -1.5556  -1.5365
    -1.4810  -1.4774  -1.4526  -1.4356  -1.4208  -1.4091  -1.3953  -1.3748
    -1.3404  -1.3236  -1.2992  -1.2678  -1.2110  -1.1850  -1.1771  -1.1568
    -1.1429  -1.1304  -1.1223  -1.0911  -1.0732  -1.0571  -1.0422  -1.0291
    -0.9816  -0.9653  -0.9500  -0.9424  -0.9277  -0.8793  -0.8701  -0.8523
    -0.8476  -0.8291  -0.8231  -0.8056  -0.7787  -0.7617  -0.7311  -0.5919
    -0.5707  -0.5665  -0.5541  -0.5396  -0.5338  -0.5240  -0.5122  -0.4877
    -0.4703  -0.4567  -0.4484  -0.4412  -0.3983  -0.3500  -0.3282  -0.3213
    -0.3100  -0.2989  -0.2810  -0.2691  -0.2332  -0.2254  -0.2190  -0.2068
    -0.2016  -0.1340  -0.1285  -0.1201  -0.1087  -0.0978  -0.0769  -0.0450
     0.1302   0.2530   0.4832   0.8715   1.0913   1.1769   1.2858   1.5170
     1.6775   1.7253

          k = 0.2000-0.3464 0.0000 ( 51202 PWs)   bands (ev):

   -21.9803  -9.1419  -7.2371  -6.2693  -5.9921  -5.9297  -5.6786  -5.5234
    -5.3411  -5.0080  -4.7074  -4.6783  -4.4804  -4.4688  -4.3141  -4.2638
    -4.2551  -4.1631  -4.1581  -4.0497  -4.0253  -4.0130  -3.8926  -3.8681
    -3.8192  -3.7719  -3.6778  -3.6603  -3.6520  -3.6307  -3.6235  -3.6007
    -3.5816  -3.5750  -3.5361  -3.5103  -3.4721  -3.4296  -3.4180  -3.3847
    -3.2925  -3.2274  -3.2062  -3.1854  -3.1640  -3.1407  -3.0755  -3.0464
    -2.9995  -2.9966  -2.9671  -2.9529  -2.9476  -2.9147  -2.8943  -2.8785
    -2.8590  -2.8400  -2.7498  -2.7286  -2.6845  -2.6678  -2.6444  -2.6289
    -2.6072  -2.5600  -2.4926  -2.4296  -2.4034  -2.3848  -2.3695  -2.3380
    -2.3277  -2.3150  -2.3093  -2.2828  -2.2703  -2.2570  -2.2466  -2.2394
    -2.2302  -2.1865  -2.1546  -2.1326  -2.0640  -2.0584  -2.0324  -2.0185
    -2.0113  -1.9872  -1.9683  -1.9518  -1.9349  -1.9199  -1.9032  -1.8993
    -1.8913  -1.8824  -1.8741  -1.8562  -1.8457  -1.8398  -1.8209  -1.8060
    -1.7968  -1.7923  -1.7678  -1.7164  -1.7125  -1.6769  -1.6660  -1.6577
    -1.6547  -1.6349  -1.5891  -1.5810  -1.5622  -1.5361  -1.5206  -1.5051
    -1.4937  -1.4880  -1.4794  -1.4559  -1.4393  -1.4251  -1.4170  -1.3638
    -1.3533  -1.3171  -1.3039  -1.2497  -1.2128  -1.1805  -1.1618  -1.0986
    -1.0766  -1.0532  -1.0416  -1.0383  -1.0317  -1.0223  -0.9937  -0.9845
    -0.9691  -0.9620  -0.9382  -0.8960  -0.8838  -0.8720  -0.8516  -0.8383
    -0.8157  -0.7982  -0.7779  -0.7700  -0.7572  -0.7464  -0.6233  -0.6142
    -0.5943  -0.5799  -0.5639  -0.5530  -0.5465  -0.5267  -0.5218  -0.5013
    -0.4893  -0.4651  -0.4316  -0.4190  -0.4046  -0.3929  -0.3577  -0.3358
    -0.3286  -0.3238  -0.3194  -0.2967  -0.2880  -0.2790  -0.2711  -0.2588
    -0.2471  -0.1730  -0.1599  -0.1544  -0.1101  -0.1061  -0.0988   0.0510
     0.1363   0.2380   0.2551   0.4557   0.5170   0.6403   1.0283   1.1292
     1.2425   1.3871

          k = 0.4000-0.2309 0.0000 ( 51204 PWs)   bands (ev):

   -21.9803  -9.1358  -7.1041  -6.4618  -6.1530  -5.8377  -5.5313  -5.3720
    -5.1957  -5.1475  -5.0794  -4.8340  -4.3448  -4.3111  -4.2753  -4.2358
    -4.1932  -4.1190  -4.1144  -4.0193  -3.9862  -3.9803  -3.9500  -3.8226
    -3.8023  -3.7922  -3.7893  -3.7855  -3.7150  -3.6869  -3.6778  -3.6131
    -3.5176  -3.5090  -3.4937  -3.4729  -3.4626  -3.4248  -3.3627  -3.3541
    -3.3427  -3.3312  -3.3023  -3.2140  -3.1282  -3.1011  -3.0361  -3.0218
    -2.9992  -2.9786  -2.9585  -2.9450  -2.9346  -2.9246  -2.9043  -2.8575
    -2.8438  -2.8227  -2.7815  -2.7535  -2.6506  -2.6351  -2.6154  -2.5895
    -2.5577  -2.5275  -2.5053  -2.4898  -2.4805  -2.4170  -2.3603  -2.3584
    -2.3565  -2.3435  -2.3343  -2.3141  -2.3018  -2.2930  -2.2703  -2.2407
    -2.2285  -2.1983  -2.1797  -2.1542  -2.1277  -2.1189  -2.0622  -2.0449
    -2.0279  -2.0156  -1.9975  -1.9705  -1.9654  -1.9249  -1.9165  -1.9061
    -1.9009  -1.8804  -1.8714  -1.8509  -1.8441  -1.8411  -1.8321  -1.7993
    -1.7863  -1.7477  -1.7372  -1.7254  -1.6615  -1.6441  -1.6187  -1.6072
    -1.5903  -1.5715  -1.5575  -1.5155  -1.5099  -1.4954  -1.4919  -1.4826
    -1.4712  -1.4665  -1.4606  -1.4515  -1.4429  -1.4331  -1.4140  -1.4042
    -1.3859  -1.3682  -1.3113  -1.2750  -1.2629  -1.2526  -1.2298  -1.2052
    -1.1873  -1.1401  -1.1134  -1.1014  -1.0740  -1.0645  -1.0265  -1.0045
    -0.9829  -0.9481  -0.9306  -0.9189  -0.8926  -0.8646  -0.8373  -0.7921
    -0.7513  -0.7266  -0.7148  -0.7026  -0.6992  -0.6915  -0.6846  -0.6744
    -0.6574  -0.6387  -0.5573  -0.5492  -0.5433  -0.5310  -0.5211  -0.5061
    -0.5000  -0.4812  -0.4725  -0.4664  -0.4471  -0.4269  -0.3660  -0.3537
    -0.3408  -0.3314  -0.3053  -0.2580  -0.2512  -0.2216  -0.2151  -0.1766
    -0.1478  -0.1358  -0.1285  -0.1115  -0.1063  -0.1030  -0.0952  -0.0524
    -0.0025   0.0180   0.4088   0.5979   0.9269   1.0819   1.1260   1.2555
     1.4676   1.5117

          k = 0.4000 0.0000 0.0000 ( 51202 PWs)   bands (ev):

   -21.9803  -9.1381  -7.2419  -6.2601  -6.0610  -5.9151  -5.6774  -5.4577
    -5.3688  -4.9965  -4.7658  -4.5948  -4.4837  -4.4818  -4.3201  -4.2648
    -4.2480  -4.1635  -4.1572  -4.0900  -4.0322  -3.9333  -3.8918  -3.8701
    -3.8127  -3.7736  -3.6817  -3.6743  -3.6394  -3.6327  -3.6234  -3.6078
    -3.5814  -3.5715  -3.5483  -3.5167  -3.4696  -3.4483  -3.4342  -3.3825
    -3.2989  -3.2516  -3.2066  -3.1767  -3.1582  -3.1482  -3.0925  -3.0454
    -3.0151  -2.9749  -2.9710  -2.9590  -2.9341  -2.9095  -2.8922  -2.8822
    -2.8658  -2.8410  -2.7592  -2.6924  -2.6836  -2.6599  -2.6366  -2.6222
    -2.6079  -2.5520  -2.4980  -2.4263  -2.4065  -2.3833  -2.3711  -2.3413
    -2.3263  -2.3172  -2.3107  -2.2926  -2.2691  -2.2590  -2.2520  -2.2396
    -2.2138  -2.1852  -2.1609  -2.1053  -2.0633  -2.0536  -2.0446  -2.0250
    -2.0066  -1.9881  -1.9584  -1.9512  -1.9444  -1.9186  -1.8987  -1.8929
    -1.8866  -1.8851  -1.8766  -1.8570  -1.8536  -1.8359  -1.8197  -1.8143
    -1.7932  -1.7648  -1.7415  -1.7179  -1.7098  -1.6841  -1.6657  -1.6603
    -1.6483  -1.6346  -1.6165  -1.5812  -1.5604  -1.5521  -1.5273  -1.5094
    -1.4993  -1.4891  -1.4767  -1.4661  -1.4474  -1.4323  -1.4165  -1.3646
    -1.3489  -1.3310  -1.3229  -1.2214  -1.2070  -1.1892  -1.1732  -1.1015
    -1.0609  -1.0573  -1.0518  -1.0416  -1.0279  -1.0177  -0.9971  -0.9933
    -0.9740  -0.9482  -0.9334  -0.8913  -0.8729  -0.8605  -0.8535  -0.8389
    -0.8083  -0.8013  -0.7865  -0.7748  -0.7622  -0.7451  -0.6249  -0.6070
    -0.5832  -0.5741  -0.5648  -0.5519  -0.5419  -0.5251  -0.5184  -0.5115
    -0.4890  -0.4649  -0.4400  -0.4241  -0.4034  -0.3853  -0.3449  -0.3336
    -0.3276  -0.3239  -0.3175  -0.2966  -0.2866  -0.2795  -0.2746  -0.2535
    -0.2461  -0.1683  -0.1589  -0.1557  -0.1136  -0.1112  -0.0797   0.0409
     0.2155   0.2359   0.2792   0.3607   0.5395   0.6220   0.9278   1.1310
     1.2266   1.4397

          k = 0.4000 0.2309 0.0000 ( 51204 PWs)   bands (ev):

   -21.9803  -9.1344  -7.1072  -6.4653  -6.1605  -5.8634  -5.4644  -5.3973
    -5.1973  -5.1470  -5.0746  -4.8363  -4.3459  -4.3060  -4.2915  -4.2348
    -4.1869  -4.1196  -4.1156  -4.0079  -3.9862  -3.9802  -3.9173  -3.8307
    -3.8015  -3.7918  -3.7889  -3.7835  -3.6975  -3.6855  -3.6676  -3.6560
    -3.5194  -3.5156  -3.5017  -3.4726  -3.4692  -3.4192  -3.3616  -3.3560
    -3.3423  -3.3318  -3.3020  -3.2151  -3.1327  -3.0921  -3.0392  -3.0152
    -3.0039  -2.9741  -2.9588  -2.9548  -2.9420  -2.9194  -2.8916  -2.8590
    -2.8464  -2.8242  -2.7905  -2.7397  -2.6451  -2.6355  -2.6213  -2.5879
    -2.5619  -2.5247  -2.5021  -2.4990  -2.4847  -2.4161  -2.3626  -2.3584
    -2.3535  -2.3463  -2.3325  -2.3162  -2.3007  -2.2950  -2.2698  -2.2331
    -2.2191  -2.1999  -2.1832  -2.1659  -2.1250  -2.1089  -2.0616  -2.0434
    -2.0303  -2.0176  -1.9996  -1.9814  -1.9591  -1.9249  -1.9183  -1.9076
    -1.8957  -1.8844  -1.8699  -1.8585  -1.8462  -1.8381  -1.8311  -1.8017
    -1.7873  -1.7670  -1.7367  -1.7243  -1.6613  -1.6472  -1.6185  -1.6055
    -1.5851  -1.5718  -1.5507  -1.5121  -1.5092  -1.4993  -1.4915  -1.4843
    -1.4765  -1.4688  -1.4566  -1.4521  -1.4442  -1.4309  -1.4059  -1.3981
    -1.3831  -1.3710  -1.3253  -1.2755  -1.2597  -1.2480  -1.2290  -1.2054
    -1.1864  -1.1379  -1.1161  -1.1001  -1.0820  -1.0551  -1.0408  -1.0030
    -0.9799  -0.9498  -0.9287  -0.9213  -0.8905  -0.8636  -0.8411  -0.8008
    -0.7337  -0.7251  -0.7113  -0.7029  -0.6988  -0.6875  -0.6801  -0.6693
    -0.6625  -0.6568  -0.5568  -0.5500  -0.5447  -0.5306  -0.5211  -0.5009
    -0.4928  -0.4883  -0.4717  -0.4616  -0.4461  -0.4275  -0.3650  -0.3501
    -0.3434  -0.3328  -0.2990  -0.2540  -0.2533  -0.2170  -0.2149  -0.1756
    -0.1510  -0.1347  -0.1307  -0.1088  -0.1064  -0.1011  -0.0820  -0.0604
    -0.0026   0.0198   0.3926   0.6554   0.8833   1.0362   1.1320   1.2077
     1.4780   1.5449

          k = 0.4000-0.6928 0.0000 ( 51262 PWs)   bands (ev):

   -21.9803  -9.1301  -6.7504  -6.6649  -6.1530  -5.9360  -5.8574  -5.4113
    -5.2096  -5.1886  -4.9402  -4.6472  -4.4629  -4.2242  -4.1790  -4.0517
    -4.0466  -4.0232  -4.0154  -3.9916  -3.9626  -3.9392  -3.9344  -3.9297
    -3.9157  -3.8106  -3.7917  -3.7832  -3.7651  -3.7487  -3.7321  -3.6247
    -3.6009  -3.5959  -3.5805  -3.5578  -3.4970  -3.4387  -3.3405  -3.3080
    -3.3046  -3.2812  -3.2108  -3.2012  -3.1741  -3.1282  -3.0899  -3.0877
    -3.0648  -3.0059  -2.9958  -2.9251  -2.8940  -2.8678  -2.8581  -2.8063
    -2.7873  -2.7297  -2.7221  -2.7154  -2.7029  -2.6950  -2.6463  -2.6290
    -2.5548  -2.5094  -2.5017  -2.4853  -2.4737  -2.4365  -2.4172  -2.3618
    -2.3528  -2.3223  -2.3158  -2.3008  -2.2935  -2.2707  -2.2517  -2.2397
    -2.2247  -2.2147  -2.1880  -2.1830  -2.1722  -2.1537  -2.1084  -2.0912
    -2.0768  -2.0518  -2.0090  -1.9744  -1.9584  -1.9371  -1.9238  -1.9165
    -1.8969  -1.8896  -1.8845  -1.8625  -1.8462  -1.8408  -1.8279  -1.7678
    -1.7516  -1.7445  -1.7321  -1.7183  -1.7069  -1.7036  -1.6906  -1.6860
    -1.6804  -1.6719  -1.6497  -1.6424  -1.5922  -1.5709  -1.5646  -1.5326
    -1.5056  -1.4825  -1.4610  -1.4295  -1.4159  -1.4068  -1.3950  -1.3776
    -1.3312  -1.3281  -1.3004  -1.2518  -1.2005  -1.1928  -1.1811  -1.1592
    -1.1394  -1.1261  -1.1187  -1.0973  -1.0886  -1.0641  -1.0426  -1.0163
    -0.9816  -0.9755  -0.9521  -0.9339  -0.9239  -0.8857  -0.8709  -0.8662
    -0.8448  -0.8310  -0.8140  -0.7992  -0.7761  -0.7641  -0.7373  -0.5812
    -0.5680  -0.5604  -0.5524  -0.5422  -0.5385  -0.5213  -0.5145  -0.4787
    -0.4699  -0.4599  -0.4561  -0.4354  -0.3883  -0.3345  -0.3281  -0.3167
    -0.3089  -0.2947  -0.2787  -0.2451  -0.2355  -0.2267  -0.2181  -0.2091
    -0.2007  -0.1826  -0.1282  -0.1220  -0.1082  -0.0993  -0.0757  -0.0434
     0.1510   0.2729   0.5624   0.7872   0.9952   1.1804   1.2333   1.5760
     1.6832   1.7191

          k = 0.4000-0.4619 0.0000 ( 51262 PWs)   bands (ev):

   -21.9803  -9.1310  -6.7424  -6.6665  -6.1504  -5.9792  -5.7841  -5.4552
    -5.2277  -5.1922  -4.9078  -4.6475  -4.4629  -4.2235  -4.1805  -4.0557
    -4.0463  -4.0331  -4.0176  -4.0069  -3.9593  -3.9406  -3.9346  -3.9319
    -3.9133  -3.8365  -3.7877  -3.7824  -3.7602  -3.7552  -3.7105  -3.6181
    -3.6015  -3.5935  -3.5734  -3.5467  -3.4950  -3.4441  -3.3461  -3.3073
    -3.3008  -3.2854  -3.2165  -3.2004  -3.1740  -3.1227  -3.0900  -3.0845
    -3.0534  -3.0174  -2.9903  -2.9250  -2.8966  -2.8736  -2.8527  -2.8108
    -2.7877  -2.7288  -2.7241  -2.7142  -2.7012  -2.6907  -2.6611  -2.6144
    -2.5578  -2.5079  -2.4994  -2.4909  -2.4661  -2.4285  -2.4197  -2.3641
    -2.3559  -2.3215  -2.3103  -2.3033  -2.2940  -2.2733  -2.2548  -2.2438
    -2.2253  -2.2189  -2.2015  -2.1790  -2.1720  -2.1336  -2.1028  -2.0911
    -2.0792  -2.0564  -2.0050  -1.9771  -1.9560  -1.9351  -1.9251  -1.9171
    -1.8968  -1.8886  -1.8786  -1.8701  -1.8516  -1.8342  -1.8265  -1.7718
    -1.7622  -1.7417  -1.7318  -1.7274  -1.7084  -1.7032  -1.6963  -1.6838
    -1.6786  -1.6718  -1.6472  -1.6318  -1.5903  -1.5721  -1.5615  -1.5189
    -1.4973  -1.4856  -1.4691  -1.4285  -1.4165  -1.4043  -1.3980  -1.3728
    -1.3326  -1.3279  -1.3062  -1.2474  -1.2012  -1.1966  -1.1755  -1.1620
    -1.1348  -1.1264  -1.1203  -1.1026  -1.0812  -1.0617  -1.0481  -1.0232
    -0.9816  -0.9789  -0.9538  -0.9369  -0.9208  -0.8839  -0.8676  -0.8585
    -0.8468  -0.8286  -0.8212  -0.8005  -0.7760  -0.7597  -0.7392  -0.5849
    -0.5671  -0.5578  -0.5487  -0.5442  -0.5320  -0.5255  -0.5133  -0.4797
    -0.4730  -0.4647  -0.4530  -0.4363  -0.3893  -0.3421  -0.3274  -0.3203
    -0.3055  -0.2949  -0.2827  -0.2640  -0.2371  -0.2248  -0.2193  -0.2042
    -0.1940  -0.1654  -0.1265  -0.1221  -0.1092  -0.0972  -0.0757  -0.0457
     0.1413   0.2680   0.5185   0.8786   0.9734   1.1799   1.2433   1.5542
     1.6667   1.7287

 ------ SPIN DOWN ----------


          k = 0.0000 0.0000 0.0000 ( 51087 PWs)   bands (ev):

   -22.0657  -9.2481  -7.7912  -6.5795  -5.8109  -5.6431  -5.4223  -4.9640
    -4.6369  -4.6250  -4.6231  -4.5985  -4.5902  -4.5719  -4.1988  -3.7553
    -3.7534  -3.7356  -3.7249  -3.7120  -3.6629  -3.3201  -2.8180  -2.8082
    -2.7973  -2.7945  -2.7245  -2.5844  -2.3530  -2.3405  -2.3353  -2.3308
    -2.3101  -2.2207  -2.1414  -2.1371  -2.0702  -2.0526  -2.0416  -2.0405
    -1.9579  -1.9526  -1.9063  -1.9024  -1.8431  -1.8187  -1.8041  -1.7944
    -1.7561  -1.7322  -1.5574  -1.5505  -1.5366  -1.5306  -1.5205  -1.5175
    -1.5029  -1.5018  -1.4716  -1.4618  -1.4334  -1.4278  -1.4247  -1.4230
    -1.3564  -1.2530  -0.9092  -0.8737  -0.8474  -0.8444  -0.7980  -0.7401
    -0.6513  -0.6348  -0.5463  -0.5356  -0.5271  -0.5197  -0.5083  -0.4927
    -0.4726  -0.4648  -0.4419  -0.4368  -0.4278  -0.4272  -0.3813  -0.3673
    -0.3595  -0.3307  -0.3174  -0.3026  -0.2882  -0.2852  -0.2687  -0.2659
    -0.2597  -0.2529  -0.2426  -0.2383  -0.2372  -0.2350  -0.2061  -0.1547
    -0.1342  -0.1186  -0.1026  -0.0654  -0.0348  -0.0215  -0.0118  -0.0084
    -0.0063  -0.0037   0.0024   0.0566   0.0708   0.0719   0.1202   0.1464
     0.1574   0.1641   0.1725   0.2067   0.2534   0.3812   0.3918   0.4423
     0.4521   0.4647   0.4712   0.4786   0.6104   0.6799   0.7655   0.7976
     0.8151   0.8586   0.9807   1.0041   1.0221   1.0314   1.0407   1.0464
     1.0903   1.1630   1.1891   1.2083   1.2129   1.2216   1.2290   1.2522
     1.2594   1.2713   1.2821   1.3002   1.3144   1.3227   1.3264   1.3592
     1.3613   1.3706   1.3747   1.3862   1.4097   1.4277   1.4320   1.4410
     1.4544   1.4586   1.4751   1.4868   1.4902   1.5010   1.5044   1.5377
     1.5470   1.5630   1.5650   1.5711   1.5783   1.5842   1.5915   1.6284
     1.6348   1.6351   1.6387   1.6431   1.6464   1.6575   1.6658   1.6721
     1.6745   1.7201   1.7208   1.8628   1.8688   1.8707   1.8754   1.8773
     1.8789   2.0591

          k = 0.0000 0.2309 0.0000 ( 51134 PWs)   bands (ev):

   -22.0657  -9.2382  -7.6490  -6.4761  -5.8536  -5.6778  -5.5483  -5.3859
    -5.0394  -4.9767  -4.8388  -4.4617  -4.1020  -4.0738  -4.0527  -3.9480
    -3.8534  -3.7636  -3.4529  -3.3998  -3.3786  -3.2519  -2.9282  -2.8065
    -2.7733  -2.7194  -2.6815  -2.6114  -2.4331  -2.3729  -2.3694  -2.3501
    -2.3283  -2.2866  -2.2823  -2.2763  -2.2309  -2.2022  -2.1049  -2.0983
    -2.0142  -2.0111  -1.9480  -1.8740  -1.8355  -1.8205  -1.8132  -1.7059
    -1.6781  -1.6570  -1.6062  -1.5770  -1.5556  -1.5354  -1.5271  -1.5174
    -1.5087  -1.5012  -1.4106  -1.3986  -1.3849  -1.3685  -1.3297  -1.2873
    -1.2436  -1.1502  -0.9679  -0.9257  -0.8987  -0.8950  -0.8357  -0.7952
    -0.7361  -0.7112  -0.6859  -0.6428  -0.6220  -0.5753  -0.5562  -0.5447
    -0.5102  -0.4991  -0.4860  -0.4814  -0.4699  -0.4450  -0.4150  -0.3865
    -0.3590  -0.3177  -0.3141  -0.3073  -0.2950  -0.2734  -0.2547  -0.2432
    -0.2354  -0.2332  -0.2255  -0.2177  -0.2146  -0.2132  -0.1809  -0.1639
    -0.1471  -0.1322  -0.1201  -0.1077  -0.0853  -0.0721  -0.0567  -0.0333
    -0.0271   0.0010   0.0236   0.0505   0.0957   0.1061   0.1214   0.1378
     0.2288   0.2561   0.2921   0.3451   0.3618   0.3646   0.4212   0.4270
     0.4345   0.4423   0.4495   0.4538   0.5911   0.6977   0.7703   0.7822
     0.7904   0.7933   0.8120   0.8203   0.8778   0.8877   0.9368   0.9617
     1.0079   1.0288   1.0555   1.0680   1.0934   1.1123   1.1393   1.1968
     1.2104   1.2303   1.2458   1.2572   1.2766   1.2833   1.3253   1.3325
     1.3539   1.3735   1.4119   1.4205   1.4374   1.4466   1.4673   1.4783
     1.5126   1.5270   1.5293   1.5324   1.5609   1.6142   1.6175   1.6276
     1.6315   1.6569   1.6592   1.6886   1.6937   1.7016   1.7091   1.7146
     1.7368   1.7788   1.7837   1.7972   1.8005   1.8105   1.8221   1.8382
     1.8594   1.8637   1.8672   1.9047   1.9588   1.9714   1.9723   2.0263
     2.0541   2.1159

          k = 0.0000 0.4619 0.0000 ( 51204 PWs)   bands (ev):

   -22.0657  -9.2226  -7.2263  -6.5586  -6.1979  -5.7899  -5.6440  -5.3967
    -5.2393  -5.1514  -5.0789  -4.6638  -4.1050  -4.0254  -3.8449  -3.4603
    -3.4539  -3.3933  -3.3314  -3.1645  -3.0509  -3.0130  -2.9954  -2.8590
    -2.8539  -2.7932  -2.7440  -2.7079  -2.6341  -2.6165  -2.6099  -2.5513
    -2.5428  -2.3730  -2.3331  -2.3106  -2.2424  -2.2273  -2.1271  -2.1194
    -2.1023  -2.0899  -2.0412  -1.8483  -1.8223  -1.7988  -1.7760  -1.7510
    -1.6031  -1.5964  -1.5822  -1.5707  -1.5566  -1.5331  -1.5279  -1.5058
    -1.4918  -1.4196  -1.4091  -1.3915  -1.3744  -1.3576  -1.2063  -1.1792
    -1.0778  -1.0403  -0.9471  -0.9226  -0.9070  -0.8791  -0.8623  -0.8559
    -0.8363  -0.8179  -0.7938  -0.7727  -0.7225  -0.6906  -0.6677  -0.6407
    -0.6228  -0.6036  -0.5788  -0.5716  -0.5364  -0.5133  -0.4658  -0.4102
    -0.3860  -0.3720  -0.3471  -0.3316  -0.3056  -0.2880  -0.2614  -0.2375
    -0.2112  -0.2009  -0.1899  -0.1813  -0.1637  -0.1621  -0.1246  -0.1096
    -0.0997  -0.0822  -0.0706  -0.0609  -0.0532  -0.0389  -0.0269  -0.0066
     0.0024   0.0263   0.0576   0.1005   0.1456   0.1470   0.1679   0.2079
     0.2103   0.2228   0.2484   0.2718   0.3114   0.3225   0.3348   0.3504
     0.3857   0.4070   0.4173   0.4240   0.4635   0.5300   0.5877   0.5960
     0.6667   0.6880   0.7429   0.7767   0.8318   0.8524   0.8708   0.8873
     0.9132   0.9221   0.9389   0.9787   0.9906   1.0531   1.1684   1.1760
     1.1881   1.2152   1.2341   1.2448   1.2914   1.3076   1.3353   1.3476
     1.3712   1.3847   1.3993   1.4622   1.4750   1.4833   1.5360   1.5428
     1.5525   1.5562   1.5754   1.5919   1.6157   1.6279   1.6373   1.6632
     1.6711   1.7230   1.7431   1.7740   1.7853   1.8008   1.8112   1.8283
     1.8318   1.8610   1.8649   1.8798   1.8948   1.9023   1.9119   1.9141
     1.9595   2.0169   2.0494   2.1108   2.1223   2.2017   2.5510   2.6313
     2.6508   2.7040

          k = 0.2000-0.1155 0.0000 ( 51134 PWs)   bands (ev):

   -22.0657  -9.2366  -7.6501  -6.4775  -5.8786  -5.6746  -5.5280  -5.3887
    -5.0242  -4.9849  -4.8499  -4.4094  -4.1818  -4.0718  -4.0582  -3.9297
    -3.8213  -3.7762  -3.4709  -3.3967  -3.3227  -3.2580  -2.9741  -2.7890
    -2.7697  -2.7417  -2.6839  -2.5810  -2.4561  -2.3713  -2.3680  -2.3581
    -2.3245  -2.2925  -2.2839  -2.2820  -2.2329  -2.1866  -2.1018  -2.0991
    -2.0151  -2.0125  -1.9684  -1.8496  -1.8338  -1.8194  -1.8003  -1.7092
    -1.6767  -1.6524  -1.6094  -1.5720  -1.5608  -1.5356  -1.5247  -1.5209
    -1.5021  -1.4924  -1.4172  -1.3970  -1.3841  -1.3632  -1.3337  -1.2959
    -1.2371  -1.1583  -0.9643  -0.9181  -0.9014  -0.8933  -0.8406  -0.7767
    -0.7704  -0.7187  -0.6842  -0.6421  -0.6231  -0.5812  -0.5520  -0.5418
    -0.5090  -0.5010  -0.4810  -0.4710  -0.4661  -0.4528  -0.4302  -0.3839
    -0.3453  -0.3253  -0.3149  -0.3123  -0.3070  -0.2691  -0.2583  -0.2465
    -0.2372  -0.2264  -0.2231  -0.2171  -0.2139  -0.2115  -0.1870  -0.1642
    -0.1378  -0.1316  -0.1118  -0.1066  -0.1001  -0.0838  -0.0595  -0.0346
    -0.0176  -0.0055   0.0345   0.0645   0.0902   0.1075   0.1115   0.1381
     0.2369   0.2645   0.2968   0.3434   0.3612   0.3712   0.4093   0.4289
     0.4342   0.4403   0.4494   0.4577   0.5848   0.7062   0.7617   0.7784
     0.7910   0.8017   0.8140   0.8294   0.8685   0.8861   0.9383   0.9659
     1.0118   1.0318   1.0585   1.0864   1.0994   1.1214   1.1423   1.1435
     1.2124   1.2322   1.2509   1.2607   1.2731   1.2874   1.3250   1.3332
     1.3491   1.3669   1.4065   1.4259   1.4408   1.4466   1.4718   1.4980
     1.5164   1.5254   1.5312   1.5347   1.5549   1.6024   1.6146   1.6227
     1.6277   1.6533   1.6599   1.6896   1.6975   1.7033   1.7103   1.7181
     1.7355   1.7804   1.7846   1.7996   1.8012   1.8101   1.8203   1.8390
     1.8529   1.8617   1.8671   1.8890   1.9575   1.9705   1.9747   2.0326
     2.0505   2.1055

          k = 0.2000 0.1155 0.0000 ( 51134 PWs)   bands (ev):

   -22.0657  -9.2361  -7.6507  -6.4789  -5.9000  -5.6632  -5.4893  -5.4168
    -5.0175  -4.9841  -4.8668  -4.3609  -4.1998  -4.0752  -4.0584  -3.9626
    -3.8081  -3.7750  -3.4731  -3.4042  -3.3052  -3.2430  -2.9816  -2.8171
    -2.7655  -2.7260  -2.7016  -2.5574  -2.4624  -2.3744  -2.3660  -2.3507
    -2.3344  -2.2992  -2.2856  -2.2807  -2.2442  -2.1708  -2.1007  -2.0986
    -2.0156  -2.0129  -1.9666  -1.8643  -1.8221  -1.8163  -1.7977  -1.6993
    -1.6853  -1.6602  -1.6001  -1.5865  -1.5580  -1.5359  -1.5215  -1.5167
    -1.5134  -1.4678  -1.4356  -1.3925  -1.3838  -1.3631  -1.3337  -1.2933
    -1.2345  -1.1648  -0.9684  -0.9232  -0.9023  -0.8879  -0.8336  -0.8095
    -0.7749  -0.6910  -0.6715  -0.6484  -0.6324  -0.5797  -0.5618  -0.5337
    -0.5123  -0.4987  -0.4822  -0.4726  -0.4686  -0.4494  -0.4398  -0.3711
    -0.3436  -0.3240  -0.3164  -0.3112  -0.3029  -0.2650  -0.2527  -0.2454
    -0.2399  -0.2283  -0.2225  -0.2201  -0.2144  -0.2130  -0.1818  -0.1651
    -0.1457  -0.1305  -0.1129  -0.1084  -0.1009  -0.0782  -0.0589  -0.0426
    -0.0177   0.0017   0.0407   0.0741   0.0828   0.1077   0.1083   0.1382
     0.2124   0.2784   0.3039   0.3383   0.3538   0.3786   0.4099   0.4218
     0.4373   0.4398   0.4529   0.4580   0.6180   0.6826   0.7624   0.7775
     0.7938   0.7997   0.8159   0.8291   0.8634   0.8854   0.9389   0.9602
     0.9824   1.0481   1.0651   1.0820   1.1000   1.1277   1.1399   1.1477
     1.2093   1.2390   1.2500   1.2668   1.2808   1.2820   1.3233   1.3325
     1.3456   1.3727   1.4115   1.4293   1.4362   1.4474   1.4690   1.4954
     1.5126   1.5260   1.5325   1.5430   1.5492   1.5987   1.6087   1.6219
     1.6318   1.6538   1.6592   1.6902   1.6982   1.7048   1.7089   1.7185
     1.7369   1.7804   1.7850   1.7987   1.8002   1.8109   1.8222   1.8371
     1.8547   1.8603   1.8681   1.8795   1.9566   1.9686   1.9759   2.0261
     2.0550   2.1014

          k = 0.2000 0.3464 0.0000 ( 51202 PWs)   bands (ev):

   -22.0657  -9.2233  -7.3685  -6.3178  -6.0915  -6.0020  -5.6890  -5.5271
    -5.3897  -4.9535  -4.6579  -4.4703  -4.2596  -4.2483  -3.8874  -3.4372
    -3.4244  -3.4214  -3.4130  -3.2839  -3.1554  -3.1231  -3.1152  -2.9012
    -2.7566  -2.6841  -2.6748  -2.6439  -2.5827  -2.5631  -2.5591  -2.4743
    -2.4667  -2.4564  -2.4263  -2.3158  -2.2855  -2.2408  -2.0893  -2.0808
    -2.0615  -1.9984  -1.9656  -1.9448  -1.9208  -1.7935  -1.7393  -1.7342
    -1.6415  -1.6113  -1.5650  -1.5608  -1.5486  -1.5381  -1.5184  -1.5046
    -1.4884  -1.4746  -1.4241  -1.3804  -1.3448  -1.2991  -1.1938  -1.1642
    -1.1016  -1.0725  -0.9882  -0.9432  -0.8975  -0.8646  -0.8466  -0.8254
    -0.8110  -0.7735  -0.7502  -0.7192  -0.6990  -0.6809  -0.6632  -0.6467
    -0.6327  -0.6125  -0.5974  -0.5639  -0.5454  -0.4537  -0.4395  -0.4198
    -0.4051  -0.3809  -0.3499  -0.3375  -0.3121  -0.2943  -0.2838  -0.2727
    -0.2604  -0.2441  -0.2293  -0.2076  -0.1968  -0.1790  -0.1639  -0.1308
    -0.1163  -0.1099  -0.1022  -0.0833  -0.0729  -0.0663  -0.0507  -0.0393
     0.0314   0.0476   0.0521   0.0686   0.1643   0.1666   0.2052   0.2303
     0.2503   0.2798   0.3008   0.3203   0.3456   0.3668   0.3761   0.3842
     0.3927   0.4215   0.4379   0.4718   0.5258   0.5979   0.6612   0.6965
     0.7427   0.7772   0.8019   0.8293   0.8414   0.8478   0.8666   0.8868
     0.8951   0.9081   0.9271   0.9433   0.9826   1.0341   1.0801   1.1007
     1.1157   1.1480   1.1556   1.1887   1.1992   1.2496   1.2663   1.3130
     1.3390   1.3879   1.4532   1.4940   1.5075   1.5192   1.5366   1.5468
     1.5659   1.5735   1.5953   1.6014   1.6569   1.6721   1.6799   1.6832
     1.6972   1.7257   1.7383   1.7470   1.7592   1.7751   1.7830   1.8039
     1.8182   1.8215   1.8325   1.8430   1.8565   1.8685   1.9113   1.9395
     1.9486   1.9927   2.0472   2.0794   2.1803   2.2189   2.3475   2.4785
     2.5329   2.5490

          k = 0.2000-0.5774 0.0000 ( 51262 PWs)   bands (ev):

   -22.0657  -9.2162  -6.8352  -6.7988  -6.2089  -6.0556  -5.7228  -5.5807
    -5.2667  -5.2366  -4.8219  -4.4773  -4.3044  -3.7800  -3.4738  -3.4567
    -3.4518  -3.3753  -3.2081  -3.1338  -3.0455  -3.0362  -3.0289  -2.9040
    -2.8991  -2.8862  -2.8664  -2.8597  -2.7523  -2.6112  -2.5264  -2.5084
    -2.4878  -2.4515  -2.4359  -2.4210  -2.3582  -2.3068  -2.2174  -2.0543
    -1.9730  -1.9630  -1.9544  -1.9294  -1.8758  -1.7988  -1.7323  -1.7225
    -1.6811  -1.6714  -1.6596  -1.5592  -1.5231  -1.5025  -1.4971  -1.4874
    -1.4398  -1.3823  -1.3393  -1.3358  -1.2818  -1.2662  -1.2382  -1.1388
    -1.0924  -0.9953  -0.9569  -0.9445  -0.9344  -0.8743  -0.8669  -0.8172
    -0.8111  -0.8015  -0.7733  -0.7463  -0.7383  -0.6862  -0.6764  -0.6578
    -0.6419  -0.6241  -0.6056  -0.5919  -0.5822  -0.5746  -0.5348  -0.5162
    -0.5057  -0.4726  -0.4443  -0.4233  -0.3786  -0.3556  -0.3324  -0.2879
    -0.2477  -0.2321  -0.2187  -0.1996  -0.1822  -0.1700  -0.1571  -0.1323
    -0.0904  -0.0797  -0.0550  -0.0355  -0.0208  -0.0136   0.0257   0.0759
     0.1021   0.1210   0.1331   0.1366   0.1526   0.1793   0.2261   0.2396
     0.2505   0.2568   0.3024   0.3137   0.3305   0.3468   0.3794   0.4043
     0.4154   0.4336   0.4486   0.4735   0.4857   0.5022   0.5205   0.5688
     0.6016   0.6649   0.7139   0.7626   0.7883   0.8048   0.8237   0.8301
[...]
     atom    8 type  1   force =     0.00073517   -0.00081868   -0.10323914
     atom    9 type  1   force =     0.00182220   -0.00113260   -0.10585698
     atom   10 type  1   force =    -0.00115766    0.00098097   -0.01066589
     atom   11 type  1   force =     0.00069083    0.00045663   -0.00678614
     atom   12 type  1   force =     0.00072177    0.00031766   -0.00928864
     atom   13 type  1   force =     0.00116479   -0.00156650   -0.01181058
     atom   14 type  1   force =    -0.00088902   -0.00106538   -0.01051476
     atom   15 type  1   force =    -0.00073147   -0.00048123   -0.01354159
     atom   16 type  1   force =    -0.00067597    0.00115926   -0.01688352
     atom   17 type  1   force =     0.00208002   -0.00097779   -0.01057559
     atom   18 type  1   force =    -0.00154219    0.00179293   -0.01337145
     atom   19 type  1   force =     0.00178347    0.00495706    0.00950231
     atom   20 type  1   force =    -0.00184838    0.01217765   -0.00144413
     atom   21 type  1   force =    -0.00019150    0.00202710    0.01375390
     atom   22 type  1   force =     0.00050207    0.00030278    0.02003009
     atom   23 type  1   force =    -0.00133239   -0.00041002    0.01043809
     atom   24 type  1   force =     0.00013101    0.00021676    0.01279659
     atom   25 type  1   force =    -0.00224247   -0.00473276   -0.00027228
     atom   26 type  1   force =    -0.00327961   -0.00662974   -0.00076175
     atom   27 type  1   force =     0.00631948   -0.00697338    0.00043759
     atom   28 type  1   force =     0.04998663   -0.01379895    0.09405613
     atom   29 type  1   force =    -0.06295454   -0.01715790    0.05087376
     atom   30 type  1   force =     0.00793994    0.00168289    0.07790939
     atom   31 type  1   force =     0.00431875   -0.02247647    0.13648000
     atom   32 type  1   force =     0.00020244   -0.02301533    0.12017418
     atom   33 type  1   force =    -0.00280276    0.00030857    0.10854838
     atom   34 type  1   force =     0.00116136   -0.00094761    0.11589977
     atom   35 type  1   force =     0.00175388    0.04757323    0.13845948
     atom   36 type  1   force =    -0.00177357    0.01177746    0.12664371
     atom   37 type  2   force =    -0.04392456   -0.07821571    0.42145976
     atom   38 type  3   force =     0.24729834    0.20289627   -2.69222970
     atom   39 type  4   force =    -0.00260167   -0.00296290   -0.02260424
     The ionic contribution  to forces
     atom    1 type  1   force =    -0.00531035    0.00797622 -111.13688222
     atom    2 type  1   force =     0.00369310    0.00881117 -111.14008899
     atom    3 type  1   force =     0.00161723    0.00254147 -111.12955690
     atom    4 type  1   force =    -0.00009355    0.00105839 -111.12669220
     atom    5 type  1   force =    -0.00275046   -0.00484771 -111.13231875
     atom    6 type  1   force =     0.00284401   -0.00662741 -111.13211430
     atom    7 type  1   force =    -0.00655289   -0.00213127 -111.13511653
     atom    8 type  1   force =    -0.00150249   -0.00364033 -111.15133162
     atom    9 type  1   force =     0.00805539   -0.00314057 -111.13814940
     atom   10 type  1   force =    -0.05868616    0.01569593  -40.17031883
     atom   11 type  1   force =     0.04573150    0.01245543  -40.19540584
     atom   12 type  1   force =     0.01295098    0.00201022  -40.08010432
     atom   13 type  1   force =    -0.00840697    0.06627352  -40.09319288
     atom   14 type  1   force =     0.01941475    0.02212276  -40.07099429
     atom   15 type  1   force =    -0.01100604    0.01233606  -40.05377467
     atom   16 type  1   force =    -0.03272985   -0.02435382  -40.06308496
     atom   17 type  1   force =    -0.00340767   -0.07021423  -40.13647173
     atom   18 type  1   force =     0.03613824   -0.03632516  -40.07012082
     atom   19 type  1   force =    -0.26674667    0.39800753   31.33156819
     atom   20 type  1   force =     0.17712299    0.45437602   31.18310150
     atom   21 type  1   force =     0.08911593    0.12323559   31.64767434
     atom   22 type  1   force =    -0.00270536    0.04521008   31.78207534
     atom   23 type  1   force =    -0.13313764   -0.23845046   31.55198018
     atom   24 type  1   force =     0.13583840   -0.31150311   31.56339467
     atom   25 type  1   force =    -0.32693946   -0.09738961   31.42669786
     atom   26 type  1   force =    -0.06771162   -0.20632694   30.50998364
     atom   27 type  1   force =     0.39512738   -0.17166411   31.26250087
     atom   28 type  1   force =    -4.41833241    1.25601057   99.25819426
     atom   29 type  1   force =     3.17480992    0.83137152   98.35674196
     atom   30 type  1   force =     1.09303211   -0.17147605  103.59271496
     atom   31 type  1   force =    -0.20022329    2.51636178  103.47909150
     atom   32 type  1   force =     0.55651460    1.08778628  104.02626734
     atom   33 type  1   force =    -0.34269706    0.39193585  104.42281554
     atom   34 type  1   force =    -1.11554293   -0.82967802  104.16396844
     atom   35 type  1   force =    -0.03546679   -3.79518910  101.63468896
     atom   36 type  1   force =     1.15563852   -1.18646460  104.11346859
     atom   37 type  2   force =     0.55164953    0.41957625   51.10814384
     atom   38 type  3   force =    -1.01053434   -0.80758600   89.63772069
     atom   39 type  4   force =     0.59118942    0.29185585   15.10292659
     The local contribution  to forces
     atom    1 type  1   force =     0.00378003   -0.00685716  111.24292490
     atom    2 type  1   force =    -0.00222784   -0.01121956  111.24797849
     atom    3 type  1   force =    -0.00126266   -0.00215318  111.23314939
     atom    4 type  1   force =    -0.00088499   -0.00181519  111.23207118
     atom    5 type  1   force =     0.00214167    0.00552636  111.23804036
     atom    6 type  1   force =    -0.00131570    0.00442498  111.24042470
     atom    7 type  1   force =     0.00916044    0.00221741  111.24261858
     atom    8 type  1   force =     0.00066204    0.00538981  111.25882006
     atom    9 type  1   force =    -0.01008273    0.00561165  111.24697580
     atom   10 type  1   force =     0.05829726   -0.01810034   40.16081725
     atom   11 type  1   force =    -0.04490705   -0.01322841   40.18115429
     atom   12 type  1   force =    -0.01313585   -0.00237172   40.06945673
     atom   13 type  1   force =     0.00674216   -0.06362323   40.08797436
     atom   14 type  1   force =    -0.01912478   -0.02046997   40.06143752
     atom   15 type  1   force =     0.01255289   -0.01123145   40.04588036
     atom   16 type  1   force =     0.03317484    0.02436322   40.06022768
     atom   17 type  1   force =     0.00083435    0.07033782   40.12956893
     atom   18 type  1   force =    -0.03385244    0.03487690   40.06407197
     atom   19 type  1   force =     0.26631004   -0.39966061  -31.32449898
     atom   20 type  1   force =    -0.17727164   -0.46336229  -31.16775546
     atom   21 type  1   force =    -0.08764578   -0.12508623  -31.63958007
     atom   22 type  1   force =     0.00117590   -0.04660681  -31.77692671
     atom   23 type  1   force =     0.13320122    0.23684720  -31.53989444
     atom   24 type  1   force =    -0.13423277    0.31036941  -31.55566140
     atom   25 type  1   force =     0.32805891    0.10127043  -31.41125502
     atom   26 type  1   force =     0.07159491    0.21359297  -30.49416923
     atom   27 type  1   force =    -0.40218538    0.17719207  -31.24948583
     atom   28 type  1   force =     4.34787412   -1.23907197  -99.35355320
     atom   29 type  1   force =    -3.11178005   -0.81882403  -98.39108544
     atom   30 type  1   force =    -1.09062221    0.16703896 -103.67534615
     atom   31 type  1   force =     0.19115085   -2.48215368 -103.62488695
     atom   32 type  1   force =    -0.55531461   -1.06099995 -104.15063166
     atom   33 type  1   force =     0.34757327   -0.39129211 -104.54158704
     atom   34 type  1   force =     1.11233431    0.82915157 -104.28793944
     atom   35 type  1   force =     0.03218176    3.73732859 -101.77730701
     atom   36 type  1   force =    -1.14961756    1.16577827 -104.24901510
     atom   37 type  2   force =    -0.50734586   -0.34405247  -51.52875817
     atom   38 type  3   force =     0.76918799    0.60493685  -86.96483982
     atom   39 type  4   force =    -0.57934649   -0.27957715  -15.08716935
     The core correction contribution to forces
     atom    1 type  1   force =    -0.00011779   -0.00007649    0.00981933
     atom    2 type  1   force =    -0.00000095   -0.00028600    0.01011728
     atom    3 type  1   force =     0.00025819   -0.00000731    0.00984378
     atom    4 type  1   force =     0.00010385   -0.00007424    0.01013599
     atom    5 type  1   force =     0.00017771    0.00006502    0.00998632
     atom    6 type  1   force =    -0.00008783   -0.00007831    0.00987899
     atom    7 type  1   force =     0.00002123    0.00000837    0.01006625
     atom    8 type  1   force =     0.00010599    0.00040772    0.00965907
     atom    9 type  1   force =    -0.00024393   -0.00000352    0.01017909
     atom   10 type  1   force =    -0.00002355    0.00004696   -0.00195120
     atom   11 type  1   force =     0.00011224    0.00015213   -0.00170340
     atom   12 type  1   force =    -0.00009874    0.00024187   -0.00184969
     atom   13 type  1   force =    -0.00041417    0.00020453   -0.00177544
     atom   14 type  1   force =     0.00019079   -0.00003031   -0.00195185
     atom   15 type  1   force =     0.00023245   -0.00002338   -0.00167548
     atom   16 type  1   force =    -0.00007597   -0.00000539   -0.00186519
     atom   17 type  1   force =    -0.00018541    0.00005402   -0.00190697
     atom   18 type  1   force =     0.00010354   -0.00027582   -0.00167544
     atom   19 type  1   force =    -0.00004034    0.00072274    0.00097652
     atom   20 type  1   force =    -0.00029624    0.00088368    0.00026552
     atom   21 type  1   force =     0.00055750    0.00007893    0.00193319
     atom   22 type  1   force =     0.00005081    0.00009573    0.00196850
     atom   23 type  1   force =    -0.00029688    0.00036312    0.00164753
     atom   24 type  1   force =     0.00047775   -0.00055963    0.00137518
     atom   25 type  1   force =     0.00050901   -0.00043295    0.00146095
     atom   26 type  1   force =    -0.00106463   -0.00079002    0.00110125
     atom   27 type  1   force =     0.00076816   -0.00040575    0.00099202
     atom   28 type  1   force =     0.01006521   -0.00225887   -0.00513737
     atom   29 type  1   force =    -0.00295717    0.00052880    0.00102387
     atom   30 type  1   force =    -0.00990293    0.00270519   -0.00547178
     atom   31 type  1   force =     0.00074242   -0.00548014   -0.00763489
     atom   32 type  1   force =    -0.00061082   -0.00783861   -0.00643718
     atom   33 type  1   force =    -0.00026449   -0.00130656   -0.01009865
     atom   34 type  1   force =     0.00105528    0.00133429   -0.00932017
     atom   35 type  1   force =     0.00010740    0.00797049   -0.00573496
     atom   36 type  1   force =    -0.00130303    0.00436057   -0.00767123
     atom   37 type  2   force =     0.00059548    0.00094081   -0.00145139
     atom   38 type  3   force =    -0.00184449   -0.00146169    0.01954619
     atom   39 type  4   force =     0.00000000    0.00000000    0.00000000
     The Hubbard contrib.    to forces
     atom    1 type  1   force =     0.00000000    0.00000000    0.00000000
     atom    2 type  1   force =     0.00000000    0.00000000    0.00000000
     atom    3 type  1   force =     0.00000000    0.00000000    0.00000000
     atom    4 type  1   force =     0.00000000    0.00000000    0.00000000
     atom    5 type  1   force =     0.00000000    0.00000000    0.00000000
     atom    6 type  1   force =     0.00000000    0.00000000    0.00000000
     atom    7 type  1   force =     0.00000000    0.00000000    0.00000000
     atom    8 type  1   force =     0.00000000    0.00000000    0.00000000
     atom    9 type  1   force =     0.00000000    0.00000000    0.00000000
     atom   10 type  1   force =     0.00000000    0.00000000    0.00000000
     atom   11 type  1   force =     0.00000000    0.00000000    0.00000000
     atom   12 type  1   force =     0.00000000    0.00000000    0.00000000
     atom   13 type  1   force =     0.00000000    0.00000000    0.00000000
     atom   14 type  1   force =     0.00000000    0.00000000    0.00000000
     atom   15 type  1   force =     0.00000000    0.00000000    0.00000000
     atom   16 type  1   force =     0.00000000    0.00000000    0.00000000
     atom   17 type  1   force =     0.00000000    0.00000000    0.00000000
     atom   18 type  1   force =     0.00000000    0.00000000    0.00000000
     atom   19 type  1   force =     0.00000000    0.00000000    0.00000000
     atom   20 type  1   force =     0.00000000    0.00000000    0.00000000
     atom   21 type  1   force =     0.00000000    0.00000000    0.00000000
     atom   22 type  1   force =     0.00000000    0.00000000    0.00000000
     atom   23 type  1   force =     0.00000000    0.00000000    0.00000000
     atom   24 type  1   force =     0.00000000    0.00000000    0.00000000
     atom   25 type  1   force =     0.00000000    0.00000000    0.00000000
     atom   26 type  1   force =     0.00000000    0.00000000    0.00000000
     atom   27 type  1   force =     0.00000000    0.00000000    0.00000000
     atom   28 type  1   force =     0.00000000    0.00000000    0.00000000
     atom   29 type  1   force =     0.00000000    0.00000000    0.00000000
     atom   30 type  1   force =     0.00000000    0.00000000    0.00000000
     atom   31 type  1   force =     0.00000000    0.00000000    0.00000000
     atom   32 type  1   force =     0.00000000    0.00000000    0.00000000
     atom   33 type  1   force =     0.00000000    0.00000000    0.00000000
     atom   34 type  1   force =     0.00000000    0.00000000    0.00000000
     atom   35 type  1   force =     0.00000000    0.00000000    0.00000000
     atom   36 type  1   force =     0.00000000    0.00000000    0.00000000
     atom   37 type  2   force =     0.00000000    0.00000000    0.00000000
     atom   38 type  3   force =     0.00000000    0.00000000    0.00000000
     atom   39 type  4   force =     0.00000000    0.00000000    0.00000000
     The SCF correction term to forces
     atom    1 type  1   force =    -0.00000000    0.00000000    0.00000000
     atom    2 type  1   force =     0.00000000   -0.00000000    0.00000000
     atom    3 type  1   force =     0.00000000    0.00000000    0.00000000
     atom    4 type  1   force =    -0.00000000   -0.00000000    0.00000000
     atom    5 type  1   force =     0.00000000   -0.00000000    0.00000000
     atom    6 type  1   force =    -0.00000000   -0.00000000    0.00000000
     atom    7 type  1   force =     0.00000000    0.00000000    0.00000000
     atom    8 type  1   force =    -0.00000000   -0.00000000    0.00000000
     atom    9 type  1   force =    -0.00000000    0.00000000    0.00000000
     atom   10 type  1   force =    -0.00000000    0.00000000    0.00000000
     atom   11 type  1   force =    -0.00000000   -0.00000000    0.00000000
     atom   12 type  1   force =     0.00000000    0.00000000    0.00000000
     atom   13 type  1   force =    -0.00000000    0.00000000    0.00000000
     atom   14 type  1   force =     0.00000000    0.00000000    0.00000000
     atom   15 type  1   force =    -0.00000000    0.00000000   -0.00000000
     atom   16 type  1   force =     0.00000000   -0.00000000    0.00000000
     atom   17 type  1   force =    -0.00000000   -0.00000000    0.00000000
     atom   18 type  1   force =    -0.00000000   -0.00000000    0.00000000
     atom   19 type  1   force =    -0.00000000    0.00000000   -0.00000000
     atom   20 type  1   force =     0.00000000    0.00000000   -0.00000000
     atom   21 type  1   force =    -0.00000000    0.00000000   -0.00000000
     atom   22 type  1   force =     0.00000000    0.00000000   -0.00000000
     atom   23 type  1   force =    -0.00000000    0.00000000   -0.00000000
     atom   24 type  1   force =    -0.00000000   -0.00000000   -0.00000000
     atom   25 type  1   force =    -0.00000000   -0.00000000   -0.00000000
     atom   26 type  1   force =    -0.00000000   -0.00000000   -0.00000000
     atom   27 type  1   force =     0.00000000   -0.00000000   -0.00000000
     atom   28 type  1   force =    -0.00000000   -0.00000000   -0.00000000
     atom   29 type  1   force =     0.00000000   -0.00000000   -0.00000000
     atom   30 type  1   force =     0.00000000   -0.00000000   -0.00000000
     atom   31 type  1   force =     0.00000000    0.00000000   -0.00000000
     atom   32 type  1   force =     0.00000000    0.00000000   -0.00000000
     atom   33 type  1   force =    -0.00000000    0.00000000   -0.00000000
     atom   34 type  1   force =     0.00000000    0.00000000   -0.00000000
     atom   35 type  1   force =    -0.00000000   -0.00000000   -0.00000000
     atom   36 type  1   force =     0.00000000    0.00000000   -0.00000000
     atom   37 type  2   force =     0.00000976   -0.00000462   -0.00001342
     atom   38 type  3   force =     0.00000355   -0.00000144   -0.00003017
     atom   39 type  4   force =     0.00000023   -0.00000074   -0.00000202

     Total force =     0.015552     Total SCF correction =     0.000035

     Writing all to output data dir ./pwscf.save/

     init_run     :     11.33s CPU     11.78s WALL (       1 calls)
     electrons    :    898.31s CPU    915.79s WALL (       1 calls)
     forces       :      3.50s CPU      3.61s WALL (       1 calls)

     Called by init_run:
     wfcinit      :      8.26s CPU      8.59s WALL (       1 calls)
     potinit      :      1.99s CPU      2.07s WALL (       1 calls)
     hinit0       :      0.83s CPU      0.85s WALL (       1 calls)

     Called by electrons:
     c_bands      :    758.64s CPU    773.40s WALL (      51 calls)
     sum_band     :     97.89s CPU     99.49s WALL (      51 calls)
     v_of_rho     :      8.90s CPU      9.32s WALL (      52 calls)
     newd         :      4.55s CPU      4.61s WALL (      52 calls)
     PAW_pot      :     12.92s CPU     13.10s WALL (      52 calls)
     mix_rho      :     16.64s CPU     16.95s WALL (      51 calls)
     vdW_kernel   :      1.09s CPU      1.10s WALL (       1 calls)

     Called by c_bands:
     init_us_2    :      9.15s CPU      9.37s WALL (    2704 calls)
     init_us_2:cp :      9.13s CPU      9.37s WALL (    2704 calls)
     cegterg      :    733.54s CPU    747.63s WALL (    1327 calls)

     Called by *egterg:
     cdiaghg      :    206.25s CPU    211.26s WALL (    4634 calls)
     h_psi        :    351.01s CPU    357.62s WALL (    4660 calls)
     s_psi        :     37.65s CPU     38.20s WALL (    4660 calls)
     g_psi        :      0.93s CPU      0.95s WALL (    3307 calls)

     Called by h_psi:
     h_psi:calbec :     56.29s CPU     57.29s WALL (    4660 calls)
     vloc_psi     :    253.20s CPU    257.81s WALL (    4660 calls)
     add_vuspsi   :     39.08s CPU     40.04s WALL (    4660 calls)

     General routines
     calbec       :     83.30s CPU     84.67s WALL (    6090 calls)
     fft          :      6.25s CPU      6.70s WALL (    4705 calls)
     ffts         :      9.93s CPU     10.12s WALL (   22288 calls)
     fftw         :    293.00s CPU    298.25s WALL ( 1376526 calls)
     interpolate  :      0.38s CPU      0.39s WALL (     104 calls)

     Parallel routines

     PWSCF        :  15m18.61s CPU  15m41.60s WALL


   This run was terminated on:  14:41:53   9Dec2025            

=------------------------------------------------------------------------------=
   JOB DONE.
=------------------------------------------------------------------------------=
