  37  37   0   0
  0.4190497E+02  0.8468310E-09  0.8468310E-09  0.2496566E-08  0.5000000E-15
  1.000000000000000E-004
  CAR 
 unknown system                          
      8.60672398     -9.89979519  301     -0.07620427      1.00000000
     -9.900  0.0000E+00  0.0000E+00
     -9.838  0.0000E+00  0.0000E+00
     -9.776  0.0000E+00  0.0000E+00
     -9.715 -0.4286E-28 -0.2644E-29
     -9.653 -0.6298E-24 -0.3885E-25
     -9.591 -0.4293E-20 -0.2649E-21
     -9.530 -0.1356E-16 -0.8370E-18
     -9.468 -0.1925E-13 -0.1188E-14
     -9.406 -0.1286E-10 -0.7942E-12
     -9.345 -0.3940E-08 -0.2438E-09
     -9.283 -0.5487E-06 -0.3409E-07
     -9.221 -0.3422E-04 -0.2145E-05
     -9.160 -0.9270E-03 -0.5933E-04
     -9.098 -0.1012E-01 -0.6835E-03
     -9.036 -0.3343E-01 -0.2746E-02
     -8.974  0.4881E-01  0.2651E-03
     -8.913  0.3271E+00  0.2044E-01
     -8.851  0.5978E+00  0.5732E-01
     -8.789  0.2006E+01  0.1811E+00
     -8.728  0.3804E+01  0.4158E+00
     -8.666  0.2308E+01  0.5581E+00
     -8.604  0.4747E-02  0.5584E+00
     -8.543  0.1502E+00  0.5677E+00
     -8.481  0.2497E+01  0.7217E+00
     -8.419  0.3812E+01  0.9569E+00
     -8.358  0.3548E+01  0.1176E+01
     -8.296  0.3761E+01  0.1408E+01
     -8.234  0.1957E+01  0.1528E+01
     -8.173  0.3469E-01  0.1531E+01
     -8.111 -0.3597E+00  0.1508E+01
     -8.049 -0.2749E+00  0.1491E+01
     -7.987  0.2010E+01  0.1615E+01
     -7.926  0.6491E+01  0.2016E+01
     -7.864  0.6101E+01  0.2392E+01
     -7.802  0.1767E+01  0.2501E+01
     -7.741  0.1704E+01  0.2606E+01
     -7.679  0.5260E+01  0.2931E+01
     -7.617  0.6302E+01  0.3320E+01
     -7.556  0.3015E+01  0.3506E+01
     -7.494  0.9318E+00  0.3563E+01
     -7.432  0.2850E+01  0.3739E+01
     -7.371  0.5399E+01  0.4072E+01
     -7.309  0.7368E+01  0.4526E+01
     -7.247  0.8996E+01  0.5081E+01
     -7.186  0.9539E+01  0.5670E+01
     -7.124  0.7121E+01  0.6109E+01
     -7.062  0.5199E+01  0.6430E+01
     -7.000  0.5005E+01  0.6739E+01
     -6.939  0.4002E+01  0.6985E+01
     -6.877  0.4039E+01  0.7235E+01
     -6.815  0.6721E+01  0.7649E+01
     -6.754  0.8456E+01  0.8171E+01
     -6.692  0.6506E+01  0.8572E+01
     -6.630  0.7368E+01  0.9027E+01
     -6.569  0.1355E+02  0.9863E+01
     -6.507  0.1430E+02  0.1074E+02
     -6.445  0.1105E+02  0.1143E+02
     -6.384  0.1116E+02  0.1211E+02
     -6.322  0.9299E+01  0.1269E+02
     -6.260  0.9773E+01  0.1329E+02
     -6.198  0.1830E+02  0.1442E+02
     -6.137  0.3101E+02  0.1633E+02
     -6.075  0.3713E+02  0.1862E+02
     -6.013  0.3222E+02  0.2061E+02
     -5.952  0.2926E+02  0.2242E+02
     -5.890  0.3181E+02  0.2438E+02
     -5.828  0.3627E+02  0.2662E+02
     -5.767  0.3110E+02  0.2853E+02
     -5.705  0.2602E+02  0.3014E+02
     -5.643  0.3249E+02  0.3214E+02
     -5.582  0.3981E+02  0.3460E+02
     -5.520  0.4257E+02  0.3723E+02
     -5.458  0.5082E+02  0.4036E+02
     -5.397  0.6265E+02  0.4423E+02
     -5.335  0.6457E+02  0.4821E+02
     -5.273  0.5649E+02  0.5169E+02
     -5.211  0.4563E+02  0.5451E+02
     -5.150  0.4067E+02  0.5702E+02
     -5.088  0.4855E+02  0.6001E+02
     -5.026  0.6939E+02  0.6429E+02
     -4.965  0.6414E+02  0.6825E+02
     -4.903  0.3353E+02  0.7032E+02
     -4.841  0.2370E+02  0.7178E+02
     -4.780  0.3875E+02  0.7417E+02
     -4.718  0.4072E+02  0.7668E+02
     -4.656  0.2468E+02  0.7820E+02
     -4.595  0.2422E+02  0.7970E+02
     -4.533  0.4047E+02  0.8220E+02
     -4.471  0.5657E+02  0.8568E+02
     -4.410  0.6286E+02  0.8956E+02
     -4.348  0.5457E+02  0.9293E+02
     -4.286  0.4418E+02  0.9565E+02
     -4.224  0.4070E+02  0.9816E+02
     -4.163  0.4699E+02  0.1011E+03
     -4.101  0.5997E+02  0.1048E+03
     -4.039  0.5983E+02  0.1085E+03
     -3.978  0.4882E+02  0.1115E+03
     -3.916  0.4309E+02  0.1141E+03
     -3.854  0.4108E+02  0.1167E+03
     -3.793  0.3686E+02  0.1189E+03
     -3.731  0.4139E+02  0.1215E+03
     -3.669  0.5897E+02  0.1251E+03
     -3.608  0.6306E+02  0.1290E+03
     -3.546  0.5603E+02  0.1325E+03
     -3.484  0.5607E+02  0.1359E+03
     -3.423  0.6705E+02  0.1401E+03
     -3.361  0.7632E+02  0.1448E+03
     -3.299  0.7233E+02  0.1492E+03
     -3.237  0.6569E+02  0.1533E+03
     -3.176  0.7148E+02  0.1577E+03
     -3.114  0.8755E+02  0.1631E+03
     -3.052  0.8584E+02  0.1684E+03
     -2.991  0.7731E+02  0.1732E+03
     -2.929  0.7850E+02  0.1780E+03
     -2.867  0.7514E+02  0.1826E+03
     -2.806  0.8310E+02  0.1878E+03
     -2.744  0.1014E+03  0.1940E+03
     -2.682  0.1043E+03  0.2005E+03
     -2.621  0.8511E+02  0.2057E+03
     -2.559  0.6328E+02  0.2096E+03
     -2.497  0.6261E+02  0.2135E+03
     -2.435  0.6155E+02  0.2173E+03
     -2.374  0.4630E+02  0.2201E+03
     -2.312  0.3040E+02  0.2220E+03
     -2.250  0.2459E+02  0.2235E+03
     -2.189  0.3014E+02  0.2254E+03
     -2.127  0.4282E+02  0.2280E+03
     -2.065  0.6266E+02  0.2319E+03
     -2.004  0.8607E+02  0.2372E+03
     -1.942  0.9266E+02  0.2429E+03
     -1.880  0.8129E+02  0.2479E+03
     -1.819  0.6197E+02  0.2517E+03
     -1.757  0.4507E+02  0.2545E+03
     -1.695  0.4217E+02  0.2571E+03
     -1.634  0.4687E+02  0.2600E+03
     -1.572  0.5603E+02  0.2635E+03
     -1.510  0.5884E+02  0.2671E+03
     -1.448  0.5390E+02  0.2704E+03
     -1.387  0.5797E+02  0.2740E+03
     -1.325  0.6084E+02  0.2778E+03
     -1.263  0.5215E+02  0.2810E+03
     -1.202  0.5378E+02  0.2843E+03
     -1.140  0.7257E+02  0.2888E+03
     -1.078  0.8472E+02  0.2940E+03
     -1.017  0.8583E+02  0.2993E+03
     -0.955  0.7228E+02  0.3038E+03
     -0.893  0.5755E+02  0.3073E+03
     -0.832  0.5692E+02  0.3108E+03
     -0.770  0.5251E+02  0.3141E+03
     -0.708  0.4297E+02  0.3167E+03
     -0.647  0.4976E+02  0.3198E+03
     -0.585  0.6230E+02  0.3236E+03
     -0.523  0.6047E+02  0.3273E+03
     -0.461  0.5901E+02  0.3310E+03
     -0.400  0.6812E+02  0.3352E+03
     -0.338  0.8647E+02  0.3405E+03
     -0.276  0.9516E+02  0.3464E+03
     -0.215  0.7422E+02  0.3510E+03
     -0.153  0.5607E+02  0.3544E+03
     -0.091  0.8175E+02  0.3595E+03
     -0.030  0.9743E+02  0.3655E+03
      0.032  0.5992E+02  0.3692E+03
      0.094  0.3262E+02  0.3712E+03
      0.155  0.4951E+02  0.3742E+03
      0.217  0.5700E+02  0.3778E+03
      0.279  0.4447E+02  0.3805E+03
      0.340  0.3905E+02  0.3829E+03
      0.402  0.2858E+02  0.3847E+03
      0.464  0.1412E+02  0.3856E+03
      0.526  0.4660E+01  0.3858E+03
      0.587  0.1707E+01  0.3859E+03
      0.649  0.4176E+01  0.3862E+03
      0.711  0.1086E+02  0.3869E+03
      0.772  0.1658E+02  0.3879E+03
      0.834  0.1284E+02  0.3887E+03
      0.896  0.7631E+01  0.3892E+03
      0.957  0.1034E+02  0.3898E+03
      1.019  0.1037E+02  0.3904E+03
      1.081  0.3210E+01  0.3906E+03
      1.142  0.2054E+01  0.3908E+03
      1.204  0.1000E+02  0.3914E+03
      1.266  0.1454E+02  0.3923E+03
      1.327  0.1257E+02  0.3930E+03
      1.389  0.1047E+02  0.3937E+03
      1.451  0.1339E+02  0.3945E+03
      1.513  0.2500E+02  0.3961E+03
      1.574  0.2692E+02  0.3977E+03
      1.636  0.1895E+02  0.3989E+03
      1.698  0.1586E+02  0.3999E+03
      1.759  0.1151E+02  0.4006E+03
      1.821  0.3062E+01  0.4008E+03
      1.883  0.1207E+01  0.4008E+03
      1.944  0.4520E+01  0.4011E+03
      2.006  0.6918E+01  0.4016E+03
      2.068  0.6191E+01  0.4019E+03
      2.129  0.4436E+01  0.4022E+03
      2.191  0.7751E+01  0.4027E+03
      2.253  0.1128E+02  0.4034E+03
      2.315  0.1074E+02  0.4040E+03
      2.376  0.1379E+02  0.4049E+03
      2.438  0.2071E+02  0.4062E+03
      2.500  0.2160E+02  0.4075E+03
      2.561  0.1258E+02  0.4083E+03
      2.623  0.6582E+01  0.4087E+03
      2.685  0.6581E+01  0.4091E+03
      2.746  0.1046E+02  0.4097E+03
      2.808  0.1839E+02  0.4109E+03
      2.870  0.1892E+02  0.4120E+03
      2.931  0.1312E+02  0.4128E+03
      2.993  0.8250E+01  0.4134E+03
      3.055  0.1044E+02  0.4140E+03
      3.116  0.1447E+02  0.4149E+03
      3.178  0.1202E+02  0.4156E+03
      3.240  0.9884E+01  0.4162E+03
      3.302  0.8558E+01  0.4168E+03
      3.363  0.3897E+01  0.4170E+03
      3.425  0.6958E+00  0.4171E+03
      3.487  0.3982E+01  0.4173E+03
      3.548  0.1097E+02  0.4180E+03
      3.610  0.1801E+02  0.4191E+03
      3.672  0.2359E+02  0.4205E+03
      3.733  0.2230E+02  0.4219E+03
      3.795  0.1377E+02  0.4228E+03
      3.857  0.5879E+01  0.4231E+03
      3.918  0.3206E+01  0.4233E+03
      3.980  0.3543E+01  0.4235E+03
      4.042  0.4927E+01  0.4239E+03
      4.103  0.7219E+01  0.4243E+03
      4.165  0.8455E+01  0.4248E+03
      4.227  0.7013E+01  0.4253E+03
      4.289  0.5030E+01  0.4256E+03
      4.350  0.1049E+02  0.4262E+03
      4.412  0.2335E+02  0.4277E+03
      4.474  0.2293E+02  0.4291E+03
      4.535  0.1040E+02  0.4297E+03
      4.597  0.7131E+01  0.4301E+03
      4.659  0.1122E+02  0.4308E+03
      4.720  0.1447E+02  0.4317E+03
      4.782  0.1324E+02  0.4325E+03
      4.844  0.8785E+01  0.4331E+03
      4.905  0.6284E+01  0.4335E+03
      4.967  0.8432E+01  0.4340E+03
      5.029  0.1002E+02  0.4346E+03
      5.090  0.6863E+01  0.4350E+03
      5.152  0.7420E+01  0.4355E+03
      5.214  0.1185E+02  0.4362E+03
      5.276  0.1404E+02  0.4371E+03
      5.337  0.1194E+02  0.4378E+03
      5.399  0.9375E+01  0.4384E+03
      5.461  0.1335E+02  0.4392E+03
      5.522  0.2066E+02  0.4405E+03
      5.584  0.2460E+02  0.4420E+03
      5.646  0.2444E+02  0.4435E+03
      5.707  0.2355E+02  0.4450E+03
      5.769  0.2093E+02  0.4463E+03
      5.831  0.1794E+02  0.4474E+03
      5.892  0.1679E+02  0.4484E+03
      5.954  0.2137E+02  0.4497E+03
      6.016  0.3044E+02  0.4516E+03
      6.077  0.2907E+02  0.4534E+03
      6.139  0.1496E+02  0.4543E+03
      6.201  0.1002E+02  0.4549E+03
      6.263  0.2002E+02  0.4562E+03
      6.324  0.3189E+02  0.4582E+03
      6.386  0.2924E+02  0.4600E+03
      6.448  0.1558E+02  0.4609E+03
      6.509  0.1320E+02  0.4617E+03
      6.571  0.2284E+02  0.4631E+03
      6.633  0.2881E+02  0.4649E+03
      6.694  0.2849E+02  0.4667E+03
      6.756  0.2658E+02  0.4683E+03
      6.818  0.1901E+02  0.4695E+03
      6.879  0.1122E+02  0.4702E+03
      6.941  0.1251E+02  0.4709E+03
      7.003  0.1605E+02  0.4719E+03
      7.065  0.1716E+02  0.4730E+03
      7.126  0.2079E+02  0.4743E+03
      7.188  0.2405E+02  0.4758E+03
      7.250  0.2296E+02  0.4772E+03
      7.311  0.1493E+02  0.4781E+03
      7.373  0.5847E+01  0.4785E+03
      7.435  0.2386E+01  0.4786E+03
      7.496  0.4106E+01  0.4789E+03
      7.558  0.6836E+01  0.4793E+03
      7.620  0.7745E+01  0.4798E+03
      7.681  0.3987E+01  0.4800E+03
      7.743  0.2556E+00  0.4800E+03
      7.805 -0.3199E+00  0.4800E+03
      7.866 -0.7672E-01  0.4800E+03
      7.928 -0.6192E-02  0.4800E+03
      7.990 -0.2080E-03  0.4800E+03
      8.052 -0.3086E-05  0.4800E+03
      8.113 -0.2069E-07  0.4800E+03
      8.175 -0.6351E-10  0.4800E+03
      8.237 -0.9013E-13  0.4800E+03
      8.298  0.0000E+00  0.4800E+03
      8.360  0.0000E+00  0.4800E+03
      8.422  0.0000E+00  0.4800E+03
      8.483  0.0000E+00  0.4800E+03
      8.545  0.0000E+00  0.4800E+03
      8.607  0.0000E+00  0.4800E+03
