   37   37    1    1
  0.4190497E+02  0.8468310E-09  0.8468310E-09  0.2496566E-08  0.5000000E-15
  1.000000000000000E-004
  CAR 
 unknown system                          
    361     13    240
 
  0.1276756E-14  0.1276756E-14  0.1276756E-14  0.4000000E-01
      1         -8.899795   1.000000
      2         -7.758933   1.000000
      3         -7.017028   1.000000
      4         -6.503260   1.000000
      5         -6.477105   1.000000
      6         -6.457662   1.000000
      7         -6.456842   1.000000
      8         -6.442484   1.000000
      9         -6.439330   1.000000
     10         -6.427106   1.000000
     11         -6.135666   1.000000
     12         -5.917382   1.000000
     13         -5.917328   1.000000
     14         -5.909889   1.000000
     15         -5.904493   1.000000
     16         -5.898667   1.000000
     17         -5.826894   1.000000
     18         -5.469982   1.000000
     19         -5.461681   1.000000
     20         -5.457854   1.000000
     21         -5.449622   1.000000
     22         -5.444446   1.000000
     23         -5.343208   1.000000
     24         -5.236785   1.000000
     25         -5.228430   1.000000
     26         -5.226477   1.000000
     27         -5.220162   1.000000
     28         -5.219462   1.000000
     29         -5.122140   1.000000
     30         -5.031764   1.000000
     31         -5.029083   1.000000
     32         -5.027730   1.000000
     33         -5.020669   1.000000
     34         -5.013799   1.000000
     35         -4.975701   1.000000
     36         -4.960474   1.000000
     37         -4.954708   1.000000
     38         -4.949813   1.000000
     39         -4.922163   1.000000
     40         -4.912188   1.000000
     41         -4.594140   1.000000
     42         -4.382436   1.000000
     43         -4.382269   1.000000
     44         -4.356879   1.000000
     45         -4.342138   1.000000
     46         -4.330202   1.000000
     47         -4.316104   1.000000
     48         -4.297577   1.000000
     49         -4.292807   1.000000
     50         -4.291045   1.000000
     51         -4.140457   1.000000
     52         -4.134755   1.000000
     53         -4.107183   1.000000
     54         -4.041107   1.000000
     55         -4.032141   1.000000
     56         -3.590326   1.000000
     57         -3.578245   1.000000
     58         -3.575227   1.000000
     59         -3.565130   1.000000
     60         -3.552859   1.000000
     61         -3.500631   1.000000
     62         -3.488833   1.000000
     63         -3.393558   1.000000
     64         -3.376073   1.000000
     65         -3.374207   1.000000
     66         -3.373218   1.000000
     67         -3.365875   1.000000
     68         -3.363779   1.000000
     69         -3.354993   1.000000
     70         -3.322584   1.000000
     71         -3.308589   1.000000
     72         -3.304565   1.000000
     73         -3.303778   1.000000
     74         -3.296702   1.000000
     75         -3.270363   1.000000
     76         -3.264077   1.000000
     77         -3.255228   1.000000
     78         -3.158201   1.000000
     79         -3.151237   1.000000
     80         -3.146059   1.000000
     81         -3.136286   1.000000
     82         -3.136105   1.000000
     83         -3.131304   1.000000
     84         -2.951372   1.000000
     85         -2.929222   1.000000
     86         -2.928534   1.000000
     87         -2.918759   1.000000
     88         -2.912728   1.000000
     89         -2.903410   1.000000
     90         -2.894730   1.000000
     91         -2.889424   1.000000
     92         -2.842268   1.000000
     93         -2.826710   1.000000
     94         -2.792600   1.000000
     95         -2.787109   1.000000
     96         -2.743439   1.000000
     97         -2.738779   1.000000
     98         -2.699129   1.000000
     99         -2.694955   1.000000
    100         -2.686250   1.000000
    101         -2.622249   1.000000
    102         -2.528620   1.000000
    103         -2.520691   1.000000
    104         -2.516810   1.000000
    105         -2.509732   1.000000
    106         -2.501972   1.000000
    107         -2.493037   1.000000
    108         -2.259997   1.000000
    109         -2.033275   1.000000
    110         -2.008689   1.000000
    111         -2.006815   1.000000
    112         -1.996950   1.000000
    113         -1.995213   1.000000
    114         -1.982124   1.000000
    115         -1.979666   1.000000
    116         -1.971443   1.000000
    117         -1.956678   1.000000
    118         -1.954155   1.000000
    119         -1.938841   1.000000
    120         -1.876013   1.000000
    121         -1.861302   1.000000
    122         -1.813576   1.000000
    123         -1.738617   1.000000
    124         -1.732596   1.000000
    125         -1.721637   1.000000
    126         -1.718224   1.000000
    127         -1.703536   1.000000
    128         -1.604746   1.000000
    129         -1.588654   1.000000
    130         -1.540863   1.000000
    131         -1.536716   1.000000
    132         -1.521363   1.000000
    133         -1.495296   1.000000
    134         -1.301775   1.000000
    135         -1.286194   1.000000
    136         -1.278418   1.000000
    137         -1.258943   1.000000
    138         -1.252997   1.000000
    139         -1.248696   1.000000
    140         -1.192210   1.000000
    141         -1.177702   1.000000
    142         -1.064817   1.000000
    143         -1.049446   1.000000
    144         -1.030490   1.000000
    145         -1.025730   1.000000
    146         -1.024793   1.000000
    147         -1.020116   1.000000
    148         -0.917828   1.000000
    149         -0.886295   1.000000
    150         -0.863938   1.000000
    151         -0.844226   1.000000
    152         -0.832678   1.000000
    153         -0.828187   1.000000
    154         -0.827600   1.000000
    155         -0.818084   1.000000
    156         -0.809963   1.000000
    157         -0.806107   1.000000
    158         -0.800524   1.000000
    159         -0.796286   1.000000
    160         -0.738305   1.000000
    161         -0.714066   1.000000
    162         -0.693923   1.000000
    163         -0.689840   1.000000
    164         -0.669317   1.000000
    165         -0.662453   1.000000
    166         -0.643936   1.000000
    167         -0.643895   1.000000
    168         -0.606078   1.000000
    169         -0.593961   1.000000
    170         -0.580142   1.000000
    171         -0.564289   1.000000
    172         -0.558026   1.000000
    173         -0.543559   1.000000
    174         -0.539018   1.000000
    175         -0.538636   1.000000
    176         -0.460351   1.000000
    177         -0.450654   1.000001
    178         -0.445652   1.000001
    179         -0.439301   1.000002
    180         -0.429593   1.000003
    181         -0.429044   1.000004
    182         -0.392293   1.000037
    183         -0.349218   1.000390
    184         -0.337288   1.000696
    185         -0.323920   1.001282
    186         -0.323705   1.001294
    187         -0.310387   1.002279
    188         -0.306208   1.002699
    189         -0.114992   0.802475
    190         -0.111565   0.779513
    191         -0.020572   0.100550
    192         -0.017509   0.085926
    193         -0.008433   0.048148
    194          0.005027   0.006869
    195          0.009225  -0.002663
    196          0.010752  -0.005766
    197          0.517618  -0.000000
    198          0.821188  -0.000000
    199          0.834228  -0.000000
    200          0.882738  -0.000000
    201          0.889193  -0.000000
    202          0.901784  -0.000000
    203          0.902753  -0.000000
    204          2.803410   0.000000
    205          3.119454   0.000000
    206          3.169607   0.000000
    207          3.192033   0.000000
    208          3.220050   0.000000
    209          3.223016   0.000000
    210          4.547498   0.000000
    211          4.718027   0.000000
    212          4.795442   0.000000
    213          4.814719   0.000000
    214          4.816208   0.000000
    215          4.819305   0.000000
    216          4.901883   0.000000
    217          5.078242   0.000000
    218          5.155548   0.000000
    219          5.435024   0.000000
    220          5.537328   0.000000
    221          5.781844   0.000000
    222          5.824621   0.000000
    223          5.845382   0.000000
    224          5.852251   0.000000
    225          5.865477   0.000000
    226          6.169184   0.000000
    227          6.388753   0.000000
    228          6.603101   0.000000
    229          6.617333   0.000000
    230          6.624601   0.000000
    231          6.841798   0.000000
    232          7.000592   0.000000
    233          7.119930   0.000000
    234          7.141861   0.000000
    235          7.153696   0.000000
    236          7.158344   0.000000
    237          7.164165   0.000000
    238          7.207665   0.000000
    239          7.253769   0.000000
    240          7.589143   0.000000
 
  0.2000000E+00  0.1278043E-14  0.1276756E-14  0.8000000E-01
      1         -8.751395   1.000000
      2         -7.627033   1.000000
      3         -6.997379   1.000000
      4         -6.901568   1.000000
      5         -6.562082   1.000000
      6         -6.547788   1.000000
      7         -6.360882   1.000000
      8         -6.267242   1.000000
      9         -6.229791   1.000000
     10         -6.214427   1.000000
     11         -6.099903   1.000000
     12         -6.002567   1.000000
     13         -5.988000   1.000000
     14         -5.847925   1.000000
     15         -5.837760   1.000000
     16         -5.829112   1.000000
     17         -5.734718   1.000000
     18         -5.539139   1.000000
     19         -5.427335   1.000000
     20         -5.418112   1.000000
     21         -5.410308   1.000000
     22         -5.390879   1.000000
     23         -5.335172   1.000000
     24         -5.305196   1.000000
     25         -5.277966   1.000000
     26         -5.227577   1.000000
     27         -5.221352   1.000000
     28         -5.211441   1.000000
     29         -5.169437   1.000000
     30         -5.120620   1.000000
     31         -5.110384   1.000000
     32         -5.037961   1.000000
     33         -5.018923   1.000000
     34         -5.011271   1.000000
     35         -5.010449   1.000000
     36         -4.873990   1.000000
     37         -4.812256   1.000000
     38         -4.785074   1.000000
     39         -4.770559   1.000000
     40         -4.751217   1.000000
     41         -4.597847   1.000000
     42         -4.501828   1.000000
     43         -4.495736   1.000000
     44         -4.449253   1.000000
     45         -4.420217   1.000000
     46         -4.402723   1.000000
     47         -4.390983   1.000000
     48         -4.300279   1.000000
     49         -4.213800   1.000000
     50         -4.152887   1.000000
     51         -4.130880   1.000000
     52         -4.112972   1.000000
     53         -4.076427   1.000000
     54         -4.054826   1.000000
     55         -4.022107   1.000000
     56         -3.835432   1.000000
     57         -3.739153   1.000000
     58         -3.733117   1.000000
     59         -3.687027   1.000000
     60         -3.664311   1.000000
     61         -3.634443   1.000000
     62         -3.588082   1.000000
     63         -3.564742   1.000000
     64         -3.558327   1.000000
     65         -3.533519   1.000000
     66         -3.524681   1.000000
     67         -3.459135   1.000000
     68         -3.449645   1.000000
     69         -3.411969   1.000000
     70         -3.373605   1.000000
     71         -3.365390   1.000000
     72         -3.336990   1.000000
     73         -3.269241   1.000000
     74         -3.263623   1.000000
     75         -3.250539   1.000000
     76         -3.184795   1.000000
     77         -3.179566   1.000000
     78         -3.159417   1.000000
     79         -3.132920   1.000000
     80         -3.099922   1.000000
     81         -3.086942   1.000000
     82         -3.068150   1.000000
     83         -3.031518   1.000000
     84         -3.000243   1.000000
     85         -2.966601   1.000000
     86         -2.955322   1.000000
     87         -2.946228   1.000000
     88         -2.938754   1.000000
     89         -2.917157   1.000000
     90         -2.901293   1.000000
     91         -2.869780   1.000000
     92         -2.815672   1.000000
     93         -2.806751   1.000000
     94         -2.786716   1.000000
     95         -2.775074   1.000000
     96         -2.764853   1.000000
     97         -2.750052   1.000000
     98         -2.720907   1.000000
     99         -2.698320   1.000000
    100         -2.690261   1.000000
    101         -2.610434   1.000000
    102         -2.567239   1.000000
    103         -2.544300   1.000000
    104         -2.529297   1.000000
    105         -2.508694   1.000000
    106         -2.504673   1.000000
    107         -2.499391   1.000000
    108         -2.480553   1.000000
    109         -2.446950   1.000000
    110         -2.439088   1.000000
    111         -2.426430   1.000000
    112         -2.411295   1.000000
    113         -2.200311   1.000000
    114         -2.079344   1.000000
    115         -2.039985   1.000000
    116         -2.013681   1.000000
    117         -1.999029   1.000000
    118         -1.990469   1.000000
    119         -1.986990   1.000000
    120         -1.951907   1.000000
    121         -1.944068   1.000000
    122         -1.863831   1.000000
    123         -1.803651   1.000000
    124         -1.782120   1.000000
    125         -1.712346   1.000000
    126         -1.659769   1.000000
    127         -1.650383   1.000000
    128         -1.606706   1.000000
    129         -1.593229   1.000000
    130         -1.572183   1.000000
    131         -1.546599   1.000000
    132         -1.531797   1.000000
    133         -1.521651   1.000000
    134         -1.448356   1.000000
    135         -1.412918   1.000000
    136         -1.400931   1.000000
    137         -1.387555   1.000000
    138         -1.379811   1.000000
    139         -1.294543   1.000000
    140         -1.193195   1.000000
    141         -1.184031   1.000000
    142         -1.162903   1.000000
    143         -1.154348   1.000000
    144         -1.139547   1.000000
    145         -1.122569   1.000000
    146         -1.071383   1.000000
    147         -1.035746   1.000000
    148         -1.004270   1.000000
    149         -0.991788   1.000000
    150         -0.983251   1.000000
    151         -0.938081   1.000000
    152         -0.920268   1.000000
    153         -0.906921   1.000000
    154         -0.893252   1.000000
    155         -0.822981   1.000000
    156         -0.794597   1.000000
    157         -0.779082   1.000000
    158         -0.760529   1.000000
    159         -0.728829   1.000000
    160         -0.666212   1.000000
    161         -0.642797   1.000000
    162         -0.624018   1.000000
    163         -0.602077   1.000000
    164         -0.590633   1.000000
    165         -0.567464   1.000000
    166         -0.548009   1.000000
    167         -0.484292   1.000000
    168         -0.473892   1.000000
    169         -0.422994   1.000005
    170         -0.405920   1.000016
    171         -0.399779   1.000024
    172         -0.383985   1.000060
    173         -0.361273   1.000210
    174         -0.354461   1.000299
    175         -0.344441   1.000493
    176         -0.339700   1.000620
    177         -0.330829   1.000939
    178         -0.273042   1.008843
    179         -0.269961   1.009730
    180         -0.137135   0.924148
    181         -0.121083   0.840690
    182         -0.104820   0.731522
    183         -0.091724   0.629599
    184         -0.074102   0.482215
    185         -0.071207   0.457764
    186         -0.038124   0.202180
    187         -0.026420   0.131088
    188         -0.005333   0.037121
    189          0.003264   0.011326
    190          0.072273  -0.028325
    191          0.107688  -0.012980
    192          0.129152  -0.006698
    193          0.184068  -0.000723
    194          0.289763  -0.000001
    195          0.302431  -0.000001
    196          0.312806  -0.000000
    197          0.353966  -0.000000
    198          0.690149  -0.000000
    199          0.749750  -0.000000
    200          1.241833  -0.000000
    201          1.466855  -0.000000
    202          1.482362  -0.000000
    203          1.598838  -0.000000
    204          2.395144  -0.000000
    205          2.783663   0.000000
    206          2.905107   0.000000
    207          3.540725   0.000000
    208          3.645716   0.000000
    209          3.660911   0.000000
    210          3.742925   0.000000
    211          3.987225   0.000000
    212          4.412422   0.000000
    213          4.604188   0.000000
    214          4.742490   0.000000
    215          4.935580   0.000000
    216          4.995548   0.000000
    217          4.999299   0.000000
    218          5.194616   0.000000
    219          5.256926   0.000000
    220          5.467156   0.000000
    221          5.657883   0.000000
    222          5.689650   0.000000
    223          5.803004   0.000000
    224          5.916105   0.000000
    225          6.094816   0.000000
    226          6.194850   0.000000
    227          6.282251   0.000000
    228          6.322019   0.000000
    229          6.350307   0.000000
    230          6.545801   0.000000
    231          6.705272   0.000000
    232          6.748292   0.000000
    233          6.786401   0.000000
    234          6.871267   0.000000
    235          6.941513   0.000000
    236          7.066881   0.000000
    237          7.282473   0.000000
    238          7.471571   0.000000
    239          7.548345   0.000000
    240          7.595524   0.000000
 
  0.2000000E+00  0.2000000E+00  0.1276756E-14  0.8000000E-01
      1         -8.752531   1.000000
      2         -7.638055   1.000000
      3         -7.050741   1.000000
      4         -6.847789   1.000000
      5         -6.563770   1.000000
      6         -6.554117   1.000000
      7         -6.361714   1.000000
      8         -6.275622   1.000000
      9         -6.215512   1.000000
     10         -6.215074   1.000000
     11         -6.148404   1.000000
     12         -6.003280   1.000000
     13         -5.886786   1.000000
     14         -5.851013   1.000000
     15         -5.839389   1.000000
     16         -5.831506   1.000000
     17         -5.796733   1.000000
     18         -5.533424   1.000000
     19         -5.418422   1.000000
     20         -5.416630   1.000000
     21         -5.411573   1.000000
     22         -5.343600   1.000000
     23         -5.334566   1.000000
     24         -5.306058   1.000000
     25         -5.274993   1.000000
     26         -5.264616   1.000000
     27         -5.226862   1.000000
     28         -5.215391   1.000000
     29         -5.118843   1.000000
     30         -5.112915   1.000000
     31         -5.107929   1.000000
     32         -5.027927   1.000000
     33         -5.019032   1.000000
     34         -5.012803   1.000000
     35         -5.006252   1.000000
     36         -4.841272   1.000000
     37         -4.812007   1.000000
     38         -4.783788   1.000000
     39         -4.780577   1.000000
     40         -4.762102   1.000000
     41         -4.582005   1.000000
     42         -4.496743   1.000000
     43         -4.495042   1.000000
     44         -4.452024   1.000000
     45         -4.420266   1.000000
     46         -4.417203   1.000000
     47         -4.393894   1.000000
     48         -4.316739   1.000000
     49         -4.216814   1.000000
     50         -4.160239   1.000000
     51         -4.128392   1.000000
     52         -4.121726   1.000000
     53         -4.072755   1.000000
     54         -4.048257   1.000000
     55         -4.002485   1.000000
     56         -3.828765   1.000000
     57         -3.737717   1.000000
     58         -3.732225   1.000000
     59         -3.676001   1.000000
     60         -3.667455   1.000000
     61         -3.636652   1.000000
     62         -3.580739   1.000000
     63         -3.579520   1.000000
     64         -3.557544   1.000000
     65         -3.532799   1.000000
     66         -3.525943   1.000000
     67         -3.487879   1.000000
     68         -3.443043   1.000000
     69         -3.389767   1.000000
     70         -3.381568   1.000000
     71         -3.366328   1.000000
     72         -3.348458   1.000000
     73         -3.282370   1.000000
     74         -3.268341   1.000000
     75         -3.266370   1.000000
     76         -3.186035   1.000000
     77         -3.169396   1.000000
     78         -3.161913   1.000000
     79         -3.134395   1.000000
     80         -3.086249   1.000000
     81         -3.072911   1.000000
     82         -3.066163   1.000000
     83         -3.043520   1.000000
     84         -2.988705   1.000000
     85         -2.969601   1.000000
     86         -2.963610   1.000000
     87         -2.938780   1.000000
     88         -2.931017   1.000000
     89         -2.909321   1.000000
     90         -2.907601   1.000000
     91         -2.863007   1.000000
     92         -2.827698   1.000000
     93         -2.799262   1.000000
     94         -2.795296   1.000000
     95         -2.782073   1.000000
     96         -2.762740   1.000000
     97         -2.762119   1.000000
     98         -2.727434   1.000000
     99         -2.707030   1.000000
    100         -2.687938   1.000000
    101         -2.613447   1.000000
    102         -2.560382   1.000000
    103         -2.548554   1.000000
    104         -2.546958   1.000000
    105         -2.518778   1.000000
    106         -2.504434   1.000000
    107         -2.501351   1.000000
    108         -2.494666   1.000000
    109         -2.451950   1.000000
    110         -2.438033   1.000000
    111         -2.432000   1.000000
    112         -2.419513   1.000000
    113         -2.173952   1.000000
    114         -2.080308   1.000000
    115         -2.046208   1.000000
    116         -2.024217   1.000000
    117         -2.005071   1.000000
    118         -1.990489   1.000000
    119         -1.982693   1.000000
    120         -1.952601   1.000000
    121         -1.933016   1.000000
    122         -1.915138   1.000000
    123         -1.822364   1.000000
    124         -1.788052   1.000000
    125         -1.711811   1.000000
    126         -1.664298   1.000000
    127         -1.653220   1.000000
    128         -1.609520   1.000000
    129         -1.596713   1.000000
    130         -1.579998   1.000000
    131         -1.552166   1.000000
    132         -1.534653   1.000000
    133         -1.530703   1.000000
    134         -1.443087   1.000000
    135         -1.401286   1.000000
    136         -1.396772   1.000000
    137         -1.380647   1.000000
    138         -1.376671   1.000000
    139         -1.203843   1.000000
    140         -1.199157   1.000000
    141         -1.192181   1.000000
    142         -1.167382   1.000000
    143         -1.159100   1.000000
    144         -1.139109   1.000000
    145         -1.121684   1.000000
    146         -1.056037   1.000000
    147         -1.044596   1.000000
    148         -1.023838   1.000000
    149         -0.993759   1.000000
    150         -0.983049   1.000000
    151         -0.936148   1.000000
    152         -0.923873   1.000000
    153         -0.907650   1.000000
    154         -0.906923   1.000000
    155         -0.824410   1.000000
    156         -0.803971   1.000000
    157         -0.771869   1.000000
    158         -0.758757   1.000000
    159         -0.711289   1.000000
    160         -0.675540   1.000000
    161         -0.668088   1.000000
    162         -0.624702   1.000000
    163         -0.613009   1.000000
    164         -0.607624   1.000000
    165         -0.564235   1.000000
    166         -0.546149   1.000000
    167         -0.487464   1.000000
    168         -0.474185   1.000000
    169         -0.411269   1.000012
    170         -0.405588   1.000016
    171         -0.392363   1.000037
    172         -0.372265   1.000116
    173         -0.362903   1.000193
    174         -0.348802   1.000398
    175         -0.346563   1.000445
    176         -0.338535   1.000656
    177         -0.328251   1.001056
    178         -0.277789   1.007593
    179         -0.272471   1.009003
    180         -0.132258   0.901519
    181         -0.124417   0.860124
    182         -0.106514   0.743904
    183         -0.082140   0.550135
    184         -0.065828   0.412712
    185         -0.063047   0.389716
    186         -0.035721   0.186547
    187         -0.009592   0.052515
    188         -0.005165   0.036549
    189          0.006701   0.002888
    190          0.094339  -0.018311
    191          0.103141  -0.014684
    192          0.126716  -0.007266
    193          0.187703  -0.000608
    194          0.294842  -0.000001
    195          0.300824  -0.000001
    196          0.309451  -0.000000
    197          0.353667  -0.000000
    198          0.707394  -0.000000
    199          0.740210  -0.000000
    200          1.254774  -0.000000
    201          1.450438  -0.000000
    202          1.480998  -0.000000
    203          1.605483  -0.000000
    204          2.354360  -0.000000
    205          2.862415   0.000000
    206          2.903045   0.000000
    207          3.500864   0.000000
    208          3.649335   0.000000
    209          3.688987   0.000000
    210          3.731486   0.000000
    211          3.934501   0.000000
    212          4.394992   0.000000
    213          4.607840   0.000000
    214          4.726141   0.000000
    215          4.971654   0.000000
    216          4.997499   0.000000
    217          5.004294   0.000000
    218          5.225398   0.000000
    219          5.323438   0.000000
    220          5.447234   0.000000
    221          5.584637   0.000000
    222          5.702493   0.000000
    223          5.874519   0.000000
    224          5.895431   0.000000
    225          6.078327   0.000000
    226          6.255215   0.000000
    227          6.284343   0.000000
    228          6.333770   0.000000
    229          6.346533   0.000000
    230          6.621876   0.000000
    231          6.690742   0.000000
    232          6.723606   0.000000
    233          6.779642   0.000000
    234          6.780520   0.000000
    235          6.945945   0.000000
    236          7.051272   0.000000
    237          7.233037   0.000000
    238          7.456979   0.000000
    239          7.603435   0.000000
    240          7.606724   0.000000
 
  0.1276756E-14  0.2000000E+00  0.1276756E-14  0.8000000E-01
      1         -8.751391   1.000000
      2         -7.627030   1.000000
      3         -6.997271   1.000000
      4         -6.901492   1.000000
      5         -6.562179   1.000000
      6         -6.547930   1.000000
      7         -6.360872   1.000000
      8         -6.266947   1.000000
      9         -6.229814   1.000000
     10         -6.214702   1.000000
     11         -6.099946   1.000000
     12         -6.002648   1.000000
     13         -5.988028   1.000000
     14         -5.847828   1.000000
     15         -5.837608   1.000000
     16         -5.828998   1.000000
     17         -5.734718   1.000000
     18         -5.539275   1.000000
     19         -5.427303   1.000000
     20         -5.418036   1.000000
     21         -5.410268   1.000000
     22         -5.390820   1.000000
     23         -5.335218   1.000000
     24         -5.305260   1.000000
     25         -5.278044   1.000000
     26         -5.227458   1.000000
     27         -5.221228   1.000000
     28         -5.211525   1.000000
     29         -5.169443   1.000000
     30         -5.120729   1.000000
     31         -5.110488   1.000000
     32         -5.037670   1.000000
     33         -5.018883   1.000000
     34         -5.011266   1.000000
     35         -5.010580   1.000000
     36         -4.873934   1.000000
     37         -4.812232   1.000000
     38         -4.785057   1.000000
     39         -4.770656   1.000000
     40         -4.751433   1.000000
     41         -4.597895   1.000000
     42         -4.501877   1.000000
     43         -4.495916   1.000000
     44         -4.449293   1.000000
     45         -4.420048   1.000000
     46         -4.402697   1.000000
     47         -4.390926   1.000000
     48         -4.300374   1.000000
     49         -4.213836   1.000000
     50         -4.152972   1.000000
     51         -4.130748   1.000000
     52         -4.113034   1.000000
     53         -4.076467   1.000000
     54         -4.054756   1.000000
     55         -4.022106   1.000000
     56         -3.835773   1.000000
     57         -3.739006   1.000000
     58         -3.733184   1.000000
     59         -3.687347   1.000000
     60         -3.664676   1.000000
     61         -3.634596   1.000000
     62         -3.588524   1.000000
     63         -3.564449   1.000000
     64         -3.557959   1.000000
     65         -3.533352   1.000000
     66         -3.524550   1.000000
     67         -3.459083   1.000000
     68         -3.449622   1.000000
     69         -3.412102   1.000000
     70         -3.373654   1.000000
     71         -3.365435   1.000000
     72         -3.337076   1.000000
     73         -3.268982   1.000000
     74         -3.262969   1.000000
     75         -3.249902   1.000000
     76         -3.184870   1.000000
     77         -3.179730   1.000000
     78         -3.159548   1.000000