unknown system                          
           1
     8.468310    0.000000    0.000000
     4.234155    7.333772    0.000000
     0.000000    0.000000   24.965662
   Pt   H 
    36     1
Direct configuration=     1
   0.00000000  0.00000000  0.34046764
   0.33400137  0.00000000  0.34046764
   0.66800274  0.00000000  0.34046764
   0.00000000  0.33400137  0.34046764
   0.33400137  0.33400137  0.34046764
   0.66800274  0.33400137  0.34046764
   0.00000000  0.66800274  0.34046764
   0.33400137  0.66800274  0.34046764
   0.66800274  0.66800274  0.34046764
   0.11133379  0.11133379  0.43297074
   0.44533516  0.11133379  0.43297074
   0.77933653  0.11133379  0.43297074
   0.11133379  0.44533516  0.43297074
   0.44533516  0.44533516  0.43297074
   0.77933653  0.44533516  0.43297074
   0.11133379  0.77933653  0.43297074
   0.44533516  0.77933653  0.43297074
   0.77933653  0.77933653  0.43297074
   0.89093717  0.22418618  0.52500132
   0.22338137  0.22348823  0.52557880
   0.55734610  0.22363879  0.52412352
   0.89100506  0.55552251  0.52518920
   0.22350698  0.55746333  0.52412297
   0.55712703  0.55723955  0.52432561
   0.88999492  0.89019105  0.52422706
   0.22408830  0.89099882  0.52499494
   0.55539326  0.89115906  0.52519506
   0.99926007  0.99947680  0.61741257
   0.33887573  0.00034920  0.62082685
   0.66875363  0.00253545  0.61775513
   0.00026579  0.33899128  0.62082942
   0.33770862  0.33795487  0.61734943
   0.66812263  0.33593427  0.61757764
   0.00230316  0.66896458  0.61774282
   0.33572982  0.66835260  0.61758072
   0.66872245  0.66892049  0.61783205
   0.15360988  0.15365694  0.66079288
