  37  37   0   0
  0.4190497E+02  0.8468310E-09  0.8468310E-09  0.2496566E-08  0.5000000E-15
  1.000000000000000E-004
  CAR 
 unknown system                          
      8.87859737     -9.89032892  301     -0.06541611      1.00000000
     -9.890  0.0000E+00  0.0000E+00
     -9.828  0.0000E+00  0.0000E+00
     -9.765  0.0000E+00  0.0000E+00
     -9.703 -0.6457E-28 -0.4040E-29
     -9.640 -0.1046E-23 -0.6543E-25
     -9.578 -0.7688E-20 -0.4811E-21
     -9.515 -0.2562E-16 -0.1603E-17
     -9.452 -0.3742E-13 -0.2343E-14
     -9.390 -0.2525E-10 -0.1582E-11
     -9.327 -0.7625E-08 -0.4786E-09
     -9.265 -0.1022E-05 -0.6442E-07
     -9.202 -0.5976E-04 -0.3803E-05
     -9.140 -0.1472E-02 -0.9589E-04
     -9.077 -0.1390E-01 -0.9655E-03
     -9.014 -0.3295E-01 -0.3027E-02
     -8.952  0.9772E-01  0.3087E-02
     -8.889  0.3794E+00  0.2682E-01
     -8.827  0.7599E+00  0.7436E-01
     -8.764  0.2576E+01  0.2355E+00
     -8.702  0.3760E+01  0.4708E+00
     -8.639  0.1546E+01  0.5675E+00
     -8.577 -0.2394E+00  0.5525E+00
     -8.514  0.6996E+00  0.5962E+00
     -8.451  0.3185E+01  0.7955E+00
     -8.389  0.3701E+01  0.1027E+01
     -8.326  0.3644E+01  0.1255E+01
     -8.264  0.3412E+01  0.1469E+01
     -8.201  0.1091E+01  0.1537E+01
     -8.139 -0.2055E+00  0.1524E+01
     -8.076 -0.4001E+00  0.1499E+01
     -8.013  0.9500E-02  0.1500E+01
     -7.951  0.3736E+01  0.1733E+01
     -7.888  0.7587E+01  0.2208E+01
     -7.826  0.4262E+01  0.2475E+01
     -7.763  0.4231E+00  0.2501E+01
     -7.701  0.2118E+01  0.2634E+01
     -7.638  0.4071E+01  0.2888E+01
     -7.575  0.2382E+01  0.3037E+01
     -7.513  0.2262E+01  0.3179E+01
     -7.450  0.3433E+01  0.3394E+01
     -7.388  0.1778E+01  0.3505E+01
     -7.325  0.2540E+01  0.3664E+01
     -7.263  0.8065E+01  0.4168E+01
     -7.200  0.1180E+02  0.4907E+01
     -7.138  0.8557E+01  0.5442E+01
     -7.075  0.4717E+01  0.5737E+01
     -7.012  0.4365E+01  0.6010E+01
     -6.950  0.4162E+01  0.6271E+01
     -6.887  0.1882E+01  0.6388E+01
     -6.825  0.5831E+00  0.6425E+01
     -6.762  0.2687E+01  0.6593E+01
     -6.700  0.5705E+01  0.6950E+01
     -6.637  0.1134E+02  0.7659E+01
     -6.574  0.1712E+02  0.8730E+01
     -6.512  0.1518E+02  0.9680E+01
     -6.449  0.1058E+02  0.1034E+02
     -6.387  0.8064E+01  0.1085E+02
     -6.324  0.1028E+02  0.1149E+02
     -6.262  0.1745E+02  0.1258E+02
     -6.199  0.2155E+02  0.1393E+02
     -6.137  0.2759E+02  0.1566E+02
     -6.074  0.3609E+02  0.1791E+02
     -6.011  0.3479E+02  0.2009E+02
     -5.949  0.3261E+02  0.2213E+02
     -5.886  0.3474E+02  0.2430E+02
     -5.824  0.3219E+02  0.2632E+02
     -5.761  0.2417E+02  0.2783E+02
     -5.699  0.2513E+02  0.2940E+02
     -5.636  0.3746E+02  0.3175E+02
     -5.573  0.4642E+02  0.3465E+02
     -5.511  0.4667E+02  0.3757E+02
     -5.448  0.5094E+02  0.4076E+02
     -5.386  0.6097E+02  0.4457E+02
     -5.323  0.6302E+02  0.4851E+02
     -5.261  0.5476E+02  0.5194E+02
     -5.198  0.4692E+02  0.5488E+02
     -5.136  0.4471E+02  0.5767E+02
     -5.073  0.5312E+02  0.6100E+02
     -5.010  0.7210E+02  0.6551E+02
     -4.948  0.5955E+02  0.6923E+02
     -4.885  0.2982E+02  0.7110E+02
     -4.823  0.2922E+02  0.7293E+02
     -4.760  0.4403E+02  0.7568E+02
     -4.698  0.3620E+02  0.7795E+02
     -4.635  0.1896E+02  0.7913E+02
     -4.572  0.2397E+02  0.8063E+02
     -4.510  0.4425E+02  0.8340E+02
     -4.447  0.6037E+02  0.8718E+02
     -4.385  0.6034E+02  0.9095E+02
     -4.322  0.4978E+02  0.9407E+02
     -4.260  0.4420E+02  0.9683E+02
     -4.197  0.4389E+02  0.9958E+02
     -4.135  0.5143E+02  0.1028E+03
     -4.072  0.6038E+02  0.1066E+03
     -4.009  0.5265E+02  0.1099E+03
     -3.947  0.4414E+02  0.1126E+03
     -3.884  0.4315E+02  0.1153E+03
     -3.822  0.3921E+02  0.1178E+03
     -3.759  0.3573E+02  0.1200E+03
     -3.697  0.4834E+02  0.1230E+03
     -3.634  0.6221E+02  0.1269E+03
     -3.571  0.5944E+02  0.1307E+03
     -3.509  0.5575E+02  0.1341E+03
     -3.446  0.6127E+02  0.1380E+03
     -3.384  0.7354E+02  0.1426E+03
     -3.321  0.7774E+02  0.1474E+03
     -3.259  0.7227E+02  0.1520E+03
     -3.196  0.6810E+02  0.1562E+03
     -3.134  0.7912E+02  0.1612E+03
     -3.071  0.8832E+02  0.1667E+03
     -3.008  0.8005E+02  0.1717E+03
     -2.946  0.7702E+02  0.1765E+03
     -2.883  0.7429E+02  0.1812E+03
     -2.821  0.7671E+02  0.1860E+03
     -2.758  0.9603E+02  0.1920E+03
     -2.696  0.1066E+03  0.1986E+03
     -2.633  0.9157E+02  0.2044E+03
     -2.570  0.6629E+02  0.2085E+03
     -2.508  0.6359E+02  0.2125E+03
     -2.445  0.6682E+02  0.2167E+03
     -2.383  0.5170E+02  0.2199E+03
     -2.320  0.3258E+02  0.2220E+03
     -2.258  0.2801E+02  0.2237E+03
     -2.195  0.3096E+02  0.2256E+03
     -2.133  0.3725E+02  0.2280E+03
     -2.070  0.5557E+02  0.2315E+03
     -2.007  0.7977E+02  0.2364E+03
     -1.945  0.9317E+02  0.2423E+03
     -1.882  0.8457E+02  0.2476E+03
     -1.820  0.6416E+02  0.2516E+03
     -1.757  0.4915E+02  0.2547E+03
     -1.695  0.4391E+02  0.2574E+03
     -1.632  0.4298E+02  0.2601E+03
     -1.569  0.5036E+02  0.2632E+03
     -1.507  0.6076E+02  0.2670E+03
     -1.444  0.6201E+02  0.2709E+03
     -1.382  0.5963E+02  0.2746E+03
     -1.319  0.5758E+02  0.2783E+03
     -1.257  0.5076E+02  0.2814E+03
     -1.194  0.5217E+02  0.2847E+03
     -1.131  0.6965E+02  0.2891E+03
     -1.069  0.8259E+02  0.2942E+03
     -1.006  0.8471E+02  0.2995E+03
     -0.944  0.7311E+02  0.3041E+03
     -0.881  0.5808E+02  0.3077E+03
     -0.819  0.5543E+02  0.3112E+03
     -0.756  0.5000E+02  0.3143E+03
     -0.694  0.4248E+02  0.3170E+03
     -0.631  0.5186E+02  0.3202E+03
     -0.568  0.6576E+02  0.3243E+03
     -0.506  0.6176E+02  0.3282E+03
     -0.443  0.5850E+02  0.3319E+03
     -0.381  0.6665E+02  0.3360E+03
     -0.318  0.8378E+02  0.3413E+03
     -0.256  0.9276E+02  0.3471E+03
     -0.193  0.7159E+02  0.3516E+03
     -0.130  0.5950E+02  0.3553E+03
     -0.068  0.8746E+02  0.3607E+03
     -0.005  0.9188E+02  0.3665E+03
      0.057  0.5069E+02  0.3697E+03
      0.120  0.3613E+02  0.3719E+03
      0.182  0.5562E+02  0.3754E+03
      0.245  0.5216E+02  0.3787E+03
      0.307  0.4048E+02  0.3812E+03
      0.370  0.3614E+02  0.3835E+03
      0.433  0.2399E+02  0.3850E+03
      0.495  0.1160E+02  0.3857E+03
      0.558  0.5012E+01  0.3860E+03
      0.620  0.4487E+01  0.3863E+03
      0.683  0.6538E+01  0.3867E+03
      0.745  0.1054E+02  0.3874E+03
      0.808  0.1323E+02  0.3882E+03
      0.871  0.9906E+01  0.3888E+03
      0.933  0.9304E+01  0.3894E+03
      0.996  0.1235E+02  0.3902E+03
      1.058  0.8394E+01  0.3907E+03
      1.121  0.4344E+01  0.3910E+03
      1.183  0.7148E+01  0.3914E+03
      1.246  0.1139E+02  0.3921E+03
      1.308  0.1193E+02  0.3929E+03
      1.371  0.1094E+02  0.3935E+03
      1.434  0.8203E+01  0.3941E+03
      1.496  0.1649E+02  0.3951E+03
      1.559  0.2825E+02  0.3969E+03
      1.621  0.2454E+02  0.3984E+03
      1.684  0.1786E+02  0.3995E+03
      1.746  0.1389E+02  0.4004E+03
      1.809  0.6072E+01  0.4008E+03
      1.872  0.3049E+01  0.4010E+03
      1.934  0.5970E+01  0.4013E+03
      1.997  0.6766E+01  0.4017E+03
      2.059  0.4780E+01  0.4020E+03
      2.122  0.3085E+01  0.4022E+03
      2.184  0.5368E+01  0.4026E+03
      2.247  0.9991E+01  0.4032E+03
      2.309  0.1262E+02  0.4040E+03
      2.372  0.1314E+02  0.4048E+03
      2.435  0.1833E+02  0.4060E+03
      2.497  0.2267E+02  0.4074E+03
      2.560  0.1409E+02  0.4083E+03
      2.622  0.6647E+01  0.4087E+03
      2.685  0.7165E+01  0.4091E+03
      2.747  0.1187E+02  0.4099E+03
      2.810  0.1645E+02  0.4109E+03
      2.873  0.1510E+02  0.4118E+03
      2.935  0.1240E+02  0.4126E+03
      2.998  0.1007E+02  0.4132E+03
      3.060  0.1111E+02  0.4139E+03
      3.123  0.1548E+02  0.4149E+03
      3.185  0.1263E+02  0.4157E+03
      3.248  0.9166E+01  0.4163E+03
      3.310  0.9631E+01  0.4169E+03
      3.373  0.7892E+01  0.4174E+03
      3.436  0.5366E+01  0.4177E+03
      3.498  0.6575E+01  0.4181E+03
      3.561  0.7610E+01  0.4186E+03
      3.623  0.1105E+02  0.4193E+03
      3.686  0.1882E+02  0.4205E+03
      3.748  0.2089E+02  0.4218E+03
      3.811  0.1425E+02  0.4227E+03
      3.874  0.6430E+01  0.4231E+03
      3.936  0.5111E+01  0.4234E+03
      3.999  0.8601E+01  0.4239E+03
      4.061  0.1082E+02  0.4246E+03
      4.124  0.7724E+01  0.4251E+03
      4.186  0.2234E+01  0.4252E+03
      4.249  0.1292E+01  0.4253E+03
      4.311  0.4454E+01  0.4256E+03
      4.374  0.1413E+02  0.4265E+03
      4.437  0.2733E+02  0.4282E+03
      4.499  0.2462E+02  0.4297E+03
      4.562  0.1121E+02  0.4304E+03
      4.624  0.6440E+01  0.4308E+03
      4.687  0.8179E+01  0.4313E+03
      4.749  0.1078E+02  0.4320E+03
      4.812  0.1091E+02  0.4327E+03
      4.875  0.7925E+01  0.4332E+03
      4.937  0.8544E+01  0.4337E+03
      5.000  0.1428E+02  0.4346E+03
      5.062  0.1261E+02  0.4354E+03
      5.125  0.1000E+02  0.4360E+03
      5.187  0.1204E+02  0.4368E+03
      5.250  0.1147E+02  0.4375E+03
      5.313  0.1149E+02  0.4382E+03
      5.375  0.7982E+01  0.4387E+03
      5.438  0.5976E+01  0.4391E+03
      5.500  0.1530E+02  0.4400E+03
      5.563  0.2325E+02  0.4415E+03
      5.625  0.2137E+02  0.4428E+03
      5.688  0.2080E+02  0.4441E+03
      5.750  0.2499E+02  0.4457E+03
      5.813  0.2108E+02  0.4470E+03
      5.876  0.1439E+02  0.4479E+03
      5.938  0.1829E+02  0.4491E+03
      6.001  0.2813E+02  0.4508E+03
      6.063  0.3161E+02  0.4528E+03
      6.126  0.2236E+02  0.4542E+03
      6.188  0.1406E+02  0.4551E+03
      6.251  0.1663E+02  0.4561E+03
      6.314  0.2339E+02  0.4576E+03
      6.376  0.2971E+02  0.4594E+03
      6.439  0.2268E+02  0.4609E+03
      6.501  0.1290E+02  0.4617E+03
      6.564  0.1839E+02  0.4628E+03
      6.626  0.2821E+02  0.4646E+03
      6.689  0.2948E+02  0.4664E+03
      6.751  0.2733E+02  0.4681E+03
      6.814  0.1949E+02  0.4694E+03
      6.877  0.1773E+02  0.4705E+03
      6.939  0.2071E+02  0.4718E+03
      7.002  0.1361E+02  0.4726E+03
      7.064  0.1100E+02  0.4733E+03
      7.127  0.1911E+02  0.4745E+03
      7.189  0.2344E+02  0.4760E+03
      7.252  0.2126E+02  0.4773E+03
      7.315  0.1411E+02  0.4782E+03
      7.377  0.4878E+01  0.4785E+03
      7.440  0.8243E+00  0.4785E+03
      7.502  0.3674E+01  0.4788E+03
      7.565  0.7275E+01  0.4792E+03
      7.627  0.7210E+01  0.4797E+03
      7.690  0.3798E+01  0.4799E+03
      7.752  0.4945E+00  0.4799E+03
      7.815 -0.1353E+00  0.4799E+03
      7.878  0.4585E+00  0.4800E+03
      7.940  0.5481E+00  0.4800E+03
      8.003  0.1385E+00  0.4800E+03
      8.065 -0.2995E-01  0.4800E+03
      8.128 -0.1381E-01  0.4800E+03
      8.190 -0.1471E-02  0.4800E+03
      8.253 -0.5976E-04  0.4800E+03
      8.316 -0.1022E-05  0.4800E+03
      8.378 -0.7625E-08  0.4800E+03
      8.441 -0.2525E-10  0.4800E+03
      8.503 -0.3748E-13  0.4800E+03
      8.566  0.0000E+00  0.4800E+03
      8.628  0.0000E+00  0.4800E+03
      8.691  0.0000E+00  0.4800E+03
      8.753  0.0000E+00  0.4800E+03
      8.816  0.0000E+00  0.4800E+03
      8.879  0.0000E+00  0.4800E+03
