   37   37    1    1
  0.4190497E+02  0.8468310E-09  0.8468310E-09  0.2496566E-08  0.5000000E-15
  1.000000000000000E-004
  CAR 
 unknown system                          
    361     13    240
 
  0.1276756E-14  0.1276756E-14  0.1276756E-14  0.4000000E-01
      1         -8.890329   1.000000
      2         -7.628586   1.000000
      3         -6.601339   1.000000
      4         -6.493021   1.000000
      5         -6.475294   1.000000
      6         -6.466832   1.000000
      7         -6.457085   1.000000
      8         -6.454793   1.000000
      9         -6.447053   1.000000
     10         -6.440814   1.000000
     11         -6.026939   1.000000
     12         -5.917982   1.000000
     13         -5.915440   1.000000
     14         -5.908304   1.000000
     15         -5.902678   1.000000
     16         -5.900810   1.000000
     17         -5.655324   1.000000
     18         -5.463505   1.000000
     19         -5.453853   1.000000
     20         -5.449464   1.000000
     21         -5.448205   1.000000
     22         -5.443655   1.000000
     23         -5.372247   1.000000
     24         -5.232699   1.000000
     25         -5.225652   1.000000
     26         -5.224642   1.000000
     27         -5.218893   1.000000
     28         -5.212874   1.000000
     29         -5.083627   1.000000
     30         -5.024437   1.000000
     31         -5.017692   1.000000
     32         -5.012867   1.000000
     33         -5.011812   1.000000
     34         -5.004770   1.000000
     35         -4.984937   1.000000
     36         -4.978643   1.000000
     37         -4.964225   1.000000
     38         -4.962741   1.000000
     39         -4.942891   1.000000
     40         -4.921372   1.000000
     41         -4.792061   1.000000
     42         -4.375420   1.000000
     43         -4.372642   1.000000
     44         -4.361881   1.000000
     45         -4.339207   1.000000
     46         -4.318114   1.000000
     47         -4.311670   1.000000
     48         -4.305397   1.000000
     49         -4.297676   1.000000
     50         -4.295448   1.000000
     51         -4.208924   1.000000
     52         -4.137572   1.000000
     53         -4.115268   1.000000
     54         -4.047676   1.000000
     55         -3.949844   1.000000
     56         -3.576375   1.000000
     57         -3.573595   1.000000
     58         -3.559900   1.000000
     59         -3.559263   1.000000
     60         -3.556230   1.000000
     61         -3.526295   1.000000
     62         -3.479616   1.000000
     63         -3.378244   1.000000
     64         -3.374790   1.000000
     65         -3.372763   1.000000
     66         -3.367211   1.000000
     67         -3.360243   1.000000
     68         -3.357893   1.000000
     69         -3.333996   1.000000
     70         -3.327416   1.000000
     71         -3.313357   1.000000
     72         -3.308504   1.000000
     73         -3.297781   1.000000
     74         -3.293234   1.000000
     75         -3.266857   1.000000
     76         -3.265342   1.000000
     77         -3.230408   1.000000
     78         -3.152620   1.000000
     79         -3.145521   1.000000
     80         -3.134940   1.000000
     81         -3.130451   1.000000
     82         -3.126440   1.000000
     83         -3.047763   1.000000
     84         -2.939289   1.000000
     85         -2.932657   1.000000
     86         -2.930092   1.000000
     87         -2.927443   1.000000
     88         -2.913838   1.000000
     89         -2.905971   1.000000
     90         -2.901113   1.000000
     91         -2.892593   1.000000
     92         -2.822932   1.000000
     93         -2.815032   1.000000
     94         -2.763622   1.000000
     95         -2.756116   1.000000
     96         -2.733511   1.000000
     97         -2.727187   1.000000
     98         -2.713791   1.000000
     99         -2.681878   1.000000
    100         -2.677748   1.000000
    101         -2.648977   1.000000
    102         -2.534358   1.000000
    103         -2.528457   1.000000
    104         -2.509224   1.000000
    105         -2.499611   1.000000
    106         -2.497633   1.000000
    107         -2.492394   1.000000
    108         -2.188699   1.000000
    109         -2.011517   1.000000
    110         -2.006477   1.000000
    111         -1.995187   1.000000
    112         -1.991663   1.000000
    113         -1.987220   1.000000
    114         -1.982633   1.000000
    115         -1.981831   1.000000
    116         -1.955119   1.000000
    117         -1.943453   1.000000
    118         -1.942765   1.000000
    119         -1.942023   1.000000
    120         -1.881799   1.000000
    121         -1.851013   1.000000
    122         -1.835417   1.000000
    123         -1.732880   1.000000
    124         -1.717775   1.000000
    125         -1.702544   1.000000
    126         -1.700549   1.000000
    127         -1.698526   1.000000
    128         -1.595409   1.000000
    129         -1.591851   1.000000
    130         -1.528129   1.000000
    131         -1.527161   1.000000
    132         -1.509393   1.000000
    133         -1.498136   1.000000
    134         -1.468053   1.000000
    135         -1.289761   1.000000
    136         -1.272690   1.000000
    137         -1.261508   1.000000
    138         -1.260334   1.000000
    139         -1.246090   1.000000
    140         -1.245128   1.000000
    141         -1.178265   1.000000
    142         -1.175731   1.000000
    143         -1.023793   1.000000
    144         -1.018120   1.000000
    145         -1.013916   1.000000
    146         -1.009422   1.000000
    147         -1.005725   1.000000
    148         -0.947296   1.000000
    149         -0.858377   1.000000
    150         -0.851273   1.000000
    151         -0.833230   1.000000
    152         -0.826595   1.000000
    153         -0.821788   1.000000
    154         -0.815383   1.000000
    155         -0.800085   1.000000
    156         -0.794639   1.000000
    157         -0.792862   1.000000
    158         -0.790775   1.000000
    159         -0.785876   1.000000
    160         -0.705306   1.000000
    161         -0.684932   1.000000
    162         -0.681689   1.000000
    163         -0.669183   1.000000
    164         -0.659629   1.000000
    165         -0.656013   1.000000
    166         -0.636408   1.000000
    167         -0.632786   1.000000
    168         -0.590225   1.000000
    169         -0.584830   1.000000
    170         -0.555148   1.000000
    171         -0.550542   1.000000
    172         -0.546156   1.000000
    173         -0.539336   1.000000
    174         -0.532265   1.000000
    175         -0.529297   1.000000
    176         -0.447253   1.000000
    177         -0.443831   1.000001
    178         -0.436366   1.000001
    179         -0.430151   1.000002
    180         -0.428606   1.000002
    181         -0.424362   1.000002
    182         -0.414625   1.000005
    183         -0.340899   1.000344
    184         -0.319197   1.000976
    185         -0.311137   1.001399
    186         -0.310126   1.001462
    187         -0.301359   1.002120
    188         -0.297691   1.002464
    189         -0.102903   0.793880
    190         -0.096091   0.746549
    191         -0.011430   0.108801
    192         -0.002646   0.067943
    193          0.015216   0.008352
    194          0.018586   0.000410
    195          0.018941  -0.000371
    196          0.024551  -0.011340
    197          0.374134  -0.000000
    198          0.821754  -0.000000
    199          0.890696  -0.000000
    200          0.896646  -0.000000
    201          0.908026  -0.000000
    202          0.911481  -0.000000
    203          0.913838  -0.000000
    204          2.507704  -0.000000
    205          3.192452   0.000000
    206          3.196640   0.000000
    207          3.217109   0.000000
    208          3.223196   0.000000
    209          3.240736   0.000000
    210          4.420369   0.000000
    211          4.761312   0.000000
    212          4.788235   0.000000
    213          4.822359   0.000000
    214          4.826412   0.000000
    215          4.831305   0.000000
    216          4.852874   0.000000
    217          4.973081   0.000000
    218          5.103364   0.000000
    219          5.502495   0.000000
    220          5.532769   0.000000
    221          5.825935   0.000000
    222          5.830141   0.000000
    223          5.851877   0.000000
    224          5.858585   0.000000
    225          5.868018   0.000000
    226          6.106024   0.000000
    227          6.513478   0.000000
    228          6.620235   0.000000
    229          6.636183   0.000000
    230          6.641368   0.000000
    231          6.744833   0.000000
    232          6.876283   0.000000
    233          7.132495   0.000000
    234          7.139032   0.000000
    235          7.153990   0.000000
    236          7.168599   0.000000
    237          7.169927   0.000000
    238          7.171548   0.000000
    239          7.310583   0.000000
    240          7.878597   0.000000
 
  0.2000000E+00  0.1278043E-14  0.1276756E-14  0.8000000E-01
      1         -8.742164   1.000000
      2         -7.484588   1.000000
      3         -6.977126   1.000000
      4         -6.592796   1.000000
      5         -6.562923   1.000000
      6         -6.435853   1.000000
      7         -6.344186   1.000000
      8         -6.287474   1.000000
      9         -6.235246   1.000000
     10         -6.218701   1.000000
     11         -6.084817   1.000000
     12         -6.005265   1.000000
     13         -5.908662   1.000000
     14         -5.844050   1.000000
     15         -5.839653   1.000000
     16         -5.826512   1.000000
     17         -5.607989   1.000000
     18         -5.540897   1.000000
     19         -5.419970   1.000000
     20         -5.412945   1.000000
     21         -5.404397   1.000000
     22         -5.367873   1.000000
     23         -5.328475   1.000000
     24         -5.314615   1.000000
     25         -5.269304   1.000000
     26         -5.244848   1.000000
     27         -5.226294   1.000000
     28         -5.209460   1.000000
     29         -5.155576   1.000000
     30         -5.121014   1.000000
     31         -5.101800   1.000000
     32         -5.030389   1.000000
     33         -5.014357   1.000000
     34         -5.003564   1.000000
     35         -4.998297   1.000000
     36         -4.870902   1.000000
     37         -4.804270   1.000000
     38         -4.796732   1.000000
     39         -4.779540   1.000000
     40         -4.757303   1.000000
     41         -4.732668   1.000000
     42         -4.497079   1.000000
     43         -4.491891   1.000000
     44         -4.474437   1.000000
     45         -4.422956   1.000000
     46         -4.407984   1.000000
     47         -4.388935   1.000000
     48         -4.315548   1.000000
     49         -4.212616   1.000000
     50         -4.173128   1.000000
     51         -4.121484   1.000000
     52         -4.109950   1.000000
     53         -4.090466   1.000000
     54         -4.054717   1.000000
     55         -3.982420   1.000000
     56         -3.829685   1.000000
     57         -3.739493   1.000000
     58         -3.722862   1.000000
     59         -3.678124   1.000000
     60         -3.660426   1.000000
     61         -3.630535   1.000000
     62         -3.579946   1.000000
     63         -3.559888   1.000000
     64         -3.542915   1.000000
     65         -3.524624   1.000000
     66         -3.517571   1.000000
     67         -3.485566   1.000000
     68         -3.449189   1.000000
     69         -3.401966   1.000000
     70         -3.373299   1.000000
     71         -3.361219   1.000000
     72         -3.333390   1.000000
     73         -3.266777   1.000000
     74         -3.258309   1.000000
     75         -3.246608   1.000000
     76         -3.185861   1.000000
     77         -3.178871   1.000000
     78         -3.147139   1.000000
     79         -3.112081   1.000000
     80         -3.083142   1.000000
     81         -3.070247   1.000000
     82         -3.058549   1.000000
     83         -3.035959   1.000000
     84         -2.987145   1.000000
     85         -2.964778   1.000000
     86         -2.952047   1.000000
     87         -2.944968   1.000000
     88         -2.937610   1.000000
     89         -2.915058   1.000000
     90         -2.898366   1.000000
     91         -2.852968   1.000000
     92         -2.809113   1.000000
     93         -2.799091   1.000000
     94         -2.794820   1.000000
     95         -2.775209   1.000000
     96         -2.758009   1.000000
     97         -2.743406   1.000000
     98         -2.709377   1.000000
     99         -2.704723   1.000000
    100         -2.681091   1.000000
    101         -2.595184   1.000000
    102         -2.548953   1.000000
    103         -2.526100   1.000000
    104         -2.515109   1.000000
    105         -2.509138   1.000000
    106         -2.497866   1.000000
    107         -2.490976   1.000000
    108         -2.479290   1.000000
    109         -2.438075   1.000000
    110         -2.422529   1.000000
    111         -2.412960   1.000000
    112         -2.407199   1.000000
    113         -2.255206   1.000000
    114         -2.099842   1.000000
    115         -2.059746   1.000000
    116         -2.015284   1.000000
    117         -2.000447   1.000000
    118         -1.982976   1.000000
    119         -1.971928   1.000000
    120         -1.962079   1.000000
    121         -1.937143   1.000000
    122         -1.900574   1.000000
    123         -1.804159   1.000000
    124         -1.781513   1.000000
    125         -1.758218   1.000000
    126         -1.666304   1.000000
    127         -1.641378   1.000000
    128         -1.595776   1.000000
    129         -1.585474   1.000000
    130         -1.571992   1.000000
    131         -1.534373   1.000000
    132         -1.518839   1.000000
    133         -1.510575   1.000000
    134         -1.440901   1.000000
    135         -1.423905   1.000000
    136         -1.402220   1.000000
    137         -1.385943   1.000000
    138         -1.371424   1.000000
    139         -1.352161   1.000000
    140         -1.193267   1.000000
    141         -1.174279   1.000000
    142         -1.166095   1.000000
    143         -1.141446   1.000000
    144         -1.130790   1.000000
    145         -1.110295   1.000000
    146         -1.077510   1.000000
    147         -1.025501   1.000000
    148         -1.001663   1.000000
    149         -0.986648   1.000000
    150         -0.972858   1.000000
    151         -0.944246   1.000000
    152         -0.906850   1.000000
    153         -0.899255   1.000000
    154         -0.890842   1.000000
    155         -0.854834   1.000000
    156         -0.780356   1.000000
    157         -0.763711   1.000000
    158         -0.746001   1.000000
    159         -0.703390   1.000000
    160         -0.648613   1.000000
    161         -0.628136   1.000000
    162         -0.617305   1.000000
    163         -0.602401   1.000000
    164         -0.579798   1.000000
    165         -0.559422   1.000000
    166         -0.534049   1.000000
    167         -0.477712   1.000000
    168         -0.457782   1.000000
    169         -0.429573   1.000002
    170         -0.392485   1.000019
    171         -0.382833   1.000034
    172         -0.377078   1.000048
    173         -0.340821   1.000346
    174         -0.339924   1.000362
    175         -0.333767   1.000491
    176         -0.330053   1.000587
    177         -0.323361   1.000806
    178         -0.266566   1.007702
    179         -0.255593   1.010838
    180         -0.120503   0.896748
    181         -0.110729   0.843281
    182         -0.090705   0.706614
    183         -0.075420   0.584196
    184         -0.069968   0.538475
    185         -0.055865   0.419575
    186         -0.026832   0.198864
    187         -0.007572   0.089895
    188          0.001357   0.051899
    189          0.016697   0.004741
    190          0.088289  -0.025974
    191          0.120612  -0.012224
    192          0.140821  -0.006502
    193          0.171947  -0.001999
    194          0.300254  -0.000001
    195          0.311409  -0.000001
    196          0.316719  -0.000000
    197          0.366536  -0.000000
    198          0.656675  -0.000000
    199          0.769746  -0.000000
    200          1.208730  -0.000000
    201          1.482346  -0.000000
    202          1.492578  -0.000000
    203          1.616487  -0.000000
    204          2.299632  -0.000000
    205          2.750189   0.000000
    206          2.934750   0.000000
    207          3.455003   0.000000
    208          3.657888   0.000000
    209          3.665660   0.000000
    210          3.770207   0.000000
    211          3.963942   0.000000
    212          4.383933   0.000000
    213          4.623201   0.000000
    214          4.680543   0.000000
    215          4.968035   0.000000
    216          4.988719   0.000000
    217          5.009248   0.000000
    218          5.148627   0.000000
    219          5.226833   0.000000
    220          5.480382   0.000000
    221          5.627929   0.000000
    222          5.734149   0.000000
    223          5.843188   0.000000
    224          5.925995   0.000000
    225          6.060518   0.000000
    226          6.202945   0.000000
    227          6.232268   0.000000
    228          6.333193   0.000000
    229          6.358038   0.000000
    230          6.619970   0.000000
    231          6.707631   0.000000
    232          6.730597   0.000000
    233          6.790499   0.000000
    234          6.851828   0.000000
    235          6.914556   0.000000
    236          7.057763   0.000000
    237          7.224606   0.000000
    238          7.495212   0.000000
    239          7.566959   0.000000
    240          7.623640   0.000000
 
  0.2000000E+00  0.2000000E+00  0.1276756E-14  0.8000000E-01
      1         -8.742204   1.000000
      2         -7.484697   1.000000
      3         -6.978246   1.000000
      4         -6.591785   1.000000
      5         -6.562652   1.000000
      6         -6.435519   1.000000
      7         -6.344519   1.000000
      8         -6.289356   1.000000
      9         -6.233368   1.000000
     10         -6.218318   1.000000
     11         -6.085668   1.000000
     12         -6.004861   1.000000
     13         -5.905708   1.000000
     14         -5.845327   1.000000
     15         -5.842345   1.000000
     16         -5.826593   1.000000
     17         -5.608119   1.000000
     18         -5.539728   1.000000
     19         -5.420851   1.000000
     20         -5.412458   1.000000
     21         -5.403866   1.000000
     22         -5.368682   1.000000
     23         -5.328403   1.000000
     24         -5.314548   1.000000
     25         -5.269255   1.000000
     26         -5.243726   1.000000
     27         -5.228047   1.000000
     28         -5.211085   1.000000
     29         -5.157829   1.000000
     30         -5.119230   1.000000
     31         -5.099323   1.000000
     32         -5.032950   1.000000
     33         -5.014500   1.000000
     34         -5.002150   1.000000
     35         -4.998113   1.000000
     36         -4.871591   1.000000
     37         -4.804083   1.000000
     38         -4.796346   1.000000
     39         -4.780507   1.000000
     40         -4.755486   1.000000
     41         -4.731051   1.000000
     42         -4.497795   1.000000
     43         -4.489428   1.000000
     44         -4.474545   1.000000
     45         -4.423401   1.000000
     46         -4.407309   1.000000
     47         -4.388144   1.000000
     48         -4.318026   1.000000
     49         -4.211636   1.000000
     50         -4.172696   1.000000
     51         -4.121998   1.000000
     52         -4.111002   1.000000
     53         -4.090524   1.000000
     54         -4.054404   1.000000
     55         -3.981036   1.000000
     56         -3.827314   1.000000
     57         -3.738893   1.000000
     58         -3.722862   1.000000
     59         -3.676477   1.000000
     60         -3.656739   1.000000
     61         -3.629460   1.000000
     62         -3.578100   1.000000
     63         -3.564009   1.000000
     64         -3.543118   1.000000
     65         -3.525117   1.000000
     66         -3.518577   1.000000
     67         -3.487028   1.000000
     68         -3.448749   1.000000
     69         -3.400585   1.000000
     70         -3.370293   1.000000
     71         -3.358560   1.000000
     72         -3.334466   1.000000
     73         -3.269012   1.000000
     74         -3.264643   1.000000
     75         -3.254022   1.000000
     76         -3.185072   1.000000
     77         -3.177018   1.000000
     78         -3.145970   1.000000
     79         -3.112390   1.000000
     80         -3.080304   1.000000
     81         -3.064360   1.000000
     82         -3.056346   1.000000
     83         -3.040589   1.000000
     84         -2.986828   1.000000
     85         -2.966569   1.000000
     86         -2.951843   1.000000
     87         -2.946400   1.000000
     88         -2.936826   1.000000
     89         -2.913575   1.000000
     90         -2.897786   1.000000
     91         -2.852453   1.000000
     92         -2.810795   1.000000
     93         -2.802914   1.000000
     94         -2.790356   1.000000
     95         -2.774455   1.000000
     96         -2.758306   1.000000
     97         -2.743981   1.000000
     98         -2.710557   1.000000
     99         -2.705496   1.000000
    100         -2.683410   1.000000
    101         -2.595626   1.000000
    102         -2.549585   1.000000
    103         -2.526364   1.000000
    104         -2.515247   1.000000
    105         -2.511815   1.000000
    106         -2.496092   1.000000
    107         -2.492318   1.000000
    108         -2.477787   1.000000
    109         -2.434811   1.000000
    110         -2.423562   1.000000
    111         -2.415050   1.000000
    112         -2.407300   1.000000
    113         -2.252368   1.000000
    114         -2.098429   1.000000
    115         -2.060397   1.000000
    116         -2.017072   1.000000
    117         -1.997842   1.000000
    118         -1.983052   1.000000
    119         -1.973810   1.000000
    120         -1.963342   1.000000
    121         -1.936963   1.000000
    122         -1.899983   1.000000
    123         -1.805083   1.000000
    124         -1.783091   1.000000
    125         -1.758883   1.000000
    126         -1.670765   1.000000
    127         -1.641850   1.000000
    128         -1.591001   1.000000
    129         -1.583943   1.000000
    130         -1.577191   1.000000
    131         -1.536333   1.000000
    132         -1.519815   1.000000
    133         -1.511012   1.000000
    134         -1.440675   1.000000
    135         -1.425233   1.000000
    136         -1.399269   1.000000
    137         -1.385754   1.000000
    138         -1.371757   1.000000
    139         -1.351293   1.000000
    140         -1.190572   1.000000
    141         -1.174624   1.000000
    142         -1.168532   1.000000
    143         -1.143000   1.000000
    144         -1.129718   1.000000
    145         -1.110847   1.000000
    146         -1.075695   1.000000
    147         -1.025028   1.000000
    148         -1.000305   1.000000
    149         -0.985531   1.000000
    150         -0.974157   1.000000
    151         -0.945692   1.000000
    152         -0.907370   1.000000
    153         -0.896714   1.000000
    154         -0.892342   1.000000
    155         -0.852317   1.000000
    156         -0.780328   1.000000
    157         -0.763977   1.000000
    158         -0.745167   1.000000
    159         -0.702634   1.000000
    160         -0.649787   1.000000
    161         -0.629707   1.000000
    162         -0.618096   1.000000
    163         -0.603241   1.000000
    164         -0.581113   1.000000
    165         -0.562142   1.000000
    166         -0.535050   1.000000
    167         -0.477344   1.000000
    168         -0.457038   1.000000
    169         -0.428243   1.000002
    170         -0.392645   1.000019
    171         -0.383876   1.000032
    172         -0.376226   1.000050
    173         -0.340964   1.000343
    174         -0.339197   1.000375
    175         -0.332788   1.000515
    176         -0.332204   1.000529
    177         -0.322233   1.000849
    178         -0.268535   1.007219
    179         -0.258004   1.010083
    180         -0.121748   0.902873
    181         -0.113259   0.858021
    182         -0.089875   0.700282
    183         -0.073979   0.572174
    184         -0.067826   0.520388
    185         -0.053206   0.397517
    186         -0.025392   0.189492
    187         -0.004735   0.076954
    188          0.002421   0.047906
    189          0.019715  -0.002036
    190          0.087722  -0.026233
    191          0.121527  -0.011909
    192          0.140048  -0.006674
    193          0.171217  -0.002060
    194          0.301550  -0.000001
    195          0.311507  -0.000001
    196          0.317893  -0.000000
    197          0.364016  -0.000000
    198          0.659728  -0.000000
    199          0.773406  -0.000000
    200          1.207543  -0.000000
    201          1.481268  -0.000000
    202          1.491731  -0.000000
    203          1.615309  -0.000000
    204          2.296855  -0.000000
    205          2.752706   0.000000
    206          2.937741   0.000000
    207          3.454276   0.000000
    208          3.657552   0.000000
    209          3.664630   0.000000
    210          3.770586   0.000000
    211          3.964821   0.000000
    212          4.382007   0.000000
    213          4.622605   0.000000
    214          4.677873   0.000000
    215          4.967351   0.000000
    216          4.989026   0.000000
    217          5.010219   0.000000
    218          5.149263   0.000000
    219          5.226730   0.000000
    220          5.483453   0.000000
    221          5.628023   0.000000
    222          5.732153   0.000000
    223          5.844391   0.000000
    224          5.929158   0.000000
    225          6.061305   0.000000
    226          6.201832   0.000000
    227          6.232001   0.000000
    228          6.334969   0.000000
    229          6.360894   0.000000
    230          6.620302   0.000000
    231          6.707883   0.000000
    232          6.729062   0.000000
    233          6.789324   0.000000
    234          6.851642   0.000000
    235          6.914708   0.000000
    236          7.056903   0.000000
    237          7.220065   0.000000
    238          7.493966   0.000000
    239          7.566852   0.000000
    240          7.622406   0.000000
 
  0.1276756E-14  0.2000000E+00  0.1276756E-14  0.8000000E-01
      1         -8.741994   1.000000
      2         -7.483975   1.000000
      3         -6.969812   1.000000
      4         -6.601554   1.000000
      5         -6.569229   1.000000
      6         -6.429785   1.000000
      7         -6.343739   1.000000
      8         -6.267606   1.000000
      9         -6.255246   1.000000
     10         -6.222553   1.000000
     11         -6.073350   1.000000
     12         -6.006704   1.000000
     13         -5.916218   1.000000
     14         -5.848228   1.000000
     15         -5.840416   1.000000
     16         -5.826820   1.000000
     17         -5.625007   1.000000
     18         -5.487014   1.000000
     19         -5.420520   1.000000
     20         -5.414974   1.000000
     21         -5.403862   1.000000
     22         -5.391414   1.000000
     23         -5.335280   1.000000
     24         -5.307309   1.000000
     25         -5.273434   1.000000
     26         -5.229789   1.000000
     27         -5.224887   1.000000
     28         -5.212218   1.000000
     29         -5.186617   1.000000
     30         -5.127491   1.000000
     31         -5.086772   1.000000
     32         -5.027456   1.000000
     33         -5.020650   1.000000
     34         -5.002549   1.000000
     35         -5.000069   1.000000
     36         -4.887453   1.000000
     37         -4.802872   1.000000
     38         -4.800647   1.000000
     39         -4.776093   1.000000
     40         -4.773533   1.000000
     41         -4.701515   1.000000
     42         -4.503107   1.000000
     43         -4.492108   1.000000
     44         -4.427129   1.000000
     45         -4.422604   1.000000
     46         -4.391162   1.000000
     47         -4.387836   1.000000
     48         -4.328289   1.000000
     49         -4.208515   1.000000
     50         -4.207902   1.000000
     51         -4.125331   1.000000
     52         -4.121624   1.000000
     53         -4.070124   1.000000
     54         -4.051616   1.000000
     55         -3.999963   1.000000
     56         -3.817932   1.000000
     57         -3.742215   1.000000
     58         -3.733648   1.000000
     59         -3.684826   1.000000
     60         -3.652241   1.000000
     61         -3.633169   1.000000
     62         -3.571309   1.000000
     63         -3.564089   1.000000
     64         -3.545553   1.000000
     65         -3.522220   1.000000
     66         -3.521271   1.000000
     67         -3.464685   1.000000
     68         -3.447317   1.000000
     69         -3.395558   1.000000
     70         -3.375123   1.000000
     71         -3.361769   1.000000
     72         -3.349240   1.000000
     73         -3.272353   1.000000
     74         -3.259456   1.000000
     75         -3.245535   1.000000
     76         -3.187830   1.000000
     77         -3.181120   1.000000
     78         -3.169170   1.000000