unknown system                          
           1
     8.468310    0.000000    0.000000
     4.234155    7.333772    0.000000
     0.000000    0.000000   24.965662
   Pt   H 
    36     1
Direct configuration=     1
   0.00000000  0.00000000  0.34046764
   0.33400137  0.00000000  0.34046764
   0.66800274  0.00000000  0.34046764
   0.00000000  0.33400137  0.34046764
   0.33400137  0.33400137  0.34046764
   0.66800274  0.33400137  0.34046764
   0.00000000  0.66800274  0.34046764
   0.33400137  0.66800274  0.34046764
   0.66800274  0.66800274  0.34046764
   0.11133379  0.11133379  0.43297074
   0.44533516  0.11133379  0.43297074
   0.77933653  0.11133379  0.43297074
   0.11133379  0.44533516  0.43297074
   0.44533516  0.44533516  0.43297074
   0.77933653  0.44533516  0.43297074
   0.11133379  0.77933653  0.43297074
   0.44533516  0.77933653  0.43297074
   0.77933653  0.77933653  0.43297074
   0.88968901  0.22352225  0.52463861
   0.22366357  0.22342644  0.52458466
   0.55673383  0.22322538  0.52417434
   0.89121928  0.55453320  0.52566885
   0.22334338  0.55696812  0.52432813
   0.55641992  0.55702464  0.52426969
   0.89027857  0.89013660  0.52452739
   0.22318512  0.89061525  0.52472765
   0.55680340  0.88996562  0.52439579
   0.00056212  0.99969226  0.61772302
   0.33713887  0.99972449  0.61771277
   0.66763624  0.00200297  0.61780525
   0.00120246  0.33483158  0.62021141
   0.33584258  0.33513143  0.61745869
   0.66626285  0.33509495  0.61739924
   0.00105579  0.66976362  0.61768813
   0.33459186  0.66812047  0.61755431
   0.66647225  0.66985956  0.61760900
   0.04563100  0.24587597  0.67738442
