
     Program PWSCF v.7.1 starts on  4Feb2025 at 13:27:52 
        Git branch: heads/qe-7.1
        Last git commit: 48ba0178f8fede6d020eb786884699a9f063f55d-dirty
        Last git commit date: Fri Jan 27 14:22:33 2023 +0000
        Last git commit subject: Merge branch 'fix_hubbard' into 'develop'

     This program is part of the open-source Quantum ESPRESSO suite
     for quantum simulation of materials; please cite
         "P. Giannozzi et al., J. Phys.:Condens. Matter 21 395502 (2009);
         "P. Giannozzi et al., J. Phys.:Condens. Matter 29 465901 (2017);
         "P. Giannozzi et al., J. Chem. Phys. 152 154105 (2020);
          URL http://www.quantum-espresso.org", 
     in publications or presentations arising from this work. More details at
     http://www.quantum-espresso.org/quote

     Parallel version (MPI), running on    48 processors

     MPI processes distributed on     1 nodes
     241726 MiB available memory on the printing compute node when the environment starts

     Reading input from espresso.pwi
Warning: card &CELL ignored
Warning: card / ignored
Warning: card &FCP ignored
Warning: card / ignored
Warning: card &RISM ignored
Warning: card / ignored

     Current dimensions of program PWSCF are:
     Max number of different atomic species (ntypx) = 10
     Max number of k-points (npk) =  40000
     Max angular momentum in pseudopotentials (lmaxx) =  4
     file Pt.pbe-n-kjpaw_psl.1.0.0.UPF: wavefunction(s)  6S 5D renormalized
     file H.pbe-kjpaw_psl.1.0.0.UPF: wavefunction(s)  1S renormalized
     file C.pbe-n-kjpaw_psl.1.0.0.UPF: wavefunction(s)  2S 2P renormalized

     **************************************************************************
     Initializing libbeef V0.1.2 with the BEEF-vdW functional.
     Citation: Wellendorff et al., PRB 85, 235149 (2012).
     **************************************************************************


     IMPORTANT: XC functional enforced from input :
     Exchange-correlation= BEEF-VDW
                           (   1   4  43  14   2   0   0)
     Any further DFT definition will be discarded
     Please, verify this is what you really want


     R & G space division:  proc/nbgrp/npool/nimage =      48
     Subspace diagonalization in iterative solution of the eigenvalue problem:
     one sub-group per band group will be used
     custom distributed-memory algorithm (size of sub-group:  2*  2 procs)


     Parallelization info
     --------------------
     sticks:   dense  smooth     PW     G-vecs:    dense   smooth      PW
     Min         150      59     16                30552     7447    1068
     Max         151      60     17                30571     7456    1081
     Sum        7243    2839    769              1467143   357639   51591

     Using Slab Decomposition



     bravais-lattice index     =            0
     lattice parameter (alat)  =      16.0028  a.u.
     unit-cell volume          =   10463.1828 (a.u.)^3
     number of atoms/cell      =           38
     number of atomic types    =            3
     number of electrons       =       365.00
     number of Kohn-Sham states=          220
     kinetic-energy cutoff     =      40.0000  Ry
     charge density cutoff     =     410.0000  Ry
     scf convergence threshold =      1.0E-06
     mixing beta               =       0.7000
     number of iterations used =            8  local-TF  mixing
     Exchange-correlation= BEEF-VDW
                           (   1   4  43  14   2   0   0)

     celldm(1)=  16.002787  celldm(2)=   0.000000  celldm(3)=   0.000000
     celldm(4)=   0.000000  celldm(5)=   0.000000  celldm(6)=   0.000000

     crystal axes: (cart. coord. in units of alat)
               a(1) = (   1.000000   0.000000   0.000000 )  
               a(2) = (   0.500000   0.866025   0.000000 )  
               a(3) = (   0.000000   0.000000   2.948128 )  

     reciprocal axes: (cart. coord. in units 2 pi/alat)
               b(1) = (  1.000000 -0.577350  0.000000 )  
               b(2) = (  0.000000  1.154701  0.000000 )  
               b(3) = (  0.000000  0.000000  0.339198 )  


     PseudoPot. # 1 for Pt read from file:
     /users/kbadger1/espresso/pseudo/pslibrary.1.0.0/pbe/PSEUDOPOTENTIALS/Pt.pbe-n-kjpaw_psl.1.0.0.UPF
     MD5 check sum: 2e24a0b5bf98a4ed1a57fa81bca8c143
     Pseudo is Projector augmented-wave + core cor, Zval = 10.0
     Generated using 'atomic' code by A. Dal Corso  v.7.0
     Shape of augmentation charge: PSQ
     Using radial grid of 1277 points,  6 beta functions with: 
                l(1) =   0
                l(2) =   0
                l(3) =   1
                l(4) =   1
                l(5) =   2
                l(6) =   2
     Q(r) pseudized with 0 coefficients 


     PseudoPot. # 2 for H  read from file:
     /users/kbadger1/espresso/pseudo/pslibrary.1.0.0/pbe/PSEUDOPOTENTIALS/H.pbe-kjpaw_psl.1.0.0.UPF
     MD5 check sum: fe4c6fa958fa6d3815bf5d2419cbf1df
     Pseudo is Projector augmented-wave, Zval =  1.0
     Generated using 'atomic' code by A. Dal Corso  v.7.0
     Shape of augmentation charge: PSQ
     Using radial grid of  929 points,  2 beta functions with: 
                l(1) =   0
                l(2) =   0
     Q(r) pseudized with 0 coefficients 


     PseudoPot. # 3 for C  read from file:
     /users/kbadger1/espresso/pseudo/pslibrary.1.0.0/pbe/PSEUDOPOTENTIALS/C.pbe-n-kjpaw_psl.1.0.0.UPF
     MD5 check sum: 6408e75cdba28732cea38a4db8498ce4
     Pseudo is Projector augmented-wave + core cor, Zval =  4.0
     Generated using 'atomic' code by A. Dal Corso  v.7.0
     Shape of augmentation charge: PSQ
     Using radial grid of 1073 points,  4 beta functions with: 
                l(1) =   0
                l(2) =   0
                l(3) =   1
                l(4) =   1
     Q(r) pseudized with 0 coefficients 


     atomic species   valence    mass     pseudopotential
        Pt            10.00   195.08400     Pt( 1.00)
        H              1.00     1.00800     H ( 1.00)
        C              4.00    12.01100     C ( 1.00)

     No symmetry found



   Cartesian axes

     site n.     atom                  positions (alat units)
         1           Pt  tau(   1) = (   0.0000000   0.0000000   1.0037422  )
         2           Pt  tau(   2) = (   0.3340014   0.0000000   1.0037422  )
         3           Pt  tau(   3) = (   0.6680027   0.0000000   1.0037422  )
         4           Pt  tau(   4) = (   0.1670007   0.2892537   1.0037422  )
         5           Pt  tau(   5) = (   0.5010021   0.2892537   1.0037422  )
         6           Pt  tau(   6) = (   0.8350034   0.2892537   1.0037422  )
         7           Pt  tau(   7) = (   0.3340014   0.5785073   1.0037422  )
         8           Pt  tau(   8) = (   0.6680027   0.5785073   1.0037422  )
         9           Pt  tau(   9) = (   1.0020041   0.5785073   1.0037422  )
        10           Pt  tau(  10) = (   0.1670007   0.0964179   1.2764532  )
        11           Pt  tau(  11) = (   0.5010021   0.0964179   1.2764532  )
        12           Pt  tau(  12) = (   0.8350034   0.0964179   1.2764532  )
        13           Pt  tau(  13) = (   0.3340014   0.3856716   1.2764532  )
        14           Pt  tau(  14) = (   0.6680027   0.3856716   1.2764532  )
        15           Pt  tau(  15) = (   1.0020041   0.3856716   1.2764532  )
        16           Pt  tau(  16) = (   0.5010021   0.6749252   1.2764532  )
        17           Pt  tau(  17) = (   0.8350034   0.6749252   1.2764532  )
        18           Pt  tau(  18) = (   1.1690048   0.6749252   1.2764532  )
        19           Pt  tau(  19) = (   0.0027052   0.1956914   1.5504849  )
        20           Pt  tau(  20) = (   0.3335640   0.1955819   1.5501700  )
        21           Pt  tau(  21) = (   0.6681598   0.1958801   1.5452469  )
        22           Pt  tau(  22) = (   0.1682177   0.4820541   1.5529443  )
        23           Pt  tau(  23) = (   0.5009165   0.4847063   1.5451880  )
        24           Pt  tau(  24) = (   0.8354254   0.4847227   1.5451010  )
        25           Pt  tau(  25) = (   0.3365610   0.7748308   1.5499456  )
        26           Pt  tau(  26) = (   0.6682057   0.7742979   1.5488506  )
        27           Pt  tau(  27) = (   1.0000439   0.7746974   1.5495649  )
        28           Pt  tau(  28) = (  -0.0084855   0.0032074   1.8364099  )
        29           Pt  tau(  29) = (   0.3450775   0.0032308   1.8361030  )
        30           Pt  tau(  30) = (   0.6682651   0.0085932   1.8236051  )
        31           Pt  tau(  31) = (   0.1682945   0.3133205   1.8438141  )
        32           Pt  tau(  32) = (   0.5051663   0.2987141   1.8196045  )
        33           Pt  tau(  33) = (   0.8314191   0.2987422   1.8196789  )
        34           Pt  tau(  34) = (   0.3362755   0.5878394   1.8231844  )
        35           Pt  tau(  35) = (   0.6683191   0.5813518   1.8191180  )
        36           Pt  tau(  36) = (   1.0003077   0.5878681   1.8230632  )
        37           H   tau(  37) = (   0.1684437   0.2638016   2.0303835  )
        38           C   tau(  38) = (   0.1683890   0.0971937   1.9404320  )

     number of k points=    13  Marzari-Vanderbilt smearing, width (Ry)=  0.0200
                       cart. coord. in units 2pi/alat
        k(    1) = (   0.0000000   0.0000000   0.0000000), wk =   0.0800000
        k(    2) = (   0.0000000   0.2309401   0.0000000), wk =   0.1600000
        k(    3) = (   0.0000000   0.4618802   0.0000000), wk =   0.1600000
        k(    4) = (   0.2000000  -0.1154701   0.0000000), wk =   0.1600000
        k(    5) = (   0.2000000   0.1154701   0.0000000), wk =   0.1600000
        k(    6) = (   0.2000000   0.3464102   0.0000000), wk =   0.1600000
        k(    7) = (   0.2000000  -0.5773503   0.0000000), wk =   0.1600000
        k(    8) = (   0.2000000  -0.3464102   0.0000000), wk =   0.1600000
        k(    9) = (   0.4000000  -0.2309401   0.0000000), wk =   0.1600000
        k(   10) = (   0.4000000   0.0000000   0.0000000), wk =   0.1600000
        k(   11) = (   0.4000000   0.2309401   0.0000000), wk =   0.1600000
        k(   12) = (   0.4000000  -0.6928203   0.0000000), wk =   0.1600000
        k(   13) = (   0.4000000  -0.4618802   0.0000000), wk =   0.1600000

     Dense  grid:  1467143 G-vectors     FFT dimensions: ( 108, 108, 320)

     Smooth grid:   357639 G-vectors     FFT dimensions: (  72,  72, 192)

     Estimated max dynamical RAM per process >     214.57 MB

     Estimated total dynamical RAM >      10.06 GB

     Initial potential from superposition of free atoms

     starting charge     364.9938, renormalised to     365.0000

     negative rho (up, down):  3.561E-03 0.000E+00


     %%%%%%%%%%%%%%%%%%%%%%%%%%%%%%%%%%%%%%%%%%%%%%%%%%%%%%%%%%%%%%%%%%%%%%%%
     %                                                                      %
     % You are using vdW-DF, which was implemented by the Thonhauser group. %
     % Please cite the following two papers that made this development      %
     % possible and the two reviews that describe the various versions:     %
     %                                                                      %
     %   T. Thonhauser et al., PRL 115, 136402 (2015).                      %
     %   T. Thonhauser et al., PRB 76, 125112 (2007).                       %
     %   K. Berland et al., Rep. Prog. Phys. 78, 066501 (2015).             %
     %   D.C. Langreth et al., J. Phys.: Condens. Matter 21, 084203 (2009). %
     %                                                                      %
     % If you are calculating stress with vdW-DF, please also cite:         %
     %                                                                      %
     %   R. Sabatini et al., J. Phys.: Condens. Matter 24, 424209 (2012).   %
     %                                                                      %
     %%%%%%%%%%%%%%%%%%%%%%%%%%%%%%%%%%%%%%%%%%%%%%%%%%%%%%%%%%%%%%%%%%%%%%%%

     %%%%%%%%%%%%%%%%%%%%%%%%%%%%%%%%%%%%%%%%%%%%%%%%%%%%%%%%%%%%%%%%%%%%%%%%
     %                                                                      %
     %  vdW-DF NEWS:                                                        %
     %                                                                      %
     %  * vdW-DF3 is now available. DOI: 10.1021/acs.jctc.0c00471           %
     %    use with input_dft = 'vdW-DF3-opt1' or 'vdW-DF3-opt2'             %
     %                                                                      %
     %  * Unscreened and range-separated hybrid vdW-DF-cx functionals       %
     %    DOI: 10.1063/1.4986522 and 10.1088/1361-648X/ac2ad2               %
     %    use with input_dft = 'vdW-DF-cx0'    and 'vdW-DF-ahcx'            %
     %  * Unscreened and range-separated hybrid vdW-DF2-b86r functionals    %
     %    DOI: 10.1063/1.4986522 and DOI: 10.1103/PhysRevX.12.041003        %
     %    use with input_dft = 'vdW-DF2-br0' and 'vdW-DF2-ahbr'             %
     %                                                                      %
     %%%%%%%%%%%%%%%%%%%%%%%%%%%%%%%%%%%%%%%%%%%%%%%%%%%%%%%%%%%%%%%%%%%%%%%%


     Starting wfcs are  329 randomized atomic wfcs
     Checking if some PAW data can be deallocated... 

     total cpu time spent up to now is       19.8 secs

     per-process dynamical memory:   212.9 Mb

     Self-consistent Calculation

     iteration #  1     ecut=    40.00 Ry     beta= 0.70
     Davidson diagonalization with overlap
     ethr =  1.00E-02,  avg # of iterations =  2.0

     Threshold (ethr) on eigenvalues was too large:
     Diagonalizing with lowered threshold

     Davidson diagonalization with overlap
     ethr =  5.30E-04,  avg # of iterations =  3.8

     negative rho (up, down):  1.588E-02 0.000E+00

     total cpu time spent up to now is       73.0 secs

     total energy              =  -27774.02551723 Ry
     estimated scf accuracy    <       2.19154861 Ry

     iteration #  2     ecut=    40.00 Ry     beta= 0.70
     Davidson diagonalization with overlap
     ethr =  6.00E-04,  avg # of iterations =  2.0

     negative rho (up, down):  1.314E-02 0.000E+00

     total cpu time spent up to now is       85.7 secs

     total energy              =  -27774.25763715 Ry
     estimated scf accuracy    <       0.91442430 Ry

     iteration #  3     ecut=    40.00 Ry     beta= 0.70
     Davidson diagonalization with overlap
     ethr =  2.51E-04,  avg # of iterations =  2.0

     negative rho (up, down):  9.187E-03 0.000E+00

     total cpu time spent up to now is      109.5 secs

     total energy              =  -27774.32612566 Ry
     estimated scf accuracy    <       0.21323073 Ry

     iteration #  4     ecut=    40.00 Ry     beta= 0.70
     Davidson diagonalization with overlap
     ethr =  5.84E-05,  avg # of iterations =  9.7

     negative rho (up, down):  5.234E-03 0.000E+00

     total cpu time spent up to now is      145.6 secs

     total energy              =  -27774.36737815 Ry
     estimated scf accuracy    <       0.08958185 Ry

     iteration #  5     ecut=    40.00 Ry     beta= 0.70
     Davidson diagonalization with overlap
     ethr =  2.45E-05,  avg # of iterations =  4.3

     negative rho (up, down):  3.317E-03 0.000E+00

     total cpu time spent up to now is      171.7 secs

     total energy              =  -27774.37550517 Ry
     estimated scf accuracy    <       0.05752166 Ry

     iteration #  6     ecut=    40.00 Ry     beta= 0.70
     Davidson diagonalization with overlap
     ethr =  1.58E-05,  avg # of iterations =  2.0

     negative rho (up, down):  1.137E-03 0.000E+00

     total cpu time spent up to now is      196.2 secs

     total energy              =  -27774.37760337 Ry
     estimated scf accuracy    <       0.00653057 Ry

     iteration #  7     ecut=    40.00 Ry     beta= 0.70
     Davidson diagonalization with overlap
     c_bands:  1 eigenvalues not converged
     c_bands:  1 eigenvalues not converged
     c_bands:  1 eigenvalues not converged
     c_bands:  1 eigenvalues not converged
     ethr =  1.79E-06,  avg # of iterations = 17.2

     negative rho (up, down):  7.125E-04 0.000E+00

     total cpu time spent up to now is      253.5 secs

     total energy              =  -27774.38033526 Ry
     estimated scf accuracy    <       0.00223967 Ry

     iteration #  8     ecut=    40.00 Ry     beta= 0.70
     Davidson diagonalization with overlap
     ethr =  6.14E-07,  avg # of iterations =  3.3

     negative rho (up, down):  4.732E-04 0.000E+00

     total cpu time spent up to now is      271.4 secs

     total energy              =  -27774.38061218 Ry
     estimated scf accuracy    <       0.00054193 Ry

     iteration #  9     ecut=    40.00 Ry     beta= 0.70
     Davidson diagonalization with overlap
     ethr =  1.48E-07,  avg # of iterations =  3.8

     negative rho (up, down):  3.704E-04 0.000E+00

     total cpu time spent up to now is      296.6 secs

     total energy              =  -27774.38067580 Ry
     estimated scf accuracy    <       0.00028682 Ry

     iteration # 10     ecut=    40.00 Ry     beta= 0.70
     Davidson diagonalization with overlap
     ethr =  7.86E-08,  avg # of iterations =  2.0

     negative rho (up, down):  3.915E-04 0.000E+00

     total cpu time spent up to now is      320.7 secs

     total energy              =  -27774.38071261 Ry
     estimated scf accuracy    <       0.00015050 Ry

     iteration # 11     ecut=    40.00 Ry     beta= 0.70
     Davidson diagonalization with overlap
     ethr =  4.12E-08,  avg # of iterations =  2.0

     negative rho (up, down):  5.579E-04 0.000E+00

     total cpu time spent up to now is      343.9 secs

     total energy              =  -27774.38074613 Ry
     estimated scf accuracy    <       0.00010212 Ry

     iteration # 12     ecut=    40.00 Ry     beta= 0.70
     Davidson diagonalization with overlap
     ethr =  2.80E-08,  avg # of iterations =  2.4

     negative rho (up, down):  8.328E-04 0.000E+00

     total cpu time spent up to now is      357.3 secs

     total energy              =  -27774.38076792 Ry
     estimated scf accuracy    <       0.00007104 Ry

     iteration # 13     ecut=    40.00 Ry     beta= 0.70
     Davidson diagonalization with overlap
     ethr =  1.95E-08,  avg # of iterations =  1.8

     negative rho (up, down):  1.649E-03 0.000E+00

     total cpu time spent up to now is      380.1 secs

     total energy              =  -27774.38078901 Ry
     estimated scf accuracy    <       0.00003446 Ry

     iteration # 14     ecut=    40.00 Ry     beta= 0.70
     Davidson diagonalization with overlap
     ethr =  9.44E-09,  avg # of iterations =  2.8

     negative rho (up, down):  1.865E-03 0.000E+00

     total cpu time spent up to now is      404.7 secs

     total energy              =  -27774.38080207 Ry
     estimated scf accuracy    <       0.00002505 Ry

     iteration # 15     ecut=    40.00 Ry     beta= 0.70
     Davidson diagonalization with overlap
     ethr =  6.86E-09,  avg # of iterations =  1.1

     negative rho (up, down):  2.553E-03 0.000E+00

     total cpu time spent up to now is      416.0 secs

     total energy              =  -27774.38080482 Ry
     estimated scf accuracy    <       0.00000851 Ry

     iteration # 16     ecut=    40.00 Ry     beta= 0.70
     Davidson diagonalization with overlap
     ethr =  2.33E-09,  avg # of iterations =  4.1

     negative rho (up, down):  3.145E-03 0.000E+00

     total cpu time spent up to now is      444.0 secs

     total energy              =  -27774.38080337 Ry
     estimated scf accuracy    <       0.00000435 Ry

     iteration # 17     ecut=    40.00 Ry     beta= 0.70
     Davidson diagonalization with overlap
     ethr =  1.19E-09,  avg # of iterations =  3.2

     negative rho (up, down):  3.261E-03 0.000E+00

     total cpu time spent up to now is      470.3 secs

     total energy              =  -27774.38080340 Ry
     estimated scf accuracy    <       0.00000142 Ry

     iteration # 18     ecut=    40.00 Ry     beta= 0.70
     Davidson diagonalization with overlap
     ethr =  3.90E-10,  avg # of iterations =  4.7

     negative rho (up, down):  3.378E-03 0.000E+00

     total cpu time spent up to now is      501.3 secs

     End of self-consistent calculation

          k = 0.0000 0.0000 0.0000 ( 44645 PWs)   bands (ev):

   -10.1805  -6.4452  -5.2462  -5.1381  -4.3814  -4.1367  -4.0888  -4.0614
    -4.0432  -4.0173  -4.0032  -3.9572  -3.8999  -3.6391  -3.5243  -3.5207
    -3.5168  -3.4372  -3.4226  -3.3807  -3.0904  -3.0844  -3.0485  -2.9461
    -2.8869  -2.8831  -2.8582  -2.8448  -2.8186  -2.7640  -2.7529  -2.7500
    -2.6804  -2.6754  -2.6108  -2.5748  -2.5708  -2.5543  -2.5258  -2.5135
    -2.5003  -2.3793  -2.2244  -2.1201  -2.0461  -2.0407  -1.9794  -1.9688
    -1.9546  -1.9518  -1.9194  -1.8868  -1.8521  -1.7490  -1.7294  -1.7007
    -1.6542  -1.6198  -1.3347  -1.3045  -1.2661  -1.2108  -1.1921  -1.1403
    -1.1245  -1.0625  -1.0466  -1.0130  -0.9880  -0.9748  -0.9684  -0.9534
    -0.9480  -0.9299  -0.8913  -0.8834  -0.8775  -0.8621  -0.8543  -0.8410
    -0.8170  -0.8004  -0.7921  -0.7630  -0.7585  -0.6273  -0.6005  -0.5776
    -0.5718  -0.5526  -0.5280  -0.5106  -0.4970  -0.4730  -0.4441  -0.4417
    -0.4390  -0.3608  -0.3328  -0.3256  -0.2828  -0.2813  -0.2706  -0.2671
    -0.1932  -0.1852  -0.1741  -0.1232  -0.0955  -0.0483   0.1425   0.1872
     0.2338   0.2780   0.3022   0.3239   0.3863   0.3944   0.4062   0.4453
     0.4773   0.5071   0.5405   0.5704   0.5851   0.5999   0.6015   0.6052
     0.6847   0.7165   0.8149   0.8193   0.8509   0.8903   0.9150   0.9249
     0.9649   1.0178   1.0981   1.1190   1.1274   1.1408   1.1833   1.1902
     1.1977   1.2332   1.2719   1.3440   1.3715   1.3828   1.3991   1.4326
     1.4797   1.5547   1.5573   1.5642   1.5719   1.5736   1.5854   1.5999
     1.6041   1.6122   1.6557   1.6585   1.6688   1.6892   1.6921   1.7057
     1.7697   1.7752   1.7961   1.8059   1.8107   1.8540   1.8612   1.8837
     1.9394   1.9437   1.9561   1.9592   1.9639   1.9982   2.0011   2.0250
     2.0432   2.0527   2.0904   2.0918   2.2082   2.2177   2.3254   2.3364
     2.3526   2.3814   2.3871   2.4050   2.4991   2.6155   2.9527   3.0922
     3.2412   3.2547   3.2844   3.8379   4.0617   4.4121   5.3761   5.5325
     5.5687   5.6207   5.9071   5.9810   6.4635   7.2103   7.2155   7.2240
     7.2569   7.2753   7.4264   7.5150

          k = 0.0000 0.2309 0.0000 ( 44694 PWs)   bands (ev):

   -10.1741  -6.3046  -5.2939  -4.9745  -4.5116  -4.3664  -4.1401  -4.0170
    -3.9812  -3.9404  -3.8317  -3.7926  -3.7587  -3.6476  -3.5691  -3.5071
    -3.4488  -3.4336  -3.3410  -3.3033  -3.1203  -3.0391  -3.0013  -2.9907
    -2.9267  -2.9245  -2.8906  -2.8267  -2.8198  -2.7850  -2.7577  -2.7283
    -2.7090  -2.6889  -2.6337  -2.6095  -2.5535  -2.5336  -2.4641  -2.3903
    -2.3594  -2.3472  -2.2064  -2.2006  -2.1355  -2.0924  -2.0701  -2.0567
    -2.0095  -2.0063  -1.8766  -1.8569  -1.8214  -1.7671  -1.7256  -1.6645
    -1.6611  -1.6113  -1.4322  -1.3878  -1.3717  -1.3409  -1.3332  -1.2675
    -1.2312  -1.2297  -1.1931  -1.1514  -1.1402  -1.0999  -1.0600  -1.0371
    -1.0126  -0.9823  -0.9701  -0.8956  -0.8558  -0.8532  -0.8129  -0.8114
    -0.7658  -0.7523  -0.7335  -0.7316  -0.7075  -0.6224  -0.6049  -0.5892
    -0.5709  -0.5666  -0.5503  -0.5339  -0.4995  -0.4801  -0.4790  -0.4506
    -0.4038  -0.4016  -0.3622  -0.3535  -0.3384  -0.3063  -0.3016  -0.2571
    -0.2362  -0.1441  -0.1428  -0.1136  -0.0962  -0.0838  -0.0347  -0.0323
     0.0003   0.0322   0.0357   0.1786   0.1872   0.3106   0.3249   0.3748
     0.3949   0.4031   0.4315   0.4393   0.5623   0.6108   0.6496   0.6518
     0.6983   0.7010   0.7315   0.7599   0.7832   0.8112   0.8415   0.8820
     0.9397   0.9730   1.0023   1.0152   1.0413   1.0743   1.1299   1.1378
     1.1664   1.2194   1.2258   1.2792   1.3241   1.3476   1.3767   1.3862
     1.4058   1.4395   1.4715   1.5255   1.5453   1.5702   1.5803   1.6164
     1.6435   1.7108   1.7213   1.7494   1.7516   1.8019   1.8356   1.8740
     1.8977   1.9310   1.9335   1.9507   2.0113   2.0161   2.0262   2.0479
     2.0693   2.0852   2.1116   2.1221   2.1645   2.2168   2.2352   2.2632
     2.2888   2.2995   2.3242   2.3538   2.3633   2.3866   2.4496   2.4745
     2.5103   2.5257   2.6153   2.6743   2.6945   2.9422   2.9538   3.1121
     3.3129   3.6707   3.8976   3.9456   4.3914   4.4815   5.0627   5.3197
     5.5375   5.7546   6.0576   6.2005   6.3058   6.3093   6.7271   7.0505
     7.1886   7.3805   7.4495   7.5231

          k = 0.0000 0.4619 0.0000 ( 44748 PWs)   bands (ev):

   -10.1638  -5.9110  -5.4112  -5.0942  -4.5718  -4.3429  -4.1734  -4.0492
    -3.9261  -3.8208  -3.6778  -3.6109  -3.5558  -3.4567  -3.4520  -3.3779
    -3.2944  -3.2885  -3.2421  -3.1922  -3.1707  -3.1246  -3.0818  -3.0733
    -3.0252  -3.0047  -2.9977  -2.9716  -2.8975  -2.8844  -2.7264  -2.7053
    -2.6576  -2.6447  -2.6265  -2.5592  -2.5303  -2.4718  -2.4198  -2.3992
    -2.3535  -2.3210  -2.2737  -2.1791  -2.1405  -2.1117  -2.0751  -2.0571
    -1.9651  -1.9530  -1.9339  -1.9024  -1.8865  -1.8826  -1.7737  -1.7315
    -1.7281  -1.6528  -1.6226  -1.5598  -1.5280  -1.5126  -1.4962  -1.4130
    -1.3705  -1.3178  -1.2795  -1.2715  -1.1975  -1.1778  -1.1768  -1.1400
    -1.0883  -1.0278  -1.0063  -0.9973  -0.9442  -0.9409  -0.8714  -0.8621
    -0.8570  -0.8215  -0.8114  -0.7929  -0.7452  -0.7380  -0.7275  -0.6804
    -0.6730  -0.6280  -0.6117  -0.5774  -0.5614  -0.5460  -0.5211  -0.5073
    -0.4656  -0.4235  -0.3665  -0.3627  -0.3428  -0.2974  -0.2752  -0.2714
    -0.2452  -0.2112  -0.1539  -0.1214  -0.1176  -0.0718  -0.0529   0.0359
     0.0685   0.0781   0.1476   0.1708   0.1894   0.2410   0.2724   0.2862
     0.2892   0.3425   0.3542   0.4089   0.4228   0.4315   0.4504   0.4762
     0.5120   0.5702   0.5908   0.6291   0.6751   0.6831   0.7369   0.7409
     0.8959   0.8982   0.9269   0.9701   0.9828   1.0535   1.0808   1.0963
     1.1891   1.2269   1.2380   1.2570   1.2610   1.2841   1.3075   1.3427
     1.3951   1.4381   1.4601   1.4731   1.5401   1.5463   1.5854   1.5914
     1.6698   1.6890   1.7446   1.7783   1.8161   1.8219   1.9341   1.9372
     1.9585   1.9766   2.0087   2.0523   2.0716   2.0931   2.1415   2.1694
     2.1989   2.2310   2.2504   2.2633   2.2731   2.3119   2.3574   2.4079
     2.4341   2.5133   2.5244   2.5372   2.5484   2.6210   2.7849   2.8503
     2.9482   3.0856   3.2103   3.5154   3.5433   3.7188   3.8191   3.9653
     4.1515   4.3198   4.3649   4.4888   4.8317   4.8496   4.9681   5.0597
     5.1456   5.2194   5.3323   5.6527   5.8503   5.9738   6.2083   6.6326
     6.6855   7.0753   7.2064   7.3376

          k = 0.2000-0.1155 0.0000 ( 44694 PWs)   bands (ev):

   -10.1742  -6.3031  -5.2341  -5.0092  -4.6094  -4.2965  -4.1381  -4.0674
    -3.9606  -3.9133  -3.8435  -3.7948  -3.7654  -3.6431  -3.5971  -3.4828
    -3.4560  -3.4101  -3.3641  -3.3246  -3.1181  -3.0525  -2.9990  -2.9882
    -2.9326  -2.9093  -2.8808  -2.8339  -2.8140  -2.7816  -2.7518  -2.7281
    -2.7074  -2.6886  -2.6362  -2.6120  -2.5658  -2.5258  -2.4471  -2.4151
    -2.3706  -2.3094  -2.2016  -2.1570  -2.1453  -2.0911  -2.0705  -2.0548
    -2.0183  -1.9836  -1.9489  -1.8325  -1.7897  -1.7460  -1.7243  -1.6784
    -1.6582  -1.6075  -1.4332  -1.3950  -1.3503  -1.3258  -1.3134  -1.2678
    -1.2523  -1.2277  -1.1945  -1.1621  -1.1301  -1.0818  -1.0466  -1.0264
    -1.0084  -0.9761  -0.9536  -0.9318  -0.9005  -0.8589  -0.8231  -0.7830
    -0.7674  -0.7473  -0.7302  -0.7089  -0.6946  -0.6474  -0.6219  -0.5992
    -0.5824  -0.5683  -0.5449  -0.5324  -0.4981  -0.4862  -0.4753  -0.4296
    -0.4136  -0.4042  -0.3705  -0.3588  -0.3400  -0.3308  -0.2960  -0.2691
    -0.2342  -0.1980  -0.1488  -0.1092  -0.0972  -0.0831  -0.0400  -0.0304
    -0.0208   0.0561   0.0736   0.1810   0.2375   0.2755   0.3353   0.3576
     0.3661   0.4157   0.4419   0.4593   0.5487   0.5780   0.6245   0.6706
     0.6929   0.7065   0.7415   0.7570   0.7984   0.8129   0.8224   0.8427
     0.9237   0.9700   0.9965   1.0111   1.0313   1.0802   1.1223   1.1462
     1.1822   1.1900   1.2467   1.2711   1.3385   1.3628   1.3800   1.3991
     1.4118   1.4351   1.4931   1.5291   1.5572   1.5663   1.5931   1.6235
     1.6460   1.6921   1.7212   1.7489   1.7645   1.8154   1.8486   1.8665
     1.8962   1.9163   1.9357   1.9410   2.0027   2.0206   2.0293   2.0486
     2.0713   2.0765   2.0971   2.1143   2.1560   2.2003   2.2335   2.2617
     2.2944   2.3056   2.3340   2.3590   2.3738   2.3961   2.4611   2.4724
     2.5256   2.5662   2.6321   2.6677   2.6956   2.8151   2.9597   3.2092
     3.4147   3.5689   3.9007   4.0044   4.2657   4.4810   5.0628   5.3711
     5.5387   5.8498   6.0180   6.2004   6.2580   6.3628   6.6292   7.0331
     7.1477   7.3571   7.4217   7.5062

          k = 0.2000 0.1155 0.0000 ( 44694 PWs)   bands (ev):

   -10.1742  -6.3031  -5.2341  -5.0093  -4.6096  -4.2962  -4.1386  -4.0667
    -3.9606  -3.9135  -3.8449  -3.7944  -3.7646  -3.6425  -3.5952  -3.4855
    -3.4573  -3.4111  -3.3636  -3.3226  -3.1176  -3.0518  -2.9971  -2.9883
    -2.9328  -2.9116  -2.8819  -2.8348  -2.8147  -2.7833  -2.7517  -2.7299
    -2.7032  -2.6893  -2.6343  -2.6131  -2.5645  -2.5249  -2.4467  -2.4155
    -2.3703  -2.3102  -2.2013  -2.1583  -2.1450  -2.0914  -2.0689  -2.0522
    -2.0202  -1.9830  -1.9509  -1.8327  -1.7877  -1.7478  -1.7227  -1.6787
    -1.6580  -1.6079  -1.4325  -1.3926  -1.3514  -1.3267  -1.3106  -1.2682
    -1.2539  -1.2282  -1.1925  -1.1639  -1.1279  -1.0809  -1.0445  -1.0267
    -1.0093  -0.9758  -0.9536  -0.9329  -0.9030  -0.8591  -0.8224  -0.7827
    -0.7688  -0.7466  -0.7280  -0.7113  -0.6945  -0.6493  -0.6221  -0.6012
    -0.5802  -0.5679  -0.5434  -0.5303  -0.4999  -0.4856  -0.4751  -0.4316
    -0.4141  -0.4041  -0.3721  -0.3561  -0.3413  -0.3285  -0.2975  -0.2718
    -0.2346  -0.1992  -0.1489  -0.1077  -0.0955  -0.0808  -0.0424  -0.0337
    -0.0211   0.0571   0.0744   0.1804   0.2381   0.2769   0.3357   0.3559
     0.3678   0.4168   0.4406   0.4592   0.5462   0.5784   0.6243   0.6691
     0.6914   0.7091   0.7413   0.7554   0.7970   0.8131   0.8212   0.8432
     0.9239   0.9731   0.9974   1.0107   1.0312   1.0819   1.1199   1.1440
     1.1806   1.1912   1.2480   1.2729   1.3398   1.3629   1.3775   1.3976
     1.4122   1.4351   1.4962   1.5261   1.5563   1.5676   1.5916   1.6240
     1.6475   1.6927   1.7184   1.7467   1.7637   1.8161   1.8486   1.8673
     1.8965   1.9170   1.9341   1.9427   2.0029   2.0213   2.0292   2.0475
     2.0700   2.0768   2.0966   2.1129   2.1572   2.1991   2.2320   2.2622
     2.2973   2.3064   2.3341   2.3608   2.3752   2.3988   2.4627   2.4719
     2.5247   2.5652   2.6315   2.6678   2.6961   2.8159   2.9622   3.2082
     3.4138   3.5709   3.8988   4.0037   4.2664   4.4807   5.0617   5.3727
     5.5395   5.8493   6.0169   6.1998   6.2594   6.3637   6.6287   7.0321
     7.1452   7.3578   7.4221   7.5051

          k = 0.2000 0.3464 0.0000 ( 44714 PWs)   bands (ev):

   -10.1659  -6.0328  -5.2903  -4.8517  -4.7375  -4.6928  -4.1702  -3.8181
    -3.7482  -3.7332  -3.6883  -3.6808  -3.6332  -3.6097  -3.5780  -3.5214
    -3.5056  -3.3354  -3.1793  -3.1571  -3.1404  -3.1229  -3.0669  -3.0258
    -2.9690  -2.9547  -2.8934  -2.8578  -2.8264  -2.8169  -2.7819  -2.7484
    -2.7258  -2.6753  -2.6531  -2.6287  -2.5817  -2.5446  -2.4994  -2.3682
    -2.3150  -2.2143  -2.2017  -2.1712  -2.1383  -2.1064  -2.0811  -2.0379
    -2.0092  -1.9730  -1.9213  -1.8796  -1.8554  -1.7944  -1.7446  -1.6960
    -1.6682  -1.6508  -1.5957  -1.5363  -1.4860  -1.4682  -1.4400  -1.3820
    -1.3436  -1.2931  -1.2797  -1.2582  -1.2352  -1.1771  -1.1343  -1.0954
    -1.0747  -1.0479  -1.0345  -1.0065  -0.9397  -0.9121  -0.8712  -0.8438
    -0.8159  -0.8021  -0.7757  -0.7571  -0.7333  -0.7065  -0.6765  -0.6612
    -0.6297  -0.6135  -0.5974  -0.5767  -0.5277  -0.5150  -0.4997  -0.4551
    -0.4480  -0.4039  -0.3797  -0.3708  -0.3510  -0.3265  -0.3123  -0.3017
    -0.2825  -0.2485  -0.2305  -0.1974  -0.1415  -0.1053  -0.0839  -0.0351
    -0.0150   0.0320   0.0477   0.1282   0.1960   0.2313   0.2503   0.2862
     0.3340   0.3813   0.3923   0.4167   0.4586   0.4900   0.5237   0.5448
     0.5586   0.5993   0.6256   0.6813   0.7235   0.7657   0.7921   0.8208
     0.8904   0.9224   0.9624   0.9728   0.9880   0.9999   1.0573   1.1048
     1.1425   1.1631   1.2080   1.2380   1.2966   1.3147   1.3277   1.3614
     1.3782   1.3868   1.4134   1.4348   1.4704   1.5289   1.5701   1.6478
     1.6827   1.7288   1.7916   1.8576   1.8724   1.9166   1.9260   1.9665
     2.0282   2.0472   2.0601   2.0976   2.1056   2.1233   2.1376   2.1585
     2.1713   2.1899   2.2421   2.2569   2.2841   2.2886   2.3481   2.3571
     2.3951   2.4576   2.5081   2.5363   2.5857   2.6131   2.6491   2.6863
     2.7846   2.8125   3.0957   3.2264   3.3564   3.4774   3.5794   3.8009
     3.8754   3.9737   4.3492   4.5190   4.6785   4.8291   4.8545   4.9408
     5.0949   5.6702   5.8765   6.0187   6.1068   6.3403   6.4219   6.7059
     6.7887   6.8464   6.9256   7.1887

          k = 0.2000-0.5774 0.0000 ( 44692 PWs)   bands (ev):

   -10.1607  -5.6236  -5.4740  -5.1426  -4.8936  -4.2751  -4.2551  -4.0433
    -3.7178  -3.6626  -3.5973  -3.5593  -3.4961  -3.4481  -3.4260  -3.3430
    -3.3030  -3.2248  -3.2169  -3.2045  -3.1663  -3.1426  -3.1210  -3.1094
    -3.0148  -3.0067  -2.9890  -2.9725  -2.9419  -2.8835  -2.7824  -2.7504
    -2.7237  -2.6754  -2.6268  -2.6033  -2.5580  -2.5421  -2.4985  -2.4060
    -2.3804  -2.2599  -2.1888  -2.1811  -2.1244  -2.1063  -2.0883  -2.0340
    -1.9822  -1.8859  -1.8624  -1.7986  -1.7890  -1.7466  -1.7286  -1.7048
    -1.6831  -1.6362  -1.6241  -1.6069  -1.5674  -1.5248  -1.4978  -1.4887
    -1.4388  -1.4223  -1.3738  -1.3227  -1.2680  -1.2571  -1.2081  -1.1759
    -1.1196  -1.1109  -1.0873  -1.0606  -1.0324  -1.0140  -0.9578  -0.9313
    -0.9223  -0.8707  -0.8573  -0.8391  -0.7710  -0.7460  -0.7109  -0.6888
    -0.6552  -0.6354  -0.6073  -0.5536  -0.5245  -0.4808  -0.4629  -0.4499
    -0.4185  -0.4027  -0.3860  -0.3588  -0.3488  -0.3443  -0.3026  -0.2686
    -0.2611  -0.2537  -0.2283  -0.2119  -0.2035  -0.1886  -0.1627  -0.0703
    -0.0336   0.0514   0.0892   0.1611   0.1835   0.2179   0.2217   0.2644
     0.2976   0.3399   0.3451   0.3623   0.3951   0.4306   0.4548   0.4862
     0.5787   0.5989   0.6172   0.6324   0.6627   0.7285   0.7682   0.8120
     0.8670   0.9055   0.9357   0.9689   0.9884   1.0378   1.0451   1.0569
     1.0829   1.1419   1.1540   1.1680   1.1823   1.2556   1.2670   1.3152
     1.3541   1.3747   1.4499   1.4754   1.5439   1.5999   1.6317   1.6753
     1.7240   1.7540   1.8074   1.8305   1.8524   1.8958   1.9415   1.9986
     2.0355   2.0459   2.0989   2.1117   2.1264   2.1663   2.1865   2.2179
     2.2320   2.2455   2.2673   2.3181   2.3431   2.3851   2.4294   2.4577
     2.4875   2.5254   2.5492   2.5557   2.6059   2.6422   2.7405   2.8045
     3.0576   3.4482   3.6849   3.7184   3.8726   3.9740   3.9978   4.0970
     4.2349   4.3170   4.5085   4.7305   4.8020   4.8516   5.1696   5.2341
     5.3368   5.4252   5.4765   5.6154   5.8170   5.8830   6.0188   6.1203
     6.3846   6.6894   6.8141   6.8664

          k = 0.2000-0.3464 0.0000 ( 44714 PWs)   bands (ev):

   -10.1659  -6.0327  -5.2899  -4.8568  -4.7313  -4.6938  -4.1694  -3.8196
    -3.7489  -3.7338  -3.6864  -3.6826  -3.6343  -3.6082  -3.5784  -3.5212
    -3.5043  -3.3346  -3.1762  -3.1582  -3.1410  -3.1222  -3.0678  -3.0275
    -2.9688  -2.9557  -2.8941  -2.8552  -2.8242  -2.8200  -2.7828  -2.7526
    -2.7230  -2.6752  -2.6513  -2.6262  -2.5811  -2.5451  -2.5000  -2.3690
    -2.3155  -2.2128  -2.2031  -2.1709  -2.1371  -2.1062  -2.0826  -2.0407
    -2.0092  -1.9750  -1.9170  -1.8786  -1.8575  -1.7947  -1.7471  -1.6982
    -1.6645  -1.6517  -1.5951  -1.5356  -1.4868  -1.4702  -1.4396  -1.3831
    -1.3437  -1.2941  -1.2815  -1.2584  -1.2348  -1.1771  -1.1348  -1.0967
    -1.0747  -1.0474  -1.0346  -1.0045  -0.9382  -0.9143  -0.8711  -0.8460
    -0.8174  -0.8025  -0.7772  -0.7554  -0.7329  -0.7051  -0.6751  -0.6626
    -0.6288  -0.6154  -0.5953  -0.5751  -0.5264  -0.5124  -0.4981  -0.4548
    -0.4470  -0.4032  -0.3784  -0.3694  -0.3499  -0.3256  -0.3140  -0.3013
    -0.2855  -0.2488  -0.2298  -0.1999  -0.1400  -0.1055  -0.0833  -0.0339
    -0.0145   0.0332   0.0467   0.1301   0.1965   0.2313   0.2473   0.2831
     0.3377   0.3784   0.3929   0.4195   0.4591   0.4906   0.5227   0.5442
     0.5597   0.5973   0.6257   0.6831   0.7236   0.7693   0.7886   0.8205
     0.8889   0.9209   0.9656   0.9725   0.9881   1.0022   1.0566   1.1046
     1.1429   1.1639   1.2067   1.2364   1.2948   1.3135   1.3284   1.3588
     1.3790   1.3890   1.4133   1.4344   1.4750   1.5260   1.5694   1.6486
     1.6838   1.7308   1.7925   1.8572   1.8726   1.9158   1.9260   1.9666
     2.0254   2.0483   2.0599   2.0967   2.1076   2.1245   2.1372   2.1581
     2.1726   2.1896   2.2429   2.2575   2.2837   2.2884   2.3481   2.3563
     2.3963   2.4570   2.5053   2.5360   2.5825   2.6122   2.6482   2.6837
     2.7852   2.8147   3.0961   3.2275   3.3569   3.4773   3.5791   3.8001
     3.8752   3.9720   4.3487   4.5183   4.6793   4.8284   4.8551   4.9419
     5.0950   5.6693   5.8737   6.0191   6.1067   6.3408   6.4231   6.7055
     6.7879   6.8460   6.9280   7.1891

          k = 0.4000-0.2309 0.0000 ( 44748 PWs)   bands (ev):

   -10.1641  -5.8978  -5.3236  -5.1319  -4.6755  -4.3385  -4.1557  -4.1214
    -3.9021  -3.8133  -3.6998  -3.5996  -3.5638  -3.4688  -3.4382  -3.4073
    -3.3009  -3.2769  -3.2461  -3.2206  -3.1911  -3.1410  -3.0747  -3.0637
    -3.0312  -3.0203  -3.0011  -2.9615  -2.8921  -2.8745  -2.7143  -2.6890
    -2.6479  -2.6294  -2.5834  -2.5485  -2.4697  -2.4424  -2.4229  -2.4049
    -2.3517  -2.3305  -2.2528  -2.2142  -2.1383  -2.0955  -2.0715  -2.0153
    -1.9770  -1.9553  -1.9257  -1.8925  -1.8892  -1.8789  -1.7873  -1.7285
    -1.7061  -1.6864  -1.5879  -1.5333  -1.5237  -1.4947  -1.4829  -1.4065
    -1.3561  -1.3144  -1.2982  -1.2470  -1.2209  -1.1919  -1.1611  -1.1324
    -1.0812  -1.0643  -1.0167  -1.0021  -0.9430  -0.9408  -0.8843  -0.8593
    -0.8287  -0.8091  -0.8007  -0.7904  -0.7565  -0.7411  -0.7169  -0.6952
    -0.6874  -0.6536  -0.6203  -0.5796  -0.5585  -0.5397  -0.5318  -0.4963
    -0.4630  -0.4132  -0.3825  -0.3773  -0.3554  -0.3306  -0.2876  -0.2807
    -0.2335  -0.2201  -0.1792  -0.1355  -0.1188  -0.0743  -0.0503  -0.0111
     0.0221   0.0805   0.1168   0.1710   0.2232   0.2487   0.2739   0.2841
     0.3227   0.3525   0.3851   0.4036   0.4256   0.4436   0.4486   0.4557
     0.4994   0.5735   0.6124   0.6316   0.6531   0.6767   0.7008   0.7663
     0.8274   0.9149   0.9206   0.9579   0.9870   1.0419   1.0650   1.1380
     1.1769   1.2003   1.2433   1.2558   1.2741   1.2818   1.3194   1.3425
     1.4034   1.4389   1.4732   1.4940   1.5259   1.5433   1.5716   1.5913
     1.6746   1.7177   1.7589   1.7764   1.8270   1.8775   1.9213   1.9371
     1.9434   1.9712   2.0077   2.0485   2.0772   2.0911   2.1210   2.1553
     2.1983   2.2381   2.2413   2.2621   2.2822   2.3334   2.3713   2.4076
     2.4457   2.5091   2.5347   2.5437   2.5749   2.6189   2.7770   2.7927
     2.9438   3.1434   3.2841   3.5171   3.5538   3.7157   3.7820   4.0053
     4.1170   4.2317   4.4001   4.5756   4.8081   4.8827   4.9361   5.0103
     5.1492   5.2679   5.3219   5.6939   5.8288   6.0342   6.1655   6.4807
     6.6993   6.9921   7.2015   7.2757

          k = 0.4000 0.0000 0.0000 ( 44714 PWs)   bands (ev):

   -10.1661  -6.0261  -5.2180  -4.9007  -4.7597  -4.7196  -4.1954  -3.7790
    -3.7563  -3.7366  -3.7045  -3.6843  -3.6383  -3.6026  -3.5958  -3.5741
    -3.4532  -3.3454  -3.1925  -3.1627  -3.1490  -3.1272  -3.0546  -3.0445
    -2.9701  -2.9599  -2.8836  -2.8382  -2.8218  -2.8115  -2.7721  -2.7576
    -2.7200  -2.6784  -2.6621  -2.6239  -2.5675  -2.5267  -2.5001  -2.3246
    -2.2942  -2.2608  -2.1979  -2.1605  -2.1403  -2.1185  -2.0578  -2.0140
    -1.9942  -1.9301  -1.9135  -1.8978  -1.8392  -1.7853  -1.7675  -1.6983
    -1.6829  -1.6506  -1.6057  -1.5640  -1.4883  -1.4445  -1.3950  -1.3511
    -1.3368  -1.2859  -1.2810  -1.2494  -1.2310  -1.2038  -1.1076  -1.0926
    -1.0778  -1.0579  -1.0451  -0.9845  -0.9424  -0.9069  -0.8890  -0.8502
    -0.8463  -0.7907  -0.7722  -0.7542  -0.7329  -0.7017  -0.6926  -0.6753
    -0.6556  -0.6179  -0.5907  -0.5741  -0.5512  -0.5192  -0.4715  -0.4650
    -0.4602  -0.4175  -0.3983  -0.3808  -0.3498  -0.3313  -0.3130  -0.3007
    -0.2827  -0.2544  -0.2390  -0.2063  -0.1392  -0.1125  -0.0580  -0.0257
     0.0018   0.0140   0.0525   0.1106   0.1645   0.2047   0.2698   0.2804
     0.3167   0.3588   0.3979   0.4312   0.4579   0.5020   0.5277   0.5468
     0.5721   0.5943   0.6447   0.6575   0.7090   0.7639   0.7786   0.8218
     0.8864   0.9355   0.9487   0.9699   0.9906   1.0144   1.0492   1.0782
     1.1216   1.1584   1.2375   1.2546   1.3046   1.3186   1.3433   1.3669
     1.3759   1.3862   1.4217   1.4292   1.4790   1.5430   1.5811   1.6286
     1.6937   1.7280   1.7921   1.8663   1.8779   1.9197   1.9405   1.9627
     2.0373   2.0494   2.0599   2.0776   2.1063   2.1191   2.1267   2.1525
     2.1694   2.1836   2.2387   2.2640   2.2729   2.2855   2.3435   2.3640
     2.3926   2.4817   2.5202   2.5429   2.5995   2.6338   2.6774   2.6901
     2.7943   2.8028   3.0266   3.2455   3.3479   3.4147   3.6005   3.8650
     3.8882   4.0565   4.2754   4.5299   4.7239   4.7414   4.8701   4.9450
     5.1002   5.7571   5.8214   5.9994   6.1257   6.3399   6.4033   6.5791
     6.7942   6.8628   6.9385   7.1142

          k = 0.4000 0.2309 0.0000 ( 44748 PWs)   bands (ev):

   -10.1641  -5.8981  -5.3236  -5.1314  -4.6751  -4.3403  -4.1553  -4.1219
    -3.9000  -3.8134  -3.7003  -3.6007  -3.5643  -3.4678  -3.4381  -3.4083
    -3.3038  -3.2789  -3.2456  -3.2174  -3.1900  -3.1397  -3.0739  -3.0645
    -3.0324  -3.0217  -3.0020  -2.9613  -2.8915  -2.8741  -2.7129  -2.6901
    -2.6510  -2.6258  -2.5817  -2.5479  -2.4728  -2.4411  -2.4203  -2.4064
    -2.3540  -2.3293  -2.2527  -2.2142  -2.1389  -2.0945  -2.0702  -2.0142
    -1.9789  -1.9527  -1.9238  -1.8939  -1.8873  -1.8799  -1.7876  -1.7300
    -1.7052  -1.6854  -1.5874  -1.5326  -1.5237  -1.4950  -1.4813  -1.4028
    -1.3554  -1.3161  -1.2959  -1.2478  -1.2204  -1.1935  -1.1602  -1.1313
    -1.0827  -1.0630  -1.0162  -1.0055  -0.9464  -0.9431  -0.8837  -0.8563
    -0.8266  -0.8066  -0.8011  -0.7885  -0.7582  -0.7408  -0.7176  -0.6949
    -0.6868  -0.6528  -0.6178  -0.5789  -0.5602  -0.5419  -0.5332  -0.4976
    -0.4675  -0.4143  -0.3827  -0.3774  -0.3600  -0.3318  -0.2860  -0.2812
    -0.2351  -0.2190  -0.1819  -0.1316  -0.1179  -0.0750  -0.0510  -0.0134
     0.0208   0.0821   0.1142   0.1711   0.2232   0.2484   0.2730   0.2836
     0.3253   0.3518   0.3866   0.4019   0.4282   0.4424   0.4505   0.4562
     0.4966   0.5716   0.6127   0.6324   0.6546   0.6765   0.6999   0.7670
     0.8262   0.9148   0.9195   0.9592   0.9866   1.0427   1.0657   1.1386
     1.1769   1.1989   1.2419   1.2569   1.2754   1.2813   1.3187   1.3421
     1.4025   1.4408   1.4734   1.4924   1.5238   1.5444   1.5708   1.5926
     1.6738   1.7156   1.7576   1.7756   1.8280   1.8767   1.9220   1.9376
     1.9441   1.9693   2.0076   2.0476   2.0782   2.0901   2.1196   2.1556
     2.1987   2.2390   2.2410   2.2634   2.2827   2.3362   2.3729   2.4080
     2.4464   2.5115   2.5362   2.5433   2.5755   2.6202   2.7774   2.7925
     2.9445   3.1441   3.2814   3.5173   3.5540   3.7146   3.7819   4.0047
     4.1176   4.2317   4.4021   4.5795   4.8086   4.8823   4.9345   5.0095
     5.1474   5.2701   5.3244   5.6935   5.8272   6.0379   6.1641   6.4795
     6.6993   6.9919   7.2013   7.2744

          k = 0.4000-0.6928 0.0000 ( 44692 PWs)   bands (ev):

   -10.1609  -5.5723  -5.4811  -5.1880  -4.8292  -4.4580  -4.2220  -3.9581
    -3.7417  -3.7129  -3.6237  -3.5309  -3.4807  -3.4436  -3.4267  -3.3375
    -3.2931  -3.2512  -3.2327  -3.1982  -3.1873  -3.1546  -3.1297  -3.1017
    -3.0151  -3.0065  -3.0008  -2.9766  -2.9382  -2.8716  -2.7563  -2.7428
    -2.7308  -2.6686  -2.6085  -2.5880  -2.5519  -2.5051  -2.4265  -2.4105
    -2.3852  -2.2952  -2.1996  -2.1823  -2.1480  -2.0938  -2.0821  -2.0158
    -1.9597  -1.8841  -1.8643  -1.8393  -1.7851  -1.7545  -1.7022  -1.6866
    -1.6725  -1.6316  -1.6179  -1.5943  -1.5402  -1.5259  -1.4953  -1.4763
    -1.4561  -1.4172  -1.3659  -1.3120  -1.2875  -1.2631  -1.1962  -1.1690
    -1.1270  -1.1122  -1.0940  -1.0761  -1.0441  -1.0075  -0.9578  -0.9421
    -0.9139  -0.8677  -0.8585  -0.8242  -0.7863  -0.7292  -0.7055  -0.6928
    -0.6844  -0.6338  -0.5788  -0.5532  -0.5316  -0.5150  -0.4803  -0.4495
    -0.4243  -0.4110  -0.3924  -0.3808  -0.3611  -0.3401  -0.3044  -0.2797
    -0.2677  -0.2503  -0.2340  -0.2156  -0.2004  -0.1843  -0.1532  -0.0705
    -0.0092   0.0215   0.0708   0.1259   0.1610   0.2126   0.2281   0.2763
     0.3151   0.3345   0.3595   0.3812   0.4019   0.4275   0.4629   0.4825
     0.5650   0.5972   0.6232   0.6316   0.6560   0.7375   0.7594   0.7956
     0.8434   0.9122   0.9442   0.9616   0.9972   1.0322   1.0477   1.0633
     1.0816   1.1331   1.1646   1.1801   1.2026   1.2561   1.2740   1.3070
     1.3445   1.3730   1.4378   1.4579   1.5325   1.6037   1.6323   1.6882
     1.7317   1.7624   1.7902   1.8489   1.8842   1.9025   1.9451   1.9804
     2.0151   2.0483   2.0954   2.1114   2.1231   2.1710   2.2045   2.2123
     2.2386   2.2484   2.2728   2.3126   2.3285   2.3816   2.4266   2.4582
     2.4702   2.5381   2.5549   2.5814   2.6158   2.6521   2.7507   2.8531
     3.0515   3.3886   3.6858   3.7192   3.8869   3.9510   3.9871   4.0687
     4.2359   4.4103   4.5512   4.7451   4.8179   4.8619   5.0755   5.2255
     5.3388   5.4487   5.5559   5.6289   5.7218   5.8422   6.0726   6.1281
     6.3598   6.6009   6.7688   6.8733

          k = 0.4000-0.4619 0.0000 ( 44692 PWs)   bands (ev):

   -10.1609  -5.5711  -5.4816  -5.1897  -4.8283  -4.4584  -4.2197  -3.9615
    -3.7411  -3.7113  -3.6238  -3.5301  -3.4816  -3.4440  -3.4263  -3.3362
    -3.2932  -3.2553  -3.2219  -3.2046  -3.1894  -3.1538  -3.1287  -3.1022
    -3.0152  -3.0075  -3.0014  -2.9750  -2.9381  -2.8713  -2.7537  -2.7454
    -2.7299  -2.6705  -2.6096  -2.5884  -2.5507  -2.5056  -2.4281  -2.4104
    -2.3852  -2.2952  -2.1998  -2.1821  -2.1465  -2.0946  -2.0803  -2.0148
    -1.9594  -1.8866  -1.8668  -1.8407  -1.7845  -1.7520  -1.7028  -1.6885
    -1.6752  -1.6292  -1.6184  -1.5941  -1.5414  -1.5242  -1.4962  -1.4783
    -1.4561  -1.4133  -1.3662  -1.3122  -1.2902  -1.2640  -1.1952  -1.1679
    -1.1289  -1.1139  -1.0941  -1.0756  -1.0431  -1.0061  -0.9581  -0.9443
    -0.9141  -0.8659  -0.8596  -0.8236  -0.7884  -0.7296  -0.7043  -0.6928
    -0.6851  -0.6319  -0.5795  -0.5548  -0.5281  -0.5154  -0.4789  -0.4495
    -0.4213  -0.4103  -0.3909  -0.3787  -0.3613  -0.3387  -0.3040  -0.2763
    -0.2696  -0.2490  -0.2350  -0.2186  -0.2023  -0.1855  -0.1554  -0.0675
    -0.0102   0.0236   0.0713   0.1269   0.1610   0.2161   0.2265   0.2774
     0.3171   0.3349   0.3598   0.3774   0.4003   0.4274   0.4629   0.4821
     0.5622   0.5969   0.6205   0.6346   0.6562   0.7406   0.7592   0.7970
     0.8431   0.9120   0.9471   0.9606   0.9928   1.0294   1.0474   1.0641
     1.0822   1.1332   1.1644   1.1793   1.2033   1.2550   1.2735   1.3083
     1.3457   1.3750   1.4386   1.4569   1.5338   1.6055   1.6327   1.6893
     1.7324   1.7608   1.7887   1.8496   1.8852   1.9021   1.9435   1.9803
     2.0161   2.0475   2.0960   2.1111   2.1239   2.1710   2.2052   2.2117
     2.2379   2.2485   2.2734   2.3119   2.3293   2.3833   2.4259   2.4573
     2.4678   2.5361   2.5531   2.5812   2.6156   2.6517   2.7504   2.8541
     3.0523   3.3871   3.6862   3.7194   3.8873   3.9497   3.9878   4.0701
     4.2373   4.4094   4.5518   4.7461   4.8159   4.8604   5.0735   5.2249
     5.3422   5.4461   5.5562   5.6219   5.7250   5.8428   6.0730   6.1282
     6.3593   6.6023   6.7698   6.8728

     the Fermi energy is     2.3313 ev

!    total energy              =  -27774.38080276 Ry
     total all-electron energy =  -1326718.910317 Ry
     estimated scf accuracy    <       0.00000060 Ry
     smearing contrib. (-TS)   =       0.00462894 Ry
     internal energy E=F+TS    =  -27774.38543170 Ry

     The total energy is F=E-TS. E is the sum of the following terms:
     one-electron contribution =  -22910.75997792 Ry
     hartree contribution      =   11760.99487237 Ry
     xc contribution           =    -895.61143092 Ry
     ewald contribution        =    9751.61657556 Ry
     one-center paw contrib.   =  -25480.62547080 Ry

     convergence has been achieved in  18 iterations

     negative rho (up, down):  3.378E-03 0.000E+00

     Forces acting on atoms (cartesian axes, Ry/au):

     atom    1 type  1   force =     0.00222214    0.00088529   -0.00593802
     atom    2 type  1   force =     0.00069618    0.00164781   -0.00452622
     atom    3 type  1   force =    -0.00163050    0.00221103   -0.00859120
     atom    4 type  1   force =     0.00211502   -0.00127771   -0.00468537
     atom    5 type  1   force =     0.00039256   -0.00066480   -0.00420514
     atom    6 type  1   force =    -0.00233376   -0.00000367   -0.00480417
     atom    7 type  1   force =     0.00126023   -0.00266709   -0.00638090
     atom    8 type  1   force =    -0.00039687   -0.00258487   -0.00452498
     atom    9 type  1   force =    -0.00191563   -0.00114801   -0.00559200
     atom   10 type  1   force =     0.00307682    0.00403210    0.01207200
     atom   11 type  1   force =     0.00141049    0.00065773    0.00342506
     atom   12 type  1   force =    -0.00311646    0.00164358    0.00486938
     atom   13 type  1   force =    -0.00034264    0.00057991    0.00648927
     atom   14 type  1   force =    -0.00002315    0.00101368   -0.00042116
     atom   15 type  1   force =     0.00016433    0.00242165    0.00739334
     atom   16 type  1   force =    -0.00046225   -0.00225295    0.00457323
     atom   17 type  1   force =     0.00198934   -0.00132332    0.00406891
     atom   18 type  1   force =    -0.00305736   -0.00311741    0.00679761
     atom   19 type  1   force =     0.00000460    0.00001649   -0.00000938
     atom   20 type  1   force =    -0.00000337    0.00002055   -0.00001286
     atom   21 type  1   force =    -0.00000843    0.00000768    0.00000279
     atom   22 type  1   force =     0.00000162    0.00002578   -0.00001102
     atom   23 type  1   force =    -0.00000551    0.00002153   -0.00000672
     atom   24 type  1   force =     0.00000182    0.00002161    0.00000778
     atom   25 type  1   force =    -0.00001071   -0.00000044   -0.00000437
     atom   26 type  1   force =    -0.00000241    0.00000922    0.00001827
     atom   27 type  1   force =     0.00000979   -0.00000155    0.00002062
     atom   28 type  1   force =     0.00001786    0.00001388    0.00004172
     atom   29 type  1   force =    -0.00000202    0.00002508    0.00002757
     atom   30 type  1   force =     0.00001402    0.00002244    0.00001635
     atom   31 type  1   force =     0.00002295   -0.00009412   -0.00014038
     atom   32 type  1   force =    -0.00000058    0.00004699   -0.00000193
     atom   33 type  1   force =    -0.00001541    0.00005007   -0.00000317
     atom   34 type  1   force =    -0.00003404   -0.00000419    0.00005519
     atom   35 type  1   force =    -0.00000325    0.00006140    0.00002707
     atom   36 type  1   force =     0.00003456   -0.00001145    0.00004676
     atom   37 type  2   force =     0.00000345   -0.00005999    0.00012100
     atom   38 type  3   force =    -0.00007343   -0.00022392   -0.00021493
     The non-local contrib.  to forces
     atom    1 type  1   force =     0.00238066    0.00121790   -0.01865222
     atom    2 type  1   force =     0.00049724    0.00175640   -0.01926991
     atom    3 type  1   force =    -0.00094157    0.00131383   -0.01485048
     atom    4 type  1   force =     0.00189126    0.00008932   -0.01930364
     atom    5 type  1   force =     0.00043376    0.00052204   -0.01992654
     atom    6 type  1   force =    -0.00196320    0.00079535   -0.01908235
     atom    7 type  1   force =     0.00066993   -0.00164601   -0.01603086
     atom    8 type  1   force =    -0.00052589   -0.00158131   -0.01905164
     atom    9 type  1   force =    -0.00113967   -0.00082211   -0.01577641
     atom   10 type  1   force =     0.00186193    0.00259019    0.00255958
     atom   11 type  1   force =    -0.00186174    0.00454817    0.00048953
     atom   12 type  1   force =     0.00131721    0.00498089    0.00088988
     atom   13 type  1   force =     0.00180801   -0.00231474    0.00164683
     atom   14 type  1   force =     0.00010462    0.00147697   -0.00269307
     atom   15 type  1   force =    -0.00207542   -0.00169342    0.00210523
     atom   16 type  1   force =     0.00375018    0.00039615    0.00055541
     atom   17 type  1   force =    -0.00320671    0.00051878    0.00059884
     atom   18 type  1   force =    -0.00206013   -0.00060337    0.00520594
     atom   19 type  1   force =    -0.00632303   -0.00196303    0.00791296
     atom   20 type  1   force =     0.00614288   -0.00180208    0.00831502
     atom   21 type  1   force =     0.00004952    0.00356687    0.00690930
     atom   22 type  1   force =     0.00001577    0.01587805   -0.00846741
     atom   23 type  1   force =     0.00349098   -0.00032706    0.00649732
     atom   24 type  1   force =    -0.00359213   -0.00045901    0.00686767
     atom   25 type  1   force =    -0.00501275   -0.00400887   -0.00194166
     atom   26 type  1   force =    -0.00019205   -0.00282881    0.01076927
     atom   27 type  1   force =     0.00513131   -0.00402744   -0.00118907
     atom   28 type  1   force =     0.07697228    0.03538354   -0.01603948
     atom   29 type  1   force =    -0.07706757    0.03530954   -0.01609508
     atom   30 type  1   force =    -0.00000287   -0.00047837    0.01243745
     atom   31 type  1   force =     0.00000912   -0.13918047   -0.01096478
     atom   32 type  1   force =    -0.02085830   -0.00915864    0.02336257
     atom   33 type  1   force =     0.02055715   -0.00910218    0.02334674
     atom   34 type  1   force =    -0.00199887   -0.00539827    0.01441336
     atom   35 type  1   force =    -0.00009447    0.02398490    0.02312814
     atom   36 type  1   force =     0.00191499   -0.00544014    0.01437548
     atom   37 type  2   force =    -0.00002337    0.00012554   -0.03409190
     atom   38 type  3   force =     0.00012437    0.28242178   -0.18167675
     The ionic contribution  to forces
     atom    1 type  1   force =     0.13580590    0.08398266  -96.88651780
     atom    2 type  1   force =     0.01809344    0.14733725  -96.82499823
     atom    3 type  1   force =    -0.13349813    0.19546553  -96.83561219
     atom    4 type  1   force =     0.13181821   -0.04800371  -96.80463858
     atom    5 type  1   force =    -0.01218262   -0.00097346  -96.79170709
     atom    6 type  1   force =    -0.11253861    0.07717130  -96.80314937
     atom    7 type  1   force =     0.09666167   -0.22271165  -96.82349811
     atom    8 type  1   force =     0.00531220   -0.14464645  -96.81210304
     atom    9 type  1   force =    -0.11734794   -0.08050704  -96.77360205
     atom   10 type  1   force =     0.14077016    0.16732306  -33.44663588
     atom   11 type  1   force =    -0.11464473    0.07970384  -33.55402401
     atom   12 type  1   force =    -0.00634160    0.13727194  -33.47719802
     atom   13 type  1   force =    -0.09369590   -0.07092839  -33.47394808
     atom   14 type  1   force =    -0.01397580   -0.00024725  -33.79680965
     atom   15 type  1   force =     0.10345941    0.06006970  -33.42008405
     atom   16 type  1   force =     0.03265989   -0.08490666  -33.50316496
     atom   17 type  1   force =     0.07502681   -0.00834056  -33.52638452
     atom   18 type  1   force =    -0.12975894   -0.17310055  -33.10464142
     atom   19 type  1   force =     0.27811636   -0.00640960   30.99692102
     atom   20 type  1   force =    -0.26227347   -0.02814151   30.89104687
     atom   21 type  1   force =    -0.01788691   -0.13252390   29.52003910
     atom   22 type  1   force =    -0.00869770    0.12450720   30.88161229
     atom   23 type  1   force =    -0.16866667    0.05564438   29.47993928
     atom   24 type  1   force =     0.17523137    0.07958269   29.45603338
     atom   25 type  1   force =    -0.17799840   -0.12099686   30.38243084
     atom   26 type  1   force =     0.02762945    0.22155329   30.64170071
     atom   27 type  1   force =     0.15470413   -0.11729547   30.25656082
     atom   28 type  1   force =    -2.60791882   -1.49340039   93.21735892
     atom   29 type  1   force =     2.61319697   -1.49256263   93.14714798
     atom   30 type  1   force =    -0.01006183    0.15567347   94.05476468
     atom   31 type  1   force =     0.00273918    2.76975024   93.05125465
     atom   32 type  1   force =     0.32818800    0.13924490   93.19948376
     atom   33 type  1   force =    -0.33730503    0.14677307   93.22018276
     atom   34 type  1   force =     0.19740727   -0.02327849   93.84041079
     atom   35 type  1   force =     0.00248130   -0.25233587   93.27700223
     atom   36 type  1   force =    -0.20217321   -0.01380668   93.81323842
     atom   37 type  2   force =     0.00164722    0.37042036   12.80042895
     atom   38 type  3   force =     0.00601736   -0.49635774   46.53115966
     The local contribution  to forces
     atom    1 type  1   force =    -0.13550646   -0.08416191   96.88244062
     atom    2 type  1   force =    -0.01794893   -0.14713221   96.82307113
     atom    3 type  1   force =     0.13250897   -0.19396875   96.82483891
     atom    4 type  1   force =    -0.13125315    0.04657734   96.80265725
     atom    5 type  1   force =     0.01222143   -0.00002482   96.79100353
     atom    6 type  1   force =     0.11177341   -0.07764042   96.80103459
     atom    7 type  1   force =    -0.09562254    0.22091360   96.81621289
     atom    8 type  1   force =    -0.00521810    0.14310905   96.81028823
     atom    9 type  1   force =     0.11605837    0.07971384   96.76700384
     atom   10 type  1   force =    -0.13921971   -0.16555433   33.45642525
     atom   11 type  1   force =     0.11774255   -0.08327248   33.55709042
     atom   12 type  1   force =     0.00185439   -0.14006663   33.48151465
     atom   13 type  1   force =     0.09148848    0.07398585   33.47902696
     atom   14 type  1   force =     0.01389797    0.00009515   33.79830377
     atom   15 type  1   force =    -0.10124640   -0.05552221   33.42576581
     atom   16 type  1   force =    -0.03664938    0.08173105   33.50730294
     atom   17 type  1   force =    -0.06978775    0.00607451   33.52992310
     atom   18 type  1   force =     0.12834509    0.16983843   33.10817412
     atom   19 type  1   force =    -0.27097376    0.00834227  -31.00100621
     atom   20 type  1   force =     0.25527426    0.02989399  -30.89552757
     atom   21 type  1   force =     0.01786283    0.12879073  -29.52523877
     atom   22 type  1   force =     0.00865067   -0.13939243  -30.87238244
     atom   23 type  1   force =     0.16495309   -0.05486340  -29.48494115
     atom   24 type  1   force =    -0.17140338   -0.07870478  -29.46140947
     atom   25 type  1   force =     0.18243318    0.12452113  -30.37916436
     atom   26 type  1   force =    -0.02743313   -0.21828663  -30.64891054
     atom   27 type  1   force =    -0.15924166    0.12079647  -30.25403160
     atom   28 type  1   force =     2.51213224    1.44828370  -93.19935956
     atom   29 type  1   force =    -2.51731474    1.44753572  -93.12916530
     atom   30 type  1   force =     0.01010195   -0.15465007  -94.05158846
     atom   31 type  1   force =    -0.00273918   -2.60852128  -93.05540487
     atom   32 type  1   force =    -0.30933208   -0.13103092  -93.20726848
     atom   33 type  1   force =     0.31871789   -0.13865094  -93.22796872
     atom   34 type  1   force =    -0.19490031    0.02812999  -93.83926706
     atom   35 type  1   force =    -0.00242930    0.23074462  -93.28448327
     atom   36 type  1   force =     0.19977582    0.01869145  -93.81209367
     atom   37 type  2   force =    -0.00162039   -0.37059310  -12.76629155
     atom   38 type  3   force =    -0.00619978    0.21855357  -46.35432859
     The core correction contribution to forces
     atom    1 type  1   force =    -0.00044599   -0.00022991    0.01738147
     atom    2 type  1   force =     0.00001378   -0.00041802    0.01724843
     atom    3 type  1   force =     0.00032891   -0.00058446    0.01761220
     atom    4 type  1   force =    -0.00037981    0.00022494    0.01719790
     atom    5 type  1   force =     0.00001345    0.00005958    0.01707529
     atom    6 type  1   force =     0.00033554   -0.00009556    0.01707488
     atom    7 type  1   force =    -0.00034775    0.00065207    0.01759428
     atom    8 type  1   force =     0.00004048    0.00036183    0.01708934
     atom    9 type  1   force =     0.00040556    0.00030527    0.01746020
     atom   10 type  1   force =    -0.00039108   -0.00036423    0.00042878
     atom   11 type  1   force =     0.00023182   -0.00022401    0.00059662
     atom   12 type  1   force =     0.00004878   -0.00039836    0.00039896
     atom   13 type  1   force =     0.00019257    0.00005011    0.00044545
     atom   14 type  1   force =     0.00000863   -0.00006899    0.00148618
     atom   15 type  1   force =    -0.00017127   -0.00026141    0.00029397
     atom   16 type  1   force =    -0.00010907    0.00024365    0.00064307
     atom   17 type  1   force =    -0.00015899    0.00008647    0.00068939
     atom   18 type  1   force =     0.00041508    0.00055752   -0.00117340
     atom   19 type  1   force =    -0.00090472    0.00015328   -0.00370412
     atom   20 type  1   force =     0.00089922    0.00018020   -0.00367088
     atom   21 type  1   force =     0.00000654    0.00034406   -0.00162431
     atom   22 type  1   force =     0.00000955   -0.00088513   -0.00063256
     atom   23 type  1   force =     0.00032321   -0.00032113   -0.00148588
     atom   24 type  1   force =    -0.00031989   -0.00032219   -0.00151186
     atom   25 type  1   force =     0.00062574    0.00033549   -0.00112948
     atom   26 type  1   force =    -0.00002936   -0.00071481   -0.00342675
     atom   27 type  1   force =    -0.00061905    0.00033744   -0.00112027
     atom   28 type  1   force =     0.01871434    0.00958581   -0.00225576
     atom   29 type  1   force =    -0.01871642    0.00959426   -0.00217307
     atom   30 type  1   force =    -0.00000474   -0.00062683   -0.01588586
     atom   31 type  1   force =     0.00001966   -0.02194251    0.01459624
     atom   32 type  1   force =     0.00201150    0.00109809   -0.01589390
     atom   33 type  1   force =    -0.00199757    0.00110790   -0.01590821
     atom   34 type  1   force =    -0.00052438    0.00058122   -0.01586175
     atom   35 type  1   force =     0.00001371   -0.00231996   -0.01602150
     atom   36 type  1   force =     0.00052224    0.00058047   -0.01584229
     atom   37 type  2   force =     0.00000000    0.00000000    0.00000000
     atom   38 type  3   force =    -0.00001980   -0.00487643    0.00449636
     The Hubbard contrib.    to forces
     atom    1 type  1   force =     0.00000000    0.00000000    0.00000000
     atom    2 type  1   force =     0.00000000    0.00000000    0.00000000
     atom    3 type  1   force =     0.00000000    0.00000000    0.00000000
     atom    4 type  1   force =     0.00000000    0.00000000    0.00000000
     atom    5 type  1   force =     0.00000000    0.00000000    0.00000000
     atom    6 type  1   force =     0.00000000    0.00000000    0.00000000
     atom    7 type  1   force =     0.00000000    0.00000000    0.00000000
     atom    8 type  1   force =     0.00000000    0.00000000    0.00000000
     atom    9 type  1   force =     0.00000000    0.00000000    0.00000000
     atom   10 type  1   force =     0.00000000    0.00000000    0.00000000
     atom   11 type  1   force =     0.00000000    0.00000000    0.00000000
     atom   12 type  1   force =     0.00000000    0.00000000    0.00000000
     atom   13 type  1   force =     0.00000000    0.00000000    0.00000000
     atom   14 type  1   force =     0.00000000    0.00000000    0.00000000
     atom   15 type  1   force =     0.00000000    0.00000000    0.00000000
     atom   16 type  1   force =     0.00000000    0.00000000    0.00000000
     atom   17 type  1   force =     0.00000000    0.00000000    0.00000000
     atom   18 type  1   force =     0.00000000    0.00000000    0.00000000
     atom   19 type  1   force =     0.00000000    0.00000000    0.00000000
     atom   20 type  1   force =     0.00000000    0.00000000    0.00000000
     atom   21 type  1   force =     0.00000000    0.00000000    0.00000000
     atom   22 type  1   force =     0.00000000    0.00000000    0.00000000
     atom   23 type  1   force =     0.00000000    0.00000000    0.00000000
     atom   24 type  1   force =     0.00000000    0.00000000    0.00000000
     atom   25 type  1   force =     0.00000000    0.00000000    0.00000000
     atom   26 type  1   force =     0.00000000    0.00000000    0.00000000
     atom   27 type  1   force =     0.00000000    0.00000000    0.00000000
     atom   28 type  1   force =     0.00000000    0.00000000    0.00000000
     atom   29 type  1   force =     0.00000000    0.00000000    0.00000000
     atom   30 type  1   force =     0.00000000    0.00000000    0.00000000
     atom   31 type  1   force =     0.00000000    0.00000000    0.00000000
     atom   32 type  1   force =     0.00000000    0.00000000    0.00000000
     atom   33 type  1   force =     0.00000000    0.00000000    0.00000000
     atom   34 type  1   force =     0.00000000    0.00000000    0.00000000
     atom   35 type  1   force =     0.00000000    0.00000000    0.00000000
     atom   36 type  1   force =     0.00000000    0.00000000    0.00000000
     atom   37 type  2   force =     0.00000000    0.00000000    0.00000000
     atom   38 type  3   force =     0.00000000    0.00000000    0.00000000
     The SCF correction term to forces
     atom    1 type  1   force =    -0.00000000    0.00000000   -0.00000000
     atom    2 type  1   force =     0.00000000    0.00000000   -0.00000000
     atom    3 type  1   force =    -0.00000000   -0.00000000   -0.00000000
     atom    4 type  1   force =     0.00000000   -0.00000000   -0.00000000
     atom    5 type  1   force =    -0.00000000   -0.00000000   -0.00000000
     atom    6 type  1   force =     0.00000000   -0.00000000   -0.00000000
     atom    7 type  1   force =    -0.00000000    0.00000000   -0.00000000
     atom    8 type  1   force =    -0.00000000    0.00000000   -0.00000000
     atom    9 type  1   force =     0.00000000    0.00000000   -0.00000000
     atom   10 type  1   force =     0.00000000    0.00000000   -0.00000000
     atom   11 type  1   force =    -0.00000000   -0.00000000   -0.00000000
     atom   12 type  1   force =     0.00000000   -0.00000000   -0.00000000
     atom   13 type  1   force =    -0.00000000   -0.00000000   -0.00000000
     atom   14 type  1   force =    -0.00000000   -0.00000000   -0.00000000
     atom   15 type  1   force =     0.00000000   -0.00000000   -0.00000000
     atom   16 type  1   force =    -0.00000000    0.00000000   -0.00000000
     atom   17 type  1   force =     0.00000000    0.00000000   -0.00000000
     atom   18 type  1   force =     0.00000000    0.00000000   -0.00000000
     atom   19 type  1   force =     0.00008892   -0.00010308   -0.00020798
     atom   20 type  1   force =    -0.00004707   -0.00010670   -0.00025126
     atom   21 type  1   force =    -0.00004123   -0.00016673   -0.00015748
     atom   22 type  1   force =     0.00002250   -0.00007856   -0.00021584
     atom   23 type  1   force =    -0.00010694   -0.00010790   -0.00009123
     atom   24 type  1   force =     0.00008502   -0.00007174   -0.00004689
     atom   25 type  1   force =    -0.00005930    0.00015202   -0.00027466
     atom   26 type  1   force =     0.00002185    0.00028953   -0.00018936
     atom   27 type  1   force =     0.00003423    0.00019081   -0.00027420
     atom   28 type  1   force =     0.00011699    0.00016457    0.00026266
     atom   29 type  1   force =    -0.00010108    0.00015154    0.00023809
     atom   30 type  1   force =    -0.00001931    0.00010759    0.00021360
     atom   31 type  1   force =    -0.00000666   -0.00019675    0.00030344
     atom   32 type  1   force =    -0.00001052   -0.00010309    0.00023917
     atom   33 type  1   force =     0.00001132   -0.00007444    0.00026932
     atom   34 type  1   force =    -0.00001857   -0.00003529    0.00028491
     atom   35 type  1   force =     0.00002467   -0.00000892    0.00032653
     atom   36 type  1   force =    -0.00000611   -0.00003319    0.00029388
     atom   37 type  2   force =    -0.00000083   -0.00000944    0.00000056
     atom   38 type  3   force =     0.00000360    0.00003826    0.00005945

     Total force =     0.000418     Total SCF correction =     0.001202
     SCF correction compared to forces is large: reduce conv_thr to get better values

     Writing all to output data dir ./pwscf.save/

     init_run     :     15.28s CPU     15.64s WALL (       1 calls)
     electrons    :    459.49s CPU    481.76s WALL (       1 calls)
     forces       :      4.28s CPU      4.78s WALL (       1 calls)

     Called by init_run:
     wfcinit      :      5.79s CPU      5.97s WALL (       1 calls)
     potinit      :      3.22s CPU      3.31s WALL (       1 calls)
     hinit0       :      5.43s CPU      5.46s WALL (       1 calls)

     Called by electrons:
     c_bands      :    409.53s CPU    427.99s WALL (      19 calls)
     sum_band     :     29.16s CPU     30.24s WALL (      19 calls)
     v_of_rho     :      9.75s CPU     11.30s WALL (      19 calls)
     newd         :      5.24s CPU      6.04s WALL (      19 calls)
     PAW_pot      :      4.02s CPU      4.13s WALL (      19 calls)
     mix_rho      :      3.88s CPU      3.96s WALL (      19 calls)
     vdW_kernel   :      1.68s CPU      1.69s WALL (       1 calls)

     Called by c_bands:
     init_us_2    :      2.74s CPU      2.97s WALL (     520 calls)
     init_us_2:cp :      2.74s CPU      2.97s WALL (     520 calls)
     cegterg      :    400.88s CPU    417.74s WALL (     247 calls)

     Called by *egterg:
     cdiaghg      :     75.15s CPU     75.80s WALL (    1200 calls)
     h_psi        :    210.92s CPU    224.64s WALL (    1226 calls)
     s_psi        :     14.34s CPU     15.15s WALL (    1226 calls)
     g_psi        :      0.46s CPU      0.46s WALL (     966 calls)

     Called by h_psi:
     h_psi:calbec :     28.29s CPU     30.27s WALL (    1226 calls)
     vloc_psi     :    166.59s CPU    177.38s WALL (    1226 calls)
     add_vuspsi   :     14.90s CPU     15.83s WALL (    1226 calls)

     General routines
     calbec       :     35.99s CPU     38.10s WALL (    1525 calls)
     fft          :      6.83s CPU      8.34s WALL (    1257 calls)
     ffts         :      2.26s CPU      2.28s WALL (    4549 calls)
     fftw         :    163.58s CPU    172.53s WALL (  320688 calls)
     interpolate  :      0.62s CPU      0.69s WALL (      19 calls)

     Parallel routines

     PWSCF        :   8m11.04s CPU   8m40.30s WALL


   This run was terminated on:  13:36:32   4Feb2025            

=------------------------------------------------------------------------------=
   JOB DONE.
=------------------------------------------------------------------------------=
