
     Program PWSCF v.7.1 starts on 17Dec2025 at  9: 1:35 
        Git branch: heads/qe-7.1
        Last git commit: 48ba0178f8fede6d020eb786884699a9f063f55d-dirty
        Last git commit date: Fri Jan 27 14:22:33 2023 +0000
        Last git commit subject: Merge branch 'fix_hubbard' into 'develop'

     This program is part of the open-source Quantum ESPRESSO suite
     for quantum simulation of materials; please cite
         "P. Giannozzi et al., J. Phys.:Condens. Matter 21 395502 (2009);
         "P. Giannozzi et al., J. Phys.:Condens. Matter 29 465901 (2017);
         "P. Giannozzi et al., J. Chem. Phys. 152 154105 (2020);
          URL http://www.quantum-espresso.org", 
     in publications or presentations arising from this work. More details at
     http://www.quantum-espresso.org/quote

     Parallel version (MPI), running on    96 processors

     MPI processes distributed on     2 nodes
     30874 MiB available memory on the printing compute node when the environment starts

     Reading input from espresso.pwi
Warning: card &CELL ignored
Warning: card / ignored
Warning: card &FCP ignored
Warning: card / ignored
Warning: card &RISM ignored
Warning: card / ignored

     Current dimensions of program PWSCF are:
     Max number of different atomic species (ntypx) = 10
     Max number of k-points (npk) =  40000
     Max angular momentum in pseudopotentials (lmaxx) =  4
     file Co.pbe-n-kjpaw_psl.1.0.0.UPF: wavefunction(s)  4S 3D renormalized
     file C.pbe-n-kjpaw_psl.1.0.0.UPF: wavefunction(s)  2S 2P renormalized
     file O.pbe-nl-kjpaw_psl.1.0.0.UPF: wavefunction(s)  2S 2P renormalized
     file H.pbe-kjpaw_psl.1.0.0.UPF: wavefunction(s)  1S renormalized

     **************************************************************************
     Initializing libbeef V0.1.2 with the BEEF-vdW functional.
     Citation: Wellendorff et al., PRB 85, 235149 (2012).
     **************************************************************************


     IMPORTANT: XC functional enforced from input :
     Exchange-correlation= BEEF-VDW
                           (   1   4  43  14   2   0   0)
     Any further DFT definition will be discarded
     Please, verify this is what you really want


     R & G space division:  proc/nbgrp/npool/nimage =      96
     Subspace diagonalization in iterative solution of the eigenvalue problem:
     one sub-group per band group will be used
     custom distributed-memory algorithm (size of sub-group:  2*  2 procs)


     Parallelization info
     --------------------
     sticks:   dense  smooth     PW     G-vecs:    dense   smooth      PW
     Min          43      28      7                 7829     4248     595
     Max          44      29      8                 7845     4281     630
     Sum        4153    2773    757               752179   409445   59217

     Using Slab Decomposition



     bravais-lattice index     =            0
     lattice parameter (alat)  =      14.1729  a.u.
     unit-cell volume          =    8574.3059 (a.u.)^3
     number of atoms/cell      =           39
     number of atomic types    =            4
     number of electrons       =       335.00
     number of Kohn-Sham states=          202
     kinetic-energy cutoff     =      50.0000  Ry
     charge density cutoff     =     300.0000  Ry
     scf convergence threshold =      1.0E-08
     mixing beta               =       0.7000
     number of iterations used =            8  local-TF  mixing
     Exchange-correlation= BEEF-VDW
                           (   1   4  43  14   2   0   0)

     celldm(1)=  14.172946  celldm(2)=   0.000000  celldm(3)=   0.000000
     celldm(4)=   0.000000  celldm(5)=   0.000000  celldm(6)=   0.000000

     crystal axes: (cart. coord. in units of alat)
               a(1) = (   1.000000   0.000000   0.000000 )  
               a(2) = (   0.500000   0.866025   0.000000 )  
               a(3) = (   0.000000   0.000000   3.477667 )  

     reciprocal axes: (cart. coord. in units 2 pi/alat)
               b(1) = (  1.000000 -0.577350  0.000000 )  
               b(2) = (  0.000000  1.154701  0.000000 )  
               b(3) = (  0.000000  0.000000  0.287549 )  


     PseudoPot. # 1 for Co read from file:
     /users/kbadger1/espresso/pseudo/pslibrary.1.0.0/pbe/PSEUDOPOTENTIALS/Co.pbe-n-kjpaw_psl.1.0.0.UPF
     MD5 check sum: 88af6ec42553d4236c267fdfcb472151
     Pseudo is Projector augmented-wave + core cor, Zval =  9.0
     Generated using 'atomic' code by A. Dal Corso  v.7.0
     Shape of augmentation charge: PSQ
     Using radial grid of 1193 points,  6 beta functions with: 
                l(1) =   0
                l(2) =   0
                l(3) =   1
                l(4) =   1
                l(5) =   2
                l(6) =   2
     Q(r) pseudized with 0 coefficients 


     PseudoPot. # 2 for C  read from file:
     /users/kbadger1/espresso/pseudo/pslibrary.1.0.0/pbe/PSEUDOPOTENTIALS/C.pbe-n-kjpaw_psl.1.0.0.UPF
     MD5 check sum: 6408e75cdba28732cea38a4db8498ce4
     Pseudo is Projector augmented-wave + core cor, Zval =  4.0
     Generated using 'atomic' code by A. Dal Corso  v.7.0
     Shape of augmentation charge: PSQ
     Using radial grid of 1073 points,  4 beta functions with: 
                l(1) =   0
                l(2) =   0
                l(3) =   1
                l(4) =   1
     Q(r) pseudized with 0 coefficients 


     PseudoPot. # 3 for O  read from file:
     /users/kbadger1/espresso/pseudo/pslibrary.1.0.0/pbe/PSEUDOPOTENTIALS/O.pbe-nl-kjpaw_psl.1.0.0.UPF
     MD5 check sum: f0439fab3598ca4e468f064226030408
     Pseudo is Projector augmented-wave + core cor, Zval =  6.0
     Generated using 'atomic' code by A. Dal Corso  v.7.0
     Shape of augmentation charge: PSQ
     Using radial grid of 1095 points,  4 beta functions with: 
                l(1) =   0
                l(2) =   0
                l(3) =   1
                l(4) =   1
     Q(r) pseudized with 0 coefficients 


     PseudoPot. # 4 for H  read from file:
     /users/kbadger1/espresso/pseudo/pslibrary.1.0.0/pbe/PSEUDOPOTENTIALS/H.pbe-kjpaw_psl.1.0.0.UPF
     MD5 check sum: fe4c6fa958fa6d3815bf5d2419cbf1df
     Pseudo is Projector augmented-wave, Zval =  1.0
     Generated using 'atomic' code by A. Dal Corso  v.7.0
     Shape of augmentation charge: PSQ
     Using radial grid of  929 points,  2 beta functions with: 
                l(1) =   0
                l(2) =   0
     Q(r) pseudized with 0 coefficients 


     atomic species   valence    mass     pseudopotential
        Co             9.00    58.93319     Co( 1.00)
        C              4.00    12.01100     C ( 1.00)
        O              6.00    15.99900     O ( 1.00)
        H              1.00     1.00800     H ( 1.00)

     Starting magnetic structure 
     atomic species   magnetization
        Co           1.000
        C            1.000
        O            0.000
        H            0.000

     No symmetry found



   Cartesian axes

     site n.     atom                  positions (alat units)
         1           Co  tau(   1) = (   0.0000000   0.1924501   1.3333333  )
         2           Co  tau(   2) = (   0.3333333   0.1924501   1.3333333  )
         3           Co  tau(   3) = (   0.6666667   0.1924501   1.3333333  )
         4           Co  tau(   4) = (   0.1666667   0.4811252   1.3333333  )
         5           Co  tau(   5) = (   0.5000000   0.4811252   1.3333333  )
         6           Co  tau(   6) = (   0.8333333   0.4811252   1.3333333  )
         7           Co  tau(   7) = (   0.3333333   0.7698004   1.3333333  )
         8           Co  tau(   8) = (   0.6666667   0.7698004   1.3333333  )
         9           Co  tau(   9) = (   1.0000000   0.7698004   1.3333333  )
        10           Co  tau(  10) = (   0.0000000   0.0000000   1.6036667  )
        11           Co  tau(  11) = (   0.3333333   0.0000000   1.6036667  )
        12           Co  tau(  12) = (   0.6666667   0.0000000   1.6036667  )
        13           Co  tau(  13) = (   0.1666667   0.2886751   1.6036667  )
        14           Co  tau(  14) = (   0.5000000   0.2886751   1.6036667  )
        15           Co  tau(  15) = (   0.8333333   0.2886751   1.6036667  )
        16           Co  tau(  16) = (   0.3333333   0.5773503   1.6036667  )
        17           Co  tau(  17) = (   0.6666667   0.5773503   1.6036667  )
        18           Co  tau(  18) = (   1.0000000   0.5773503   1.6036667  )
        19           Co  tau(  19) = (   0.0000000   0.1924501   1.8740000  )
        20           Co  tau(  20) = (   0.3333333   0.1924501   1.8740000  )
        21           Co  tau(  21) = (   0.6666667   0.1924501   1.8740000  )
        22           Co  tau(  22) = (   0.1666667   0.4811252   1.8740000  )
        23           Co  tau(  23) = (   0.5000000   0.4811252   1.8740000  )
        24           Co  tau(  24) = (   0.8333333   0.4811252   1.8740000  )
        25           Co  tau(  25) = (   0.3333333   0.7698004   1.8740000  )
        26           Co  tau(  26) = (   0.6666667   0.7698004   1.8740000  )
        27           Co  tau(  27) = (   1.0000000   0.7698004   1.8740000  )
        28           Co  tau(  28) = (   0.0000000   0.0000000   2.1443333  )
        29           Co  tau(  29) = (   0.3333333   0.0000000   2.1443333  )
        30           Co  tau(  30) = (   0.6666667   0.0000000   2.1443333  )
        31           Co  tau(  31) = (   0.1666667   0.2886751   2.1443333  )
        32           Co  tau(  32) = (   0.5000000   0.2886751   2.1443333  )
        33           Co  tau(  33) = (   0.8333333   0.2886751   2.1443333  )
        34           Co  tau(  34) = (   0.3333333   0.5773503   2.1443333  )
        35           Co  tau(  35) = (   0.6666667   0.5773503   2.1443333  )
        36           Co  tau(  36) = (   1.0000000   0.5773503   2.1443333  )
        37           C   tau(  37) = (   0.1708122  -0.0542753   2.3324652  )
        38           O   tau(  38) = (   0.1577045  -0.0650091   2.4900761  )
        39           H   tau(  39) = (   0.4966040   0.0765162   2.2772112  )

     number of k points=    13  Marzari-Vanderbilt smearing, width (Ry)=  0.0010
                       cart. coord. in units 2pi/alat
        k(    1) = (   0.0000000   0.0000000   0.0000000), wk =   0.0400000
        k(    2) = (   0.0000000   0.2309401   0.0000000), wk =   0.0800000
        k(    3) = (   0.0000000   0.4618802   0.0000000), wk =   0.0800000
        k(    4) = (   0.2000000  -0.1154701   0.0000000), wk =   0.0800000
        k(    5) = (   0.2000000   0.1154701   0.0000000), wk =   0.0800000
        k(    6) = (   0.2000000   0.3464102   0.0000000), wk =   0.0800000
        k(    7) = (   0.2000000  -0.5773503   0.0000000), wk =   0.0800000
        k(    8) = (   0.2000000  -0.3464102   0.0000000), wk =   0.0800000
        k(    9) = (   0.4000000  -0.2309401   0.0000000), wk =   0.0800000
        k(   10) = (   0.4000000   0.0000000   0.0000000), wk =   0.0800000
        k(   11) = (   0.4000000   0.2309401   0.0000000), wk =   0.0800000
        k(   12) = (   0.4000000  -0.6928203   0.0000000), wk =   0.0800000
        k(   13) = (   0.4000000  -0.4618802   0.0000000), wk =   0.0800000

     Dense  grid:   752179 G-vectors     FFT dimensions: (  80,  80, 288)

     Smooth grid:   409445 G-vectors     FFT dimensions: (  64,  64, 225)

     Estimated max dynamical RAM per process >      99.02 MB

     Estimated total dynamical RAM >       9.28 GB
     Generating pointlists ...
     new r_m :   0.0924 (alat units)  1.3095 (a.u.) for type    1
     new r_m :   0.0654 (alat units)  0.9268 (a.u.) for type    2
     new r_m :   0.0654 (alat units)  0.9268 (a.u.) for type    3
     new r_m :   0.0924 (alat units)  1.3095 (a.u.) for type    4

     Initial potential from superposition of free atoms

     starting charge     334.9897, renormalised to     335.0000

     negative rho (up, down):  3.057E-03 4.499E-04


     %%%%%%%%%%%%%%%%%%%%%%%%%%%%%%%%%%%%%%%%%%%%%%%%%%%%%%%%%%%%%%%%%%%%%%%%
     %                                                                      %
     % You are using vdW-DF, which was implemented by the Thonhauser group. %
     % Please cite the following two papers that made this development      %
     % possible and the two reviews that describe the various versions:     %
     %                                                                      %
     %   T. Thonhauser et al., PRL 115, 136402 (2015).                      %
     %   T. Thonhauser et al., PRB 76, 125112 (2007).                       %
     %   K. Berland et al., Rep. Prog. Phys. 78, 066501 (2015).             %
     %   D.C. Langreth et al., J. Phys.: Condens. Matter 21, 084203 (2009). %
     %                                                                      %
     % If you are calculating stress with vdW-DF, please also cite:         %
     %                                                                      %
     %   R. Sabatini et al., J. Phys.: Condens. Matter 24, 424209 (2012).   %
     %   C.M. Frostenson et al., Electr. Struct. 4, 014001 (2022).          %
     %                                                                      %
     %%%%%%%%%%%%%%%%%%%%%%%%%%%%%%%%%%%%%%%%%%%%%%%%%%%%%%%%%%%%%%%%%%%%%%%%

     %%%%%%%%%%%%%%%%%%%%%%%%%%%%%%%%%%%%%%%%%%%%%%%%%%%%%%%%%%%%%%%%%%%%%%%%
     %                                                                      %
     %  vdW-DF NEWS:                                                        %
     %                                                                      %
     %  * vdW-DF3 is now available. DOI: 10.1021/acs.jctc.0c00471           %
     %    use with input_dft = 'vdW-DF3-opt1' or 'vdW-DF3-opt2'             %
     %                                                                      %
     %  * Unscreened and range-separated hybrid vdW-DF-cx functionals       %
     %    DOI: 10.1063/1.4986522 and 10.1088/1361-648X/ac2ad2               %
     %    use with input_dft = 'vdW-DF-cx0'    and 'vdW-DF-ahcx'            %
     %  * Unscreened and range-separated hybrid vdW-DF2-b86r functionals    %
     %    DOI: 10.1063/1.4986522 and DOI: 10.1103/PhysRevX.12.041003        %
     %    use with input_dft = 'vdW-DF2-br0' and 'vdW-DF2-ahbr'             %
     %                                                                      %
     %%%%%%%%%%%%%%%%%%%%%%%%%%%%%%%%%%%%%%%%%%%%%%%%%%%%%%%%%%%%%%%%%%%%%%%%


     Starting wfcs are  333 randomized atomic wfcs
     Checking if some PAW data can be deallocated... 

     total cpu time spent up to now is       14.8 secs

     per-process dynamical memory:   231.9 Mb

     Self-consistent Calculation

     iteration #  1     ecut=    50.00 Ry     beta= 0.70
     Davidson diagonalization with overlap
     ethr =  1.00E-02,  avg # of iterations =  2.0

     negative rho (up, down):  3.483E-05 9.703E-08

     total cpu time spent up to now is       37.1 secs

     total energy              =   -6053.13625232 Ry
     estimated scf accuracy    <      39.02760918 Ry

     total magnetization       =    69.00 Bohr mag/cell
     absolute magnetization    =    81.22 Bohr mag/cell

     iteration #  2     ecut=    50.00 Ry     beta= 0.70
     Davidson diagonalization with overlap
     ethr =  1.00E-02,  avg # of iterations =  1.0

     negative rho (up, down):  5.124E-06 3.383E-08

     total cpu time spent up to now is       57.5 secs

     total energy              =   -6052.70811271 Ry
     estimated scf accuracy    <      24.06937116 Ry

     total magnetization       =    69.00 Bohr mag/cell
     absolute magnetization    =    76.83 Bohr mag/cell

     iteration #  3     ecut=    50.00 Ry     beta= 0.70
     Davidson diagonalization with overlap
     ethr =  7.18E-03,  avg # of iterations =  1.4

     negative rho (up, down):  3.744E-08 0.000E+00

     total cpu time spent up to now is       72.0 secs

     total energy              =   -6055.20528618 Ry
     estimated scf accuracy    <      85.77680269 Ry

     total magnetization       =    66.12 Bohr mag/cell
     absolute magnetization    =    73.57 Bohr mag/cell

     iteration #  4     ecut=    50.00 Ry     beta= 0.70
     Davidson diagonalization with overlap
     ethr =  7.18E-03,  avg # of iterations =  1.0

     total cpu time spent up to now is       90.9 secs

     total energy              =   -6056.47135349 Ry
     estimated scf accuracy    <       5.69293696 Ry

     total magnetization       =    60.32 Bohr mag/cell
     absolute magnetization    =    70.15 Bohr mag/cell

     iteration #  5     ecut=    50.00 Ry     beta= 0.70
     Davidson diagonalization with overlap
     ethr =  1.70E-03,  avg # of iterations =  1.1

     total cpu time spent up to now is      104.8 secs

     total energy              =   -6056.45205272 Ry
     estimated scf accuracy    <       2.16440347 Ry

     total magnetization       =    60.31 Bohr mag/cell
     absolute magnetization    =    69.72 Bohr mag/cell

     iteration #  6     ecut=    50.00 Ry     beta= 0.70
     Davidson diagonalization with overlap
     ethr =  6.46E-04,  avg # of iterations =  1.9

     total cpu time spent up to now is      124.0 secs

     total energy              =   -6056.55425910 Ry
     estimated scf accuracy    <       0.85660893 Ry

     total magnetization       =    60.05 Bohr mag/cell
     absolute magnetization    =    69.10 Bohr mag/cell

     iteration #  7     ecut=    50.00 Ry     beta= 0.70
     Davidson diagonalization with overlap
     ethr =  2.56E-04,  avg # of iterations =  4.5

     total cpu time spent up to now is      146.6 secs

     total energy              =   -6056.58239351 Ry
     estimated scf accuracy    <       0.61924271 Ry

     total magnetization       =    60.12 Bohr mag/cell
     absolute magnetization    =    68.83 Bohr mag/cell

     iteration #  8     ecut=    50.00 Ry     beta= 0.70
     Davidson diagonalization with overlap
     ethr =  1.85E-04,  avg # of iterations =  1.8

     total cpu time spent up to now is      160.7 secs

     total energy              =   -6056.60940200 Ry
     estimated scf accuracy    <       0.16684890 Ry

     total magnetization       =    60.14 Bohr mag/cell
     absolute magnetization    =    68.70 Bohr mag/cell

     iteration #  9     ecut=    50.00 Ry     beta= 0.70
     Davidson diagonalization with overlap
     c_bands:  1 eigenvalues not converged
     c_bands:  2 eigenvalues not converged
     ethr =  4.98E-05,  avg # of iterations =  8.5

     total cpu time spent up to now is      188.7 secs

     total energy              =   -6056.61483701 Ry
     estimated scf accuracy    <       0.10004589 Ry

     total magnetization       =    60.33 Bohr mag/cell
     absolute magnetization    =    68.56 Bohr mag/cell

     iteration # 10     ecut=    50.00 Ry     beta= 0.70
     Davidson diagonalization with overlap
     ethr =  2.99E-05,  avg # of iterations =  4.6

     total cpu time spent up to now is      209.9 secs

     total energy              =   -6056.61983158 Ry
     estimated scf accuracy    <       0.14943659 Ry

     total magnetization       =    60.69 Bohr mag/cell
     absolute magnetization    =    68.66 Bohr mag/cell

     iteration # 11     ecut=    50.00 Ry     beta= 0.70
     Davidson diagonalization with overlap
     ethr =  2.99E-05,  avg # of iterations =  1.6

     total cpu time spent up to now is      225.4 secs

     total energy              =   -6056.61625662 Ry
     estimated scf accuracy    <       0.11201440 Ry

     total magnetization       =    60.64 Bohr mag/cell
     absolute magnetization    =    68.55 Bohr mag/cell

     iteration # 12     ecut=    50.00 Ry     beta= 0.70
     Davidson diagonalization with overlap
     ethr =  2.99E-05,  avg # of iterations =  2.0

     negative rho (up, down):  1.083E-07 0.000E+00

     total cpu time spent up to now is      245.0 secs

     total energy              =   -6056.61689115 Ry
     estimated scf accuracy    <       0.08450056 Ry

     total magnetization       =    60.53 Bohr mag/cell
     absolute magnetization    =    68.37 Bohr mag/cell

     iteration # 13     ecut=    50.00 Ry     beta= 0.70
     Davidson diagonalization with overlap
     ethr =  2.52E-05,  avg # of iterations =  1.5

     negative rho (up, down):  1.281E-07 0.000E+00

     total cpu time spent up to now is      264.3 secs

     total energy              =   -6056.61635676 Ry
     estimated scf accuracy    <       0.10965751 Ry

     total magnetization       =    60.66 Bohr mag/cell
     absolute magnetization    =    68.40 Bohr mag/cell

     iteration # 14     ecut=    50.00 Ry     beta= 0.70
     Davidson diagonalization with overlap
     ethr =  2.52E-05,  avg # of iterations =  1.2

     negative rho (up, down):  9.067E-03 7.438E-03

     total cpu time spent up to now is      277.8 secs

     total energy              =   -6056.61076715 Ry
     estimated scf accuracy    <       0.07869956 Ry

     total magnetization       =    60.62 Bohr mag/cell
     absolute magnetization    =    68.34 Bohr mag/cell

     iteration # 15     ecut=    50.00 Ry     beta= 0.70
     Davidson diagonalization with overlap
     ethr =  2.35E-05,  avg # of iterations =  1.3

     negative rho (up, down):  1.757E-02 1.588E-02

     total cpu time spent up to now is      298.7 secs

     total energy              =   -6056.60767747 Ry
     estimated scf accuracy    <       0.03344703 Ry

     total magnetization       =    60.55 Bohr mag/cell
     absolute magnetization    =    68.28 Bohr mag/cell

     iteration # 16     ecut=    50.00 Ry     beta= 0.70
     Davidson diagonalization with overlap
     c_bands:  1 eigenvalues not converged
     c_bands:  3 eigenvalues not converged
     c_bands:  1 eigenvalues not converged
     c_bands:  3 eigenvalues not converged
     ethr =  9.98E-06,  avg # of iterations =  6.6

     negative rho (up, down):  1.858E-02 1.693E-02

     total cpu time spent up to now is      323.6 secs

     total energy              =   -6056.60724989 Ry
     estimated scf accuracy    <       0.05648528 Ry

     total magnetization       =    60.47 Bohr mag/cell
     absolute magnetization    =    68.19 Bohr mag/cell

     iteration # 17     ecut=    50.00 Ry     beta= 0.70
     Davidson diagonalization with overlap
     ethr =  9.98E-06,  avg # of iterations =  1.9

     negative rho (up, down):  2.730E-02 2.535E-02

     total cpu time spent up to now is      337.9 secs

     total energy              =   -6056.60796483 Ry
     estimated scf accuracy    <       0.02253020 Ry

     total magnetization       =    60.56 Bohr mag/cell
     absolute magnetization    =    68.24 Bohr mag/cell

     iteration # 18     ecut=    50.00 Ry     beta= 0.70
     Davidson diagonalization with overlap
     ethr =  6.73E-06,  avg # of iterations =  2.3

     negative rho (up, down):  1.252E-02 1.107E-02

     total cpu time spent up to now is      357.5 secs

     total energy              =   -6056.60835324 Ry
     estimated scf accuracy    <       0.02136043 Ry

     total magnetization       =    60.61 Bohr mag/cell
     absolute magnetization    =    68.23 Bohr mag/cell

     iteration # 19     ecut=    50.00 Ry     beta= 0.70
     Davidson diagonalization with overlap
     ethr =  6.38E-06,  avg # of iterations =  1.3

     negative rho (up, down):  1.936E-02 1.808E-02

     total cpu time spent up to now is      371.8 secs

     total energy              =   -6056.60624550 Ry
     estimated scf accuracy    <       0.00681714 Ry

     total magnetization       =    60.59 Bohr mag/cell
     absolute magnetization    =    68.23 Bohr mag/cell

     iteration # 20     ecut=    50.00 Ry     beta= 0.70
     Davidson diagonalization with overlap
     c_bands:  1 eigenvalues not converged
     c_bands:  1 eigenvalues not converged
     c_bands:  1 eigenvalues not converged
     c_bands:  1 eigenvalues not converged
     c_bands:  1 eigenvalues not converged
     c_bands:  2 eigenvalues not converged
     ethr =  2.03E-06,  avg # of iterations = 11.2

     negative rho (up, down):  1.448E-02 1.383E-02

     total cpu time spent up to now is      400.7 secs

     total energy              =   -6056.60526112 Ry
     estimated scf accuracy    <       0.01482670 Ry

     total magnetization       =    60.64 Bohr mag/cell
     absolute magnetization    =    68.23 Bohr mag/cell

     iteration # 21     ecut=    50.00 Ry     beta= 0.70
     Davidson diagonalization with overlap
     c_bands:  1 eigenvalues not converged
     ethr =  2.03E-06,  avg # of iterations =  3.1

     negative rho (up, down):  1.631E-02 1.567E-02

     total cpu time spent up to now is      422.8 secs

     total energy              =   -6056.60564447 Ry
     estimated scf accuracy    <       0.00345825 Ry

     total magnetization       =    60.60 Bohr mag/cell
     absolute magnetization    =    68.20 Bohr mag/cell

     iteration # 22     ecut=    50.00 Ry     beta= 0.70
     Davidson diagonalization with overlap
     ethr =  1.03E-06,  avg # of iterations =  1.8

     negative rho (up, down):  1.397E-02 1.340E-02

     total cpu time spent up to now is      437.4 secs

     total energy              =   -6056.60578861 Ry
     estimated scf accuracy    <       0.00509159 Ry

     total magnetization       =    60.62 Bohr mag/cell
     absolute magnetization    =    68.21 Bohr mag/cell

     iteration # 23     ecut=    50.00 Ry     beta= 0.70
     Davidson diagonalization with overlap
     ethr =  1.03E-06,  avg # of iterations =  1.3

     negative rho (up, down):  1.127E-02 1.070E-02

     total cpu time spent up to now is      456.4 secs

     total energy              =   -6056.60583663 Ry
     estimated scf accuracy    <       0.00237329 Ry

     total magnetization       =    60.63 Bohr mag/cell
     absolute magnetization    =    68.22 Bohr mag/cell

     iteration # 24     ecut=    50.00 Ry     beta= 0.70
     Davidson diagonalization with overlap
     ethr =  7.08E-07,  avg # of iterations =  1.5

     negative rho (up, down):  7.604E-03 6.732E-03

     total cpu time spent up to now is      474.0 secs

     total energy              =   -6056.60560906 Ry
     estimated scf accuracy    <       0.00273580 Ry

     total magnetization       =    60.62 Bohr mag/cell
     absolute magnetization    =    68.21 Bohr mag/cell

     iteration # 25     ecut=    50.00 Ry     beta= 0.70
     Davidson diagonalization with overlap
     ethr =  7.08E-07,  avg # of iterations =  2.6

     negative rho (up, down):  6.853E-03 6.204E-03

     total cpu time spent up to now is      492.7 secs

     total energy              =   -6056.60582834 Ry
     estimated scf accuracy    <       0.00155787 Ry

     total magnetization       =    60.65 Bohr mag/cell
     absolute magnetization    =    68.24 Bohr mag/cell

     iteration # 26     ecut=    50.00 Ry     beta= 0.70
     Davidson diagonalization with overlap
     ethr =  4.65E-07,  avg # of iterations =  1.7

     negative rho (up, down):  5.569E-03 4.847E-03

     total cpu time spent up to now is      510.7 secs

     total energy              =   -6056.60591796 Ry
     estimated scf accuracy    <       0.00072665 Ry

     total magnetization       =    60.63 Bohr mag/cell
     absolute magnetization    =    68.23 Bohr mag/cell

     iteration # 27     ecut=    50.00 Ry     beta= 0.70
     Davidson diagonalization with overlap
     ethr =  2.17E-07,  avg # of iterations =  2.3

     negative rho (up, down):  4.619E-03 3.825E-03

     total cpu time spent up to now is      527.3 secs

     total energy              =   -6056.60594773 Ry
     estimated scf accuracy    <       0.00014685 Ry

     total magnetization       =    60.64 Bohr mag/cell
     absolute magnetization    =    68.23 Bohr mag/cell

     iteration # 28     ecut=    50.00 Ry     beta= 0.70
     Davidson diagonalization with overlap
     c_bands:  1 eigenvalues not converged
     ethr =  4.38E-08,  avg # of iterations =  7.3

     negative rho (up, down):  3.784E-03 2.902E-03

     total cpu time spent up to now is      556.5 secs

     total energy              =   -6056.60597368 Ry
     estimated scf accuracy    <       0.00020080 Ry

     total magnetization       =    60.64 Bohr mag/cell
     absolute magnetization    =    68.23 Bohr mag/cell

     iteration # 29     ecut=    50.00 Ry     beta= 0.70
     Davidson diagonalization with overlap
     ethr =  4.38E-08,  avg # of iterations =  1.3

     negative rho (up, down):  3.251E-03 2.261E-03

     total cpu time spent up to now is      573.8 secs

     total energy              =   -6056.60599881 Ry
     estimated scf accuracy    <       0.00016329 Ry

     total magnetization       =    60.65 Bohr mag/cell
     absolute magnetization    =    68.23 Bohr mag/cell

     iteration # 30     ecut=    50.00 Ry     beta= 0.70
     Davidson diagonalization with overlap
     ethr =  4.38E-08,  avg # of iterations =  1.5

     negative rho (up, down):  3.124E-03 2.047E-03

     total cpu time spent up to now is      591.1 secs

     total energy              =   -6056.60601406 Ry
     estimated scf accuracy    <       0.00006029 Ry

     total magnetization       =    60.64 Bohr mag/cell
     absolute magnetization    =    68.22 Bohr mag/cell

     iteration # 31     ecut=    50.00 Ry     beta= 0.70
     Davidson diagonalization with overlap
     ethr =  1.80E-08,  avg # of iterations =  2.6

     negative rho (up, down):  2.986E-03 1.895E-03

     total cpu time spent up to now is      607.9 secs

     total energy              =   -6056.60601929 Ry
     estimated scf accuracy    <       0.00003736 Ry

     total magnetization       =    60.64 Bohr mag/cell
     absolute magnetization    =    68.22 Bohr mag/cell

     iteration # 32     ecut=    50.00 Ry     beta= 0.70
     Davidson diagonalization with overlap
     ethr =  1.12E-08,  avg # of iterations =  1.7

     negative rho (up, down):  2.818E-03 1.701E-03

     total cpu time spent up to now is      628.1 secs

     total energy              =   -6056.60601595 Ry
     estimated scf accuracy    <       0.00002768 Ry

     total magnetization       =    60.65 Bohr mag/cell
     absolute magnetization    =    68.22 Bohr mag/cell

     iteration # 33     ecut=    50.00 Ry     beta= 0.70
     Davidson diagonalization with overlap
     ethr =  8.26E-09,  avg # of iterations =  1.4

     negative rho (up, down):  2.622E-03 1.509E-03

     total cpu time spent up to now is      642.3 secs

     total energy              =   -6056.60601998 Ry
     estimated scf accuracy    <       0.00001646 Ry

     total magnetization       =    60.64 Bohr mag/cell
     absolute magnetization    =    68.22 Bohr mag/cell

     iteration # 34     ecut=    50.00 Ry     beta= 0.70
     Davidson diagonalization with overlap
     ethr =  4.91E-09,  avg # of iterations =  2.4

     negative rho (up, down):  2.688E-03 1.593E-03

     total cpu time spent up to now is      664.0 secs

     total energy              =   -6056.60602094 Ry
     estimated scf accuracy    <       0.00000718 Ry

     total magnetization       =    60.64 Bohr mag/cell
     absolute magnetization    =    68.22 Bohr mag/cell

     iteration # 35     ecut=    50.00 Ry     beta= 0.70
     Davidson diagonalization with overlap
     c_bands:  1 eigenvalues not converged
     c_bands:  1 eigenvalues not converged
     ethr =  2.14E-09,  avg # of iterations =  5.4

     negative rho (up, down):  2.610E-03 1.516E-03

     total cpu time spent up to now is      686.1 secs

     total energy              =   -6056.60602146 Ry
     estimated scf accuracy    <       0.00001694 Ry

     total magnetization       =    60.64 Bohr mag/cell
     absolute magnetization    =    68.22 Bohr mag/cell

     iteration # 36     ecut=    50.00 Ry     beta= 0.70
     Davidson diagonalization with overlap
     ethr =  2.14E-09,  avg # of iterations =  1.7

     negative rho (up, down):  2.500E-03 1.425E-03

     total cpu time spent up to now is      701.9 secs

     total energy              =   -6056.60602183 Ry
     estimated scf accuracy    <       0.00000734 Ry

     total magnetization       =    60.64 Bohr mag/cell
     absolute magnetization    =    68.22 Bohr mag/cell

     iteration # 37     ecut=    50.00 Ry     beta= 0.70
     Davidson diagonalization with overlap
     ethr =  2.14E-09,  avg # of iterations =  1.7

     negative rho (up, down):  2.506E-03 1.427E-03

     total cpu time spent up to now is      719.9 secs

     total energy              =   -6056.60602206 Ry
     estimated scf accuracy    <       0.00000227 Ry

     total magnetization       =    60.64 Bohr mag/cell
     absolute magnetization    =    68.21 Bohr mag/cell

     iteration # 38     ecut=    50.00 Ry     beta= 0.70
     Davidson diagonalization with overlap
     c_bands:  1 eigenvalues not converged
     ethr =  6.79E-10,  avg # of iterations =  3.8

     negative rho (up, down):  2.438E-03 1.353E-03

     total cpu time spent up to now is      743.4 secs

     total energy              =   -6056.60602201 Ry
     estimated scf accuracy    <       0.00000289 Ry

     total magnetization       =    60.64 Bohr mag/cell
     absolute magnetization    =    68.21 Bohr mag/cell

     iteration # 39     ecut=    50.00 Ry     beta= 0.70
     Davidson diagonalization with overlap
     ethr =  6.79E-10,  avg # of iterations =  1.6

     negative rho (up, down):  2.381E-03 1.303E-03

     total cpu time spent up to now is      757.5 secs

     total energy              =   -6056.60602190 Ry
     estimated scf accuracy    <       0.00000414 Ry

     total magnetization       =    60.64 Bohr mag/cell
     absolute magnetization    =    68.21 Bohr mag/cell

     iteration # 40     ecut=    50.00 Ry     beta= 0.70
     Davidson diagonalization with overlap
     ethr =  6.79E-10,  avg # of iterations =  1.8

     negative rho (up, down):  2.358E-03 1.277E-03

     total cpu time spent up to now is      777.3 secs

     total energy              =   -6056.60602210 Ry
     estimated scf accuracy    <       0.00000132 Ry

     total magnetization       =    60.64 Bohr mag/cell
     absolute magnetization    =    68.21 Bohr mag/cell

     iteration # 41     ecut=    50.00 Ry     beta= 0.70
     Davidson diagonalization with overlap
     ethr =  3.94E-10,  avg # of iterations =  1.8

     negative rho (up, down):  2.351E-03 1.264E-03

     total cpu time spent up to now is      793.2 secs

     total energy              =   -6056.60602221 Ry
     estimated scf accuracy    <       0.00000101 Ry

     total magnetization       =    60.64 Bohr mag/cell
     absolute magnetization    =    68.21 Bohr mag/cell

     iteration # 42     ecut=    50.00 Ry     beta= 0.70
     Davidson diagonalization with overlap
     ethr =  3.01E-10,  avg # of iterations =  1.4

     negative rho (up, down):  2.307E-03 1.219E-03

     total cpu time spent up to now is      812.3 secs

     total energy              =   -6056.60602219 Ry
     estimated scf accuracy    <       0.00000081 Ry

     total magnetization       =    60.64 Bohr mag/cell
     absolute magnetization    =    68.21 Bohr mag/cell

     iteration # 43     ecut=    50.00 Ry     beta= 0.70
     Davidson diagonalization with overlap
     ethr =  2.43E-10,  avg # of iterations =  1.5

     negative rho (up, down):  2.276E-03 1.189E-03

     total cpu time spent up to now is      826.8 secs

     total energy              =   -6056.60602217 Ry
     estimated scf accuracy    <       0.00000033 Ry

     total magnetization       =    60.64 Bohr mag/cell
     absolute magnetization    =    68.21 Bohr mag/cell

     iteration # 44     ecut=    50.00 Ry     beta= 0.70
     Davidson diagonalization with overlap
     c_bands:  1 eigenvalues not converged
     ethr =  9.83E-11,  avg # of iterations =  3.7

     negative rho (up, down):  2.283E-03 1.194E-03

     total cpu time spent up to now is      847.4 secs

     total energy              =   -6056.60602221 Ry
     estimated scf accuracy    <       0.00000015 Ry

     total magnetization       =    60.64 Bohr mag/cell
     absolute magnetization    =    68.21 Bohr mag/cell

     iteration # 45     ecut=    50.00 Ry     beta= 0.70
     Davidson diagonalization with overlap
     ethr =  4.36E-11,  avg # of iterations =  5.3

     negative rho (up, down):  2.275E-03 1.185E-03

     total cpu time spent up to now is      871.6 secs

     total energy              =   -6056.60602221 Ry
     estimated scf accuracy    <       0.00000011 Ry

     total magnetization       =    60.64 Bohr mag/cell
     absolute magnetization    =    68.21 Bohr mag/cell

     iteration # 46     ecut=    50.00 Ry     beta= 0.70
     Davidson diagonalization with overlap
     ethr =  3.16E-11,  avg # of iterations =  2.3

     negative rho (up, down):  2.267E-03 1.177E-03

     total cpu time spent up to now is      886.9 secs

     total energy              =   -6056.60602220 Ry
     estimated scf accuracy    <       0.00000005 Ry

     total magnetization       =    60.64 Bohr mag/cell
     absolute magnetization    =    68.21 Bohr mag/cell

     iteration # 47     ecut=    50.00 Ry     beta= 0.70
     Davidson diagonalization with overlap
     ethr =  1.57E-11,  avg # of iterations =  3.5

     negative rho (up, down):  2.275E-03 1.184E-03

     total cpu time spent up to now is      909.8 secs

     total energy              =   -6056.60602222 Ry
     estimated scf accuracy    <       0.00000006 Ry

     total magnetization       =    60.64 Bohr mag/cell
     absolute magnetization    =    68.21 Bohr mag/cell

     iteration # 48     ecut=    50.00 Ry     beta= 0.70
     Davidson diagonalization with overlap
     ethr =  1.57E-11,  avg # of iterations =  1.6

     negative rho (up, down):  2.271E-03 1.180E-03

     total cpu time spent up to now is      928.7 secs

     total energy              =   -6056.60602221 Ry
     estimated scf accuracy    <       0.00000004 Ry

     total magnetization       =    60.64 Bohr mag/cell
     absolute magnetization    =    68.21 Bohr mag/cell

     iteration # 49     ecut=    50.00 Ry     beta= 0.70
     Davidson diagonalization with overlap
     ethr =  1.21E-11,  avg # of iterations =  1.5

     negative rho (up, down):  2.266E-03 1.175E-03

     total cpu time spent up to now is      944.4 secs

     total energy              =   -6056.60602220 Ry
     estimated scf accuracy    <       0.00000002 Ry

     total magnetization       =    60.64 Bohr mag/cell
     absolute magnetization    =    68.21 Bohr mag/cell

     iteration # 50     ecut=    50.00 Ry     beta= 0.70
     Davidson diagonalization with overlap
     ethr =  5.78E-12,  avg # of iterations =  3.0

     negative rho (up, down):  2.256E-03 1.166E-03

     Magnetic moment per site  (integrated on atomic sphere of radius R)
     atom   1 (R=0.092)  charge=  5.7687  magn=  1.6746
     atom   2 (R=0.092)  charge=  5.7702  magn=  1.6694
     atom   3 (R=0.092)  charge=  5.7694  magn=  1.6788
     atom   4 (R=0.092)  charge=  5.7699  magn=  1.6846
     atom   5 (R=0.092)  charge=  5.7696  magn=  1.6776
     atom   6 (R=0.092)  charge=  5.7700  magn=  1.6769
     atom   7 (R=0.092)  charge=  5.7683  magn=  1.6776
     atom   8 (R=0.092)  charge=  5.7698  magn=  1.6675
     atom   9 (R=0.092)  charge=  5.7701  magn=  1.6748
     atom  10 (R=0.092)  charge=  5.7652  magn=  1.6119
     atom  11 (R=0.092)  charge=  5.7666  magn=  1.6072
     atom  12 (R=0.092)  charge=  5.7664  magn=  1.6170
     atom  13 (R=0.092)  charge=  5.7656  magn=  1.6198
     atom  14 (R=0.092)  charge=  5.7661  magn=  1.6164
     atom  15 (R=0.092)  charge=  5.7663  magn=  1.6162
     atom  16 (R=0.092)  charge=  5.7659  magn=  1.6100
     atom  17 (R=0.092)  charge=  5.7663  magn=  1.6150
     atom  18 (R=0.092)  charge=  5.7660  magn=  1.6128
     atom  19 (R=0.092)  charge=  5.7660  magn=  1.5987
     atom  20 (R=0.092)  charge=  5.7662  magn=  1.6083
     atom  21 (R=0.092)  charge=  5.7645  magn=  1.6364
     atom  22 (R=0.092)  charge=  5.7656  magn=  1.6106
     atom  23 (R=0.092)  charge=  5.7652  magn=  1.5901
     atom  24 (R=0.092)  charge=  5.7657  magn=  1.6050
     atom  25 (R=0.092)  charge=  5.7650  magn=  1.5800
     atom  26 (R=0.092)  charge=  5.7642  magn=  1.6329
     atom  27 (R=0.092)  charge=  5.7662  magn=  1.6077
     atom  28 (R=0.092)  charge=  5.7802  magn=  1.3369
     atom  29 (R=0.092)  charge=  5.7848  magn=  1.0793
     atom  30 (R=0.092)  charge=  5.7687  magn=  1.5669
     atom  31 (R=0.092)  charge=  5.7701  magn=  1.7154
     atom  32 (R=0.092)  charge=  5.7701  magn=  1.6292
     atom  33 (R=0.092)  charge=  5.7673  magn=  1.7043
     atom  34 (R=0.092)  charge=  5.7667  magn=  1.7146
     atom  35 (R=0.092)  charge=  5.7756  magn=  1.5735
     atom  36 (R=0.092)  charge=  5.7691  magn=  1.7239
     atom  37 (R=0.065)  charge=  1.0426  magn= -0.0203
     atom  38 (R=0.065)  charge=  2.9163  magn= -0.0399
     atom  39 (R=0.092)  charge=  0.8931  magn= -0.0152

     total cpu time spent up to now is      963.4 secs

     End of self-consistent calculation

 ------ SPIN UP ------------


          k = 0.0000 0.0000 0.0000 ( 51087 PWs)   bands (ev):

   -21.9953  -9.1848  -7.6664  -6.5541  -5.8340  -5.6663  -5.4067  -5.2097
    -4.8336  -4.8253  -4.8205  -4.8058  -4.7930  -4.7802  -4.6402  -4.3843
    -4.2913  -4.2907  -4.2651  -4.2566  -4.2401  -4.0935  -3.7750  -3.7745
    -3.7643  -3.7532  -3.7284  -3.6927  -3.6419  -3.6397  -3.6363  -3.6322
    -3.6100  -3.5620  -3.5615  -3.4627  -3.2605  -3.2526  -3.2497  -3.2476
    -3.1922  -3.1879  -3.1837  -3.1805  -3.1756  -3.1691  -3.1615  -3.1024
    -3.0234  -3.0187  -2.9553  -2.9491  -2.9467  -2.9404  -2.9325  -2.9181
    -2.9136  -2.9096  -2.8889  -2.8658  -2.8164  -2.8077  -2.8063  -2.8001
    -2.7398  -2.5937  -2.3164  -2.2778  -2.2746  -2.2721  -2.2699  -2.1677
    -2.1459  -2.1344  -2.1308  -2.1164  -2.1052  -2.1005  -2.0922  -2.0869
    -2.0490  -2.0437  -2.0145  -2.0031  -1.9917  -1.9882  -1.9751  -1.9630
    -1.9608  -1.9521  -1.9472  -1.9399  -1.9309  -1.9190  -1.9155  -1.9047
    -1.9036  -1.8993  -1.8991  -1.8955  -1.8953  -1.8909  -1.8872  -1.8754
    -1.8662  -1.8573  -1.8391  -1.8289  -1.8246  -1.7460  -1.7429  -1.6549
    -1.5322  -1.4585  -1.4519  -1.4490  -1.4472  -1.4365  -1.4205  -1.4092
    -1.4047  -1.4008  -1.3927  -1.3595  -1.3566  -1.2304  -1.2207  -1.2101
    -1.1976  -1.1492  -1.0835  -1.0588  -1.0417  -1.0168  -0.9890  -0.9750
    -0.9685  -0.9639  -0.9572  -0.9409  -0.9059  -0.8916  -0.8409  -0.8227
    -0.7453  -0.7114  -0.7073  -0.7030  -0.6888  -0.6677  -0.6550  -0.6441
    -0.6409  -0.6371  -0.6344  -0.6294  -0.6289  -0.6228  -0.6164  -0.6076
    -0.6038  -0.5979  -0.5880  -0.5747  -0.5730  -0.5660  -0.5532  -0.5487
    -0.5374  -0.5322  -0.5237  -0.5109  -0.5082  -0.5013  -0.4959  -0.4908
    -0.4870  -0.4809  -0.4672  -0.4534  -0.4343  -0.4124  -0.4073  -0.3986
    -0.3974  -0.3898  -0.3855  -0.3795  -0.3710  -0.3335  -0.3222  -0.3127
    -0.3093  -0.3057  -0.2485  -0.2451  -0.2394  -0.2309  -0.2178  -0.2022
     0.5059   0.7268

          k = 0.0000 0.2309 0.0000 ( 51134 PWs)   bands (ev):

   -21.9953  -9.1746  -7.5256  -6.4620  -5.8592  -5.6920  -5.5271  -5.3724
    -5.1917  -5.0433  -5.0225  -4.6434  -4.4971  -4.4793  -4.4676  -4.4117
    -4.3243  -4.2952  -4.2343  -4.1726  -4.1510  -4.0878  -3.8798  -3.7791
    -3.7715  -3.7004  -3.6586  -3.6456  -3.6430  -3.6321  -3.6291  -3.6069
    -3.5924  -3.5355  -3.5169  -3.4962  -3.4942  -3.4271  -3.2744  -3.2687
    -3.2579  -3.2136  -3.2087  -3.2022  -3.1724  -3.1080  -3.0792  -3.0634
    -3.0448  -3.0419  -3.0258  -3.0033  -2.9612  -2.9053  -2.8999  -2.8704
    -2.8391  -2.8288  -2.8034  -2.7984  -2.7742  -2.7373  -2.7313  -2.7220
    -2.6956  -2.5938  -2.3968  -2.3859  -2.3658  -2.3452  -2.3317  -2.2459
    -2.2372  -2.2215  -2.2148  -2.2079  -2.2011  -2.1907  -2.1684  -2.1126
    -2.1052  -2.0900  -2.0717  -2.0358  -2.0295  -2.0222  -2.0160  -2.0057
    -1.9938  -1.9911  -1.9850  -1.9809  -1.9728  -1.9654  -1.9388  -1.8906
    -1.8773  -1.8710  -1.8129  -1.8028  -1.7942  -1.7925  -1.7832  -1.7815
    -1.7684  -1.7622  -1.7538  -1.7471  -1.7434  -1.7200  -1.7087  -1.6913
    -1.6818  -1.6738  -1.6309  -1.5856  -1.5737  -1.4834  -1.4759  -1.4734
    -1.4645  -1.4454  -1.4385  -1.4312  -1.4076  -1.3946  -1.3737  -1.2764
    -1.2551  -1.1955  -1.1888  -1.1725  -1.1573  -1.1022  -1.0881  -1.0797
    -1.0561  -0.9888  -0.9763  -0.9690  -0.9431  -0.9358  -0.9022  -0.8961
    -0.8735  -0.8624  -0.8520  -0.8310  -0.8178  -0.7950  -0.7891  -0.7864
    -0.7219  -0.7138  -0.7084  -0.7026  -0.6877  -0.6647  -0.6461  -0.6336
    -0.6294  -0.6236  -0.6197  -0.6057  -0.5919  -0.5809  -0.5699  -0.5581
    -0.5210  -0.5050  -0.4929  -0.4716  -0.4466  -0.4359  -0.4136  -0.3858
    -0.3823  -0.3681  -0.3646  -0.3532  -0.3350  -0.3273  -0.3207  -0.2871
    -0.2561  -0.2459  -0.2339  -0.2147  -0.2071  -0.1894  -0.1842  -0.1666
    -0.1121  -0.0361   0.1076   0.1408   0.1929   0.2765   0.3982   0.4166
     0.4548   0.7695

          k = 0.0000 0.4619 0.0000 ( 51204 PWs)   bands (ev):

   -21.9953  -9.1585  -7.1115  -6.4837  -6.1878  -5.8329  -5.5887  -5.3868
    -5.2434  -5.1421  -5.1282  -4.9146  -4.3285  -4.3118  -4.2895  -4.2434
    -4.2058  -4.1214  -4.1188  -4.0435  -3.9885  -3.9828  -3.9735  -3.8230
    -3.8060  -3.8026  -3.7923  -3.7905  -3.7271  -3.6889  -3.6822  -3.5592
    -3.5190  -3.5105  -3.4925  -3.4770  -3.4684  -3.4329  -3.3636  -3.3582
    -3.3443  -3.3378  -3.2724  -3.2115  -3.1395  -3.0994  -3.0469  -3.0310
    -3.0061  -2.9812  -2.9608  -2.9427  -2.9386  -2.9280  -2.9074  -2.8572
    -2.8462  -2.8250  -2.7915  -2.7703  -2.6548  -2.6431  -2.6206  -2.6112
    -2.5530  -2.5312  -2.5063  -2.4947  -2.4802  -2.4148  -2.3653  -2.3622
    -2.3571  -2.3463  -2.3420  -2.3191  -2.3072  -2.2897  -2.2732  -2.2571
    -2.2346  -2.1996  -2.1817  -2.1599  -2.1370  -2.1095  -2.0657  -2.0440
    -2.0298  -2.0132  -1.9947  -1.9785  -1.9688  -1.9330  -1.9198  -1.9130
    -1.9020  -1.8906  -1.8734  -1.8535  -1.8463  -1.8390  -1.8369  -1.8110
    -1.7939  -1.7620  -1.7396  -1.7313  -1.6632  -1.6440  -1.6273  -1.6223
    -1.6068  -1.5771  -1.5471  -1.5249  -1.5165  -1.4941  -1.4902  -1.4829
    -1.4809  -1.4702  -1.4586  -1.4492  -1.4464  -1.4389  -1.4256  -1.4158
    -1.4127  -1.3581  -1.2950  -1.2881  -1.2673  -1.2576  -1.2275  -1.2197
    -1.1913  -1.1348  -1.1180  -1.1064  -1.0652  -1.0546  -1.0183  -0.9809
    -0.9735  -0.9590  -0.9302  -0.9148  -0.9003  -0.8822  -0.8580  -0.7815
    -0.7499  -0.7396  -0.7233  -0.7100  -0.7044  -0.6972  -0.6905  -0.6806
    -0.6724  -0.6425  -0.5608  -0.5569  -0.5440  -0.5356  -0.5273  -0.5205
    -0.5087  -0.4918  -0.4738  -0.4655  -0.4601  -0.4315  -0.3779  -0.3595
    -0.3529  -0.3347  -0.3171  -0.2594  -0.2540  -0.2277  -0.2214  -0.1801
    -0.1510  -0.1430  -0.1360  -0.1237  -0.1105  -0.1065  -0.1007  -0.0566
    -0.0071   0.0109   0.4696   0.5829   0.8959   1.0974   1.1279   1.3015
     1.4790   1.4915

          k = 0.2000-0.1155 0.0000 ( 51134 PWs)   bands (ev):

   -21.9953  -9.1733  -7.5265  -6.4626  -5.8770  -5.6900  -5.5237  -5.3624
    -5.1808  -5.0528  -5.0231  -4.6212  -4.5128  -4.4788  -4.4697  -4.4117
    -4.3388  -4.2902  -4.2229  -4.1906  -4.1500  -4.0646  -3.8892  -3.7770
    -3.7671  -3.6993  -3.6622  -3.6473  -3.6425  -3.6375  -3.6274  -3.6064
    -3.5858  -3.5423  -3.5171  -3.4983  -3.4924  -3.4309  -3.2823  -3.2706
    -3.2618  -3.2150  -3.2094  -3.1954  -3.1726  -3.1147  -3.0792  -3.0605
    -3.0450  -3.0375  -3.0315  -2.9987  -2.9573  -2.9076  -2.8988  -2.8745
    -2.8337  -2.8282  -2.8020  -2.7973  -2.7727  -2.7357  -2.7303  -2.7247
    -2.6894  -2.5974  -2.3989  -2.3847  -2.3608  -2.3438  -2.3307  -2.2460
    -2.2389  -2.2247  -2.2184  -2.2067  -2.2009  -2.1858  -2.1649  -2.1103
    -2.1071  -2.0888  -2.0738  -2.0371  -2.0326  -2.0272  -2.0124  -2.0041
    -1.9947  -1.9939  -1.9872  -1.9831  -1.9689  -1.9633  -1.9281  -1.8843
    -1.8812  -1.8645  -1.8170  -1.8064  -1.7992  -1.7900  -1.7825  -1.7817
    -1.7708  -1.7633  -1.7597  -1.7464  -1.7445  -1.7224  -1.7065  -1.6931
    -1.6830  -1.6681  -1.6373  -1.5933  -1.5726  -1.4958  -1.4743  -1.4698
    -1.4557  -1.4507  -1.4408  -1.4354  -1.4159  -1.3849  -1.3323  -1.2834
    -1.2474  -1.1994  -1.1894  -1.1743  -1.1497  -1.1172  -1.0951  -1.0798
    -1.0346  -1.0017  -0.9914  -0.9750  -0.9456  -0.9402  -0.9065  -0.8970
    -0.8790  -0.8573  -0.8430  -0.8230  -0.8152  -0.7992  -0.7917  -0.7793
    -0.7197  -0.7118  -0.7064  -0.7014  -0.6771  -0.6585  -0.6428  -0.6365
    -0.6308  -0.6262  -0.6196  -0.6095  -0.5942  -0.5822  -0.5709  -0.5516
    -0.5128  -0.4983  -0.4881  -0.4723  -0.4528  -0.4414  -0.4065  -0.3882
    -0.3784  -0.3696  -0.3609  -0.3546  -0.3365  -0.3275  -0.3203  -0.2814
    -0.2578  -0.2439  -0.2351  -0.2152  -0.2049  -0.1927  -0.1832  -0.1618
    -0.1132  -0.0458   0.0942   0.1394   0.1755   0.2703   0.3848   0.4166
     0.4551   0.8137

          k = 0.2000 0.1155 0.0000 ( 51134 PWs)   bands (ev):

   -21.9953  -9.1724  -7.5277  -6.4647  -5.9102  -5.6727  -5.4626  -5.4114
    -5.1673  -5.0502  -5.0404  -4.5912  -4.5131  -4.4759  -4.4719  -4.4101
    -4.3393  -4.3116  -4.2245  -4.1917  -4.1546  -4.0489  -3.8915  -3.7829
    -3.7577  -3.6912  -3.6546  -3.6484  -3.6434  -3.6412  -3.6290  -3.6207
    -3.5598  -3.5493  -3.5300  -3.4982  -3.4925  -3.4319  -3.2879  -3.2680
    -3.2659  -3.2145  -3.2129  -3.1999  -3.1668  -3.1143  -3.0836  -3.0560
    -3.0425  -3.0388  -3.0319  -3.0080  -2.9526  -2.9071  -2.8988  -2.8757
    -2.8404  -2.8169  -2.8041  -2.7972  -2.7839  -2.7344  -2.7327  -2.7195
    -2.6719  -2.6003  -2.3974  -2.3818  -2.3604  -2.3448  -2.3336  -2.2457
    -2.2388  -2.2316  -2.2173  -2.2087  -2.2020  -2.1888  -2.1451  -2.1117
    -2.1071  -2.0906  -2.0710  -2.0353  -2.0302  -2.0277  -2.0241  -2.0019
    -1.9967  -1.9930  -1.9883  -1.9831  -1.9697  -1.9588  -1.9376  -1.8876
    -1.8738  -1.8628  -1.8172  -1.8115  -1.8007  -1.7926  -1.7853  -1.7806
    -1.7712  -1.7656  -1.7599  -1.7459  -1.7437  -1.7354  -1.6981  -1.6960
    -1.6810  -1.6758  -1.6361  -1.5969  -1.5785  -1.5095  -1.4768  -1.4674
    -1.4554  -1.4509  -1.4409  -1.4346  -1.4186  -1.3784  -1.2999  -1.2886
    -1.2438  -1.1950  -1.1900  -1.1744  -1.1512  -1.1330  -1.0928  -1.0870
    -1.0295  -0.9950  -0.9868  -0.9663  -0.9479  -0.9425  -0.9066  -0.9023
    -0.8762  -0.8596  -0.8441  -0.8229  -0.8171  -0.8006  -0.7965  -0.7792
    -0.7177  -0.7112  -0.7044  -0.6962  -0.6878  -0.6558  -0.6436  -0.6340
    -0.6327  -0.6249  -0.6182  -0.6006  -0.5931  -0.5830  -0.5727  -0.5613
    -0.5124  -0.4916  -0.4832  -0.4740  -0.4569  -0.4426  -0.4053  -0.3882
    -0.3797  -0.3698  -0.3612  -0.3523  -0.3358  -0.3264  -0.3211  -0.2799
    -0.2513  -0.2454  -0.2340  -0.2139  -0.2071  -0.1868  -0.1670  -0.1588
    -0.1121  -0.0750   0.1071   0.1392   0.1785   0.2603   0.3904   0.4132
     0.4500   0.7410

          k = 0.2000 0.3464 0.0000 ( 51202 PWs)   bands (ev):

   -21.9953  -9.1592  -7.2508  -6.3298  -6.0553  -5.9228  -5.6934  -5.4846
    -5.3753  -5.1509  -4.7477  -4.6326  -4.4877  -4.4735  -4.3316  -4.2658
    -4.2611  -4.1661  -4.1600  -4.0731  -4.0344  -3.9884  -3.8937  -3.8708
    -3.8207  -3.7750  -3.6827  -3.6669  -3.6401  -3.6339  -3.6253  -3.6165
    -3.5848  -3.5765  -3.5358  -3.5149  -3.4739  -3.4411  -3.4335  -3.3848
    -3.2939  -3.2407  -3.2101  -3.1851  -3.1655  -3.1523  -3.0965  -3.0493
    -3.0121  -2.9834  -2.9742  -2.9595  -2.9418  -2.9140  -2.9019  -2.8833
    -2.8708  -2.8412  -2.7553  -2.7168  -2.6861  -2.6646  -2.6515  -2.6329
    -2.6057  -2.5577  -2.4983  -2.4318  -2.4157  -2.3866  -2.3737  -2.3409
    -2.3282  -2.3200  -2.3128  -2.2909  -2.2741  -2.2604  -2.2510  -2.2437
    -2.2350  -2.1843  -2.1588  -2.1210  -2.0668  -2.0606  -2.0369  -2.0228
    -2.0158  -1.9932  -1.9655  -1.9581  -1.9424  -1.9235  -1.9060  -1.9019
    -1.8970  -1.8870  -1.8818  -1.8590  -1.8517  -1.8424  -1.8289  -1.8173
    -1.8016  -1.7865  -1.7593  -1.7223  -1.7137  -1.6763  -1.6710  -1.6653
    -1.6524  -1.6460  -1.6110  -1.5781  -1.5628  -1.5527  -1.5365  -1.5044
    -1.5013  -1.4912  -1.4752  -1.4590  -1.4381  -1.4308  -1.4190  -1.3678
    -1.3562  -1.3308  -1.3137  -1.2340  -1.2164  -1.1889  -1.1744  -1.0955
    -1.0732  -1.0547  -1.0448  -1.0398  -1.0334  -1.0275  -0.9974  -0.9913
    -0.9748  -0.9590  -0.9377  -0.8979  -0.8903  -0.8681  -0.8600  -0.8439
    -0.8173  -0.8014  -0.7889  -0.7741  -0.7644  -0.7468  -0.6268  -0.6062
    -0.6006  -0.5817  -0.5672  -0.5559  -0.5430  -0.5325  -0.5172  -0.5091
    -0.4929  -0.4686  -0.4417  -0.4315  -0.4069  -0.3970  -0.3574  -0.3403
    -0.3307  -0.3289  -0.3240  -0.2996  -0.2900  -0.2822  -0.2777  -0.2647
    -0.2497  -0.1754  -0.1631  -0.1591  -0.1159  -0.1093  -0.0960   0.0381
     0.1476   0.2328   0.2575   0.4170   0.5180   0.6401   0.9849   1.1272
     1.2310   1.4492

          k = 0.2000-0.5774 0.0000 ( 51262 PWs)   bands (ev):

   -21.9953  -9.1521  -6.7556  -6.6791  -6.1781  -6.0356  -5.7534  -5.5194
    -5.2670  -5.2161  -4.9595  -4.6924  -4.4674  -4.2303  -4.1818  -4.0713
    -4.0515  -4.0419  -4.0208  -4.0161  -3.9664  -3.9469  -3.9383  -3.9361
    -3.9140  -3.8524  -3.7903  -3.7832  -3.7621  -3.7596  -3.7075  -3.6142
    -3.6041  -3.5981  -3.5747  -3.5267  -3.4790  -3.4449  -3.3690  -3.3123
    -3.3051  -3.2609  -3.2239  -3.2072  -3.1794  -3.1251  -3.0934  -3.0859
    -3.0506  -3.0246  -2.9939  -2.9317  -2.9005  -2.8694  -2.8563  -2.8183
    -2.8019  -2.7317  -2.7261  -2.7150  -2.7024  -2.6925  -2.6686  -2.6338
    -2.5640  -2.5168  -2.5034  -2.4922  -2.4618  -2.4313  -2.4111  -2.3680
    -2.3638  -2.3245  -2.3145  -2.3069  -2.2995  -2.2795  -2.2553  -2.2545
    -2.2338  -2.2248  -2.2084  -2.1810  -2.1782  -2.1455  -2.1037  -2.0887
    -2.0714  -2.0439  -2.0132  -1.9842  -1.9632  -1.9412  -1.9285  -1.9200
    -1.9020  -1.8917  -1.8865  -1.8763  -1.8632  -1.8390  -1.8349  -1.7844
    -1.7680  -1.7468  -1.7382  -1.7299  -1.7105  -1.7058  -1.6990  -1.6871
    -1.6772  -1.6712  -1.6536  -1.6238  -1.5915  -1.5789  -1.5537  -1.5341
    -1.4868  -1.4818  -1.4589  -1.4360  -1.4235  -1.4103  -1.4014  -1.3803
    -1.3419  -1.3304  -1.3086  -1.2709  -1.2112  -1.1901  -1.1801  -1.1615
    -1.1449  -1.1320  -1.1268  -1.0962  -1.0774  -1.0634  -1.0472  -1.0296
    -0.9845  -0.9732  -0.9539  -0.9453  -0.9314  -0.8819  -0.8742  -0.8581
    -0.8520  -0.8325  -0.8288  -0.8108  -0.7828  -0.7609  -0.7358  -0.5897
    -0.5742  -0.5674  -0.5545  -0.5448  -0.5365  -0.5285  -0.5164  -0.4858
    -0.4742  -0.4614  -0.4528  -0.4437  -0.4006  -0.3505  -0.3313  -0.3252
    -0.3140  -0.3015  -0.2853  -0.2748  -0.2378  -0.2294  -0.2233  -0.2123
    -0.2075  -0.1416  -0.1328  -0.1247  -0.1126  -0.1028  -0.0819  -0.0538
     0.1236   0.2514   0.4842   0.8801   1.0619   1.1715   1.2670   1.5229
     1.6628   1.7231

          k = 0.2000-0.3464 0.0000 ( 51202 PWs)   bands (ev):

   -21.9953  -9.1606  -7.2474  -6.3314  -6.0135  -5.9333  -5.6992  -5.5368
    -5.3558  -5.1390  -4.7097  -4.6990  -4.4822  -4.4714  -4.3275  -4.2673
    -4.2606  -4.1661  -4.1617  -4.0623  -4.0239  -4.0136  -3.8974  -3.8720
    -3.8222  -3.7768  -3.6814  -3.6622  -3.6565  -3.6348  -3.6262  -3.6014
    -3.5853  -3.5790  -3.5382  -3.5158  -3.4762  -3.4329  -3.4227  -3.3924
    -3.2976  -3.2359  -3.2101  -3.1842  -3.1680  -3.1450  -3.0783  -3.0499
    -3.0019  -2.9936  -2.9693  -2.9547  -2.9523  -2.9179  -2.8941  -2.8856
    -2.8640  -2.8422  -2.7530  -2.7264  -2.6898  -2.6726  -2.6489  -2.6288
    -2.6107  -2.5590  -2.4962  -2.4344  -2.4033  -2.3870  -2.3739  -2.3409
    -2.3338  -2.3188  -2.3139  -2.2850  -2.2742  -2.2598  -2.2517  -2.2406
    -2.2324  -2.1913  -2.1561  -2.1383  -2.0684  -2.0623  -2.0362  -2.0215
    -2.0144  -1.9901  -1.9710  -1.9569  -1.9384  -1.9212  -1.9058  -1.9036
    -1.8958  -1.8874  -1.8779  -1.8601  -1.8496  -1.8438  -1.8234  -1.8077
    -1.8030  -1.7942  -1.7689  -1.7202  -1.7155  -1.6798  -1.6692  -1.6614
    -1.6580  -1.6421  -1.5894  -1.5837  -1.5658  -1.5402  -1.5211  -1.5053
    -1.4981  -1.4917  -1.4851  -1.4614  -1.4410  -1.4292  -1.4228  -1.3663
    -1.3564  -1.3214  -1.3089  -1.2494  -1.2145  -1.1850  -1.1599  -1.1018
    -1.0805  -1.0573  -1.0490  -1.0425  -1.0361  -1.0270  -0.9994  -0.9884
    -0.9755  -0.9639  -0.9431  -0.8988  -0.8873  -0.8765  -0.8562  -0.8435
    -0.8189  -0.8050  -0.7810  -0.7717  -0.7608  -0.7467  -0.6250  -0.6143
    -0.5929  -0.5835  -0.5669  -0.5545  -0.5490  -0.5288  -0.5258  -0.5054
    -0.4962  -0.4719  -0.4411  -0.4234  -0.4077  -0.3982  -0.3610  -0.3407
    -0.3316  -0.3275  -0.3240  -0.3012  -0.2912  -0.2829  -0.2758  -0.2644
    -0.2497  -0.1766  -0.1642  -0.1597  -0.1133  -0.1105  -0.1037   0.0548
     0.1232   0.2329   0.2485   0.4540   0.5124   0.6324   1.0038   1.1253
     1.2357   1.3856

          k = 0.4000-0.2309 0.0000 ( 51204 PWs)   bands (ev):

   -21.9953  -9.1550  -7.1157  -6.4859  -6.1933  -5.8730  -5.5508  -5.3873
    -5.2142  -5.1532  -5.1241  -4.9243  -4.3439  -4.3139  -4.2785  -4.2413
    -4.2010  -4.1230  -4.1184  -4.0270  -3.9906  -3.9832  -3.9593  -3.8269
    -3.8059  -3.7977  -3.7925  -3.7909  -3.7208  -3.6913  -3.6821  -3.6013
    -3.5208  -3.5112  -3.4949  -3.4773  -3.4675  -3.4280  -3.3656  -3.3581
    -3.3459  -3.3347  -3.3009  -3.2175  -3.1315  -3.1038  -3.0398  -3.0256
    -3.0035  -2.9806  -2.9615  -2.9474  -2.9352  -2.9259  -2.9113  -2.8611
    -2.8470  -2.8270  -2.7845  -2.7595  -2.6543  -2.6397  -2.6185  -2.5955
    -2.5586  -2.5311  -2.5092  -2.4938  -2.4835  -2.4189  -2.3650  -2.3624
    -2.3593  -2.3465  -2.3383  -2.3174  -2.3053  -2.2959  -2.2704  -2.2473
    -2.2340  -2.2024  -2.1833  -2.1584  -2.1327  -2.1205  -2.0630  -2.0475
    -2.0298  -2.0156  -1.9999  -1.9737  -1.9688  -1.9290  -1.9196  -1.9106
    -1.9006  -1.8851  -1.8743  -1.8534  -1.8501  -1.8441  -1.8371  -1.8053
    -1.7907  -1.7546  -1.7396  -1.7291  -1.6644  -1.6469  -1.6232  -1.6118
    -1.5953  -1.5757  -1.5589  -1.5198  -1.5148  -1.4983  -1.4941  -1.4860
    -1.4765  -1.4699  -1.4630  -1.4530  -1.4477  -1.4378  -1.4199  -1.4108
    -1.3929  -1.3689  -1.3072  -1.2796  -1.2663  -1.2592  -1.2324  -1.2119
    -1.1924  -1.1419  -1.1186  -1.1047  -1.0768  -1.0671  -1.0262  -1.0036
    -0.9841  -0.9545  -0.9316  -0.9215  -0.8964  -0.8695  -0.8418  -0.7954
    -0.7524  -0.7299  -0.7168  -0.7059  -0.7033  -0.6957  -0.6889  -0.6789
    -0.6634  -0.6416  -0.5608  -0.5519  -0.5458  -0.5328  -0.5253  -0.5102
    -0.5028  -0.4858  -0.4772  -0.4692  -0.4568  -0.4338  -0.3698  -0.3578
    -0.3456  -0.3370  -0.3100  -0.2606  -0.2543  -0.2253  -0.2199  -0.1809
    -0.1520  -0.1395  -0.1335  -0.1157  -0.1111  -0.1086  -0.1005  -0.0591
    -0.0065   0.0100   0.4014   0.6003   0.9180   1.0823   1.1223   1.2629
     1.4674   1.5057

          k = 0.4000 0.0000 0.0000 ( 51202 PWs)   bands (ev):

   -21.9953  -9.1570  -7.2532  -6.3274  -6.0791  -5.9194  -5.6920  -5.4669
    -5.3837  -5.1381  -4.7645  -4.6099  -4.4869  -4.4829  -4.3320  -4.2678
    -4.2575  -4.1662  -4.1612  -4.0894  -4.0351  -3.9538  -3.8949  -3.8726
    -3.8166  -3.7768  -3.6851  -3.6718  -3.6434  -3.6350  -3.6286  -3.6100
    -3.5851  -3.5755  -3.5451  -3.5192  -3.4733  -3.4487  -3.4372  -3.3861
    -3.3011  -3.2507  -3.2103  -3.1814  -3.1618  -3.1528  -3.0929  -3.0483
    -3.0174  -2.9780  -2.9739  -2.9629  -2.9389  -2.9125  -2.8980  -2.8842
    -2.8720  -2.8453  -2.7619  -2.7008  -2.6875  -2.6647  -2.6421  -2.6268
    -2.6088  -2.5537  -2.5019  -2.4305  -2.4127  -2.3861  -2.3735  -2.3432
    -2.3303  -2.3209  -2.3147  -2.2962  -2.2726  -2.2616  -2.2560  -2.2428
    -2.2219  -2.1882  -2.1624  -2.1137  -2.0673  -2.0567  -2.0443  -2.0268
    -2.0113  -1.9917  -1.9651  -1.9554  -1.9436  -1.9232  -1.9027  -1.8972
    -1.8923  -1.8884  -1.8824  -1.8608  -1.8565  -1.8410  -1.8243  -1.8166
    -1.7999  -1.7727  -1.7474  -1.7211  -1.7127  -1.6840  -1.6709  -1.6640
    -1.6520  -1.6424  -1.6169  -1.5813  -1.5660  -1.5537  -1.5316  -1.5121
    -1.5021  -1.4930  -1.4786  -1.4691  -1.4489  -1.4353  -1.4171  -1.3668
    -1.3549  -1.3317  -1.3209  -1.2239  -1.2103  -1.1908  -1.1777  -1.0993
    -1.0661  -1.0610  -1.0530  -1.0421  -1.0327  -1.0256  -1.0000  -0.9965
    -0.9772  -0.9537  -0.9374  -0.8960  -0.8789  -0.8645  -0.8604  -0.8423
    -0.8135  -0.8018  -0.7923  -0.7751  -0.7663  -0.7472  -0.6246  -0.6105
    -0.5862  -0.5772  -0.5676  -0.5565  -0.5453  -0.5276  -0.5223  -0.5138
    -0.4941  -0.4706  -0.4431  -0.4291  -0.4080  -0.3921  -0.3501  -0.3374
    -0.3317  -0.3277  -0.3220  -0.2991  -0.2910  -0.2812  -0.2790  -0.2618
    -0.2508  -0.1726  -0.1643  -0.1609  -0.1173  -0.1147  -0.0883   0.0389
     0.1939   0.2301   0.2654   0.3720   0.5228   0.6216   0.9364   1.1280
     1.2227   1.4602

          k = 0.4000 0.2309 0.0000 ( 51204 PWs)   bands (ev):

   -21.9953  -9.1527  -7.1214  -6.4919  -6.2046  -5.9037  -5.4601  -5.4161
    -5.2166  -5.1527  -5.1298  -4.9158  -4.3443  -4.3091  -4.2998  -4.2388
    -4.1964  -4.1237  -4.1191  -4.0103  -3.9894  -3.9839  -3.9193  -3.8363
    -3.8050  -3.7949  -3.7930  -3.7893  -3.7034  -3.6867  -3.6675  -3.6521
    -3.5229  -3.5197  -3.5057  -3.4775  -3.4735  -3.4232  -3.3648  -3.3592
    -3.3452  -3.3369  -3.3009  -3.2195  -3.1372  -3.0939  -3.0435  -3.0180
    -3.0097  -2.9750  -2.9615  -2.9572  -2.9466  -2.9186  -2.9002  -2.8633
    -2.8508  -2.8284  -2.7949  -2.7451  -2.6490  -2.6389  -2.6279  -2.5907
    -2.5641  -2.5283  -2.5056  -2.5033  -2.4882  -2.4186  -2.3658  -2.3625
    -2.3579  -2.3516  -2.3347  -2.3185  -2.3048  -2.2991  -2.2712  -2.2383
    -2.2218  -2.2060  -2.1893  -2.1707  -2.1279  -2.1152  -2.0596  -2.0479
    -2.0267  -2.0168  -2.0019  -1.9885  -1.9625  -1.9268  -1.9207  -1.9123
    -1.9013  -1.8880  -1.8719  -1.8639  -1.8504  -1.8419  -1.8369  -1.8084
    -1.7908  -1.7769  -1.7397  -1.7283  -1.6671  -1.6489  -1.6230  -1.6123
    -1.5864  -1.5754  -1.5518  -1.5169  -1.5154  -1.4998  -1.4953  -1.4891
    -1.4806  -1.4720  -1.4622  -1.4533  -1.4482  -1.4364  -1.4093  -1.4011
    -1.3849  -1.3750  -1.3262  -1.2806  -1.2650  -1.2518  -1.2312  -1.2157
    -1.1874  -1.1399  -1.1211  -1.1019  -1.0794  -1.0554  -1.0425  -1.0018
    -0.9814  -0.9551  -0.9318  -0.9223  -0.8939  -0.8676  -0.8455  -0.8080
    -0.7335  -0.7257  -0.7151  -0.7069  -0.7036  -0.6903  -0.6838  -0.6735
    -0.6675  -0.6583  -0.5588  -0.5540  -0.5469  -0.5338  -0.5253  -0.5049
    -0.4944  -0.4899  -0.4766  -0.4655  -0.4504  -0.4367  -0.3700  -0.3554
    -0.3465  -0.3378  -0.3038  -0.2594  -0.2558  -0.2216  -0.2194  -0.1801
    -0.1616  -0.1384  -0.1357  -0.1131  -0.1121  -0.1059  -0.0847  -0.0673
    -0.0064   0.0106   0.3906   0.6582   0.8611   1.0337   1.1285   1.2050
     1.4711   1.5688

          k = 0.4000-0.6928 0.0000 ( 51262 PWs)   bands (ev):

   -21.9953  -9.1485  -6.7829  -6.6675  -6.1908  -5.9463  -5.9112  -5.4226
    -5.2210  -5.2031  -5.0276  -4.6926  -4.4675  -4.2297  -4.1818  -4.0545
    -4.0500  -4.0260  -4.0199  -3.9942  -3.9623  -3.9435  -3.9390  -3.9352
    -3.9212  -3.8116  -3.7958  -3.7841  -3.7695  -3.7541  -3.7308  -3.6313
    -3.6056  -3.5988  -3.5823  -3.5609  -3.4980  -3.4416  -3.3454  -3.3117
    -3.3093  -3.2807  -3.2153  -3.2056  -3.1782  -3.1312  -3.0944  -3.0919
    -3.0612  -3.0093  -2.9974  -2.9285  -2.9014  -2.8740  -2.8592  -2.8118
    -2.7902  -2.7330  -2.7262  -2.7195  -2.7060  -2.6997  -2.6501  -2.6349
    -2.5572  -2.5116  -2.5063  -2.4881  -2.4781  -2.4402  -2.4203  -2.3658
    -2.3563  -2.3244  -2.3202  -2.3038  -2.2968  -2.2723  -2.2582  -2.2465
    -2.2290  -2.2174  -2.1915  -2.1884  -2.1765  -2.1620  -2.1083  -2.0948
    -2.0818  -2.0474  -2.0127  -1.9771  -1.9627  -1.9416  -1.9267  -1.9175
    -1.9027  -1.8946  -1.8912  -1.8669  -1.8532  -1.8455  -1.8318  -1.7702
    -1.7566  -1.7482  -1.7364  -1.7219  -1.7109  -1.7072  -1.6931  -1.6884
    -1.6847  -1.6698  -1.6528  -1.6460  -1.5929  -1.5750  -1.5679  -1.5251
    -1.5091  -1.4862  -1.4609  -1.4324  -1.4208  -1.4109  -1.3982  -1.3830
    -1.3368  -1.3328  -1.3037  -1.2626  -1.2047  -1.1962  -1.1841  -1.1627
    -1.1433  -1.1303  -1.1222  -1.0952  -1.0904  -1.0693  -1.0482  -1.0201
    -0.9870  -0.9792  -0.9565  -0.9374  -0.9266  -0.8866  -0.8750  -0.8697
    -0.8515  -0.8346  -0.8189  -0.8047  -0.7754  -0.7667  -0.7412  -0.5810
    -0.5690  -0.5644  -0.5558  -0.5455  -0.5408  -0.5248  -0.5203  -0.4816
    -0.4732  -0.4651  -0.4582  -0.4365  -0.3936  -0.3401  -0.3297  -0.3184
    -0.3101  -0.2989  -0.2833  -0.2443  -0.2409  -0.2319  -0.2230  -0.2152
    -0.2067  -0.1929  -0.1325  -0.1271  -0.1120  -0.1055  -0.0802  -0.0514
     0.1473   0.2665   0.5594   0.7472   1.0313   1.1749   1.2277   1.5748
     1.6783   1.7155

          k = 0.4000-0.4619 0.0000 ( 51262 PWs)   bands (ev):

   -21.9953  -9.1499  -6.7683  -6.6719  -6.1869  -6.0145  -5.8054  -5.4774
    -5.2524  -5.2095  -4.9869  -4.6879  -4.4662  -4.2282  -4.1843  -4.0594
    -4.0500  -4.0405  -4.0211  -4.0122  -3.9656  -3.9436  -3.9389  -3.9349
    -3.9176  -3.8429  -3.7909  -3.7855  -3.7631  -3.7609  -3.7086  -3.6184
    -3.6054  -3.5976  -3.5754  -3.5439  -3.4974  -3.4466  -3.3523  -3.3110
    -3.3044  -3.2858  -3.2212  -3.2048  -3.1780  -3.1246  -3.0927  -3.0888
    -3.0504  -3.0224  -2.9926  -2.9281  -2.9018  -2.8766  -2.8538  -2.8173
    -2.7913  -2.7319  -2.7279  -2.7176  -2.7047  -2.6942  -2.6662  -2.6176
    -2.5617  -2.5123  -2.5025  -2.4949  -2.4678  -2.4306  -2.4231  -2.3679
    -2.3596  -2.3251  -2.3139  -2.3050  -2.2980  -2.2765  -2.2584  -2.2509
    -2.2307  -2.2222  -2.2066  -2.1818  -2.1759  -2.1391  -2.1039  -2.0961
    -2.0818  -2.0550  -2.0101  -1.9801  -1.9594  -1.9400  -1.9273  -1.9209
    -1.9012  -1.8915  -1.8836  -1.8770  -1.8578  -1.8377  -1.8299  -1.7733
    -1.7655  -1.7432  -1.7368  -1.7313  -1.7118  -1.7064  -1.6997  -1.6870
    -1.6804  -1.6749  -1.6510  -1.6340  -1.5913  -1.5782  -1.5625  -1.5173
    -1.4943  -1.4919  -1.4686  -1.4317  -1.4201  -1.4078  -1.4018  -1.3792
    -1.3369  -1.3329  -1.3099  -1.2593  -1.2071  -1.1978  -1.1768  -1.1645
    -1.1386  -1.1291  -1.1252  -1.1077  -1.0829  -1.0662  -1.0531  -1.0264
    -0.9847  -0.9825  -0.9574  -0.9402  -0.9255  -0.8863  -0.8727  -0.8622
    -0.8511  -0.8328  -0.8295  -0.8053  -0.7775  -0.7618  -0.7410  -0.5859
    -0.5697  -0.5614  -0.5528  -0.5458  -0.5345  -0.5300  -0.5185  -0.4806
    -0.4768  -0.4689  -0.4546  -0.4393  -0.3943  -0.3458  -0.3303  -0.3237
    -0.3070  -0.2990  -0.2881  -0.2713  -0.2410  -0.2291  -0.2230  -0.2095
    -0.2010  -0.1669  -0.1311  -0.1266  -0.1131  -0.1030  -0.0805  -0.0528
     0.1328   0.2600   0.5061   0.8764   0.9933   1.1741   1.2403   1.5433
     1.6527   1.7276

 ------ SPIN DOWN ----------


          k = 0.0000 0.0000 0.0000 ( 51087 PWs)   bands (ev):

   -22.0824  -9.2651  -7.7988  -6.6179  -5.8226  -5.6594  -5.4451  -5.1238
    -4.6395  -4.6279  -4.6256  -4.5994  -4.5942  -4.5722  -4.2403  -3.7581
    -3.7551  -3.7367  -3.7255  -3.7140  -3.6566  -3.3332  -2.8190  -2.8104
    -2.7985  -2.7967  -2.7187  -2.5915  -2.3544  -2.3422  -2.3362  -2.3333
    -2.3079  -2.2171  -2.1443  -2.1391  -2.0716  -2.0535  -2.0435  -2.0432
    -1.9606  -1.9539  -1.9088  -1.9054  -1.8391  -1.8201  -1.8038  -1.7953
    -1.7573  -1.7206  -1.5568  -1.5478  -1.5386  -1.5301  -1.5221  -1.5201
    -1.5052  -1.5041  -1.4746  -1.4605  -1.4346  -1.4300  -1.4269  -1.4247
    -1.3575  -1.2481  -0.9066  -0.8738  -0.8492  -0.8466  -0.8045  -0.7439
    -0.6556  -0.6345  -0.5453  -0.5383  -0.5276  -0.5206  -0.5092  -0.4902
    -0.4739  -0.4645  -0.4456  -0.4398  -0.4303  -0.4295  -0.3885  -0.3680
    -0.3553  -0.3301  -0.3198  -0.3010  -0.2925  -0.2887  -0.2720  -0.2687
    -0.2610  -0.2553  -0.2453  -0.2409  -0.2397  -0.2328  -0.2101  -0.1525
    -0.1401  -0.1235  -0.1049  -0.0558  -0.0380  -0.0249  -0.0144  -0.0104
    -0.0081  -0.0063   0.0005   0.0635   0.0690   0.0695   0.1167   0.1453
     0.1542   0.1613   0.1712   0.2050   0.2705   0.3784   0.3906   0.4354
     0.4521   0.4597   0.4693   0.4774   0.6197   0.6855   0.7576   0.7988
     0.8116   0.8644   0.9695   1.0148   1.0215   1.0294   1.0399   1.0448
     1.0940   1.1600   1.1866   1.2039   1.2126   1.2193   1.2250   1.2511
     1.2590   1.2684   1.2794   1.2948   1.3121   1.3225   1.3264   1.3549
     1.3590   1.3689   1.3725   1.3832   1.4020   1.4278   1.4308   1.4404
     1.4540   1.4552   1.4716   1.4837   1.4906   1.4993   1.5033   1.5380
     1.5458   1.5608   1.5634   1.5677   1.5757   1.5821   1.5884   1.6267
     1.6314   1.6336   1.6361   1.6415   1.6440   1.6570   1.6642   1.6705
     1.6721   1.7182   1.7191   1.8607   1.8672   1.8683   1.8735   1.8756
     1.8770   2.0823

          k = 0.0000 0.2309 0.0000 ( 51134 PWs)   bands (ev):

   -22.0824  -9.2549  -7.6572  -6.5178  -5.8733  -5.6956  -5.5521  -5.4014
    -5.1267  -4.9831  -4.9148  -4.4564  -4.1330  -4.0761  -4.0574  -3.9481
    -3.8531  -3.7728  -3.4583  -3.4002  -3.3679  -3.2584  -2.9386  -2.8078
    -2.7710  -2.7248  -2.6789  -2.6118  -2.4399  -2.3745  -2.3713  -2.3564
    -2.3288  -2.2870  -2.2855  -2.2773  -2.2310  -2.1980  -2.1067  -2.1010
    -2.0152  -2.0127  -1.9503  -1.8707  -1.8336  -1.8218  -1.8054  -1.7062
    -1.6792  -1.6505  -1.6070  -1.5793  -1.5535  -1.5355  -1.5286  -1.5193
    -1.5103  -1.4988  -1.4131  -1.4004  -1.3873  -1.3684  -1.3319  -1.2885
    -1.2413  -1.1516  -0.9696  -0.9227  -0.9002  -0.8967  -0.8367  -0.7939
    -0.7425  -0.7123  -0.6855  -0.6434  -0.6281  -0.5786  -0.5574  -0.5445
    -0.5121  -0.5016  -0.4870  -0.4808  -0.4724  -0.4480  -0.4164  -0.3904
    -0.3509  -0.3197  -0.3155  -0.3069  -0.2971  -0.2737  -0.2546  -0.2468
    -0.2384  -0.2356  -0.2281  -0.2215  -0.2174  -0.2155  -0.1818  -0.1642
    -0.1458  -0.1349  -0.1201  -0.1085  -0.0888  -0.0752  -0.0574  -0.0352
    -0.0287  -0.0023   0.0220   0.0517   0.0954   0.1049   0.1248   0.1360
     0.2393   0.2565   0.2881   0.3403   0.3569   0.3616   0.4174   0.4239
     0.4338   0.4430   0.4445   0.4536   0.5974   0.6979   0.7706   0.7779
     0.7896   0.7912   0.8105   0.8195   0.8708   0.8845   0.9333   0.9615
     1.0088   1.0305   1.0532   1.0690   1.0939   1.1146   1.1376   1.1950
     1.2084   1.2268   1.2479   1.2549   1.2743   1.2810   1.3231   1.3311
     1.3483   1.3681   1.4090   1.4196   1.4355   1.4434   1.4678   1.4773
     1.5136   1.5240   1.5277   1.5317   1.5593   1.6112   1.6154   1.6250
     1.6283   1.6552   1.6582   1.6878   1.6943   1.7016   1.7081   1.7131
     1.7353   1.7775   1.7818   1.7950   1.7992   1.8086   1.8201   1.8368
     1.8573   1.8617   1.8649   1.9027   1.9571   1.9690   1.9706   2.0284
     2.0513   2.1160

          k = 0.0000 0.4619 0.0000 ( 51204 PWs)   bands (ev):

   -22.0824  -9.2388  -7.2368  -6.5764  -6.2332  -5.8380  -5.6369  -5.4196
    -5.2613  -5.1568  -5.1001  -4.7812  -4.1096  -4.0300  -3.8442  -3.4638
    -3.4565  -3.3978  -3.3346  -3.1637  -3.0666  -3.0144  -2.9901  -2.8611
    -2.8561  -2.7953  -2.7478  -2.6999  -2.6420  -2.6177  -2.6078  -2.5570
    -2.5426  -2.3975  -2.3347  -2.3132  -2.2434  -2.2213  -2.1275  -2.1198
    -2.1044  -2.0897  -2.0391  -1.8426  -1.8231  -1.7979  -1.7764  -1.7308
    -1.6031  -1.5977  -1.5836  -1.5709  -1.5565  -1.5342  -1.5296  -1.5072
    -1.4863  -1.4216  -1.4111  -1.3949  -1.3712  -1.3547  -1.2100  -1.1803
    -1.0775  -1.0413  -0.9470  -0.9265  -0.9083  -0.8817  -0.8658  -0.8578
    -0.8411  -0.8182  -0.7916  -0.7738  -0.7245  -0.6932  -0.6719  -0.6413
    -0.6242  -0.5988  -0.5810  -0.5730  -0.5389  -0.5052  -0.4666  -0.4091
    -0.3898  -0.3743  -0.3504  -0.3324  -0.2993  -0.2896  -0.2634  -0.2393
    -0.2108  -0.2044  -0.1926  -0.1818  -0.1689  -0.1633  -0.1241  -0.1138
    -0.1019  -0.0852  -0.0741  -0.0628  -0.0551  -0.0423  -0.0303  -0.0083
     0.0012   0.0230   0.0616   0.1047   0.1440   0.1462   0.1654   0.2051
     0.2106   0.2203   0.2495   0.2739   0.3108   0.3198   0.3352   0.3468
     0.3847   0.4057   0.4155   0.4203   0.4617   0.5385   0.5829   0.5956
     0.6661   0.6738   0.7433   0.7733   0.8279   0.8499   0.8705   0.8883
     0.9136   0.9209   0.9376   0.9771   0.9905   1.0563   1.1704   1.1788
     1.1862   1.2097   1.2373   1.2455   1.2868   1.3029   1.3316   1.3440
     1.3697   1.3815   1.3967   1.4617   1.4727   1.4837   1.5325   1.5405
     1.5507   1.5544   1.5707   1.5885   1.6109   1.6244   1.6342   1.6599
     1.6704   1.7122   1.7448   1.7744   1.7852   1.8008   1.8096   1.8261
     1.8313   1.8599   1.8642   1.8775   1.8931   1.9003   1.9098   1.9127
     1.9572   2.0151   2.0554   2.1199   2.1247   2.2014   2.5503   2.6292
     2.6508   2.7024

          k = 0.2000-0.1155 0.0000 ( 51134 PWs)   bands (ev):

   -22.0824  -9.2537  -7.6580  -6.5189  -5.8939  -5.6896  -5.5380  -5.4028
    -5.1179  -4.9871  -4.9210  -4.4239  -4.1870  -4.0738  -4.0607  -3.9290
    -3.8399  -3.7788  -3.4701  -3.3954  -3.3362  -3.2631  -2.9681  -2.7938
    -2.7716  -2.7383  -2.6798  -2.5935  -2.4524  -2.3733  -2.3698  -2.3605
    -2.3259  -2.2926  -2.2858  -2.2819  -2.2314  -2.1896  -2.1041  -2.1020
    -2.0162  -2.0137  -1.9642  -1.8497  -1.8343  -1.8202  -1.7999  -1.7104
    -1.6771  -1.6475  -1.6094  -1.5750  -1.5574  -1.5367  -1.5259  -1.5232
    -1.5026  -1.4966  -1.4176  -1.3988  -1.3867  -1.3654  -1.3344  -1.2948
    -1.2364  -1.1569  -0.9665  -0.9185  -0.9030  -0.8949  -0.8405  -0.7792
    -0.7657  -0.7178  -0.6833  -0.6446  -0.6271  -0.5838  -0.5552  -0.5434
    -0.5115  -0.5018  -0.4828  -0.4747  -0.4690  -0.4555  -0.4249  -0.3887
    -0.3454  -0.3233  -0.3167  -0.3128  -0.3075  -0.2676  -0.2568  -0.2486
    -0.2411  -0.2299  -0.2268  -0.2204  -0.2166  -0.2141  -0.1853  -0.1657
    -0.1390  -0.1350  -0.1134  -0.1082  -0.0996  -0.0829  -0.0596  -0.0362
    -0.0244  -0.0063   0.0306   0.0640   0.0911   0.1071   0.1154   0.1359
     0.2424   0.2609   0.2941   0.3418   0.3596   0.3695   0.4057   0.4265
     0.4329   0.4410   0.4463   0.4562   0.5937   0.7096   0.7538   0.7775
     0.7902   0.7986   0.8117   0.8278   0.8663   0.8882   0.9316   0.9642
     1.0137   1.0350   1.0546   1.0839   1.0963   1.1189   1.1395   1.1457
     1.2102   1.2322   1.2520   1.2579   1.2715   1.2842   1.3232   1.3309
     1.3463   1.3644   1.4063   1.4235   1.4381   1.4449   1.4698   1.4955
     1.5139   1.5237   1.5286   1.5328   1.5543   1.6024   1.6134   1.6213
     1.6252   1.6512   1.6585   1.6890   1.6979   1.7020   1.7090   1.7155
     1.7336   1.7784   1.7829   1.7977   1.7990   1.8085   1.8170   1.8368
     1.8531   1.8604   1.8648   1.8920   1.9560   1.9679   1.9716   2.0328
     2.0480   2.1081

          k = 0.2000 0.1155 0.0000 ( 51134 PWs)   bands (ev):

   -22.0824  -9.2529  -7.6591  -6.5211  -5.9261  -5.6697  -5.4881  -5.4399
    -5.0993  -4.9871  -4.9478  -4.3608  -4.2146  -4.0781  -4.0598  -3.9709
    -3.8248  -3.7766  -3.4740  -3.4068  -3.3096  -3.2452  -2.9772  -2.8233
    -2.7715  -2.7198  -2.7036  -2.5642  -2.4581  -2.3755  -2.3681  -2.3498
    -2.3374  -2.3002  -2.2875  -2.2836  -2.2472  -2.1685  -2.1028  -2.1015
    -2.0161  -2.0146  -1.9622  -1.8667  -1.8235  -1.8170  -1.7948  -1.7001
    -1.6850  -1.6562  -1.5996  -1.5897  -1.5553  -1.5387  -1.5236  -1.5186
    -1.5171  -1.4689  -1.4391  -1.3926  -1.3849  -1.3650  -1.3342  -1.2919
    -1.2295  -1.1668  -0.9726  -0.9236  -0.9043  -0.8909  -0.8312  -0.8113
    -0.7792  -0.6899  -0.6685  -0.6532  -0.6311  -0.5811  -0.5650  -0.5377
    -0.5173  -0.4997  -0.4846  -0.4747  -0.4679  -0.4492  -0.4419  -0.3706
    -0.3390  -0.3246  -0.3186  -0.3129  -0.3030  -0.2632  -0.2540  -0.2489
    -0.2423  -0.2310  -0.2261  -0.2220  -0.2173  -0.2154  -0.1835  -0.1680
    -0.1457  -0.1328  -0.1151  -0.1100  -0.1033  -0.0802  -0.0577  -0.0468
    -0.0204  -0.0005   0.0384   0.0759   0.0843   0.1058   0.1124   0.1354
     0.2131   0.2841   0.3051   0.3383   0.3550   0.3785   0.4059   0.4200
     0.4338   0.4388   0.4513   0.4568   0.6243   0.6871   0.7525   0.7748
     0.7940   0.8007   0.8157   0.8252   0.8659   0.8872   0.9335   0.9635
     0.9792   1.0457   1.0636   1.0799   1.0960   1.1263   1.1393   1.1461
     1.2017   1.2361   1.2470   1.2639   1.2810   1.2822   1.3215   1.3297
     1.3439   1.3718   1.4101   1.4264   1.4348   1.4451   1.4659   1.4950
     1.5093   1.5246   1.5311   1.5412   1.5466   1.5981   1.6071   1.6195
     1.6299   1.6521   1.6574   1.6884   1.6974   1.7053   1.7079   1.7157
     1.7347   1.7790   1.7829   1.7966   1.7986   1.8087   1.8201   1.8349
     1.8529   1.8584   1.8662   1.8804   1.9551   1.9661   1.9737   2.0270
     2.0541   2.1006

          k = 0.2000 0.3464 0.0000 ( 51202 PWs)   bands (ev):

   -22.0824  -9.2396  -7.3787  -6.3680  -6.1163  -6.0038  -5.7026  -5.5193
    -5.4098  -5.0827  -4.6761  -4.4877  -4.2639  -4.2522  -3.9142  -3.4391
    -3.4277  -3.4239  -3.4130  -3.2805  -3.1558  -3.1252  -3.1112  -2.9137
    -2.7591  -2.6849  -2.6760  -2.6515  -2.5858  -2.5619  -2.5587  -2.4766
    -2.4675  -2.4590  -2.4258  -2.3172  -2.2976  -2.2390  -2.0867  -2.0802
    -2.0602  -1.9978  -1.9641  -1.9477  -1.9193  -1.7944  -1.7401  -1.7338
    -1.6312  -1.6102  -1.5662  -1.5625  -1.5512  -1.5393  -1.5228  -1.5034
    -1.4876  -1.4770  -1.4259  -1.3788  -1.3437  -1.2997  -1.1945  -1.1631
    -1.1048  -1.0721  -0.9909  -0.9442  -0.8977  -0.8660  -0.8508  -0.8308
    -0.8118  -0.7739  -0.7535  -0.7195  -0.7009  -0.6835  -0.6661  -0.6480
    -0.6348  -0.6154  -0.5979  -0.5661  -0.5406  -0.4555  -0.4347  -0.4198
    -0.4085  -0.3774  -0.3464  -0.3343  -0.3169  -0.2943  -0.2877  -0.2753
    -0.2592  -0.2460  -0.2312  -0.2090  -0.1985  -0.1818  -0.1651  -0.1333
    -0.1163  -0.1102  -0.1042  -0.0860  -0.0776  -0.0685  -0.0535  -0.0420
     0.0320   0.0469   0.0505   0.0687   0.1632   0.1719   0.2032   0.2296
     0.2476   0.2841   0.2986   0.3148   0.3410   0.3614   0.3766   0.3824
     0.3885   0.4218   0.4395   0.4742   0.5253   0.5990   0.6619   0.6929
     0.7414   0.7758   0.8020   0.8275   0.8378   0.8471   0.8668   0.8845
     0.8951   0.9074   0.9242   0.9404   0.9805   1.0344   1.0772   1.0983
     1.1165   1.1459   1.1558   1.1832   1.1984   1.2484   1.2632   1.3097
     1.3364   1.3917   1.4536   1.4905   1.5066   1.5164   1.5329   1.5454
     1.5658   1.5715   1.5919   1.5986   1.6569   1.6702   1.6781   1.6813
     1.6953   1.7242   1.7370   1.7490   1.7575   1.7726   1.7805   1.8029
     1.8160   1.8201   1.8306   1.8420   1.8546   1.8679   1.9094   1.9379
     1.9473   1.9893   2.0437   2.0774   2.1804   2.2167   2.3345   2.4892
     2.5320   2.5482

          k = 0.2000-0.5774 0.0000 ( 51262 PWs)   bands (ev):

   -22.0824  -9.2325  -6.8606  -6.7997  -6.2370  -6.0777  -5.7711  -5.5722
    -5.2935  -5.2567  -4.8812  -4.5561  -4.3088  -3.7722  -3.4852  -3.4585
    -3.4558  -3.3759  -3.2111  -3.1333  -3.0497  -3.0388  -3.0349  -2.9052
    -2.9002  -2.8863  -2.8676  -2.8615  -2.7481  -2.6211  -2.5247  -2.5102
    -2.4914  -2.4568  -2.4373  -2.4212  -2.3699  -2.3111  -2.2067  -2.0541
    -1.9754  -1.9650  -1.9541  -1.9206  -1.8772  -1.7976  -1.7335  -1.7204
    -1.6813  -1.6688  -1.6624  -1.5631  -1.5173  -1.5055  -1.4949  -1.4803
    -1.4401  -1.3840  -1.3413  -1.3322  -1.2847  -1.2653  -1.2415  -1.1412
    -1.0942  -0.9983  -0.9586  -0.9469  -0.9375  -0.8760  -0.8683  -0.8192
    -0.8107  -0.7978  -0.7716  -0.7484  -0.7398  -0.6887  -0.6797  -0.6598
    -0.6421  -0.6252  -0.6072  -0.5941  -0.5845  -0.5746  -0.5370  -0.5169
    -0.5074  -0.4729  -0.4419  -0.4262  -0.3785  -0.3549  -0.3341  -0.2819
    -0.2517  -0.2332  -0.2167  -0.2012  -0.1810  -0.1718  -0.1586  -0.1333
    -0.0906  -0.0789  -0.0572  -0.0391  -0.0218  -0.0165   0.0275   0.0743
     0.1002   0.1194   0.1319   0.1359   0.1495   0.1772   0.2233   0.2380
     0.2474   0.2551   0.3023   0.3115   0.3323   0.3460   0.3784   0.4038
     0.4125   0.4314   0.4487   0.4715   0.4813   0.4981   0.5176   0.5660
     0.5963   0.6648   0.7191   0.7639   0.7834   0.8003   0.8224   0.8297
     0.8593   0.8750   0.8884   0.9469   1.0014   1.0277   1.0376   1.0685
     1.0930   1.0993   1.1540   1.1785   1.1960   1.2143   1.2513   1.3037
[...]
     atom    8 type  1   force =     0.00088251   -0.00036895   -0.10263207
     atom    9 type  1   force =     0.00187299   -0.00075348   -0.10668249
     atom   10 type  1   force =    -0.00123068    0.00168106   -0.01062617
     atom   11 type  1   force =     0.00136649    0.00053929   -0.00639241
     atom   12 type  1   force =     0.00004797    0.00005158   -0.00944133
     atom   13 type  1   force =     0.00121232   -0.00138968   -0.01200896
     atom   14 type  1   force =    -0.00100010   -0.00069368   -0.01035333
     atom   15 type  1   force =    -0.00063656   -0.00045662   -0.01364153
     atom   16 type  1   force =    -0.00082367    0.00054212   -0.01660791
     atom   17 type  1   force =     0.00199343   -0.00146652   -0.01057204
     atom   18 type  1   force =    -0.00124883    0.00221288   -0.01319675
     atom   19 type  1   force =     0.00241709    0.00459858    0.00804258
     atom   20 type  1   force =    -0.00277850    0.01045896   -0.00144085
     atom   21 type  1   force =    -0.00013882    0.00112462    0.01380744
     atom   22 type  1   force =     0.00032952    0.00018754    0.02053487
     atom   23 type  1   force =    -0.00192537    0.00034965    0.00636827
     atom   24 type  1   force =     0.00114063    0.00043878    0.01192247
     atom   25 type  1   force =    -0.00187813   -0.00488294   -0.00216498
     atom   26 type  1   force =    -0.00331160   -0.00540820    0.00083575
     atom   27 type  1   force =     0.00551675   -0.00687865   -0.00052593
     atom   28 type  1   force =     0.05116475   -0.01550988    0.09808161
     atom   29 type  1   force =    -0.05545677   -0.01804482    0.05746190
     atom   30 type  1   force =     0.00474050    0.00164704    0.07823358
     atom   31 type  1   force =     0.00458769   -0.02070239    0.13571883
     atom   32 type  1   force =     0.00033039   -0.01387318    0.10349823
     atom   33 type  1   force =    -0.00434262   -0.00089396    0.11067171
     atom   34 type  1   force =     0.00102816   -0.00131207    0.11696820
     atom   35 type  1   force =     0.00289717    0.04974525    0.13436526
     atom   36 type  1   force =    -0.00363996    0.00790004    0.12406068
     atom   37 type  2   force =    -0.05720071   -0.07779780    0.41921501
     atom   38 type  3   force =     0.22701029    0.17334448   -2.69367212
     atom   39 type  4   force =    -0.00039101   -0.00230213   -0.02189781
     The ionic contribution  to forces
     atom    1 type  1   force =    -0.00509035    0.00791363 -111.14264550
     atom    2 type  1   force =     0.00316471    0.00878272 -111.14646726
     atom    3 type  1   force =     0.00192564    0.00229029 -111.13637810
     atom    4 type  1   force =    -0.00021627    0.00088129 -111.13278613
     atom    5 type  1   force =    -0.00305740   -0.00467596 -111.13926645
     atom    6 type  1   force =     0.00327367   -0.00673489 -111.13881808
     atom    7 type  1   force =    -0.00646349   -0.00199938 -111.14132176
     atom    8 type  1   force =    -0.00168105   -0.00319826 -111.15771963
     atom    9 type  1   force =     0.00814453   -0.00325946 -111.14470958
     atom   10 type  1   force =    -0.05852202    0.01802426  -40.17327406
     atom   11 type  1   force =     0.04375413    0.01342396  -40.20191006
     atom   12 type  1   force =     0.01476850    0.00055485  -40.08704913
     atom   13 type  1   force =    -0.01033903    0.06533909  -40.09560248
     atom   14 type  1   force =     0.01742163    0.02152795  -40.08135620
     atom   15 type  1   force =    -0.00708224    0.01059376  -40.06010239
     atom   16 type  1   force =    -0.03474188   -0.02356313  -40.06933343
     atom   17 type  1   force =    -0.00327634   -0.06836786  -40.14661641
     atom   18 type  1   force =     0.03801749   -0.03753183  -40.07608278
     atom   19 type  1   force =    -0.25449326    0.39176431   31.35956440
     atom   20 type  1   force =     0.14586360    0.45175836   31.17869230
     atom   21 type  1   force =     0.10853241    0.11461747   31.61788775
     atom   22 type  1   force =    -0.00751952    0.03820375   31.78878361
     atom   23 type  1   force =    -0.14802145   -0.23252827   31.52482433
     atom   24 type  1   force =     0.15558636   -0.31902713   31.54375557
     atom   25 type  1   force =    -0.32375679   -0.09059550   31.43150527
     atom   26 type  1   force =    -0.07609992   -0.17809724   30.49962738
     atom   27 type  1   force =     0.39961338   -0.17953859   31.25680267
     atom   28 type  1   force =    -4.32157961    1.44122856   99.51077789
     atom   29 type  1   force =     3.18546250    0.94272022   98.52729626
     atom   30 type  1   force =     1.17265389   -0.35070671  103.61525388
     atom   31 type  1   force =    -0.25531563    2.40012003  103.60611368
     atom   32 type  1   force =     0.48463567    1.27257743  103.87993855
     atom   33 type  1   force =    -0.22369838    0.32937740  104.44458036
     atom   34 type  1   force =    -1.18226221   -0.81005920  104.16887753
     atom   35 type  1   force =    -0.05979760   -3.90895993  101.39348733
     atom   36 type  1   force =     1.23486088   -1.17709170  104.12043262
     atom   37 type  2   force =     0.47777105    0.30135825   51.08550745
     atom   38 type  3   force =    -0.92357885   -0.71471723   89.68548293
     atom   39 type  4   force =     0.41114322    0.27759471   15.03224768
     The local contribution  to forces
     atom    1 type  1   force =     0.00315543   -0.00664193  111.24873319
     atom    2 type  1   force =    -0.00194362   -0.01098169  111.25484410
     atom    3 type  1   force =    -0.00099489   -0.00159236  111.23907640
     atom    4 type  1   force =    -0.00099319   -0.00181025  111.23748014
     atom    5 type  1   force =     0.00276571    0.00550233  111.24499402
     atom    6 type  1   force =    -0.00196591    0.00416283  111.24657240
     atom    7 type  1   force =     0.00915701    0.00194757  111.24823687
     atom    8 type  1   force =     0.00077080    0.00444203  111.26480455
     atom    9 type  1   force =    -0.01014565    0.00530846  111.25435810
     atom   10 type  1   force =     0.05787305   -0.02067048   40.16369554
     atom   11 type  1   force =    -0.04346852   -0.01414173   40.18788664
     atom   12 type  1   force =    -0.01422404   -0.00068514   40.07598789
     atom   13 type  1   force =     0.00863570   -0.06275104   40.09036217
     atom   14 type  1   force =    -0.01697424   -0.02011302   40.07131836
     atom   15 type  1   force =     0.00856041   -0.00944247   40.05217594
     atom   16 type  1   force =     0.03542665    0.02426577   40.06680144
     atom   17 type  1   force =     0.00075095    0.06882834   40.13910844
     atom   18 type  1   force =    -0.03609472    0.03561707   40.07021847
     atom   19 type  1   force =     0.25359381   -0.39287293  -31.35117643
     atom   20 type  1   force =    -0.14551079   -0.45915351  -31.16434728
     atom   21 type  1   force =    -0.10709637   -0.11564015  -31.60984949
     atom   22 type  1   force =     0.00617709   -0.03927087  -31.78389069
     atom   23 type  1   force =     0.14836141    0.23052232  -31.50953244
     atom   24 type  1   force =    -0.15428988    0.31762188  -31.53552233
     atom   25 type  1   force =     0.32469511    0.09405379  -31.41401555
     atom   26 type  1   force =     0.08047055    0.18416643  -30.48424499
     atom   27 type  1   force =    -0.40562938    0.18413990  -31.24393819
     atom   28 type  1   force =     4.25229232   -1.42342652  -99.60689340
     atom   29 type  1   force =    -3.12713668   -0.92876412  -98.57072807
     atom   30 type  1   force =    -1.16143318    0.34330434 -103.70225857
     atom   31 type  1   force =     0.24542932   -2.36768347 -103.75119947
     atom   32 type  1   force =    -0.48330045   -1.25147022 -103.98795088
     atom   33 type  1   force =     0.23117719   -0.32724610 -104.56517080
     atom   34 type  1   force =     1.17900467    0.81010205 -104.29415246
     atom   35 type  1   force =     0.05514841    3.84994701 -101.53020671
     atom   36 type  1   force =    -1.22699143    1.16029190 -104.25375087
     atom   37 type  2   force =    -0.42244839   -0.22574034  -51.50676667
     atom   38 type  3   force =     0.70126563    0.54059020  -87.01007187
     atom   39 type  4   force =    -0.41039022   -0.26684066  -15.01186523
     The core correction contribution to forces
     atom    1 type  1   force =    -0.00017850   -0.00012686    0.00985760
     atom    2 type  1   force =    -0.00003741   -0.00023093    0.01009663
     atom    3 type  1   force =     0.00025765    0.00001008    0.00984739
     atom    4 type  1   force =     0.00010241   -0.00009348    0.01010127
     atom    5 type  1   force =     0.00015034    0.00004043    0.00996706
     atom    6 type  1   force =    -0.00016759   -0.00011470    0.00984338
     atom    7 type  1   force =     0.00002767   -0.00002698    0.01005357
     atom    8 type  1   force =     0.00011302    0.00037509    0.00942225
     atom    9 type  1   force =    -0.00019014   -0.00007708    0.01016317
     atom   10 type  1   force =    -0.00004929   -0.00000125   -0.00196827
     atom   11 type  1   force =     0.00005761    0.00013301   -0.00180812
     atom   12 type  1   force =    -0.00004352    0.00025131   -0.00188813
     atom   13 type  1   force =    -0.00038545    0.00028891   -0.00173685
     atom   14 type  1   force =     0.00018636   -0.00008220   -0.00192193
     atom   15 type  1   force =     0.00019518   -0.00001294   -0.00164818
     atom   16 type  1   force =    -0.00009224    0.00003597   -0.00188423
     atom   17 type  1   force =    -0.00016780    0.00008578   -0.00193561
     atom   18 type  1   force =     0.00013376   -0.00033866   -0.00168679
     atom   19 type  1   force =    -0.00007179    0.00080094    0.00095837
     atom   20 type  1   force =    -0.00025701    0.00098003    0.00033058
     atom   21 type  1   force =     0.00053951    0.00008858    0.00204580
     atom   22 type  1   force =     0.00002294    0.00009585    0.00194349
     atom   23 type  1   force =    -0.00033138    0.00051812    0.00157153
     atom   24 type  1   force =     0.00054176   -0.00057047    0.00140634
     atom   25 type  1   force =     0.00053498   -0.00047864    0.00151780
     atom   26 type  1   force =    -0.00105772   -0.00078999    0.00124330
     atom   27 type  1   force =     0.00080062   -0.00048544    0.00089656
     atom   28 type  1   force =     0.00942913   -0.00290207   -0.00512606
     atom   29 type  1   force =    -0.00258717    0.00119522    0.00101856
     atom   30 type  1   force =    -0.01001637    0.00449068   -0.00543900
     atom   31 type  1   force =     0.00113992   -0.00493182   -0.00778383
     atom   32 type  1   force =    -0.00022097   -0.00984583   -0.00580919
     atom   33 type  1   force =    -0.00078281   -0.00135369   -0.00998168
     atom   34 type  1   force =     0.00123499    0.00134706   -0.00932478
     atom   35 type  1   force =     0.00002356    0.00811929   -0.00552111
     atom   36 type  1   force =    -0.00142282    0.00365233   -0.00804247
     atom   37 type  2   force =     0.00093668    0.00109156   -0.00073981
     atom   38 type  3   force =    -0.00168325   -0.00123612    0.01954463
     atom   39 type  4   force =     0.00000000    0.00000000    0.00000000
     The Hubbard contrib.    to forces
     atom    1 type  1   force =     0.00000000    0.00000000    0.00000000
     atom    2 type  1   force =     0.00000000    0.00000000    0.00000000
     atom    3 type  1   force =     0.00000000    0.00000000    0.00000000
     atom    4 type  1   force =     0.00000000    0.00000000    0.00000000
     atom    5 type  1   force =     0.00000000    0.00000000    0.00000000
     atom    6 type  1   force =     0.00000000    0.00000000    0.00000000
     atom    7 type  1   force =     0.00000000    0.00000000    0.00000000
     atom    8 type  1   force =     0.00000000    0.00000000    0.00000000
     atom    9 type  1   force =     0.00000000    0.00000000    0.00000000
     atom   10 type  1   force =     0.00000000    0.00000000    0.00000000
     atom   11 type  1   force =     0.00000000    0.00000000    0.00000000
     atom   12 type  1   force =     0.00000000    0.00000000    0.00000000
     atom   13 type  1   force =     0.00000000    0.00000000    0.00000000
     atom   14 type  1   force =     0.00000000    0.00000000    0.00000000
     atom   15 type  1   force =     0.00000000    0.00000000    0.00000000
     atom   16 type  1   force =     0.00000000    0.00000000    0.00000000
     atom   17 type  1   force =     0.00000000    0.00000000    0.00000000
     atom   18 type  1   force =     0.00000000    0.00000000    0.00000000
     atom   19 type  1   force =     0.00000000    0.00000000    0.00000000
     atom   20 type  1   force =     0.00000000    0.00000000    0.00000000
     atom   21 type  1   force =     0.00000000    0.00000000    0.00000000
     atom   22 type  1   force =     0.00000000    0.00000000    0.00000000
     atom   23 type  1   force =     0.00000000    0.00000000    0.00000000
     atom   24 type  1   force =     0.00000000    0.00000000    0.00000000
     atom   25 type  1   force =     0.00000000    0.00000000    0.00000000
     atom   26 type  1   force =     0.00000000    0.00000000    0.00000000
     atom   27 type  1   force =     0.00000000    0.00000000    0.00000000
     atom   28 type  1   force =     0.00000000    0.00000000    0.00000000
     atom   29 type  1   force =     0.00000000    0.00000000    0.00000000
     atom   30 type  1   force =     0.00000000    0.00000000    0.00000000
     atom   31 type  1   force =     0.00000000    0.00000000    0.00000000
     atom   32 type  1   force =     0.00000000    0.00000000    0.00000000
     atom   33 type  1   force =     0.00000000    0.00000000    0.00000000
     atom   34 type  1   force =     0.00000000    0.00000000    0.00000000
     atom   35 type  1   force =     0.00000000    0.00000000    0.00000000
     atom   36 type  1   force =     0.00000000    0.00000000    0.00000000
     atom   37 type  2   force =     0.00000000    0.00000000    0.00000000
     atom   38 type  3   force =     0.00000000    0.00000000    0.00000000
     atom   39 type  4   force =     0.00000000    0.00000000    0.00000000
     The SCF correction term to forces
     atom    1 type  1   force =    -0.00000000    0.00000000    0.00000000
     atom    2 type  1   force =     0.00000000   -0.00000000    0.00000000
     atom    3 type  1   force =    -0.00000000    0.00000000    0.00000000
     atom    4 type  1   force =    -0.00000000    0.00000000    0.00000000
     atom    5 type  1   force =     0.00000000   -0.00000000    0.00000000
     atom    6 type  1   force =    -0.00000000   -0.00000000    0.00000000
     atom    7 type  1   force =    -0.00000000    0.00000000    0.00000000
     atom    8 type  1   force =     0.00000000   -0.00000000    0.00000000
     atom    9 type  1   force =     0.00000000    0.00000000    0.00000000
     atom   10 type  1   force =    -0.00000000   -0.00000000    0.00000000
     atom   11 type  1   force =     0.00000000   -0.00000000    0.00000000
     atom   12 type  1   force =    -0.00000000    0.00000000    0.00000000
     atom   13 type  1   force =     0.00000000   -0.00000000    0.00000000
     atom   14 type  1   force =     0.00000000   -0.00000000    0.00000000
     atom   15 type  1   force =    -0.00000000   -0.00000000    0.00000000
     atom   16 type  1   force =     0.00000000    0.00000000    0.00000000
     atom   17 type  1   force =    -0.00000000   -0.00000000    0.00000000
     atom   18 type  1   force =    -0.00000000    0.00000000    0.00000000
     atom   19 type  1   force =    -0.00000000    0.00000000    0.00000000
     atom   20 type  1   force =    -0.00000000    0.00000000   -0.00000000
     atom   21 type  1   force =     0.00000000   -0.00000000    0.00000000
     atom   22 type  1   force =    -0.00000000    0.00000000    0.00000000
     atom   23 type  1   force =    -0.00000000    0.00000000   -0.00000000
     atom   24 type  1   force =     0.00000000   -0.00000000    0.00000000
     atom   25 type  1   force =    -0.00000000    0.00000000    0.00000000
     atom   26 type  1   force =    -0.00000000    0.00000000   -0.00000000
     atom   27 type  1   force =     0.00000000   -0.00000000   -0.00000000
     atom   28 type  1   force =    -0.00000000    0.00000000    0.00000000
     atom   29 type  1   force =     0.00000000    0.00000000    0.00000000
     atom   30 type  1   force =     0.00000000   -0.00000000    0.00000000
     atom   31 type  1   force =    -0.00000000    0.00000000    0.00000000
     atom   32 type  1   force =    -0.00000000   -0.00000000   -0.00000000
     atom   33 type  1   force =     0.00000000   -0.00000000   -0.00000000
     atom   34 type  1   force =    -0.00000000    0.00000000    0.00000000
     atom   35 type  1   force =    -0.00000000   -0.00000000   -0.00000000
     atom   36 type  1   force =     0.00000000   -0.00000000   -0.00000000
     atom   37 type  2   force =    -0.00001013    0.00000726    0.00000784
     atom   38 type  3   force =    -0.00000244    0.00000571   -0.00002941
     atom   39 type  4   force =     0.00000610   -0.00000151    0.00000157

     Total force =     0.009922     Total SCF correction =     0.000034

     Writing all to output data dir ./pwscf.save/

     init_run     :     14.05s CPU     14.47s WALL (       1 calls)
     electrons    :    918.99s CPU    948.82s WALL (       1 calls)
     forces       :      5.53s CPU      5.66s WALL (       1 calls)

     Called by init_run:
     wfcinit      :     10.72s CPU     11.03s WALL (       1 calls)
     potinit      :      2.23s CPU      2.32s WALL (       1 calls)
     hinit0       :      0.84s CPU      0.85s WALL (       1 calls)

     Called by electrons:
     c_bands      :    785.86s CPU    813.20s WALL (      50 calls)
     sum_band     :     86.47s CPU     87.76s WALL (      50 calls)
     v_of_rho     :      9.36s CPU      9.83s WALL (      51 calls)
     newd         :      4.31s CPU      4.37s WALL (      51 calls)
     PAW_pot      :     14.18s CPU     14.39s WALL (      51 calls)
     mix_rho      :     19.75s CPU     20.06s WALL (      50 calls)
     vdW_kernel   :      1.09s CPU      1.10s WALL (       1 calls)

     Called by c_bands:
     init_us_2    :      8.78s CPU      8.93s WALL (    2652 calls)
     init_us_2:cp :      8.77s CPU      8.92s WALL (    2652 calls)
     cegterg      :    757.97s CPU    784.50s WALL (    1301 calls)

     Called by *egterg:
     cdiaghg      :    207.49s CPU    216.46s WALL (    4756 calls)
     h_psi        :    350.46s CPU    363.44s WALL (    4782 calls)
     s_psi        :     37.13s CPU     38.43s WALL (    4782 calls)
     g_psi        :      0.94s CPU      0.96s WALL (    3455 calls)

     Called by h_psi:
     h_psi:calbec :     57.45s CPU     58.98s WALL (    4782 calls)
     vloc_psi     :    253.03s CPU    263.40s WALL (    4782 calls)
     add_vuspsi   :     37.64s CPU     38.69s WALL (    4782 calls)

     General routines
     calbec       :     83.27s CPU     85.08s WALL (    6186 calls)
     fft          :      6.67s CPU      7.17s WALL (    4616 calls)
     ffts         :     12.08s CPU     12.28s WALL (   21929 calls)
     fftw         :    285.45s CPU    296.09s WALL ( 1351328 calls)
     interpolate  :      0.80s CPU      0.81s WALL (     102 calls)

     Parallel routines

     PWSCF        :  15m47.02s CPU  16m25.52s WALL


   This run was terminated on:   9:18: 1  17Dec2025            

=------------------------------------------------------------------------------=
   JOB DONE.
=------------------------------------------------------------------------------=
