
     Program PWSCF v.7.1 starts on 11Dec2025 at  5:35:10 
        Git branch: heads/qe-7.1
        Last git commit: 48ba0178f8fede6d020eb786884699a9f063f55d-dirty
        Last git commit date: Fri Jan 27 14:22:33 2023 +0000
        Last git commit subject: Merge branch 'fix_hubbard' into 'develop'

     This program is part of the open-source Quantum ESPRESSO suite
     for quantum simulation of materials; please cite
         "P. Giannozzi et al., J. Phys.:Condens. Matter 21 395502 (2009);
         "P. Giannozzi et al., J. Phys.:Condens. Matter 29 465901 (2017);
         "P. Giannozzi et al., J. Chem. Phys. 152 154105 (2020);
          URL http://www.quantum-espresso.org", 
     in publications or presentations arising from this work. More details at
     http://www.quantum-espresso.org/quote

     Parallel version (MPI), running on    96 processors

     MPI processes distributed on     2 nodes
     114135 MiB available memory on the printing compute node when the environment starts

     Reading input from espresso.pwi
Warning: card &CELL ignored
Warning: card / ignored
Warning: card &FCP ignored
Warning: card / ignored
Warning: card &RISM ignored
Warning: card / ignored

     Current dimensions of program PWSCF are:
     Max number of different atomic species (ntypx) = 10
     Max number of k-points (npk) =  40000
     Max angular momentum in pseudopotentials (lmaxx) =  4
     file Co.pbe-n-kjpaw_psl.1.0.0.UPF: wavefunction(s)  4S 3D renormalized
     file C.pbe-n-kjpaw_psl.1.0.0.UPF: wavefunction(s)  2S 2P renormalized
     file O.pbe-nl-kjpaw_psl.1.0.0.UPF: wavefunction(s)  2S 2P renormalized
     file H.pbe-kjpaw_psl.1.0.0.UPF: wavefunction(s)  1S renormalized

     **************************************************************************
     Initializing libbeef V0.1.2 with the BEEF-vdW functional.
     Citation: Wellendorff et al., PRB 85, 235149 (2012).
     **************************************************************************


     IMPORTANT: XC functional enforced from input :
     Exchange-correlation= BEEF-VDW
                           (   1   4  43  14   2   0   0)
     Any further DFT definition will be discarded
     Please, verify this is what you really want


     R & G space division:  proc/nbgrp/npool/nimage =      96
     Subspace diagonalization in iterative solution of the eigenvalue problem:
     one sub-group per band group will be used
     custom distributed-memory algorithm (size of sub-group:  2*  2 procs)


     Parallelization info
     --------------------
     sticks:   dense  smooth     PW     G-vecs:    dense   smooth      PW
     Min          43      28      7                 7829     4248     595
     Max          44      29      8                 7845     4281     630
     Sum        4153    2773    757               752179   409445   59217

     Using Slab Decomposition



     bravais-lattice index     =            0
     lattice parameter (alat)  =      14.1729  a.u.
     unit-cell volume          =    8574.3059 (a.u.)^3
     number of atoms/cell      =           39
     number of atomic types    =            4
     number of electrons       =       335.00
     number of Kohn-Sham states=          202
     kinetic-energy cutoff     =      50.0000  Ry
     charge density cutoff     =     300.0000  Ry
     scf convergence threshold =      1.0E-08
     mixing beta               =       0.7000
     number of iterations used =            8  local-TF  mixing
     Exchange-correlation= BEEF-VDW
                           (   1   4  43  14   2   0   0)

     celldm(1)=  14.172946  celldm(2)=   0.000000  celldm(3)=   0.000000
     celldm(4)=   0.000000  celldm(5)=   0.000000  celldm(6)=   0.000000

     crystal axes: (cart. coord. in units of alat)
               a(1) = (   1.000000   0.000000   0.000000 )  
               a(2) = (   0.500000   0.866025   0.000000 )  
               a(3) = (   0.000000   0.000000   3.477667 )  

     reciprocal axes: (cart. coord. in units 2 pi/alat)
               b(1) = (  1.000000 -0.577350  0.000000 )  
               b(2) = (  0.000000  1.154701  0.000000 )  
               b(3) = (  0.000000  0.000000  0.287549 )  


     PseudoPot. # 1 for Co read from file:
     /users/kbadger1/espresso/pseudo/pslibrary.1.0.0/pbe/PSEUDOPOTENTIALS/Co.pbe-n-kjpaw_psl.1.0.0.UPF
     MD5 check sum: 88af6ec42553d4236c267fdfcb472151
     Pseudo is Projector augmented-wave + core cor, Zval =  9.0
     Generated using 'atomic' code by A. Dal Corso  v.7.0
     Shape of augmentation charge: PSQ
     Using radial grid of 1193 points,  6 beta functions with: 
                l(1) =   0
                l(2) =   0
                l(3) =   1
                l(4) =   1
                l(5) =   2
                l(6) =   2
     Q(r) pseudized with 0 coefficients 


     PseudoPot. # 2 for C  read from file:
     /users/kbadger1/espresso/pseudo/pslibrary.1.0.0/pbe/PSEUDOPOTENTIALS/C.pbe-n-kjpaw_psl.1.0.0.UPF
     MD5 check sum: 6408e75cdba28732cea38a4db8498ce4
     Pseudo is Projector augmented-wave + core cor, Zval =  4.0
     Generated using 'atomic' code by A. Dal Corso  v.7.0
     Shape of augmentation charge: PSQ
     Using radial grid of 1073 points,  4 beta functions with: 
                l(1) =   0
                l(2) =   0
                l(3) =   1
                l(4) =   1
     Q(r) pseudized with 0 coefficients 


     PseudoPot. # 3 for O  read from file:
     /users/kbadger1/espresso/pseudo/pslibrary.1.0.0/pbe/PSEUDOPOTENTIALS/O.pbe-nl-kjpaw_psl.1.0.0.UPF
     MD5 check sum: f0439fab3598ca4e468f064226030408
     Pseudo is Projector augmented-wave + core cor, Zval =  6.0
     Generated using 'atomic' code by A. Dal Corso  v.7.0
     Shape of augmentation charge: PSQ
     Using radial grid of 1095 points,  4 beta functions with: 
                l(1) =   0
                l(2) =   0
                l(3) =   1
                l(4) =   1
     Q(r) pseudized with 0 coefficients 


     PseudoPot. # 4 for H  read from file:
     /users/kbadger1/espresso/pseudo/pslibrary.1.0.0/pbe/PSEUDOPOTENTIALS/H.pbe-kjpaw_psl.1.0.0.UPF
     MD5 check sum: fe4c6fa958fa6d3815bf5d2419cbf1df
     Pseudo is Projector augmented-wave, Zval =  1.0
     Generated using 'atomic' code by A. Dal Corso  v.7.0
     Shape of augmentation charge: PSQ
     Using radial grid of  929 points,  2 beta functions with: 
                l(1) =   0
                l(2) =   0
     Q(r) pseudized with 0 coefficients 


     atomic species   valence    mass     pseudopotential
        Co             9.00    58.93319     Co( 1.00)
        C              4.00    12.01100     C ( 1.00)
        O              6.00    15.99900     O ( 1.00)
        H              1.00     1.00800     H ( 1.00)

     Starting magnetic structure 
     atomic species   magnetization
        Co           1.000
        C            1.000
        O            0.000
        H            0.000

     No symmetry found



   Cartesian axes

     site n.     atom                  positions (alat units)
         1           Co  tau(   1) = (   0.0000000   0.1924501   1.3333333  )
         2           Co  tau(   2) = (   0.3333333   0.1924501   1.3333333  )
         3           Co  tau(   3) = (   0.6666667   0.1924501   1.3333333  )
         4           Co  tau(   4) = (   0.1666667   0.4811252   1.3333333  )
         5           Co  tau(   5) = (   0.5000000   0.4811252   1.3333333  )
         6           Co  tau(   6) = (   0.8333333   0.4811252   1.3333333  )
         7           Co  tau(   7) = (   0.3333333   0.7698004   1.3333333  )
         8           Co  tau(   8) = (   0.6666667   0.7698004   1.3333333  )
         9           Co  tau(   9) = (   1.0000000   0.7698004   1.3333333  )
        10           Co  tau(  10) = (   0.0000000   0.0000000   1.6036667  )
        11           Co  tau(  11) = (   0.3333333   0.0000000   1.6036667  )
        12           Co  tau(  12) = (   0.6666667   0.0000000   1.6036667  )
        13           Co  tau(  13) = (   0.1666667   0.2886751   1.6036667  )
        14           Co  tau(  14) = (   0.5000000   0.2886751   1.6036667  )
        15           Co  tau(  15) = (   0.8333333   0.2886751   1.6036667  )
        16           Co  tau(  16) = (   0.3333333   0.5773503   1.6036667  )
        17           Co  tau(  17) = (   0.6666667   0.5773503   1.6036667  )
        18           Co  tau(  18) = (   1.0000000   0.5773503   1.6036667  )
        19           Co  tau(  19) = (   0.0000000   0.1924501   1.8740000  )
        20           Co  tau(  20) = (   0.3333333   0.1924501   1.8740000  )
        21           Co  tau(  21) = (   0.6666667   0.1924501   1.8740000  )
        22           Co  tau(  22) = (   0.1666667   0.4811252   1.8740000  )
        23           Co  tau(  23) = (   0.5000000   0.4811252   1.8740000  )
        24           Co  tau(  24) = (   0.8333333   0.4811252   1.8740000  )
        25           Co  tau(  25) = (   0.3333333   0.7698004   1.8740000  )
        26           Co  tau(  26) = (   0.6666667   0.7698004   1.8740000  )
        27           Co  tau(  27) = (   1.0000000   0.7698004   1.8740000  )
        28           Co  tau(  28) = (   0.0000000   0.0000000   2.1443333  )
        29           Co  tau(  29) = (   0.3333333   0.0000000   2.1443333  )
        30           Co  tau(  30) = (   0.6666667   0.0000000   2.1443333  )
        31           Co  tau(  31) = (   0.1666667   0.2886751   2.1443333  )
        32           Co  tau(  32) = (   0.5000000   0.2886751   2.1443333  )
        33           Co  tau(  33) = (   0.8333333   0.2886751   2.1443333  )
        34           Co  tau(  34) = (   0.3333333   0.5773503   2.1443333  )
        35           Co  tau(  35) = (   0.6666667   0.5773503   2.1443333  )
        36           Co  tau(  36) = (   1.0000000   0.5773503   2.1443333  )
        37           C   tau(  37) = (   0.1662144   0.0313119   2.3356579  )
        38           O   tau(  38) = (   0.1578296   0.0394384   2.4941109  )
        39           H   tau(  39) = (   0.4935004  -0.0117746   2.2924237  )

     number of k points=    13  Marzari-Vanderbilt smearing, width (Ry)=  0.0010
                       cart. coord. in units 2pi/alat
        k(    1) = (   0.0000000   0.0000000   0.0000000), wk =   0.0400000
        k(    2) = (   0.0000000   0.2309401   0.0000000), wk =   0.0800000
        k(    3) = (   0.0000000   0.4618802   0.0000000), wk =   0.0800000
        k(    4) = (   0.2000000  -0.1154701   0.0000000), wk =   0.0800000
        k(    5) = (   0.2000000   0.1154701   0.0000000), wk =   0.0800000
        k(    6) = (   0.2000000   0.3464102   0.0000000), wk =   0.0800000
        k(    7) = (   0.2000000  -0.5773503   0.0000000), wk =   0.0800000
        k(    8) = (   0.2000000  -0.3464102   0.0000000), wk =   0.0800000
        k(    9) = (   0.4000000  -0.2309401   0.0000000), wk =   0.0800000
        k(   10) = (   0.4000000   0.0000000   0.0000000), wk =   0.0800000
        k(   11) = (   0.4000000   0.2309401   0.0000000), wk =   0.0800000
        k(   12) = (   0.4000000  -0.6928203   0.0000000), wk =   0.0800000
        k(   13) = (   0.4000000  -0.4618802   0.0000000), wk =   0.0800000

     Dense  grid:   752179 G-vectors     FFT dimensions: (  80,  80, 288)

     Smooth grid:   409445 G-vectors     FFT dimensions: (  64,  64, 225)

     Estimated max dynamical RAM per process >      99.02 MB

     Estimated total dynamical RAM >       9.28 GB
     Generating pointlists ...
     new r_m :   0.0901 (alat units)  1.2772 (a.u.) for type    1
     new r_m :   0.0655 (alat units)  0.9289 (a.u.) for type    2
     new r_m :   0.0655 (alat units)  0.9289 (a.u.) for type    3
     new r_m :   0.0901 (alat units)  1.2772 (a.u.) for type    4

     Initial potential from superposition of free atoms

     starting charge     334.9897, renormalised to     335.0000

     negative rho (up, down):  3.046E-03 4.529E-04


     %%%%%%%%%%%%%%%%%%%%%%%%%%%%%%%%%%%%%%%%%%%%%%%%%%%%%%%%%%%%%%%%%%%%%%%%
     %                                                                      %
     % You are using vdW-DF, which was implemented by the Thonhauser group. %
     % Please cite the following two papers that made this development      %
     % possible and the two reviews that describe the various versions:     %
     %                                                                      %
     %   T. Thonhauser et al., PRL 115, 136402 (2015).                      %
     %   T. Thonhauser et al., PRB 76, 125112 (2007).                       %
     %   K. Berland et al., Rep. Prog. Phys. 78, 066501 (2015).             %
     %   D.C. Langreth et al., J. Phys.: Condens. Matter 21, 084203 (2009). %
     %                                                                      %
     % If you are calculating stress with vdW-DF, please also cite:         %
     %                                                                      %
     %   R. Sabatini et al., J. Phys.: Condens. Matter 24, 424209 (2012).   %
     %   C.M. Frostenson et al., Electr. Struct. 4, 014001 (2022).          %
     %                                                                      %
     %%%%%%%%%%%%%%%%%%%%%%%%%%%%%%%%%%%%%%%%%%%%%%%%%%%%%%%%%%%%%%%%%%%%%%%%

     %%%%%%%%%%%%%%%%%%%%%%%%%%%%%%%%%%%%%%%%%%%%%%%%%%%%%%%%%%%%%%%%%%%%%%%%
     %                                                                      %
     %  vdW-DF NEWS:                                                        %
     %                                                                      %
     %  * vdW-DF3 is now available. DOI: 10.1021/acs.jctc.0c00471           %
     %    use with input_dft = 'vdW-DF3-opt1' or 'vdW-DF3-opt2'             %
     %                                                                      %
     %  * Unscreened and range-separated hybrid vdW-DF-cx functionals       %
     %    DOI: 10.1063/1.4986522 and 10.1088/1361-648X/ac2ad2               %
     %    use with input_dft = 'vdW-DF-cx0'    and 'vdW-DF-ahcx'            %
     %  * Unscreened and range-separated hybrid vdW-DF2-b86r functionals    %
     %    DOI: 10.1063/1.4986522 and DOI: 10.1103/PhysRevX.12.041003        %
     %    use with input_dft = 'vdW-DF2-br0' and 'vdW-DF2-ahbr'             %
     %                                                                      %
     %%%%%%%%%%%%%%%%%%%%%%%%%%%%%%%%%%%%%%%%%%%%%%%%%%%%%%%%%%%%%%%%%%%%%%%%


     Starting wfcs are  333 randomized atomic wfcs
     Checking if some PAW data can be deallocated... 

     total cpu time spent up to now is       12.2 secs

     per-process dynamical memory:   231.0 Mb

     Self-consistent Calculation

     iteration #  1     ecut=    50.00 Ry     beta= 0.70
     Davidson diagonalization with overlap
     ethr =  1.00E-02,  avg # of iterations =  2.0

     negative rho (up, down):  3.370E-05 9.560E-08

     total cpu time spent up to now is       30.8 secs

     total energy              =   -6053.11815056 Ry
     estimated scf accuracy    <      39.09426269 Ry

     total magnetization       =    69.00 Bohr mag/cell
     absolute magnetization    =    81.21 Bohr mag/cell

     iteration #  2     ecut=    50.00 Ry     beta= 0.70
     Davidson diagonalization with overlap
     ethr =  1.00E-02,  avg # of iterations =  1.0

     negative rho (up, down):  5.267E-06 3.306E-08

     total cpu time spent up to now is       45.1 secs

     total energy              =   -6052.67824604 Ry
     estimated scf accuracy    <      24.18179625 Ry

     total magnetization       =    69.01 Bohr mag/cell
     absolute magnetization    =    76.79 Bohr mag/cell

     iteration #  3     ecut=    50.00 Ry     beta= 0.70
     Davidson diagonalization with overlap
     ethr =  7.22E-03,  avg # of iterations =  1.4

     negative rho (up, down):  3.133E-08 0.000E+00

     total cpu time spent up to now is       60.5 secs

     total energy              =   -6055.17957561 Ry
     estimated scf accuracy    <      86.23540203 Ry

     total magnetization       =    66.12 Bohr mag/cell
     absolute magnetization    =    73.57 Bohr mag/cell

     iteration #  4     ecut=    50.00 Ry     beta= 0.70
     Davidson diagonalization with overlap
     ethr =  7.22E-03,  avg # of iterations =  1.0

     total cpu time spent up to now is       73.9 secs

     total energy              =   -6056.46580802 Ry
     estimated scf accuracy    <       5.74030668 Ry

     total magnetization       =    60.32 Bohr mag/cell
     absolute magnetization    =    70.12 Bohr mag/cell

     iteration #  5     ecut=    50.00 Ry     beta= 0.70
     Davidson diagonalization with overlap
     ethr =  1.71E-03,  avg # of iterations =  1.1

     total cpu time spent up to now is       88.9 secs

     total energy              =   -6056.44411693 Ry
     estimated scf accuracy    <       2.13403623 Ry

     total magnetization       =    60.48 Bohr mag/cell
     absolute magnetization    =    69.77 Bohr mag/cell

     iteration #  6     ecut=    50.00 Ry     beta= 0.70
     Davidson diagonalization with overlap
     ethr =  6.37E-04,  avg # of iterations =  1.7

     total cpu time spent up to now is      102.9 secs

     total energy              =   -6056.54124348 Ry
     estimated scf accuracy    <       0.88700747 Ry

     total magnetization       =    59.88 Bohr mag/cell
     absolute magnetization    =    68.96 Bohr mag/cell

     iteration #  7     ecut=    50.00 Ry     beta= 0.70
     Davidson diagonalization with overlap
     ethr =  2.65E-04,  avg # of iterations =  4.2

     total cpu time spent up to now is      120.9 secs

     total energy              =   -6056.57277767 Ry
     estimated scf accuracy    <       0.58315412 Ry

     total magnetization       =    59.96 Bohr mag/cell
     absolute magnetization    =    68.71 Bohr mag/cell

     iteration #  8     ecut=    50.00 Ry     beta= 0.70
     Davidson diagonalization with overlap
     ethr =  1.74E-04,  avg # of iterations =  2.2

     total cpu time spent up to now is      135.3 secs

     total energy              =   -6056.59887555 Ry
     estimated scf accuracy    <       0.16619791 Ry

     total magnetization       =    59.98 Bohr mag/cell
     absolute magnetization    =    68.56 Bohr mag/cell

     iteration #  9     ecut=    50.00 Ry     beta= 0.70
     Davidson diagonalization with overlap
     ethr =  4.96E-05,  avg # of iterations =  8.2

     total cpu time spent up to now is      158.1 secs

     total energy              =   -6056.60502381 Ry
     estimated scf accuracy    <       0.10601455 Ry

     total magnetization       =    60.29 Bohr mag/cell
     absolute magnetization    =    68.53 Bohr mag/cell

     iteration # 10     ecut=    50.00 Ry     beta= 0.70
     Davidson diagonalization with overlap
     c_bands:  2 eigenvalues not converged
     ethr =  3.16E-05,  avg # of iterations =  4.3

     total cpu time spent up to now is      175.7 secs

     total energy              =   -6056.60994053 Ry
     estimated scf accuracy    <       0.15059284 Ry

     total magnetization       =    60.56 Bohr mag/cell
     absolute magnetization    =    68.55 Bohr mag/cell

     iteration # 11     ecut=    50.00 Ry     beta= 0.70
     Davidson diagonalization with overlap
     ethr =  3.16E-05,  avg # of iterations =  1.7

     total cpu time spent up to now is      190.5 secs

     total energy              =   -6056.60602127 Ry
     estimated scf accuracy    <       0.11689288 Ry

     total magnetization       =    60.60 Bohr mag/cell
     absolute magnetization    =    68.49 Bohr mag/cell

     iteration # 12     ecut=    50.00 Ry     beta= 0.70
     Davidson diagonalization with overlap
     ethr =  3.16E-05,  avg # of iterations =  2.1

     total cpu time spent up to now is      205.7 secs

     total energy              =   -6056.60701454 Ry
     estimated scf accuracy    <       0.09066878 Ry

     total magnetization       =    60.53 Bohr mag/cell
     absolute magnetization    =    68.33 Bohr mag/cell

     iteration # 13     ecut=    50.00 Ry     beta= 0.70
     Davidson diagonalization with overlap
     ethr =  2.71E-05,  avg # of iterations =  1.5

     negative rho (up, down):  2.542E-06 0.000E+00

     total cpu time spent up to now is      219.3 secs

     total energy              =   -6056.60647508 Ry
     estimated scf accuracy    <       0.11532272 Ry

     total magnetization       =    60.61 Bohr mag/cell
     absolute magnetization    =    68.34 Bohr mag/cell

     iteration # 14     ecut=    50.00 Ry     beta= 0.70
     Davidson diagonalization with overlap
     ethr =  2.71E-05,  avg # of iterations =  1.1

     negative rho (up, down):  1.102E-02 9.332E-03

     total cpu time spent up to now is      233.5 secs

     total energy              =   -6056.60017806 Ry
     estimated scf accuracy    <       0.07697401 Ry

     total magnetization       =    60.61 Bohr mag/cell
     absolute magnetization    =    68.30 Bohr mag/cell

     iteration # 15     ecut=    50.00 Ry     beta= 0.70
     Davidson diagonalization with overlap
     ethr =  2.30E-05,  avg # of iterations =  1.6

     negative rho (up, down):  1.269E-02 1.114E-02

     total cpu time spent up to now is      248.1 secs

     total energy              =   -6056.59832983 Ry
     estimated scf accuracy    <       0.03076242 Ry

     total magnetization       =    60.59 Bohr mag/cell
     absolute magnetization    =    68.27 Bohr mag/cell

     iteration # 16     ecut=    50.00 Ry     beta= 0.70
     Davidson diagonalization with overlap
     c_bands:  1 eigenvalues not converged
     c_bands:  1 eigenvalues not converged
     c_bands:  2 eigenvalues not converged
     c_bands:  2 eigenvalues not converged
     c_bands:  2 eigenvalues not converged
     c_bands:  1 eigenvalues not converged
     c_bands:  2 eigenvalues not converged
     ethr =  9.18E-06,  avg # of iterations =  9.2

     negative rho (up, down):  1.994E-02 1.827E-02

     total cpu time spent up to now is      270.7 secs

     total energy              =   -6056.59748278 Ry
     estimated scf accuracy    <       0.04445592 Ry

     total magnetization       =    60.57 Bohr mag/cell
     absolute magnetization    =    68.22 Bohr mag/cell

     iteration # 17     ecut=    50.00 Ry     beta= 0.70
     Davidson diagonalization with overlap
     ethr =  9.18E-06,  avg # of iterations =  1.7

     negative rho (up, down):  1.470E-02 1.325E-02

     total cpu time spent up to now is      284.6 secs

     total energy              =   -6056.59787861 Ry
     estimated scf accuracy    <       0.01385965 Ry

     total magnetization       =    60.59 Bohr mag/cell
     absolute magnetization    =    68.21 Bohr mag/cell

     iteration # 18     ecut=    50.00 Ry     beta= 0.70
     Davidson diagonalization with overlap
     c_bands:  1 eigenvalues not converged
     ethr =  4.14E-06,  avg # of iterations =  6.0

     negative rho (up, down):  7.697E-03 6.495E-03

     total cpu time spent up to now is      304.7 secs

     total energy              =   -6056.59770315 Ry
     estimated scf accuracy    <       0.01076354 Ry

     total magnetization       =    60.60 Bohr mag/cell
     absolute magnetization    =    68.21 Bohr mag/cell

     iteration # 19     ecut=    50.00 Ry     beta= 0.70
     Davidson diagonalization with overlap
     ethr =  3.21E-06,  avg # of iterations =  2.5

     negative rho (up, down):  1.395E-02 1.290E-02

     total cpu time spent up to now is      319.5 secs

     total energy              =   -6056.59578629 Ry
     estimated scf accuracy    <       0.00960979 Ry

     total magnetization       =    60.60 Bohr mag/cell
     absolute magnetization    =    68.20 Bohr mag/cell

     iteration # 20     ecut=    50.00 Ry     beta= 0.70
     Davidson diagonalization with overlap
     ethr =  2.87E-06,  avg # of iterations =  2.1

     negative rho (up, down):  1.427E-02 1.356E-02

     total cpu time spent up to now is      335.0 secs

     total energy              =   -6056.59526185 Ry
     estimated scf accuracy    <       0.01115056 Ry

     total magnetization       =    60.60 Bohr mag/cell
     absolute magnetization    =    68.17 Bohr mag/cell

     iteration # 21     ecut=    50.00 Ry     beta= 0.70
     Davidson diagonalization with overlap
     ethr =  2.87E-06,  avg # of iterations =  1.5

     negative rho (up, down):  1.209E-02 1.153E-02

     total cpu time spent up to now is      348.7 secs

     total energy              =   -6056.59555929 Ry
     estimated scf accuracy    <       0.00332699 Ry

     total magnetization       =    60.60 Bohr mag/cell
     absolute magnetization    =    68.16 Bohr mag/cell

     iteration # 22     ecut=    50.00 Ry     beta= 0.70
     Davidson diagonalization with overlap
     c_bands:  1 eigenvalues not converged
     c_bands:  4 eigenvalues not converged
     c_bands:  1 eigenvalues not converged
     c_bands:  1 eigenvalues not converged
     ethr =  9.93E-07,  avg # of iterations =  5.4

     negative rho (up, down):  1.105E-02 1.044E-02

     total cpu time spent up to now is      368.2 secs

     total energy              =   -6056.59569326 Ry
     estimated scf accuracy    <       0.00283366 Ry

     total magnetization       =    60.61 Bohr mag/cell
     absolute magnetization    =    68.17 Bohr mag/cell

     iteration # 23     ecut=    50.00 Ry     beta= 0.70
     Davidson diagonalization with overlap
     ethr =  8.46E-07,  avg # of iterations =  1.8

     negative rho (up, down):  8.128E-03 7.459E-03

     total cpu time spent up to now is      382.6 secs

     total energy              =   -6056.59567833 Ry
     estimated scf accuracy    <       0.00210414 Ry

     total magnetization       =    60.61 Bohr mag/cell
     absolute magnetization    =    68.17 Bohr mag/cell

     iteration # 24     ecut=    50.00 Ry     beta= 0.70
     Davidson diagonalization with overlap
     ethr =  6.28E-07,  avg # of iterations =  2.4

     negative rho (up, down):  6.874E-03 6.116E-03

     total cpu time spent up to now is      397.9 secs

     total energy              =   -6056.59579748 Ry
     estimated scf accuracy    <       0.00203343 Ry

     total magnetization       =    60.62 Bohr mag/cell
     absolute magnetization    =    68.19 Bohr mag/cell

     iteration # 25     ecut=    50.00 Ry     beta= 0.70
     Davidson diagonalization with overlap
     ethr =  6.07E-07,  avg # of iterations =  2.0

     negative rho (up, down):  5.443E-03 4.726E-03

     total cpu time spent up to now is      412.6 secs

     total energy              =   -6056.59580221 Ry
     estimated scf accuracy    <       0.00057009 Ry

     total magnetization       =    60.63 Bohr mag/cell
     absolute magnetization    =    68.19 Bohr mag/cell

     iteration # 26     ecut=    50.00 Ry     beta= 0.70
     Davidson diagonalization with overlap
     ethr =  1.70E-07,  avg # of iterations =  4.2

     negative rho (up, down):  4.444E-03 3.649E-03

     total cpu time spent up to now is      431.4 secs

     total energy              =   -6056.59587123 Ry
     estimated scf accuracy    <       0.00186520 Ry

     total magnetization       =    60.63 Bohr mag/cell
     absolute magnetization    =    68.18 Bohr mag/cell

     iteration # 27     ecut=    50.00 Ry     beta= 0.70
     Davidson diagonalization with overlap
     ethr =  1.70E-07,  avg # of iterations =  1.4

     negative rho (up, down):  4.097E-03 3.318E-03

     total cpu time spent up to now is      446.1 secs

     total energy              =   -6056.59589033 Ry
     estimated scf accuracy    <       0.00036169 Ry

     total magnetization       =    60.63 Bohr mag/cell
     absolute magnetization    =    68.19 Bohr mag/cell

     iteration # 28     ecut=    50.00 Ry     beta= 0.70
     Davidson diagonalization with overlap
     ethr =  1.08E-07,  avg # of iterations =  1.4

     negative rho (up, down):  3.323E-03 2.454E-03

     total cpu time spent up to now is      459.9 secs

     total energy              =   -6056.59591530 Ry
     estimated scf accuracy    <       0.00012777 Ry

     total magnetization       =    60.63 Bohr mag/cell
     absolute magnetization    =    68.18 Bohr mag/cell

     iteration # 29     ecut=    50.00 Ry     beta= 0.70
     Davidson diagonalization with overlap
     ethr =  3.81E-08,  avg # of iterations =  3.3

     negative rho (up, down):  2.873E-03 1.969E-03

     total cpu time spent up to now is      476.6 secs

     total energy              =   -6056.59592207 Ry
     estimated scf accuracy    <       0.00014776 Ry

     total magnetization       =    60.63 Bohr mag/cell
     absolute magnetization    =    68.18 Bohr mag/cell

     iteration # 30     ecut=    50.00 Ry     beta= 0.70
     Davidson diagonalization with overlap
     ethr =  3.81E-08,  avg # of iterations =  1.6

     negative rho (up, down):  2.152E-03 1.074E-03

     total cpu time spent up to now is      491.7 secs

     total energy              =   -6056.59598818 Ry
     estimated scf accuracy    <       0.00007641 Ry

     total magnetization       =    60.63 Bohr mag/cell
     absolute magnetization    =    68.18 Bohr mag/cell

     iteration # 31     ecut=    50.00 Ry     beta= 0.70
     Davidson diagonalization with overlap
     ethr =  2.28E-08,  avg # of iterations =  3.2

     negative rho (up, down):  2.213E-03 1.124E-03

     total cpu time spent up to now is      508.4 secs

     total energy              =   -6056.59599783 Ry
     estimated scf accuracy    <       0.00005449 Ry

     total magnetization       =    60.63 Bohr mag/cell
     absolute magnetization    =    68.18 Bohr mag/cell

     iteration # 32     ecut=    50.00 Ry     beta= 0.70
     Davidson diagonalization with overlap
     ethr =  1.63E-08,  avg # of iterations =  1.6

     negative rho (up, down):  2.239E-03 1.136E-03

     total cpu time spent up to now is      522.3 secs

     total energy              =   -6056.59599479 Ry
     estimated scf accuracy    <       0.00001025 Ry

     total magnetization       =    60.63 Bohr mag/cell
     absolute magnetization    =    68.18 Bohr mag/cell

     iteration # 33     ecut=    50.00 Ry     beta= 0.70
     Davidson diagonalization with overlap
     c_bands:  1 eigenvalues not converged
     ethr =  3.06E-09,  avg # of iterations =  6.4

     negative rho (up, down):  2.285E-03 1.174E-03

     total cpu time spent up to now is      545.9 secs

     total energy              =   -6056.59599997 Ry
     estimated scf accuracy    <       0.00001805 Ry

     total magnetization       =    60.63 Bohr mag/cell
     absolute magnetization    =    68.18 Bohr mag/cell

     iteration # 34     ecut=    50.00 Ry     beta= 0.70
     Davidson diagonalization with overlap
     ethr =  3.06E-09,  avg # of iterations =  1.9

     negative rho (up, down):  2.250E-03 1.147E-03

     total cpu time spent up to now is      561.2 secs

     total energy              =   -6056.59600038 Ry
     estimated scf accuracy    <       0.00000744 Ry

     total magnetization       =    60.63 Bohr mag/cell
     absolute magnetization    =    68.18 Bohr mag/cell

     iteration # 35     ecut=    50.00 Ry     beta= 0.70
     Davidson diagonalization with overlap
     ethr =  2.22E-09,  avg # of iterations =  1.7

     negative rho (up, down):  2.285E-03 1.203E-03

     total cpu time spent up to now is      575.8 secs

     total energy              =   -6056.59600155 Ry
     estimated scf accuracy    <       0.00000823 Ry

     total magnetization       =    60.63 Bohr mag/cell
     absolute magnetization    =    68.18 Bohr mag/cell

     iteration # 36     ecut=    50.00 Ry     beta= 0.70
     Davidson diagonalization with overlap
     ethr =  2.22E-09,  avg # of iterations =  1.8

     negative rho (up, down):  2.290E-03 1.197E-03

     total cpu time spent up to now is      590.6 secs

     total energy              =   -6056.59600189 Ry
     estimated scf accuracy    <       0.00000085 Ry

     total magnetization       =    60.63 Bohr mag/cell
     absolute magnetization    =    68.17 Bohr mag/cell

     iteration # 37     ecut=    50.00 Ry     beta= 0.70
     Davidson diagonalization with overlap
     ethr =  2.54E-10,  avg # of iterations =  6.6

     negative rho (up, down):  2.303E-03 1.217E-03

     total cpu time spent up to now is      613.9 secs

     total energy              =   -6056.59600207 Ry
     estimated scf accuracy    <       0.00000174 Ry

     total magnetization       =    60.63 Bohr mag/cell
     absolute magnetization    =    68.17 Bohr mag/cell

     iteration # 38     ecut=    50.00 Ry     beta= 0.70
     Davidson diagonalization with overlap
     ethr =  2.54E-10,  avg # of iterations =  1.8

     negative rho (up, down):  2.297E-03 1.208E-03

     total cpu time spent up to now is      629.3 secs

     total energy              =   -6056.59600214 Ry
     estimated scf accuracy    <       0.00000093 Ry

     total magnetization       =    60.63 Bohr mag/cell
     absolute magnetization    =    68.17 Bohr mag/cell

     iteration # 39     ecut=    50.00 Ry     beta= 0.70
     Davidson diagonalization with overlap
     ethr =  2.54E-10,  avg # of iterations =  1.2

     negative rho (up, down):  2.309E-03 1.225E-03

     total cpu time spent up to now is      642.9 secs

     total energy              =   -6056.59600210 Ry
     estimated scf accuracy    <       0.00000055 Ry

     total magnetization       =    60.63 Bohr mag/cell
     absolute magnetization    =    68.17 Bohr mag/cell

     iteration # 40     ecut=    50.00 Ry     beta= 0.70
     Davidson diagonalization with overlap
     ethr =  1.65E-10,  avg # of iterations =  2.2

     negative rho (up, down):  2.302E-03 1.215E-03

     total cpu time spent up to now is      658.2 secs

     total energy              =   -6056.59600213 Ry
     estimated scf accuracy    <       0.00000075 Ry

     total magnetization       =    60.63 Bohr mag/cell
     absolute magnetization    =    68.17 Bohr mag/cell

     iteration # 41     ecut=    50.00 Ry     beta= 0.70
     Davidson diagonalization with overlap
     ethr =  1.65E-10,  avg # of iterations =  1.2

     negative rho (up, down):  2.301E-03 1.213E-03

     total cpu time spent up to now is      673.1 secs

     total energy              =   -6056.59600218 Ry
     estimated scf accuracy    <       0.00000024 Ry

     total magnetization       =    60.63 Bohr mag/cell
     absolute magnetization    =    68.17 Bohr mag/cell

     iteration # 42     ecut=    50.00 Ry     beta= 0.70
     Davidson diagonalization with overlap
     ethr =  7.05E-11,  avg # of iterations =  1.9

     negative rho (up, down):  2.294E-03 1.204E-03

     total cpu time spent up to now is      688.3 secs

     total energy              =   -6056.59600217 Ry
     estimated scf accuracy    <       0.00000033 Ry

     total magnetization       =    60.63 Bohr mag/cell
     absolute magnetization    =    68.17 Bohr mag/cell

     iteration # 43     ecut=    50.00 Ry     beta= 0.70
     Davidson diagonalization with overlap
     ethr =  7.05E-11,  avg # of iterations =  2.7

     negative rho (up, down):  2.292E-03 1.201E-03

     total cpu time spent up to now is      703.7 secs

     total energy              =   -6056.59600218 Ry
     estimated scf accuracy    <       0.00000011 Ry

     total magnetization       =    60.63 Bohr mag/cell
     absolute magnetization    =    68.17 Bohr mag/cell

     iteration # 44     ecut=    50.00 Ry     beta= 0.70
     Davidson diagonalization with overlap
     c_bands:  1 eigenvalues not converged
     ethr =  3.25E-11,  avg # of iterations =  4.4

     negative rho (up, down):  2.287E-03 1.196E-03

     total cpu time spent up to now is      721.5 secs

     total energy              =   -6056.59600218 Ry
     estimated scf accuracy    <       0.00000007 Ry

     total magnetization       =    60.63 Bohr mag/cell
     absolute magnetization    =    68.17 Bohr mag/cell

     iteration # 45     ecut=    50.00 Ry     beta= 0.70
     Davidson diagonalization with overlap
     ethr =  1.98E-11,  avg # of iterations =  2.8

     negative rho (up, down):  2.282E-03 1.192E-03

     total cpu time spent up to now is      738.1 secs

     total energy              =   -6056.59600218 Ry
     estimated scf accuracy    <       0.00000003 Ry

     total magnetization       =    60.63 Bohr mag/cell
     absolute magnetization    =    68.17 Bohr mag/cell

     iteration # 46     ecut=    50.00 Ry     beta= 0.70
     Davidson diagonalization with overlap
     ethr =  9.95E-12,  avg # of iterations =  4.3

     negative rho (up, down):  2.277E-03 1.187E-03

     total cpu time spent up to now is      756.0 secs

     total energy              =   -6056.59600218 Ry
     estimated scf accuracy    <       0.00000004 Ry

     total magnetization       =    60.63 Bohr mag/cell
     absolute magnetization    =    68.17 Bohr mag/cell

     iteration # 47     ecut=    50.00 Ry     beta= 0.70
     Davidson diagonalization with overlap
     ethr =  9.95E-12,  avg # of iterations =  1.9

     negative rho (up, down):  2.274E-03 1.183E-03

     total cpu time spent up to now is      771.1 secs

     total energy              =   -6056.59600217 Ry
     estimated scf accuracy    <       0.00000006 Ry

     total magnetization       =    60.63 Bohr mag/cell
     absolute magnetization    =    68.17 Bohr mag/cell

     iteration # 48     ecut=    50.00 Ry     beta= 0.70
     Davidson diagonalization with overlap
     ethr =  9.95E-12,  avg # of iterations =  1.2

     negative rho (up, down):  2.268E-03 1.177E-03

     total cpu time spent up to now is      786.2 secs

     total energy              =   -6056.59600217 Ry
     estimated scf accuracy    <       0.00000001 Ry

     total magnetization       =    60.63 Bohr mag/cell
     absolute magnetization    =    68.17 Bohr mag/cell

     iteration # 49     ecut=    50.00 Ry     beta= 0.70
     Davidson diagonalization with overlap
     ethr =  3.05E-12,  avg # of iterations =  4.8

     negative rho (up, down):  2.266E-03 1.175E-03

     total cpu time spent up to now is      805.3 secs

     total energy              =   -6056.59600216 Ry
     estimated scf accuracy    <       0.00000002 Ry

     total magnetization       =    60.63 Bohr mag/cell
     absolute magnetization    =    68.17 Bohr mag/cell

     iteration # 50     ecut=    50.00 Ry     beta= 0.70
     Davidson diagonalization with overlap
     ethr =  3.05E-12,  avg # of iterations =  2.0

     negative rho (up, down):  2.261E-03 1.170E-03

     total cpu time spent up to now is      820.2 secs

     total energy              =   -6056.59600216 Ry
     estimated scf accuracy    <       0.00000003 Ry

     total magnetization       =    60.63 Bohr mag/cell
     absolute magnetization    =    68.17 Bohr mag/cell

     iteration # 51     ecut=    50.00 Ry     beta= 0.70
     Davidson diagonalization with overlap
     ethr =  3.05E-12,  avg # of iterations =  1.5

     negative rho (up, down):  2.250E-03 1.159E-03

     Magnetic moment per site  (integrated on atomic sphere of radius R)
     atom   1 (R=0.090)  charge=  5.6575  magn=  1.6555
     atom   2 (R=0.090)  charge=  5.6575  magn=  1.6467
     atom   3 (R=0.090)  charge=  5.6572  magn=  1.6527
     atom   4 (R=0.090)  charge=  5.6574  magn=  1.6563
     atom   5 (R=0.090)  charge=  5.6574  magn=  1.6598
     atom   6 (R=0.090)  charge=  5.6575  magn=  1.6536
     atom   7 (R=0.090)  charge=  5.6583  magn=  1.6499
     atom   8 (R=0.090)  charge=  5.6586  magn=  1.6471
     atom   9 (R=0.090)  charge=  5.6574  magn=  1.6512
     atom  10 (R=0.090)  charge=  5.6554  magn=  1.5902
     atom  11 (R=0.090)  charge=  5.6547  magn=  1.5894
     atom  12 (R=0.090)  charge=  5.6542  magn=  1.5936
     atom  13 (R=0.090)  charge=  5.6539  magn=  1.5947
     atom  14 (R=0.090)  charge=  5.6539  magn=  1.5907
     atom  15 (R=0.090)  charge=  5.6545  magn=  1.5926
     atom  16 (R=0.090)  charge=  5.6541  magn=  1.5855
     atom  17 (R=0.090)  charge=  5.6542  magn=  1.5920
     atom  18 (R=0.090)  charge=  5.6539  magn=  1.5887
     atom  19 (R=0.090)  charge=  5.6539  magn=  1.5916
     atom  20 (R=0.090)  charge=  5.6528  magn=  1.5988
     atom  21 (R=0.090)  charge=  5.6524  magn=  1.6032
     atom  22 (R=0.090)  charge=  5.6529  magn=  1.5798
     atom  23 (R=0.090)  charge=  5.6539  magn=  1.5755
     atom  24 (R=0.090)  charge=  5.6536  magn=  1.5833
     atom  25 (R=0.090)  charge=  5.6539  magn=  1.5486
     atom  26 (R=0.090)  charge=  5.6524  magn=  1.6033
     atom  27 (R=0.090)  charge=  5.6534  magn=  1.5813
     atom  28 (R=0.090)  charge=  5.6669  magn=  1.2680
     atom  29 (R=0.090)  charge=  5.6690  magn=  1.0127
     atom  30 (R=0.090)  charge=  5.6551  magn=  1.5290
     atom  31 (R=0.090)  charge=  5.6619  magn=  1.6164
     atom  32 (R=0.090)  charge=  5.6577  magn=  1.6833
     atom  33 (R=0.090)  charge=  5.6563  magn=  1.6812
     atom  34 (R=0.090)  charge=  5.6557  magn=  1.6800
     atom  35 (R=0.090)  charge=  5.6596  magn=  1.6755
     atom  36 (R=0.090)  charge=  5.6576  magn=  1.6717
     atom  37 (R=0.066)  charge=  1.0443  magn= -0.0197
     atom  38 (R=0.066)  charge=  2.9269  magn= -0.0417
     atom  39 (R=0.090)  charge=  0.8300  magn= -0.0147

     total cpu time spent up to now is      834.7 secs

     End of self-consistent calculation

 ------ SPIN UP ------------


          k = 0.0000 0.0000 0.0000 ( 51087 PWs)   bands (ev):

   -21.9273  -9.1375  -7.6620  -6.4945  -5.8041  -5.5858  -5.3277  -5.0306
    -4.8364  -4.8274  -4.8256  -4.8122  -4.8024  -4.7837  -4.6044  -4.3903
    -4.2959  -4.2948  -4.2720  -4.2594  -4.2464  -4.0799  -3.7824  -3.7763
    -3.7616  -3.7489  -3.7430  -3.6931  -3.6466  -3.6405  -3.6361  -3.6299
    -3.6261  -3.5685  -3.5654  -3.4465  -3.2593  -3.2551  -3.2546  -3.2507
    -3.1981  -3.1956  -3.1906  -3.1845  -3.1834  -3.1717  -3.1616  -3.1059
    -3.0244  -3.0240  -2.9575  -2.9539  -2.9497  -2.9462  -2.9250  -2.9150
    -2.9141  -2.9134  -2.8943  -2.8773  -2.8206  -2.8150  -2.8055  -2.7961
    -2.7518  -2.6029  -2.3162  -2.2794  -2.2781  -2.2751  -2.2736  -2.1703
    -2.1536  -2.1345  -2.1307  -2.1270  -2.1124  -2.1066  -2.0927  -2.0884
    -2.0583  -2.0433  -2.0415  -2.0114  -1.9973  -1.9894  -1.9732  -1.9666
    -1.9656  -1.9586  -1.9493  -1.9427  -1.9314  -1.9236  -1.9161  -1.9074
    -1.9057  -1.9053  -1.9042  -1.8989  -1.8970  -1.8925  -1.8896  -1.8781
    -1.8763  -1.8615  -1.8460  -1.8296  -1.8224  -1.7484  -1.7429  -1.6336
    -1.5623  -1.4580  -1.4553  -1.4527  -1.4485  -1.4402  -1.4334  -1.4142
    -1.4081  -1.4056  -1.3869  -1.3662  -1.3610  -1.2370  -1.2326  -1.2130
    -1.2046  -1.1594  -1.1042  -1.0603  -1.0369  -1.0345  -0.9957  -0.9827
    -0.9738  -0.9688  -0.9551  -0.9431  -0.9219  -0.9095  -0.8514  -0.8324
    -0.7521  -0.7109  -0.7099  -0.7068  -0.6973  -0.6619  -0.6519  -0.6466
    -0.6438  -0.6394  -0.6365  -0.6340  -0.6299  -0.6218  -0.6191  -0.6115
    -0.6049  -0.5954  -0.5843  -0.5805  -0.5731  -0.5680  -0.5499  -0.5434
    -0.5401  -0.5348  -0.5319  -0.5181  -0.5098  -0.5049  -0.4979  -0.4933
    -0.4905  -0.4846  -0.4674  -0.4449  -0.4370  -0.4135  -0.4108  -0.4023
    -0.4002  -0.3969  -0.3898  -0.3809  -0.3697  -0.3301  -0.3176  -0.3145
    -0.3106  -0.3086  -0.2539  -0.2480  -0.2425  -0.2318  -0.2245  -0.1948
     0.4887   0.7317

          k = 0.0000 0.2309 0.0000 ( 51134 PWs)   bands (ev):

   -21.9273  -9.1278  -7.5203  -6.3952  -5.8172  -5.6297  -5.5152  -5.3130
    -5.0873  -5.0374  -4.9402  -4.6559  -4.4864  -4.4826  -4.4599  -4.4154
    -4.3190  -4.2995  -4.2537  -4.1594  -4.1540  -4.1036  -3.8699  -3.7821
    -3.7779  -3.7070  -3.6586  -3.6519  -3.6459  -3.6294  -3.6244  -3.6178
    -3.5978  -3.5315  -3.5247  -3.5025  -3.4967  -3.4093  -3.2724  -3.2707
    -3.2498  -3.2169  -3.2147  -3.2010  -3.1942  -3.1068  -3.0804  -3.0718
    -3.0496  -3.0470  -3.0237  -2.9973  -2.9907  -2.9090  -2.9012  -2.8664
    -2.8428  -2.8390  -2.8027  -2.8009  -2.7796  -2.7447  -2.7302  -2.7239
    -2.7055  -2.5914  -2.3954  -2.3932  -2.3705  -2.3652  -2.3384  -2.2505
    -2.2396  -2.2268  -2.2214  -2.2170  -2.2063  -2.1972  -2.1725  -2.1143
    -2.0987  -2.0962  -2.0791  -2.0453  -2.0358  -2.0294  -2.0184  -2.0068
    -1.9948  -1.9911  -1.9881  -1.9826  -1.9819  -1.9695  -1.9489  -1.8996
    -1.8825  -1.8730  -1.8115  -1.8100  -1.7965  -1.7931  -1.7829  -1.7797
    -1.7724  -1.7611  -1.7524  -1.7506  -1.7432  -1.7190  -1.7172  -1.6904
    -1.6825  -1.6810  -1.6327  -1.5879  -1.5746  -1.4914  -1.4810  -1.4790
    -1.4702  -1.4484  -1.4420  -1.4325  -1.4198  -1.4109  -1.3934  -1.2860
    -1.2594  -1.2111  -1.1937  -1.1744  -1.1626  -1.1044  -1.0945  -1.0833
    -1.0723  -0.9851  -0.9710  -0.9650  -0.9521  -0.9363  -0.9090  -0.8982
    -0.8822  -0.8662  -0.8646  -0.8322  -0.8115  -0.7956  -0.7920  -0.7890
    -0.7427  -0.7088  -0.7069  -0.7033  -0.6924  -0.6799  -0.6484  -0.6357
    -0.6334  -0.6290  -0.6193  -0.6090  -0.5974  -0.5866  -0.5733  -0.5571
    -0.5282  -0.5126  -0.5001  -0.4718  -0.4501  -0.4360  -0.4146  -0.3873
    -0.3849  -0.3746  -0.3669  -0.3532  -0.3363  -0.3260  -0.3237  -0.2926
    -0.2558  -0.2538  -0.2349  -0.2162  -0.2114  -0.1982  -0.1897  -0.1638
    -0.1088  -0.0442   0.1262   0.1408   0.2308   0.2778   0.3961   0.4128
     0.4469   0.7379

          k = 0.0000 0.4619 0.0000 ( 51204 PWs)   bands (ev):

   -21.9273  -9.1125  -7.1018  -6.4579  -6.1312  -5.7174  -5.5962  -5.3310
    -5.2235  -5.1453  -5.0826  -4.7701  -4.3219  -4.3115  -4.2969  -4.2604
    -4.2044  -4.1248  -4.1190  -4.0620  -3.9909  -3.9846  -3.9798  -3.8246
    -3.8067  -3.8053  -3.7963  -3.7919  -3.7372  -3.6897  -3.6873  -3.5364
    -3.5191  -3.5124  -3.4941  -3.4797  -3.4762  -3.4202  -3.3659  -3.3607
    -3.3453  -3.3432  -3.2462  -3.1879  -3.1454  -3.1232  -3.0538  -3.0460
    -3.0056  -2.9999  -2.9660  -2.9585  -2.9429  -2.9222  -2.9028  -2.8576
    -2.8492  -2.8272  -2.7996  -2.7946  -2.6553  -2.6531  -2.6295  -2.6242
    -2.5614  -2.5354  -2.5081  -2.5008  -2.4862  -2.4192  -2.3671  -2.3627
    -2.3603  -2.3512  -2.3434  -2.3247  -2.3141  -2.2913  -2.2802  -2.2741
    -2.2343  -2.2020  -2.1844  -2.1581  -2.1433  -2.0955  -2.0787  -2.0417
    -2.0323  -2.0291  -1.9982  -1.9915  -1.9782  -1.9333  -1.9280  -1.9178
    -1.9141  -1.9003  -1.8810  -1.8549  -1.8519  -1.8381  -1.8333  -1.8221
    -1.8029  -1.7678  -1.7357  -1.7303  -1.6680  -1.6525  -1.6368  -1.6269
    -1.6082  -1.5778  -1.5467  -1.5306  -1.5197  -1.4976  -1.4958  -1.4909
    -1.4829  -1.4745  -1.4683  -1.4532  -1.4502  -1.4368  -1.4307  -1.4222
    -1.4187  -1.3552  -1.2974  -1.2944  -1.2742  -1.2505  -1.2328  -1.2248
    -1.1919  -1.1315  -1.1257  -1.1139  -1.0665  -1.0532  -1.0275  -0.9898
    -0.9680  -0.9562  -0.9359  -0.9122  -0.9071  -0.8925  -0.8687  -0.7803
    -0.7504  -0.7376  -0.7311  -0.7213  -0.7088  -0.7002  -0.6936  -0.6861
    -0.6739  -0.6512  -0.5689  -0.5594  -0.5494  -0.5455  -0.5401  -0.5253
    -0.5108  -0.5015  -0.4789  -0.4675  -0.4587  -0.4323  -0.3800  -0.3613
    -0.3567  -0.3382  -0.3255  -0.2617  -0.2570  -0.2284  -0.2263  -0.1802
    -0.1559  -0.1511  -0.1401  -0.1296  -0.1131  -0.1072  -0.1032  -0.0597
    -0.0073   0.0154   0.4989   0.5654   0.8809   1.1089   1.1291   1.3624
     1.4241   1.4995

          k = 0.2000-0.1155 0.0000 ( 51134 PWs)   bands (ev):

   -21.9273  -9.1252  -7.5220  -6.3967  -5.8505  -5.6490  -5.4598  -5.3277
    -5.0683  -5.0473  -4.9474  -4.5839  -4.5205  -4.4822  -4.4713  -4.4124
    -4.3520  -4.3060  -4.2203  -4.2043  -4.1568  -4.0368  -3.8935  -3.7816
    -3.7607  -3.7010  -3.6624  -3.6521  -3.6471  -3.6434  -3.6310  -3.6212
    -3.5750  -3.5531  -3.5279  -3.5015  -3.4978  -3.4193  -3.2940  -3.2724
    -3.2668  -3.2188  -3.2150  -3.2033  -3.1732  -3.1135  -3.0873  -3.0600
    -3.0481  -3.0435  -3.0335  -3.0032  -2.9682  -2.9091  -2.8995  -2.8787
    -2.8425  -2.8191  -2.8046  -2.7998  -2.7831  -2.7375  -2.7329  -2.7277
    -2.6774  -2.6026  -2.3984  -2.3942  -2.3634  -2.3524  -2.3382  -2.2495
    -2.2433  -2.2291  -2.2264  -2.2156  -2.2051  -2.1899  -2.1428  -2.1115
    -2.1060  -2.0972  -2.0794  -2.0461  -2.0387  -2.0289  -2.0255  -2.0071
    -2.0012  -1.9966  -1.9916  -1.9871  -1.9801  -1.9651  -1.9411  -1.8883
    -1.8797  -1.8636  -1.8213  -1.8105  -1.8007  -1.7961  -1.7874  -1.7811
    -1.7784  -1.7689  -1.7594  -1.7495  -1.7462  -1.7347  -1.7057  -1.6978
    -1.6835  -1.6715  -1.6414  -1.5983  -1.5762  -1.5278  -1.4776  -1.4737
    -1.4603  -1.4510  -1.4408  -1.4385  -1.4266  -1.3904  -1.3046  -1.2939
    -1.2578  -1.2188  -1.1987  -1.1781  -1.1582  -1.1332  -1.1001  -1.0917
    -1.0270  -1.0087  -0.9955  -0.9703  -0.9547  -0.9380  -0.9144  -0.9075
    -0.8880  -0.8679  -0.8426  -0.8212  -0.8173  -0.8046  -0.7957  -0.7838
    -0.7241  -0.7141  -0.7066  -0.7035  -0.6858  -0.6540  -0.6488  -0.6410
    -0.6320  -0.6272  -0.6223  -0.6079  -0.5981  -0.5815  -0.5769  -0.5543
    -0.5150  -0.4979  -0.4875  -0.4697  -0.4537  -0.4461  -0.4095  -0.3876
    -0.3850  -0.3767  -0.3628  -0.3565  -0.3370  -0.3276  -0.3225  -0.2879
    -0.2559  -0.2447  -0.2350  -0.2143  -0.2083  -0.1874  -0.1750  -0.1610
    -0.1175  -0.0662   0.1077   0.1366   0.1745   0.2605   0.3817   0.4093
     0.4485   0.7547

          k = 0.2000 0.1155 0.0000 ( 51134 PWs)   bands (ev):

   -21.9273  -9.1254  -7.5217  -6.3961  -5.8407  -5.6502  -5.4846  -5.3098
    -5.0716  -5.0463  -4.9442  -4.5973  -4.5148  -4.4828  -4.4735  -4.4123
    -4.3526  -4.2981  -4.2167  -4.2087  -4.1547  -4.0416  -3.8954  -3.7816
    -3.7572  -3.7023  -3.6666  -3.6519  -3.6456  -3.6436  -3.6319  -3.6160
    -3.5775  -3.5503  -3.5271  -3.5009  -3.4977  -3.4206  -3.2943  -3.2722
    -3.2678  -3.2192  -3.2150  -3.1950  -3.1797  -3.1166  -3.0862  -3.0618
    -3.0487  -3.0420  -3.0339  -2.9968  -2.9711  -2.9100  -2.9007  -2.8781
    -2.8384  -2.8222  -2.8034  -2.8006  -2.7795  -2.7393  -2.7355  -2.7252
    -2.6855  -2.6003  -2.4005  -2.3936  -2.3620  -2.3529  -2.3377  -2.2496
    -2.2444  -2.2311  -2.2230  -2.2170  -2.2044  -2.1882  -2.1546  -2.1118
    -2.1039  -2.0983  -2.0762  -2.0471  -2.0391  -2.0287  -2.0202  -2.0090
    -2.0015  -1.9956  -1.9915  -1.9854  -1.9839  -1.9674  -1.9300  -1.8922
    -1.8773  -1.8643  -1.8179  -1.8132  -1.8059  -1.7932  -1.7861  -1.7807
    -1.7783  -1.7673  -1.7623  -1.7496  -1.7452  -1.7297  -1.7057  -1.6969
    -1.6813  -1.6719  -1.6410  -1.5976  -1.5729  -1.5278  -1.4795  -1.4716
    -1.4637  -1.4488  -1.4421  -1.4363  -1.4256  -1.3951  -1.3155  -1.2892
    -1.2554  -1.2165  -1.1950  -1.1783  -1.1576  -1.1295  -1.1028  -1.0880
    -1.0319  -1.0089  -0.9947  -0.9696  -0.9570  -0.9399  -0.9148  -0.9062
    -0.8829  -0.8610  -0.8475  -0.8286  -0.8155  -0.8057  -0.7954  -0.7848
    -0.7200  -0.7156  -0.7069  -0.7038  -0.6877  -0.6557  -0.6471  -0.6380
    -0.6339  -0.6287  -0.6233  -0.6099  -0.5987  -0.5818  -0.5759  -0.5593
    -0.5138  -0.4972  -0.4902  -0.4683  -0.4565  -0.4450  -0.4087  -0.3882
    -0.3852  -0.3751  -0.3644  -0.3573  -0.3368  -0.3270  -0.3252  -0.2857
    -0.2558  -0.2478  -0.2352  -0.2147  -0.2107  -0.1900  -0.1753  -0.1615
    -0.1127  -0.0563   0.1052   0.1363   0.1681   0.2651   0.3810   0.4094
     0.4515   0.7758

          k = 0.2000 0.3464 0.0000 ( 51202 PWs)   bands (ev):

   -21.9273  -9.1131  -7.2408  -6.2491  -5.9869  -5.9329  -5.6637  -5.5025
    -5.2977  -4.9587  -4.7135  -4.6635  -4.4892  -4.4749  -4.3191  -4.2709
    -4.2597  -4.1703  -4.1653  -4.0575  -4.0357  -4.0207  -3.8971  -3.8679
    -3.8216  -3.7765  -3.6874  -3.6705  -3.6551  -3.6370  -3.6253  -3.6117
    -3.5903  -3.5808  -3.5417  -3.5173  -3.4783  -3.4357  -3.4270  -3.3836
    -3.2976  -3.2303  -3.2098  -3.1967  -3.1671  -3.1458  -3.0932  -3.0549
    -3.0145  -3.0039  -2.9719  -2.9591  -2.9554  -2.9160  -2.9076  -2.8821
    -2.8651  -2.8430  -2.7596  -2.7351  -2.6898  -2.6709  -2.6538  -2.6380
    -2.6129  -2.5751  -2.5007  -2.4333  -2.4175  -2.3909  -2.3756  -2.3485
    -2.3346  -2.3203  -2.3161  -2.2871  -2.2854  -2.2670  -2.2545  -2.2511
    -2.2337  -2.1948  -2.1568  -2.1359  -2.0682  -2.0655  -2.0365  -2.0298
    -2.0245  -1.9953  -1.9703  -1.9593  -1.9456  -1.9285  -1.9129  -1.9042
    -1.9004  -1.8883  -1.8816  -1.8653  -1.8528  -1.8422  -1.8307  -1.8146
    -1.8044  -1.8009  -1.7776  -1.7220  -1.7145  -1.6787  -1.6753  -1.6675
    -1.6631  -1.6466  -1.6090  -1.5828  -1.5669  -1.5422  -1.5399  -1.5140
    -1.5014  -1.4948  -1.4857  -1.4624  -1.4454  -1.4313  -1.4230  -1.3774
    -1.3586  -1.3276  -1.3083  -1.2576  -1.2221  -1.1921  -1.1699  -1.1094
    -1.0814  -1.0617  -1.0573  -1.0406  -1.0360  -1.0282  -1.0018  -0.9834
    -0.9724  -0.9646  -0.9446  -0.9064  -0.8938  -0.8801  -0.8577  -0.8454
    -0.8216  -0.8029  -0.7921  -0.7778  -0.7691  -0.7516  -0.6381  -0.6211
    -0.6038  -0.5837  -0.5704  -0.5626  -0.5465  -0.5405  -0.5211  -0.5133
    -0.4975  -0.4731  -0.4411  -0.4263  -0.4143  -0.3991  -0.3640  -0.3413
    -0.3339  -0.3299  -0.3261  -0.3019  -0.2956  -0.2879  -0.2744  -0.2633
    -0.2548  -0.1787  -0.1655  -0.1579  -0.1170  -0.1120  -0.1023   0.0374
     0.1249   0.2348   0.2507   0.4410   0.5149   0.6314   1.0439   1.1035
     1.2355   1.3863

          k = 0.2000-0.5774 0.0000 ( 51262 PWs)   bands (ev):

   -21.9273  -9.1056  -6.7178  -6.6870  -6.1232  -6.0045  -5.6364  -5.5407
    -5.2230  -5.1737  -4.8496  -4.6284  -4.4706  -4.2356  -4.1840  -4.0874
    -4.0553  -4.0425  -4.0224  -4.0185  -3.9710  -3.9530  -3.9404  -3.9389
    -3.9069  -3.8589  -3.7933  -3.7881  -3.7651  -3.7608  -3.7179  -3.6191
    -3.6094  -3.6029  -3.5770  -3.5268  -3.4542  -3.4426  -3.3792  -3.3142
    -3.3072  -3.2392  -3.2255  -3.2023  -3.1809  -3.1423  -3.0991  -3.0884
    -3.0614  -3.0268  -3.0139  -2.9335  -2.8925  -2.8774  -2.8632  -2.8228
    -2.8124  -2.7387  -2.7270  -2.7124  -2.7077  -2.6944  -2.6712  -2.6651
    -2.5714  -2.5228  -2.5069  -2.4914  -2.4686  -2.4363  -2.4134  -2.3695
    -2.3630  -2.3280  -2.3185  -2.3155  -2.3097  -2.2913  -2.2609  -2.2531
    -2.2415  -2.2299  -2.2081  -2.1849  -2.1814  -2.1519  -2.1043  -2.0875
    -2.0687  -2.0251  -2.0137  -1.9891  -1.9742  -1.9488  -1.9383  -1.9220
    -1.9074  -1.8966  -1.8872  -1.8775  -1.8678  -1.8442  -1.8397  -1.8178
    -1.7722  -1.7497  -1.7423  -1.7307  -1.7133  -1.7078  -1.7030  -1.6905
    -1.6806  -1.6726  -1.6603  -1.6310  -1.5936  -1.5838  -1.5737  -1.5480
    -1.4929  -1.4811  -1.4606  -1.4433  -1.4293  -1.4172  -1.3993  -1.3793
    -1.3481  -1.3277  -1.3115  -1.2737  -1.2237  -1.1885  -1.1819  -1.1680
    -1.1481  -1.1378  -1.1294  -1.0920  -1.0797  -1.0634  -1.0487  -1.0409
    -0.9906  -0.9725  -0.9576  -0.9474  -0.9301  -0.8899  -0.8766  -0.8601
    -0.8504  -0.8447  -0.8290  -0.8018  -0.7858  -0.7720  -0.7433  -0.6053
    -0.5815  -0.5729  -0.5629  -0.5465  -0.5404  -0.5294  -0.5157  -0.5001
    -0.4776  -0.4648  -0.4587  -0.4481  -0.4052  -0.3549  -0.3366  -0.3287
    -0.3184  -0.3046  -0.2891  -0.2739  -0.2372  -0.2320  -0.2243  -0.2117
    -0.2093  -0.1413  -0.1328  -0.1284  -0.1149  -0.1049  -0.0817  -0.0515
     0.1167   0.2450   0.4704   0.8519   1.0991   1.1765   1.3045   1.4917
     1.6681   1.7146

          k = 0.2000-0.3464 0.0000 ( 51202 PWs)   bands (ev):

   -21.9273  -9.1128  -7.2418  -6.2479  -6.0020  -5.9278  -5.6653  -5.4828
    -5.3044  -4.9638  -4.7288  -4.6403  -4.4875  -4.4757  -4.3233  -4.2710
    -4.2585  -4.1700  -4.1636  -4.0592  -4.0363  -4.0170  -3.8934  -3.8701
    -3.8241  -3.7775  -3.6858  -3.6715  -3.6480  -3.6387  -3.6298  -3.6167
    -3.5900  -3.5792  -3.5449  -3.5158  -3.4782  -3.4346  -3.4291  -3.3757
    -3.2919  -3.2309  -3.2117  -3.2001  -3.1713  -3.1409  -3.1083  -3.0544
    -3.0138  -3.0001  -2.9716  -2.9654  -2.9484  -2.9154  -2.9071  -2.8854
    -2.8691  -2.8409  -2.7567  -2.7333  -2.6882  -2.6690  -2.6539  -2.6364
    -2.6161  -2.5722  -2.4997  -2.4310  -2.4211  -2.3912  -2.3765  -2.3468
    -2.3322  -2.3198  -2.3168  -2.2891  -2.2820  -2.2628  -2.2573  -2.2502
    -2.2409  -2.1841  -2.1670  -2.1253  -2.0684  -2.0660  -2.0384  -2.0297
    -2.0189  -1.9968  -1.9717  -1.9618  -1.9512  -1.9295  -1.9133  -1.9042
    -1.8961  -1.8881  -1.8808  -1.8628  -1.8532  -1.8465  -1.8332  -1.8215
    -1.8062  -1.7993  -1.7700  -1.7235  -1.7180  -1.6805  -1.6729  -1.6685
    -1.6633  -1.6440  -1.6123  -1.5872  -1.5687  -1.5511  -1.5409  -1.5096
    -1.5014  -1.4947  -1.4832  -1.4616  -1.4431  -1.4317  -1.4235  -1.3751
    -1.3602  -1.3290  -1.3128  -1.2607  -1.2200  -1.1899  -1.1745  -1.1109
    -1.0836  -1.0592  -1.0496  -1.0427  -1.0359  -1.0282  -0.9968  -0.9897
    -0.9717  -0.9668  -0.9391  -0.9075  -0.8957  -0.8764  -0.8588  -0.8403
    -0.8225  -0.8012  -0.7887  -0.7788  -0.7686  -0.7524  -0.6362  -0.6187
    -0.6029  -0.5837  -0.5712  -0.5639  -0.5511  -0.5345  -0.5298  -0.5092
    -0.4975  -0.4705  -0.4353  -0.4258  -0.4152  -0.4018  -0.3652  -0.3405
    -0.3355  -0.3285  -0.3246  -0.3007  -0.2970  -0.2888  -0.2770  -0.2641
    -0.2529  -0.1777  -0.1643  -0.1594  -0.1157  -0.1107  -0.1007   0.0316
     0.1298   0.2356   0.2530   0.4257   0.5175   0.6361   1.0430   1.1042
     1.2302   1.3967

          k = 0.4000-0.2309 0.0000 ( 51204 PWs)   bands (ev):

   -21.9273  -9.1057  -7.1094  -6.4624  -6.1411  -5.8361  -5.4725  -5.3555
    -5.1951  -5.1424  -5.0549  -4.7881  -4.3566  -4.3171  -4.2910  -4.2379
    -4.1921  -4.1268  -4.1217  -4.0181  -3.9884  -3.9850  -3.9341  -3.8394
    -3.8064  -3.7999  -3.7968  -3.7880  -3.7131  -3.6909  -3.6843  -3.6544
    -3.5248  -3.5188  -3.5066  -3.4816  -3.4735  -3.4229  -3.3666  -3.3583
    -3.3501  -3.3376  -3.3186  -3.2157  -3.1401  -3.1003  -3.0455  -3.0252
    -3.0065  -2.9907  -2.9647  -2.9557  -2.9424  -2.9309  -2.9018  -2.8649
    -2.8502  -2.8283  -2.7960  -2.7450  -2.6549  -2.6410  -2.6229  -2.5979
    -2.5692  -2.5322  -2.5126  -2.5005  -2.4855  -2.4239  -2.3685  -2.3638
    -2.3568  -2.3489  -2.3427  -2.3236  -2.3134  -2.3025  -2.2779  -2.2396
    -2.2278  -2.2053  -2.1902  -2.1653  -2.1374  -2.1059  -2.0883  -2.0535
    -2.0391  -2.0328  -2.0070  -1.9877  -1.9660  -1.9337  -1.9251  -1.9165
    -1.9084  -1.8930  -1.8741  -1.8607  -1.8523  -1.8480  -1.8382  -1.8027
    -1.7991  -1.7741  -1.7416  -1.7340  -1.6686  -1.6554  -1.6249  -1.6072
    -1.6025  -1.5775  -1.5601  -1.5192  -1.5139  -1.5056  -1.5015  -1.4899
    -1.4820  -1.4736  -1.4680  -1.4613  -1.4503  -1.4379  -1.4163  -1.4017
    -1.3940  -1.3733  -1.3355  -1.2879  -1.2676  -1.2548  -1.2344  -1.2119
    -1.1923  -1.1507  -1.1239  -1.1119  -1.0947  -1.0664  -1.0423  -1.0085
    -0.9876  -0.9563  -0.9329  -0.9303  -0.9008  -0.8763  -0.8532  -0.8038
    -0.7458  -0.7315  -0.7202  -0.7066  -0.7017  -0.6944  -0.6880  -0.6762
    -0.6614  -0.6568  -0.5680  -0.5569  -0.5489  -0.5408  -0.5265  -0.5106
    -0.5088  -0.4892  -0.4764  -0.4710  -0.4526  -0.4329  -0.3742  -0.3547
    -0.3509  -0.3441  -0.3158  -0.2649  -0.2569  -0.2250  -0.2184  -0.1812
    -0.1542  -0.1396  -0.1344  -0.1148  -0.1111  -0.1052  -0.0937  -0.0701
    -0.0085   0.0108   0.3915   0.6159   0.8961   1.0429   1.1221   1.2070
     1.4468   1.5253

          k = 0.4000 0.0000 0.0000 ( 51202 PWs)   bands (ev):

   -21.9273  -9.1090  -7.2454  -6.2379  -6.0544  -5.9182  -5.6694  -5.4473
    -5.3206  -4.9228  -4.7771  -4.5922  -4.4933  -4.4888  -4.3241  -4.2731
    -4.2489  -4.1699  -4.1596  -4.1065  -4.0405  -3.9332  -3.8979  -3.8684
    -3.8190  -3.7826  -3.6893  -3.6848  -3.6459  -3.6420  -3.6292  -3.6135
    -3.5885  -3.5738  -3.5652  -3.5248  -3.4778  -3.4569  -3.4394  -3.3850
    -3.3070  -3.2648  -3.2124  -3.1817  -3.1648  -3.1489  -3.1077  -3.0511
    -3.0226  -2.9820  -2.9766  -2.9637  -2.9417  -2.9121  -2.8973  -2.8938
    -2.8748  -2.8406  -2.7664  -2.6944  -2.6915  -2.6641  -2.6372  -2.6326
    -2.6194  -2.5624  -2.4998  -2.4311  -2.4103  -2.3906  -2.3799  -2.3478
    -2.3375  -2.3236  -2.3163  -2.2976  -2.2766  -2.2689  -2.2580  -2.2466
    -2.2169  -2.1887  -2.1702  -2.1158  -2.0706  -2.0663  -2.0553  -2.0332
    -2.0107  -2.0021  -1.9682  -1.9586  -1.9524  -1.9264  -1.9055  -1.9022
    -1.8950  -1.8890  -1.8843  -1.8659  -1.8587  -1.8429  -1.8278  -1.8211
    -1.8010  -1.7682  -1.7471  -1.7245  -1.7175  -1.6985  -1.6692  -1.6629
    -1.6584  -1.6365  -1.6327  -1.5872  -1.5649  -1.5593  -1.5320  -1.5226
    -1.5087  -1.4945  -1.4860  -1.4703  -1.4574  -1.4421  -1.4281  -1.3698
    -1.3498  -1.3424  -1.3332  -1.2376  -1.2122  -1.1981  -1.1828  -1.1151
    -1.0786  -1.0673  -1.0613  -1.0422  -1.0368  -1.0212  -1.0031  -0.9966
    -0.9804  -0.9546  -0.9368  -0.8984  -0.8793  -0.8705  -0.8635  -0.8453
    -0.8177  -0.8099  -0.7911  -0.7857  -0.7682  -0.7507  -0.6339  -0.6096
    -0.5926  -0.5763  -0.5696  -0.5596  -0.5543  -0.5300  -0.5219  -0.5167
    -0.5005  -0.4744  -0.4480  -0.4291  -0.4121  -0.3949  -0.3572  -0.3401
    -0.3328  -0.3316  -0.3230  -0.3048  -0.2928  -0.2886  -0.2826  -0.2588
    -0.2510  -0.1745  -0.1651  -0.1597  -0.1214  -0.1166  -0.0842   0.0373
     0.2205   0.2331   0.2901   0.3224   0.5374   0.6086   0.9102   1.1202
     1.2157   1.4234

          k = 0.4000 0.2309 0.0000 ( 51204 PWs)   bands (ev):

   -21.9273  -9.1063  -7.1078  -6.4611  -6.1382  -5.8237  -5.5012  -5.3448
    -5.1964  -5.1432  -5.0576  -4.7843  -4.3580  -4.3147  -4.2859  -4.2383
    -4.1960  -4.1263  -4.1220  -4.0277  -3.9943  -3.9838  -3.9437  -3.8321
    -3.8058  -3.8001  -3.7972  -3.7869  -3.7128  -3.6988  -3.6802  -3.6393
    -3.5249  -3.5190  -3.5031  -3.4805  -3.4743  -3.4192  -3.3678  -3.3596
    -3.3509  -3.3347  -3.3226  -3.2192  -3.1319  -3.1103  -3.0406  -3.0280
    -2.9999  -2.9954  -2.9653  -2.9564  -2.9427  -2.9303  -2.9013  -2.8648
    -2.8510  -2.8300  -2.7915  -2.7521  -2.6530  -2.6471  -2.6255  -2.5966
    -2.5683  -2.5316  -2.5107  -2.4975  -2.4918  -2.4231  -2.3671  -2.3619
    -2.3561  -2.3525  -2.3432  -2.3229  -2.3076  -2.2997  -2.2820  -2.2451
    -2.2328  -2.2047  -2.1843  -2.1564  -2.1362  -2.1165  -2.0818  -2.0548
    -2.0409  -2.0293  -2.0084  -1.9804  -1.9725  -1.9339  -1.9276  -1.9145
    -1.9066  -1.8929  -1.8793  -1.8598  -1.8517  -1.8448  -1.8354  -1.8051
    -1.7996  -1.7639  -1.7441  -1.7328  -1.6660  -1.6574  -1.6240  -1.6189
    -1.5950  -1.5762  -1.5636  -1.5205  -1.5156  -1.5028  -1.5004  -1.4905
    -1.4817  -1.4736  -1.4680  -1.4602  -1.4477  -1.4355  -1.4186  -1.4120
    -1.3943  -1.3741  -1.3199  -1.2849  -1.2660  -1.2528  -1.2372  -1.2095
    -1.1887  -1.1523  -1.1245  -1.1116  -1.0859  -1.0708  -1.0417  -1.0167
    -0.9871  -0.9555  -0.9376  -0.9290  -0.8982  -0.8805  -0.8483  -0.8033
    -0.7600  -0.7336  -0.7139  -0.7061  -0.7001  -0.6941  -0.6853  -0.6760
    -0.6702  -0.6596  -0.5678  -0.5583  -0.5506  -0.5391  -0.5251  -0.5109
    -0.5068  -0.4893  -0.4790  -0.4680  -0.4577  -0.4337  -0.3717  -0.3546
    -0.3508  -0.3438  -0.3153  -0.2652  -0.2585  -0.2267  -0.2195  -0.1816
    -0.1523  -0.1415  -0.1350  -0.1155  -0.1107  -0.1046  -0.1001  -0.0633
    -0.0090   0.0108   0.3934   0.5935   0.9146   1.0625   1.1223   1.2212
     1.4683   1.5094

          k = 0.4000-0.6928 0.0000 ( 51262 PWs)   bands (ev):

   -21.9273  -9.1017  -6.7409  -6.6726  -6.1406  -5.9550  -5.7868  -5.4067
    -5.2182  -5.1679  -4.8834  -4.6260  -4.4675  -4.2294  -4.1855  -4.0620
    -4.0545  -4.0357  -4.0193  -4.0113  -3.9687  -3.9468  -3.9427  -3.9355
    -3.9150  -3.8382  -3.7962  -3.7898  -3.7691  -3.7572  -3.7233  -3.6286
    -3.6072  -3.6018  -3.5861  -3.5591  -3.5060  -3.4516  -3.3408  -3.3124
    -3.3090  -3.2995  -3.2143  -3.2017  -3.1787  -3.1410  -3.0946  -3.0909
    -3.0755  -3.0109  -3.0081  -2.9318  -2.8990  -2.8776  -2.8638  -2.8165
    -2.7876  -2.7360  -2.7293  -2.7240  -2.7097  -2.6959  -2.6616  -2.6299
    -2.5665  -2.5189  -2.5061  -2.4937  -2.4779  -2.4367  -2.4242  -2.3716
    -2.3550  -2.3296  -2.3245  -2.3121  -2.3029  -2.2814  -2.2529  -2.2500
    -2.2351  -2.2258  -2.2033  -2.1841  -2.1773  -2.1392  -2.1150  -2.0992
    -2.0804  -2.0728  -2.0193  -1.9846  -1.9646  -1.9393  -1.9343  -1.9235
    -1.9023  -1.8997  -1.8848  -1.8734  -1.8570  -1.8464  -1.8350  -1.7814
    -1.7623  -1.7481  -1.7393  -1.7318  -1.7140  -1.7074  -1.6985  -1.6960
    -1.6892  -1.6824  -1.6562  -1.6467  -1.6051  -1.5769  -1.5712  -1.5460
    -1.5166  -1.4921  -1.4720  -1.4357  -1.4219  -1.4152  -1.4009  -1.3727
    -1.3372  -1.3337  -1.3137  -1.2474  -1.2138  -1.2032  -1.1834  -1.1730
    -1.1426  -1.1317  -1.1253  -1.1097  -1.0956  -1.0718  -1.0488  -1.0298
    -0.9914  -0.9767  -0.9613  -0.9402  -0.9309  -0.8954  -0.8835  -0.8688
    -0.8453  -0.8424  -0.8209  -0.8047  -0.7892  -0.7683  -0.7451  -0.5933
    -0.5796  -0.5615  -0.5601  -0.5478  -0.5455  -0.5300  -0.5180  -0.4850
    -0.4819  -0.4678  -0.4606  -0.4451  -0.3981  -0.3437  -0.3392  -0.3303
    -0.3190  -0.3020  -0.2819  -0.2669  -0.2411  -0.2307  -0.2209  -0.2114
    -0.2028  -0.1849  -0.1334  -0.1285  -0.1136  -0.1047  -0.0808  -0.0516
     0.1381   0.2661   0.5266   0.8440   0.9566   1.1802   1.2288   1.5598
     1.6601   1.7164

          k = 0.4000-0.4619 0.0000 ( 51262 PWs)   bands (ev):

   -21.9273  -9.1014  -6.7474  -6.6685  -6.1418  -5.9360  -5.8201  -5.3846
    -5.2057  -5.1729  -4.8975  -4.6275  -4.4679  -4.2276  -4.1831  -4.0596
    -4.0520  -4.0317  -4.0223  -4.0009  -3.9676  -3.9485  -3.9416  -3.9368
    -3.9175  -3.8233  -3.8036  -3.7910  -3.7752  -3.7544  -3.7352  -3.6296
    -3.6095  -3.6015  -3.5838  -3.5667  -3.5065  -3.4486  -3.3369  -3.3146
    -3.3094  -3.2912  -3.2173  -3.1995  -3.1775  -3.1460  -3.0975  -3.0895
    -3.0753  -3.0178  -3.0032  -2.9324  -2.9012  -2.8762  -2.8657  -2.8121
    -2.7883  -2.7362  -2.7274  -2.7219  -2.7065  -2.7005  -2.6563  -2.6304
    -2.5673  -2.5129  -2.5077  -2.4955  -2.4794  -2.4425  -2.4229  -2.3695
    -2.3566  -2.3300  -2.3212  -2.3181  -2.2989  -2.2757  -2.2619  -2.2473
    -2.2317  -2.2263  -2.1972  -2.1874  -2.1789  -2.1483  -2.1155  -2.1007
    -2.0820  -2.0701  -2.0120  -1.9851  -1.9624  -1.9372  -1.9337  -1.9247
    -1.9029  -1.8997  -1.8925  -1.8724  -1.8536  -1.8435  -1.8370  -1.7729
    -1.7644  -1.7476  -1.7405  -1.7332  -1.7203  -1.7106  -1.7033  -1.6922
    -1.6883  -1.6831  -1.6542  -1.6485  -1.6064  -1.5784  -1.5727  -1.5466
    -1.5074  -1.4850  -1.4824  -1.4354  -1.4211  -1.4155  -1.4034  -1.3812
    -1.3379  -1.3338  -1.3093  -1.2578  -1.2074  -1.1996  -1.1873  -1.1718
    -1.1461  -1.1356  -1.1192  -1.1113  -1.0886  -1.0708  -1.0489  -1.0283
    -0.9916  -0.9846  -0.9602  -0.9444  -0.9267  -0.8942  -0.8819  -0.8663
    -0.8509  -0.8402  -0.8207  -0.8039  -0.7831  -0.7665  -0.7479  -0.5945
    -0.5778  -0.5631  -0.5552  -0.5526  -0.5417  -0.5315  -0.5163  -0.4854
    -0.4809  -0.4665  -0.4638  -0.4445  -0.4005  -0.3449  -0.3356  -0.3250
    -0.3158  -0.3013  -0.2905  -0.2548  -0.2466  -0.2322  -0.2279  -0.2097
    -0.2041  -0.1849  -0.1312  -0.1288  -0.1140  -0.1035  -0.0804  -0.0510
     0.1388   0.2681   0.5428   0.8012   0.9726   1.1788   1.2297   1.5540
     1.6707   1.7179

 ------ SPIN DOWN ----------


          k = 0.0000 0.0000 0.0000 ( 51087 PWs)   bands (ev):

   -22.0181  -9.2227  -7.7944  -6.5694  -5.7966  -5.6109  -5.3707  -4.8971
    -4.6427  -4.6303  -4.6277  -4.6081  -4.5923  -4.5738  -4.1753  -3.7620
    -3.7579  -3.7405  -3.7296  -3.7180  -3.6693  -3.3168  -2.8237  -2.8107
    -2.8025  -2.7976  -2.7340  -2.5833  -2.3608  -2.3489  -2.3439  -2.3391
    -2.3176  -2.2265  -2.1423  -2.1413  -2.0702  -2.0662  -2.0466  -2.0436
    -1.9603  -1.9567  -1.9081  -1.9050  -1.8436  -1.8237  -1.8121  -1.7968
    -1.7617  -1.7477  -1.5603  -1.5556  -1.5415  -1.5357  -1.5298  -1.5230
    -1.5076  -1.5070  -1.4759  -1.4702  -1.4396  -1.4341  -1.4303  -1.4289
    -1.3602  -1.2676  -0.9101  -0.8875  -0.8508  -0.8476  -0.7944  -0.7357
    -0.6613  -0.5881  -0.5728  -0.5477  -0.5335  -0.5261  -0.5224  -0.5097
    -0.4877  -0.4712  -0.4517  -0.4435  -0.4339  -0.4315  -0.4313  -0.3963
    -0.3754  -0.3331  -0.3218  -0.3121  -0.2984  -0.2845  -0.2748  -0.2713
    -0.2673  -0.2595  -0.2426  -0.2409  -0.2401  -0.2389  -0.2220  -0.1487
    -0.1428  -0.1213  -0.1024  -0.0665  -0.0324  -0.0279  -0.0144  -0.0110
    -0.0103  -0.0050  -0.0031   0.0495   0.0643   0.0681   0.1145   0.1390
     0.1416   0.1614   0.1669   0.2040   0.2882   0.3777   0.3826   0.4429
     0.4484   0.4631   0.4673   0.4727   0.6236   0.6920   0.7732   0.7813
     0.8179   0.8351   0.9831   1.0033   1.0177   1.0295   1.0341   1.0416
     1.0809   1.1453   1.1852   1.2049   1.2102   1.2148   1.2305   1.2471
     1.2510   1.2659   1.2787   1.2978   1.3046   1.3109   1.3219   1.3461
     1.3608   1.3636   1.3692   1.3990   1.4111   1.4158   1.4242   1.4416
     1.4467   1.4536   1.4709   1.4776   1.4869   1.4937   1.4983   1.5315
     1.5445   1.5567   1.5618   1.5710   1.5729   1.5815   1.5874   1.6237
     1.6276   1.6304   1.6352   1.6403   1.6409   1.6488   1.6576   1.6673
     1.6714   1.7156   1.7187   1.8568   1.8655   1.8675   1.8716   1.8733
     1.8754   2.0549

          k = 0.0000 0.2309 0.0000 ( 51134 PWs)   bands (ev):

   -22.0182  -9.2129  -7.6520  -6.4636  -5.8376  -5.6495  -5.5411  -5.3462
    -5.0296  -4.9776  -4.7793  -4.4758  -4.0824  -4.0789  -4.0520  -3.9558
    -3.8605  -3.7637  -3.4541  -3.4054  -3.3972  -3.2534  -2.9220  -2.8115
    -2.7823  -2.7169  -2.6928  -2.6144  -2.4335  -2.3783  -2.3746  -2.3489
    -2.3409  -2.2924  -2.2861  -2.2830  -2.2430  -2.2071  -2.1078  -2.1015
    -2.0211  -2.0172  -1.9467  -1.8652  -1.8515  -1.8284  -1.8249  -1.7063
    -1.6789  -1.6746  -1.6114  -1.5767  -1.5725  -1.5439  -1.5300  -1.5277
    -1.5157  -1.5091  -1.4152  -1.4016  -1.3895  -1.3758  -1.3342  -1.2915
    -1.2533  -1.1576  -0.9588  -0.9319  -0.9018  -0.8971  -0.8387  -0.8095
    -0.7402  -0.7187  -0.6950  -0.6667  -0.6026  -0.5832  -0.5663  -0.5511
    -0.5166  -0.5001  -0.4924  -0.4868  -0.4736  -0.4466  -0.4306  -0.4146
    -0.3945  -0.3355  -0.3213  -0.3189  -0.2936  -0.2794  -0.2590  -0.2511
    -0.2435  -0.2357  -0.2311  -0.2200  -0.2178  -0.2143  -0.1845  -0.1698
    -0.1498  -0.1346  -0.1228  -0.1157  -0.0861  -0.0786  -0.0657  -0.0406
    -0.0300  -0.0025   0.0148   0.0729   0.0865   0.1001   0.1182   0.1313
     0.2308   0.2531   0.2934   0.3406   0.3539   0.3593   0.4157   0.4231
     0.4338   0.4350   0.4478   0.4506   0.6049   0.6980   0.7621   0.7803
     0.7854   0.7983   0.8107   0.8165   0.8772   0.8854   0.9297   0.9502
     0.9919   1.0236   1.0598   1.0614   1.0862   1.1065   1.1332   1.1873
     1.2061   1.2341   1.2407   1.2427   1.2745   1.2816   1.3213   1.3272
     1.3510   1.3710   1.4130   1.4217   1.4338   1.4426   1.4605   1.4766
     1.5045   1.5219   1.5248   1.5271   1.5547   1.6099   1.6116   1.6238
     1.6283   1.6487   1.6554   1.6781   1.6895   1.6944   1.7028   1.7110
     1.7317   1.7705   1.7783   1.7922   1.7956   1.8053   1.8143   1.8328
     1.8564   1.8603   1.8642   1.8992   1.9546   1.9664   1.9670   2.0188
     2.0474   2.1107

          k = 0.0000 0.4619 0.0000 ( 51204 PWs)   bands (ev):

   -22.0182  -9.1976  -7.2281  -6.5574  -6.1828  -5.7394  -5.6453  -5.3636
    -5.2375  -5.1510  -5.0718  -4.5966  -4.1069  -4.0225  -3.8562  -3.4632
    -3.4593  -3.3966  -3.3376  -3.1730  -3.0373  -3.0178  -3.0120  -2.8632
    -2.8600  -2.7974  -2.7442  -2.7207  -2.6339  -2.6216  -2.6189  -2.5547
    -2.5472  -2.3521  -2.3385  -2.3047  -2.2546  -2.2455  -2.1343  -2.1299
    -2.1091  -2.0939  -2.0351  -1.8403  -1.8258  -1.8159  -1.7842  -1.7799
    -1.6120  -1.5998  -1.5953  -1.5793  -1.5652  -1.5384  -1.5303  -1.5116
    -1.5041  -1.4224  -1.4136  -1.3971  -1.3865  -1.3648  -1.2127  -1.1838
    -1.0825  -1.0509  -0.9555  -0.9313  -0.9141  -0.8770  -0.8656  -0.8530
    -0.8288  -0.8112  -0.7998  -0.7780  -0.7204  -0.6955  -0.6673  -0.6475
    -0.6405  -0.6129  -0.5912  -0.5718  -0.5432  -0.5330  -0.4714  -0.4510
    -0.4319  -0.3774  -0.3594  -0.3465  -0.3037  -0.2880  -0.2663  -0.2310
    -0.2210  -0.2065  -0.1878  -0.1838  -0.1721  -0.1638  -0.1268  -0.1106
    -0.1057  -0.0793  -0.0702  -0.0626  -0.0562  -0.0367  -0.0294  -0.0072
     0.0005   0.0229   0.0627   0.0914   0.1409   0.1559   0.1702   0.1950
     0.2012   0.2164   0.2386   0.2587   0.3057   0.3165   0.3324   0.3501
     0.3799   0.3989   0.4136   0.4214   0.4587   0.5219   0.5822   0.5887
     0.6699   0.6940   0.7468   0.7812   0.8355   0.8435   0.8660   0.8768
     0.9031   0.9147   0.9362   0.9777   0.9885   1.0427   1.1591   1.1720
     1.1851   1.2175   1.2259   1.2300   1.2836   1.3035   1.3347   1.3428
     1.3697   1.3864   1.3937   1.4648   1.4756   1.4782   1.5352   1.5412
     1.5459   1.5508   1.5797   1.5844   1.6168   1.6275   1.6387   1.6569
     1.6652   1.7177   1.7220   1.7685   1.7786   1.7945   1.8061   1.8184
     1.8217   1.8586   1.8596   1.8755   1.8858   1.8969   1.9058   1.9078
     1.9549   2.0121   2.0442   2.0910   2.1170   2.1869   2.5351   2.6199
     2.6492   2.7031

          k = 0.2000-0.1155 0.0000 ( 51134 PWs)   bands (ev):

   -22.0182  -9.2106  -7.6536  -6.4660  -5.8757  -5.6553  -5.4851  -5.3659
    -5.0079  -4.9895  -4.8018  -4.3710  -4.2001  -4.0789  -4.0618  -3.9561
    -3.7952  -3.7895  -3.4801  -3.4075  -3.3098  -3.2473  -2.9935  -2.8108
    -2.7657  -2.7425  -2.7007  -2.5580  -2.4766  -2.3796  -2.3727  -2.3571
    -2.3383  -2.3026  -2.2888  -2.2863  -2.2503  -2.1777  -2.1051  -2.1005
    -2.0222  -2.0156  -1.9747  -1.8638  -1.8324  -1.8256  -1.8003  -1.7031
    -1.6908  -1.6588  -1.6157  -1.5841  -1.5656  -1.5379  -1.5308  -1.5259
    -1.5154  -1.4788  -1.4342  -1.3998  -1.3902  -1.3668  -1.3402  -1.3021
    -1.2405  -1.1726  -0.9527  -0.9201  -0.9022  -0.8946  -0.8462  -0.8150
    -0.7847  -0.7259  -0.6995  -0.6564  -0.6216  -0.5777  -0.5639  -0.5481
    -0.5107  -0.5057  -0.4882  -0.4706  -0.4649  -0.4602  -0.4506  -0.4027
    -0.3751  -0.3294  -0.3206  -0.3193  -0.3043  -0.2825  -0.2630  -0.2513
    -0.2412  -0.2339  -0.2259  -0.2207  -0.2163  -0.2138  -0.1886  -0.1687
    -0.1493  -0.1370  -0.1258  -0.1091  -0.1062  -0.0928  -0.0644  -0.0391
    -0.0160  -0.0027   0.0301   0.0658   0.0808   0.0999   0.1056   0.1328
     0.2230   0.2783   0.2966   0.3382   0.3506   0.3746   0.4073   0.4173
     0.4299   0.4439   0.4477   0.4529   0.6007   0.7098   0.7636   0.7798
     0.7885   0.8001   0.8089   0.8235   0.8555   0.8696   0.9431   0.9706
     0.9972   1.0248   1.0626   1.0756   1.0995   1.1216   1.1335   1.1434
     1.2093   1.2293   1.2353   1.2563   1.2712   1.2824   1.3172   1.3274
     1.3400   1.3618   1.4088   1.4199   1.4291   1.4414   1.4619   1.4974
     1.5134   1.5200   1.5280   1.5343   1.5489   1.5922   1.6084   1.6173
     1.6246   1.6492   1.6567   1.6811   1.6931   1.6980   1.7019   1.7166
     1.7337   1.7756   1.7777   1.7950   1.7977   1.8056   1.8207   1.8349
     1.8454   1.8568   1.8626   1.8731   1.9577   1.9650   1.9717   2.0188
     2.0492   2.0951

          k = 0.2000 0.1155 0.0000 ( 51134 PWs)   bands (ev):

   -22.0182  -9.2108  -7.6533  -6.4654  -5.8663  -5.6574  -5.5054  -5.3542
    -5.0075  -4.9904  -4.7954  -4.3933  -4.1919  -4.0782  -4.0640  -3.9378
    -3.8027  -3.7883  -3.4803  -3.4040  -3.3130  -3.2574  -2.9886  -2.7941
    -2.7720  -2.7509  -2.6955  -2.5680  -2.4709  -2.3798  -2.3721  -2.3643
    -2.3353  -2.3000  -2.2886  -2.2863  -2.2432  -2.1850  -2.1051  -2.1011
    -2.0217  -2.0163  -1.9751  -1.8565  -1.8295  -1.8230  -1.8090  -1.7082
    -1.6866  -1.6637  -1.6120  -1.5815  -1.5643  -1.5422  -1.5303  -1.5234
    -1.5114  -1.4955  -1.4246  -1.4012  -1.3862  -1.3698  -1.3392  -1.3011
    -1.2501  -1.1659  -0.9510  -0.9215  -0.9012  -0.8944  -0.8525  -0.8170
    -0.7841  -0.7064  -0.6886  -0.6653  -0.6277  -0.5772  -0.5701  -0.5350
    -0.5153  -0.5010  -0.4904  -0.4778  -0.4713  -0.4523  -0.4433  -0.4088
    -0.3746  -0.3372  -0.3214  -0.3203  -0.2998  -0.2718  -0.2671  -0.2519
    -0.2421  -0.2352  -0.2267  -0.2215  -0.2173  -0.2142  -0.1827  -0.1660
    -0.1504  -0.1361  -0.1229  -0.1108  -0.1009  -0.0886  -0.0687  -0.0399
    -0.0184  -0.0048   0.0279   0.0606   0.0826   0.1038   0.1103   0.1340
     0.2161   0.2572   0.2865   0.3351   0.3467   0.3797   0.4059   0.4249
     0.4318   0.4385   0.4496   0.4528   0.6252   0.7013   0.7632   0.7796
     0.7896   0.7957   0.8093   0.8252   0.8459   0.8836   0.9442   0.9543
     0.9923   1.0416   1.0569   1.0825   1.0986   1.1201   1.1314   1.1449
     1.2114   1.2330   1.2450   1.2577   1.2728   1.2788   1.3172   1.3281
     1.3414   1.3553   1.4109   1.4181   1.4303   1.4393   1.4650   1.4961
     1.5151   1.5205   1.5238   1.5341   1.5493   1.5933   1.6072   1.6185
     1.6258   1.6490   1.6535   1.6822   1.6913   1.7000   1.7033   1.7157
     1.7335   1.7745   1.7782   1.7942   1.7960   1.8070   1.8172   1.8338
     1.8505   1.8567   1.8623   1.8800   1.9572   1.9640   1.9713   2.0234
     2.0421   2.0956

          k = 0.2000 0.3464 0.0000 ( 51202 PWs)   bands (ev):

   -22.0182  -9.1985  -7.3695  -6.3017  -6.0582  -6.0150  -5.6686  -5.5400
    -5.3408  -4.8984  -4.6306  -4.4971  -4.2615  -4.2437  -3.8685  -3.4419
    -3.4314  -3.4251  -3.4172  -3.3021  -3.1555  -3.1312  -3.1211  -2.8991
    -2.7608  -2.6941  -2.6788  -2.6231  -2.5924  -2.5753  -2.5638  -2.4802
    -2.4746  -2.4652  -2.4335  -2.3184  -2.2760  -2.2431  -2.1040  -2.0897
    -2.0678  -2.0057  -1.9674  -1.9453  -1.9209  -1.7987  -1.7435  -1.7312
    -1.6749  -1.6129  -1.5761  -1.5679  -1.5538  -1.5452  -1.5268  -1.5133
    -1.4997  -1.4733  -1.4280  -1.3926  -1.3537  -1.3007  -1.1987  -1.1713
    -1.1018  -1.0829  -0.9928  -0.9307  -0.9037  -0.8737  -0.8394  -0.8295
    -0.8051  -0.7845  -0.7467  -0.7254  -0.7107  -0.6962  -0.6639  -0.6498
    -0.6381  -0.6225  -0.6126  -0.5792  -0.5434  -0.4705  -0.4560  -0.4230
    -0.4068  -0.3922  -0.3729  -0.3470  -0.3232  -0.3120  -0.2883  -0.2817
    -0.2662  -0.2428  -0.2291  -0.2138  -0.2021  -0.1788  -0.1614  -0.1374
    -0.1299  -0.1182  -0.1088  -0.0843  -0.0712  -0.0654  -0.0527  -0.0426
     0.0333   0.0416   0.0535   0.0668   0.1138   0.1778   0.2017   0.2219
     0.2464   0.2581   0.2974   0.3268   0.3534   0.3643   0.3701   0.3796
     0.3954   0.4060   0.4405   0.4655   0.5121   0.6292   0.6655   0.6946
     0.7459   0.7707   0.7943   0.8225   0.8336   0.8450   0.8653   0.8751
     0.8897   0.9078   0.9244   0.9374   0.9777   1.0195   1.0818   1.0902
     1.1150   1.1449   1.1543   1.1819   1.1981   1.2454   1.2673   1.3117
     1.3323   1.3736   1.4544   1.4935   1.4961   1.5144   1.5299   1.5451
     1.5598   1.5739   1.5931   1.5963   1.6495   1.6624   1.6765   1.6820
     1.6940   1.7199   1.7308   1.7398   1.7558   1.7674   1.7771   1.7973
     1.8159   1.8173   1.8279   1.8432   1.8504   1.8547   1.9040   1.9342
     1.9415   1.9983   2.0472   2.0730   2.1706   2.2086   2.3766   2.4221
     2.5282   2.5446

          k = 0.2000-0.5774 0.0000 ( 51262 PWs)   bands (ev):

   -22.0182  -9.1909  -6.8267  -6.8086  -6.1989  -6.0459  -5.6620  -5.5935
    -5.2485  -5.2143  -4.8008  -4.4282  -4.3014  -3.7971  -3.4686  -3.4618
    -3.4535  -3.3810  -3.2109  -3.1405  -3.0474  -3.0421  -3.0321  -2.9121
    -2.9049  -2.8914  -2.8712  -2.8652  -2.7652  -2.6068  -2.5342  -2.5125
    -2.4916  -2.4600  -2.4390  -2.4254  -2.3475  -2.3113  -2.2303  -2.0482
    -1.9800  -1.9691  -1.9603  -1.9397  -1.8825  -1.8030  -1.7363  -1.7316
    -1.6904  -1.6799  -1.6621  -1.5777  -1.5366  -1.5114  -1.5039  -1.4947
    -1.4460  -1.3870  -1.3485  -1.3398  -1.2900  -1.2725  -1.2437  -1.1451
    -1.0966  -0.9910  -0.9627  -0.9480  -0.9267  -0.8837  -0.8734  -0.8368
    -0.8212  -0.8113  -0.7789  -0.7460  -0.7190  -0.6902  -0.6819  -0.6660
    -0.6437  -0.6270  -0.6141  -0.6024  -0.5908  -0.5792  -0.5398  -0.5269
    -0.5117  -0.4782  -0.4547  -0.4286  -0.3922  -0.3607  -0.3357  -0.3214
    -0.2936  -0.2421  -0.2207  -0.1971  -0.1846  -0.1686  -0.1617  -0.1293
    -0.1050  -0.0894  -0.0595  -0.0427  -0.0162  -0.0124   0.0328   0.0772
     0.0913   0.1126   0.1222   0.1318   0.1501   0.1757   0.2251   0.2356
     0.2377   0.2649   0.2964   0.3093   0.3273   0.3469   0.3753   0.3976
[...]
     atom    8 type  1   force =     0.00273358   -0.00257046   -0.10485503
     atom    9 type  1   force =    -0.00154792   -0.00068613   -0.10229684
     atom   10 type  1   force =    -0.00074731    0.00008810   -0.01141047
     atom   11 type  1   force =    -0.00036933    0.00088946   -0.00766730
     atom   12 type  1   force =     0.00140768    0.00126771   -0.00951366
     atom   13 type  1   force =     0.00197747   -0.00138515   -0.01052188
     atom   14 type  1   force =    -0.00113310   -0.00257992   -0.01185428
     atom   15 type  1   force =    -0.00062657   -0.00025116   -0.01324597
     atom   16 type  1   force =    -0.00123516    0.00094013   -0.01677659
     atom   17 type  1   force =     0.00318134    0.00043669   -0.01186615
     atom   18 type  1   force =    -0.00165162    0.00030031   -0.01336505
     atom   19 type  1   force =    -0.00094640    0.00807246    0.01140069
     atom   20 type  1   force =    -0.00001829    0.01267633   -0.00025445
     atom   21 type  1   force =     0.00081123    0.00409025    0.01349248
     atom   22 type  1   force =     0.00047196   -0.00047213    0.01420696
     atom   23 type  1   force =    -0.00028295   -0.00057785    0.01903247
     atom   24 type  1   force =    -0.00071459   -0.00066613    0.01457039
     atom   25 type  1   force =    -0.00161964   -0.00459681   -0.00064175
     atom   26 type  1   force =    -0.00148693   -0.00834138   -0.00135177
     atom   27 type  1   force =     0.00381605   -0.00609938    0.00445705
     atom   28 type  1   force =     0.05175111    0.01052290    0.08446259
     atom   29 type  1   force =    -0.06530743    0.00716839    0.05184745
     atom   30 type  1   force =     0.01636735   -0.00016298    0.06316380
     atom   31 type  1   force =     0.00218980   -0.04371415    0.14000087
     atom   32 type  1   force =    -0.00242030   -0.01958290    0.12932118
     atom   33 type  1   force =     0.00129815    0.00108159    0.11162185
     atom   34 type  1   force =    -0.00183965   -0.00243713    0.11286385
     atom   35 type  1   force =     0.00399640    0.02979142    0.13721030
     atom   36 type  1   force =    -0.00044856    0.02458881    0.12844942
     atom   37 type  2   force =    -0.01580596    0.05611407    0.43749837
     atom   38 type  3   force =     0.14703519   -0.13046822   -2.70496409
     atom   39 type  4   force =    -0.00143821    0.00078196   -0.02333923
     The ionic contribution  to forces
     atom    1 type  1   force =    -0.00670881    0.00676855 -111.12780706
     atom    2 type  1   force =     0.00546178    0.00796506 -111.13026937
     atom    3 type  1   force =     0.00124701    0.00355769 -111.11693288
     atom    4 type  1   force =     0.00040354    0.00366224 -111.11601858
     atom    5 type  1   force =    -0.00043730   -0.00260372 -111.11605541
     atom    6 type  1   force =     0.00003376   -0.00425676 -111.11683786
     atom    7 type  1   force =    -0.00545936   -0.00363836 -111.12098673
     atom    8 type  1   force =    -0.00164249   -0.00731404 -111.13526969
     atom    9 type  1   force =     0.00710186   -0.00414070 -111.12430854
     atom   10 type  1   force =    -0.05761740   -0.01155071  -40.15767760
     atom   11 type  1   force =     0.04494853   -0.01071284  -40.18217869
     atom   12 type  1   force =     0.01266637   -0.00334238  -40.06903013
     atom   13 type  1   force =    -0.00509257    0.07061148  -40.11642801
     atom   14 type  1   force =     0.03311455    0.03539563  -40.05966215
     atom   15 type  1   force =    -0.02802119    0.02448948  -40.04920643
     atom   16 type  1   force =    -0.01493489   -0.01425643  -40.04170410
     atom   17 type  1   force =    -0.00639399   -0.06605322  -40.08501997
     atom   18 type  1   force =     0.02132967   -0.02458231  -40.05479868
     atom   19 type  1   force =    -0.35469426    0.35372878   31.12825311
     atom   20 type  1   force =     0.28946771    0.42183233   31.02625853
     atom   21 type  1   force =     0.06499694    0.16359025   31.65508066
     atom   22 type  1   force =     0.01910942    0.16354589   31.69933251
     atom   23 type  1   force =    -0.02496049   -0.12180854   31.70032303
     atom   24 type  1   force =     0.00582969   -0.19186764   31.67403243
     atom   25 type  1   force =    -0.26307980   -0.16909119   31.48711343
     atom   26 type  1   force =    -0.07696069   -0.41282137   30.71963793
     atom   27 type  1   force =     0.34046632   -0.21221083   31.28998234
     atom   28 type  1   force =    -4.42650975   -0.89579022   99.17157223
     atom   29 type  1   force =     3.13753053   -0.78094934   98.26628344
     atom   30 type  1   force =     1.17422201   -0.02749434  103.44474404
     atom   31 type  1   force =    -0.08936975    3.57191692  101.99922693
     atom   32 type  1   force =     1.04653019    1.25782617  104.04898171
     atom   33 type  1   force =    -0.95148458    0.81191690  104.20094961
     atom   34 type  1   force =    -0.47090264   -0.46276788  104.39071569
     atom   35 type  1   force =    -0.13831065   -2.64148542  103.28264127
     atom   36 type  1   force =     0.61381747   -0.98343889  104.15057311
     atom   37 type  2   force =     0.22500205   -0.25158339   51.06665257
     atom   38 type  3   force =    -0.69862202    0.52213547   89.37841413
     atom   39 type  4   force =     0.57792323   -0.11518231   15.13942318
     The local contribution  to forces
     atom    1 type  1   force =     0.00810122   -0.00899056  111.23050213
     atom    2 type  1   force =    -0.00548069   -0.01008753  111.23885051
     atom    3 type  1   force =    -0.00257319   -0.00398490  111.22284771
     atom    4 type  1   force =    -0.00097576   -0.00237316  111.22185837
     atom    5 type  1   force =     0.00024275    0.00233156  111.22085495
     atom    6 type  1   force =     0.00046877    0.00267128  111.22512305
     atom    7 type  1   force =     0.00697777    0.00433935  111.22835047
     atom    8 type  1   force =    -0.00158810    0.01116720  111.24400212
     atom    9 type  1   force =    -0.00548769    0.00596668  111.22988114
     atom   10 type  1   force =     0.05797113    0.01026405   40.14821661
     atom   11 type  1   force =    -0.04371702    0.00960795   40.16724000
     atom   12 type  1   force =    -0.01424540    0.00133949   40.05939389
     atom   13 type  1   force =     0.00283043   -0.06917786   40.10945663
     atom   14 type  1   force =    -0.03223903   -0.03215804   40.05191998
     atom   15 type  1   force =     0.02946987   -0.02289933   40.04116013
     atom   16 type  1   force =     0.01587001    0.01397177   40.03805385
     atom   17 type  1   force =     0.00315471    0.06417697   40.07980387
     atom   18 type  1   force =    -0.01887197    0.02480122   40.04792449
     atom   19 type  1   force =     0.35566093   -0.35983523  -31.12139325
     atom   20 type  1   force =    -0.29036565   -0.43193361  -31.01005309
     atom   21 type  1   force =    -0.06496574   -0.16734535  -31.64714799
     atom   22 type  1   force =    -0.02073695   -0.16478552  -31.68933340
     atom   23 type  1   force =     0.02502649    0.12103874  -31.69659552
     atom   24 type  1   force =    -0.00455384    0.19149672  -31.66877367
     atom   25 type  1   force =     0.26414233    0.17350995  -31.47326179
     atom   26 type  1   force =     0.07833440    0.42146750  -30.70193860
     atom   27 type  1   force =    -0.34491665    0.21745673  -31.28167521
     atom   28 type  1   force =     4.35785119    0.88428236  -99.25772410
     atom   29 type  1   force =    -3.07076040    0.77417031  -98.30157249
     atom   30 type  1   force =    -1.17832524    0.02814930 -103.51355038
     atom   31 type  1   force =     0.08440650   -3.51894193 -102.14478001
     atom   32 type  1   force =    -1.03939626   -1.23016969 -104.18781901
     atom   33 type  1   force =     0.94758586   -0.81040477 -104.32330886
     atom   34 type  1   force =     0.47409975    0.46445054 -104.50999087
     atom   35 type  1   force =     0.13150103    2.59973834 -103.42707477
     atom   36 type  1   force =    -0.61089803    0.95331831 -104.28414589
     atom   37 type  2   force =    -0.20962722    0.19653017  -51.48841072
     atom   38 type  3   force =     0.55530555   -0.39193225  -86.70644539
     atom   39 type  4   force =    -0.57253194    0.11164824  -15.12168334
     The core correction contribution to forces
     atom    1 type  1   force =     0.00001155   -0.00019021    0.00964023
     atom    2 type  1   force =    -0.00003063   -0.00029729    0.01010681
     atom    3 type  1   force =     0.00014890   -0.00005956    0.00984691
     atom    4 type  1   force =     0.00005866    0.00005294    0.01015085
     atom    5 type  1   force =     0.00019680    0.00007661    0.01004339
     atom    6 type  1   force =     0.00007335   -0.00004963    0.00990749
     atom    7 type  1   force =    -0.00005194    0.00023782    0.01029074
     atom    8 type  1   force =    -0.00003083    0.00043069    0.00999289
     atom    9 type  1   force =    -0.00002058    0.00016522    0.01016407
     atom   10 type  1   force =     0.00018072    0.00029447   -0.00188067
     atom   11 type  1   force =    -0.00001598    0.00011939   -0.00148020
     atom   12 type  1   force =    -0.00024762    0.00007467   -0.00170077
     atom   13 type  1   force =    -0.00046969   -0.00018905   -0.00193912
     atom   14 type  1   force =     0.00017590    0.00020147   -0.00201046
     atom   15 type  1   force =     0.00021202   -0.00002829   -0.00164804
     atom   16 type  1   force =     0.00014160   -0.00011433   -0.00184479
     atom   17 type  1   force =    -0.00028498   -0.00012611   -0.00209696
     atom   18 type  1   force =    -0.00002979   -0.00008375   -0.00170834
     atom   19 type  1   force =    -0.00025022    0.00031384    0.00132427
     atom   20 type  1   force =    -0.00020158    0.00059413    0.00036395
     atom   21 type  1   force =     0.00053345    0.00019040    0.00180214
     atom   22 type  1   force =     0.00009057   -0.00003083    0.00221192
     atom   23 type  1   force =    -0.00014974    0.00009281    0.00180412
     atom   24 type  1   force =     0.00018709   -0.00056160    0.00128828
     atom   25 type  1   force =     0.00042902   -0.00020227    0.00153046
     atom   26 type  1   force =    -0.00106464   -0.00097790    0.00041475
     atom   27 type  1   force =     0.00078221   -0.00021784    0.00155278
     atom   28 type  1   force =     0.01097608    0.00219662   -0.00552234
     atom   29 type  1   force =    -0.00262181    0.00163247    0.00107592
     atom   30 type  1   force =    -0.01024415   -0.00073700   -0.00532814
     atom   31 type  1   force =    -0.00013935   -0.00828502   -0.00637929
     atom   32 type  1   force =    -0.00130382   -0.00512854   -0.00752605
     atom   33 type  1   force =     0.00111027   -0.00186833   -0.00990866
     atom   34 type  1   force =     0.00013271    0.00086835   -0.00948491
     atom   35 type  1   force =     0.00022423    0.00568918   -0.00732751
     atom   36 type  1   force =    -0.00034868    0.00640552   -0.00690507
     atom   37 type  2   force =    -0.00037893   -0.00092382   -0.00247291
     atom   38 type  3   force =    -0.00109925    0.00093403    0.01976903
     atom   39 type  4   force =     0.00000000    0.00000000    0.00000000
     The Hubbard contrib.    to forces
     atom    1 type  1   force =     0.00000000    0.00000000    0.00000000
     atom    2 type  1   force =     0.00000000    0.00000000    0.00000000
     atom    3 type  1   force =     0.00000000    0.00000000    0.00000000
     atom    4 type  1   force =     0.00000000    0.00000000    0.00000000
     atom    5 type  1   force =     0.00000000    0.00000000    0.00000000
     atom    6 type  1   force =     0.00000000    0.00000000    0.00000000
     atom    7 type  1   force =     0.00000000    0.00000000    0.00000000
     atom    8 type  1   force =     0.00000000    0.00000000    0.00000000
     atom    9 type  1   force =     0.00000000    0.00000000    0.00000000
     atom   10 type  1   force =     0.00000000    0.00000000    0.00000000
     atom   11 type  1   force =     0.00000000    0.00000000    0.00000000
     atom   12 type  1   force =     0.00000000    0.00000000    0.00000000
     atom   13 type  1   force =     0.00000000    0.00000000    0.00000000
     atom   14 type  1   force =     0.00000000    0.00000000    0.00000000
     atom   15 type  1   force =     0.00000000    0.00000000    0.00000000
     atom   16 type  1   force =     0.00000000    0.00000000    0.00000000
     atom   17 type  1   force =     0.00000000    0.00000000    0.00000000
     atom   18 type  1   force =     0.00000000    0.00000000    0.00000000
     atom   19 type  1   force =     0.00000000    0.00000000    0.00000000
     atom   20 type  1   force =     0.00000000    0.00000000    0.00000000
     atom   21 type  1   force =     0.00000000    0.00000000    0.00000000
     atom   22 type  1   force =     0.00000000    0.00000000    0.00000000
     atom   23 type  1   force =     0.00000000    0.00000000    0.00000000
     atom   24 type  1   force =     0.00000000    0.00000000    0.00000000
     atom   25 type  1   force =     0.00000000    0.00000000    0.00000000
     atom   26 type  1   force =     0.00000000    0.00000000    0.00000000
     atom   27 type  1   force =     0.00000000    0.00000000    0.00000000
     atom   28 type  1   force =     0.00000000    0.00000000    0.00000000
     atom   29 type  1   force =     0.00000000    0.00000000    0.00000000
     atom   30 type  1   force =     0.00000000    0.00000000    0.00000000
     atom   31 type  1   force =     0.00000000    0.00000000    0.00000000
     atom   32 type  1   force =     0.00000000    0.00000000    0.00000000
     atom   33 type  1   force =     0.00000000    0.00000000    0.00000000
     atom   34 type  1   force =     0.00000000    0.00000000    0.00000000
     atom   35 type  1   force =     0.00000000    0.00000000    0.00000000
     atom   36 type  1   force =     0.00000000    0.00000000    0.00000000
     atom   37 type  2   force =     0.00000000    0.00000000    0.00000000
     atom   38 type  3   force =     0.00000000    0.00000000    0.00000000
     atom   39 type  4   force =     0.00000000    0.00000000    0.00000000
     The SCF correction term to forces
     atom    1 type  1   force =     0.00000000    0.00000000    0.00000000
     atom    2 type  1   force =     0.00000000   -0.00000000    0.00000000
     atom    3 type  1   force =    -0.00000000    0.00000000    0.00000000
     atom    4 type  1   force =     0.00000000    0.00000000    0.00000000
     atom    5 type  1   force =     0.00000000   -0.00000000    0.00000000
     atom    6 type  1   force =    -0.00000000    0.00000000    0.00000000
     atom    7 type  1   force =    -0.00000000   -0.00000000    0.00000000
     atom    8 type  1   force =     0.00000000   -0.00000000    0.00000000
     atom    9 type  1   force =    -0.00000000    0.00000000    0.00000000
     atom   10 type  1   force =     0.00000000   -0.00000000    0.00000000
     atom   11 type  1   force =     0.00000000    0.00000000    0.00000000
     atom   12 type  1   force =    -0.00000000   -0.00000000    0.00000000
     atom   13 type  1   force =     0.00000000   -0.00000000    0.00000000
     atom   14 type  1   force =    -0.00000000   -0.00000000    0.00000000
     atom   15 type  1   force =    -0.00000000    0.00000000    0.00000000
     atom   16 type  1   force =     0.00000000   -0.00000000    0.00000000
     atom   17 type  1   force =    -0.00000000    0.00000000    0.00000000
     atom   18 type  1   force =    -0.00000000    0.00000000    0.00000000
     atom   19 type  1   force =     0.00000000   -0.00000000    0.00000000
     atom   20 type  1   force =     0.00000000   -0.00000000   -0.00000000
     atom   21 type  1   force =    -0.00000000   -0.00000000   -0.00000000
     atom   22 type  1   force =     0.00000000    0.00000000   -0.00000000
     atom   23 type  1   force =     0.00000000    0.00000000   -0.00000000
     atom   24 type  1   force =    -0.00000000    0.00000000   -0.00000000
     atom   25 type  1   force =     0.00000000    0.00000000    0.00000000
     atom   26 type  1   force =     0.00000000    0.00000000    0.00000000
     atom   27 type  1   force =    -0.00000000    0.00000000    0.00000000
     atom   28 type  1   force =     0.00000000   -0.00000000   -0.00000000
     atom   29 type  1   force =    -0.00000000   -0.00000000   -0.00000000
     atom   30 type  1   force =     0.00000000   -0.00000000   -0.00000000
     atom   31 type  1   force =    -0.00000000   -0.00000000   -0.00000000
     atom   32 type  1   force =    -0.00000000   -0.00000000   -0.00000000
     atom   33 type  1   force =     0.00000000   -0.00000000   -0.00000000
     atom   34 type  1   force =     0.00000000    0.00000000   -0.00000000
     atom   35 type  1   force =    -0.00000000    0.00000000   -0.00000000
     atom   36 type  1   force =    -0.00000000    0.00000000   -0.00000000
     atom   37 type  2   force =    -0.00000412   -0.00000945   -0.00001261
     atom   38 type  3   force =    -0.00000053   -0.00000530   -0.00002058
     atom   39 type  4   force =    -0.00000219   -0.00000056   -0.00000223

     Total force =     0.020340     Total SCF correction =     0.000027

     Writing all to output data dir ./pwscf.save/

     init_run     :     11.47s CPU     11.92s WALL (       1 calls)
     electrons    :    811.02s CPU    822.60s WALL (       1 calls)
     forces       :      3.39s CPU      3.49s WALL (       1 calls)

     Called by init_run:
     wfcinit      :      8.36s CPU      8.70s WALL (       1 calls)
     potinit      :      1.99s CPU      2.08s WALL (       1 calls)
     hinit0       :      0.86s CPU      0.87s WALL (       1 calls)

     Called by electrons:
     c_bands      :    687.37s CPU    696.61s WALL (      51 calls)
     sum_band     :     81.34s CPU     82.63s WALL (      51 calls)
     v_of_rho     :      9.00s CPU      9.38s WALL (      52 calls)
     newd         :      3.15s CPU      3.20s WALL (      52 calls)
     PAW_pot      :     13.37s CPU     13.54s WALL (      52 calls)
     mix_rho      :     17.94s CPU     18.24s WALL (      51 calls)
     vdW_kernel   :      1.11s CPU      1.11s WALL (       1 calls)

     Called by c_bands:
     init_us_2    :      8.79s CPU      8.94s WALL (    2704 calls)
     init_us_2:cp :      8.78s CPU      8.93s WALL (    2704 calls)
     cegterg      :    664.24s CPU    672.85s WALL (    1326 calls)

     Called by *egterg:
     cdiaghg      :    212.52s CPU    214.21s WALL (    4928 calls)
     h_psi        :    292.88s CPU    297.87s WALL (    4954 calls)
     s_psi        :     38.01s CPU     38.53s WALL (    4954 calls)
     g_psi        :      0.97s CPU      1.00s WALL (    3602 calls)

     Called by h_psi:
     h_psi:calbec :     51.92s CPU     52.86s WALL (    4954 calls)
     vloc_psi     :    199.97s CPU    203.44s WALL (    4954 calls)
     add_vuspsi   :     38.56s CPU     39.10s WALL (    4954 calls)

     General routines
     calbec       :     76.12s CPU     77.36s WALL (    6384 calls)
     fft          :      6.02s CPU      6.41s WALL (    4705 calls)
     ffts         :     10.98s CPU     11.17s WALL (   23248 calls)
     fftw         :    226.08s CPU    229.98s WALL ( 1382416 calls)
     interpolate  :      0.56s CPU      0.57s WALL (     104 calls)

     Parallel routines

     PWSCF        :  13m52.27s CPU  14m 9.59s WALL


   This run was terminated on:   5:49:19  11Dec2025            

=------------------------------------------------------------------------------=
   JOB DONE.
=------------------------------------------------------------------------------=
