
     Program PWSCF v.7.1 starts on  2Mar2025 at  3:20: 0 
        Git branch: heads/qe-7.1
        Last git commit: 48ba0178f8fede6d020eb786884699a9f063f55d-dirty
        Last git commit date: Fri Jan 27 14:22:33 2023 +0000
        Last git commit subject: Merge branch 'fix_hubbard' into 'develop'

     This program is part of the open-source Quantum ESPRESSO suite
     for quantum simulation of materials; please cite
         "P. Giannozzi et al., J. Phys.:Condens. Matter 21 395502 (2009);
         "P. Giannozzi et al., J. Phys.:Condens. Matter 29 465901 (2017);
         "P. Giannozzi et al., J. Chem. Phys. 152 154105 (2020);
          URL http://www.quantum-espresso.org", 
     in publications or presentations arising from this work. More details at
     http://www.quantum-espresso.org/quote

     Parallel version (MPI), running on    48 processors

     MPI processes distributed on     1 nodes
     248355 MiB available memory on the printing compute node when the environment starts

     Reading input from espresso.pwi
Warning: card &CELL ignored
Warning: card / ignored
Warning: card &FCP ignored
Warning: card / ignored
Warning: card &RISM ignored
Warning: card / ignored

     Current dimensions of program PWSCF are:
     Max number of different atomic species (ntypx) = 10
     Max number of k-points (npk) =  40000
     Max angular momentum in pseudopotentials (lmaxx) =  4
     file Pt.pbe-n-kjpaw_psl.1.0.0.UPF: wavefunction(s)  6S 5D renormalized
     file C.pbe-n-kjpaw_psl.1.0.0.UPF: wavefunction(s)  2S 2P renormalized
     file H.pbe-kjpaw_psl.1.0.0.UPF: wavefunction(s)  1S renormalized

     **************************************************************************
     Initializing libbeef V0.1.2 with the BEEF-vdW functional.
     Citation: Wellendorff et al., PRB 85, 235149 (2012).
     **************************************************************************


     IMPORTANT: XC functional enforced from input :
     Exchange-correlation= BEEF-VDW
                           (   1   4  43  14   2   0   0)
     Any further DFT definition will be discarded
     Please, verify this is what you really want


     R & G space division:  proc/nbgrp/npool/nimage =      48
     Subspace diagonalization in iterative solution of the eigenvalue problem:
     one sub-group per band group will be used
     custom distributed-memory algorithm (size of sub-group:  2*  2 procs)


     Parallelization info
     --------------------
     sticks:   dense  smooth     PW     G-vecs:    dense   smooth      PW
     Min         151      59     16                29407     7165    1028
     Max         152      60     17                29420     7176    1042
     Sum        7267    2839    769              1411785   344073   49691

     Using Slab Decomposition



     bravais-lattice index     =            0
     lattice parameter (alat)  =      16.0349  a.u.
     unit-cell volume          =   10068.6169 (a.u.)^3
     number of atoms/cell      =           38
     number of atomic types    =            3
     number of electrons       =       365.00
     number of Kohn-Sham states=          220
     kinetic-energy cutoff     =      40.0000  Ry
     charge density cutoff     =     410.0000  Ry
     scf convergence threshold =      1.0E-08
     mixing beta               =       0.7000
     number of iterations used =            8  local-TF  mixing
     Exchange-correlation= BEEF-VDW
                           (   1   4  43  14   2   0   0)

     celldm(1)=  16.034858  celldm(2)=   0.000000  celldm(3)=   0.000000
     celldm(4)=   0.000000  celldm(5)=   0.000000  celldm(6)=   0.000000

     crystal axes: (cart. coord. in units of alat)
               a(1) = (   1.000000   0.000000   0.000000 )  
               a(2) = (   0.500000   0.866025   0.000000 )  
               a(3) = (   0.000000   0.000000   2.819966 )  

     reciprocal axes: (cart. coord. in units 2 pi/alat)
               b(1) = (  1.000000 -0.577350  0.000000 )  
               b(2) = (  0.000000  1.154701  0.000000 )  
               b(3) = (  0.000000  0.000000  0.354614 )  


     PseudoPot. # 1 for Pt read from file:
     /users/kbadger1/espresso/pseudo/pslibrary.1.0.0/pbe/PSEUDOPOTENTIALS/Pt.pbe-n-kjpaw_psl.1.0.0.UPF
     MD5 check sum: 2e24a0b5bf98a4ed1a57fa81bca8c143
     Pseudo is Projector augmented-wave + core cor, Zval = 10.0
     Generated using 'atomic' code by A. Dal Corso  v.7.0
     Shape of augmentation charge: PSQ
     Using radial grid of 1277 points,  6 beta functions with: 
                l(1) =   0
                l(2) =   0
                l(3) =   1
                l(4) =   1
                l(5) =   2
                l(6) =   2
     Q(r) pseudized with 0 coefficients 


     PseudoPot. # 2 for C  read from file:
     /users/kbadger1/espresso/pseudo/pslibrary.1.0.0/pbe/PSEUDOPOTENTIALS/C.pbe-n-kjpaw_psl.1.0.0.UPF
     MD5 check sum: 6408e75cdba28732cea38a4db8498ce4
     Pseudo is Projector augmented-wave + core cor, Zval =  4.0
     Generated using 'atomic' code by A. Dal Corso  v.7.0
     Shape of augmentation charge: PSQ
     Using radial grid of 1073 points,  4 beta functions with: 
                l(1) =   0
                l(2) =   0
                l(3) =   1
                l(4) =   1
     Q(r) pseudized with 0 coefficients 


     PseudoPot. # 3 for H  read from file:
     /users/kbadger1/espresso/pseudo/pslibrary.1.0.0/pbe/PSEUDOPOTENTIALS/H.pbe-kjpaw_psl.1.0.0.UPF
     MD5 check sum: fe4c6fa958fa6d3815bf5d2419cbf1df
     Pseudo is Projector augmented-wave, Zval =  1.0
     Generated using 'atomic' code by A. Dal Corso  v.7.0
     Shape of augmentation charge: PSQ
     Using radial grid of  929 points,  2 beta functions with: 
                l(1) =   0
                l(2) =   0
     Q(r) pseudized with 0 coefficients 


     atomic species   valence    mass     pseudopotential
        Pt            10.00   195.08400     Pt( 1.00)
        C              4.00    12.01100     C ( 1.00)
        H              1.00     1.00800     H ( 1.00)

     No symmetry found



   Cartesian axes

     site n.     atom                  positions (alat units)
         1           Pt  tau(   1) = (   0.0000000   0.0000000   1.0017346  )
         2           Pt  tau(   2) = (   0.3333333   0.0000000   1.0017346  )
         3           Pt  tau(   3) = (   0.6666667   0.0000000   1.0017346  )
         4           Pt  tau(   4) = (   0.1666667   0.2886751   1.0017346  )
         5           Pt  tau(   5) = (   0.5000000   0.2886751   1.0017346  )
         6           Pt  tau(   6) = (   0.8333333   0.2886751   1.0017346  )
         7           Pt  tau(   7) = (   0.3333333   0.5773503   1.0017346  )
         8           Pt  tau(   8) = (   0.6666667   0.5773503   1.0017346  )
         9           Pt  tau(   9) = (   1.0000000   0.5773503   1.0017346  )
        10           Pt  tau(  10) = (   0.1666667   0.0962250   1.2739001  )
        11           Pt  tau(  11) = (   0.5000000   0.0962250   1.2739001  )
        12           Pt  tau(  12) = (   0.8333333   0.0962250   1.2739001  )
        13           Pt  tau(  13) = (   0.3333333   0.3849002   1.2739001  )
        14           Pt  tau(  14) = (   0.6666667   0.3849002   1.2739001  )
        15           Pt  tau(  15) = (   1.0000000   0.3849002   1.2739001  )
        16           Pt  tau(  16) = (   0.5000000   0.6735753   1.2739001  )
        17           Pt  tau(  17) = (   0.8333333   0.6735753   1.2739001  )
        18           Pt  tau(  18) = (   1.1666667   0.6735753   1.2739001  )
        19           Pt  tau(  19) = (   0.0007684   0.1943731   1.5447540  )
        20           Pt  tau(  20) = (   0.3327914   0.1943727   1.5447555  )
        21           Pt  tau(  21) = (   0.6667739   0.1947294   1.5415711  )
        22           Pt  tau(  22) = (   0.1667749   0.4847584   1.5426769  )
        23           Pt  tau(  23) = (   0.4996648   0.4838991   1.5418554  )
        24           Pt  tau(  24) = (   0.8338844   0.4839002   1.5418517  )
        25           Pt  tau(  25) = (   0.3352606   0.7740095   1.5453255  )
        26           Pt  tau(  26) = (   0.6667811   0.7734643   1.5454628  )
        27           Pt  tau(  27) = (   0.9982899   0.7740133   1.5453413  )
        28           Pt  tau(  28) = (  -0.0058363   0.0046162   1.8327969  )
        29           Pt  tau(  29) = (   0.3396149   0.0046054   1.8328430  )
        30           Pt  tau(  30) = (   0.6668881   0.0071092   1.8177975  )
        31           Pt  tau(  31) = (   0.1668963   0.3144991   1.8189399  )
        32           Pt  tau(  32) = (   0.5038338   0.2972477   1.8149517  )
        33           Pt  tau(  33) = (   0.8299481   0.2972522   1.8149393  )
        34           Pt  tau(  34) = (   0.3353953   0.5874350   1.8182330  )
        35           Pt  tau(  35) = (   0.6668945   0.5803817   1.8153028  )
        36           Pt  tau(  36) = (   0.9984014   0.5874339   1.8182272  )
        37           C   tau(  37) = (   0.1668749   0.1137909   1.9444170  )
        38           H   tau(  38) = (   0.1669050   0.2092446   2.0384556  )

     number of k points=    13  Marzari-Vanderbilt smearing, width (Ry)=  0.0200
                       cart. coord. in units 2pi/alat
        k(    1) = (   0.0000000   0.0000000   0.0000000), wk =   0.0800000
        k(    2) = (   0.0000000   0.2309401   0.0000000), wk =   0.1600000
        k(    3) = (   0.0000000   0.4618802   0.0000000), wk =   0.1600000
        k(    4) = (   0.2000000  -0.1154701   0.0000000), wk =   0.1600000
        k(    5) = (   0.2000000   0.1154701   0.0000000), wk =   0.1600000
        k(    6) = (   0.2000000   0.3464102   0.0000000), wk =   0.1600000
        k(    7) = (   0.2000000  -0.5773503   0.0000000), wk =   0.1600000
        k(    8) = (   0.2000000  -0.3464102   0.0000000), wk =   0.1600000
        k(    9) = (   0.4000000  -0.2309401   0.0000000), wk =   0.1600000
        k(   10) = (   0.4000000  -0.0000000   0.0000000), wk =   0.1600000
        k(   11) = (   0.4000000   0.2309401   0.0000000), wk =   0.1600000
        k(   12) = (   0.4000000  -0.6928203   0.0000000), wk =   0.1600000
        k(   13) = (   0.4000000  -0.4618802   0.0000000), wk =   0.1600000

     Dense  grid:  1411785 G-vectors     FFT dimensions: ( 108, 108, 300)

     Smooth grid:   344073 G-vectors     FFT dimensions: (  72,  72, 192)

     Estimated max dynamical RAM per process >     206.88 MB

     Estimated total dynamical RAM >       9.70 GB

     Initial potential from superposition of free atoms

     starting charge     364.9938, renormalised to     365.0000

     negative rho (up, down):  3.303E-03 0.000E+00


     %%%%%%%%%%%%%%%%%%%%%%%%%%%%%%%%%%%%%%%%%%%%%%%%%%%%%%%%%%%%%%%%%%%%%%%%
     %                                                                      %
     % You are using vdW-DF, which was implemented by the Thonhauser group. %
     % Please cite the following two papers that made this development      %
     % possible and the two reviews that describe the various versions:     %
     %                                                                      %
     %   T. Thonhauser et al., PRL 115, 136402 (2015).                      %
     %   T. Thonhauser et al., PRB 76, 125112 (2007).                       %
     %   K. Berland et al., Rep. Prog. Phys. 78, 066501 (2015).             %
     %   D.C. Langreth et al., J. Phys.: Condens. Matter 21, 084203 (2009). %
     %                                                                      %
     % If you are calculating stress with vdW-DF, please also cite:         %
     %                                                                      %
     %   R. Sabatini et al., J. Phys.: Condens. Matter 24, 424209 (2012).   %
     %                                                                      %
     %%%%%%%%%%%%%%%%%%%%%%%%%%%%%%%%%%%%%%%%%%%%%%%%%%%%%%%%%%%%%%%%%%%%%%%%

     %%%%%%%%%%%%%%%%%%%%%%%%%%%%%%%%%%%%%%%%%%%%%%%%%%%%%%%%%%%%%%%%%%%%%%%%
     %                                                                      %
     %  vdW-DF NEWS:                                                        %
     %                                                                      %
     %  * vdW-DF3 is now available. DOI: 10.1021/acs.jctc.0c00471           %
     %    use with input_dft = 'vdW-DF3-opt1' or 'vdW-DF3-opt2'             %
     %                                                                      %
     %  * Unscreened and range-separated hybrid vdW-DF-cx functionals       %
     %    DOI: 10.1063/1.4986522 and 10.1088/1361-648X/ac2ad2               %
     %    use with input_dft = 'vdW-DF-cx0'    and 'vdW-DF-ahcx'            %
     %  * Unscreened and range-separated hybrid vdW-DF2-b86r functionals    %
     %    DOI: 10.1063/1.4986522 and DOI: 10.1103/PhysRevX.12.041003        %
     %    use with input_dft = 'vdW-DF2-br0' and 'vdW-DF2-ahbr'             %
     %                                                                      %
     %%%%%%%%%%%%%%%%%%%%%%%%%%%%%%%%%%%%%%%%%%%%%%%%%%%%%%%%%%%%%%%%%%%%%%%%


     Starting wfcs are  329 randomized atomic wfcs
     Checking if some PAW data can be deallocated... 

     total cpu time spent up to now is       17.6 secs

     per-process dynamical memory:   211.8 Mb

     Self-consistent Calculation

     iteration #  1     ecut=    40.00 Ry     beta= 0.70
     Davidson diagonalization with overlap
     ethr =  1.00E-02,  avg # of iterations =  2.0

     Threshold (ethr) on eigenvalues was too large:
     Diagonalizing with lowered threshold

     Davidson diagonalization with overlap
     ethr =  5.37E-04,  avg # of iterations =  4.3

     negative rho (up, down):  1.258E-02 0.000E+00

     total cpu time spent up to now is       55.1 secs

     total energy              =  -27774.08922418 Ry
     estimated scf accuracy    <       2.22693810 Ry

     iteration #  2     ecut=    40.00 Ry     beta= 0.70
     Davidson diagonalization with overlap
     ethr =  6.10E-04,  avg # of iterations =  2.0

     negative rho (up, down):  9.808E-03 0.000E+00

     total cpu time spent up to now is       67.7 secs

     total energy              =  -27774.30248038 Ry
     estimated scf accuracy    <       0.90228332 Ry

     iteration #  3     ecut=    40.00 Ry     beta= 0.70
     Davidson diagonalization with overlap
     ethr =  2.47E-04,  avg # of iterations =  2.5

     negative rho (up, down):  6.248E-03 0.000E+00

     total cpu time spent up to now is       86.9 secs

     total energy              =  -27774.37283986 Ry
     estimated scf accuracy    <       0.26786480 Ry

     iteration #  4     ecut=    40.00 Ry     beta= 0.70
     Davidson diagonalization with overlap
     ethr =  7.34E-05,  avg # of iterations =  8.8

     negative rho (up, down):  3.234E-03 0.000E+00

     total cpu time spent up to now is      113.5 secs

     total energy              =  -27774.40681459 Ry
     estimated scf accuracy    <       0.08941402 Ry

     iteration #  5     ecut=    40.00 Ry     beta= 0.70
     Davidson diagonalization with overlap
     ethr =  2.45E-05,  avg # of iterations =  5.8

     negative rho (up, down):  1.396E-03 0.000E+00

     total cpu time spent up to now is      139.6 secs

     total energy              =  -27774.42222532 Ry
     estimated scf accuracy    <       0.06191374 Ry

     iteration #  6     ecut=    40.00 Ry     beta= 0.70
     Davidson diagonalization with overlap
     ethr =  1.70E-05,  avg # of iterations =  2.0

     negative rho (up, down):  4.406E-04 0.000E+00

     total cpu time spent up to now is      151.9 secs

     total energy              =  -27774.42455640 Ry
     estimated scf accuracy    <       0.00609196 Ry

     iteration #  7     ecut=    40.00 Ry     beta= 0.70
     Davidson diagonalization with overlap
     c_bands:  1 eigenvalues not converged
     ethr =  1.67E-06,  avg # of iterations = 15.3

     negative rho (up, down):  2.264E-04 0.000E+00

     total cpu time spent up to now is      201.8 secs

     total energy              =  -27774.42677678 Ry
     estimated scf accuracy    <       0.00232174 Ry

     iteration #  8     ecut=    40.00 Ry     beta= 0.70
     Davidson diagonalization with overlap
     ethr =  6.36E-07,  avg # of iterations =  2.7

     negative rho (up, down):  1.737E-04 0.000E+00

     total cpu time spent up to now is      216.2 secs

     total energy              =  -27774.42706679 Ry
     estimated scf accuracy    <       0.00057346 Ry

     iteration #  9     ecut=    40.00 Ry     beta= 0.70
     Davidson diagonalization with overlap
     ethr =  1.57E-07,  avg # of iterations =  3.6

     negative rho (up, down):  1.687E-04 0.000E+00

     total cpu time spent up to now is      240.5 secs

     total energy              =  -27774.42717583 Ry
     estimated scf accuracy    <       0.00040693 Ry

     iteration # 10     ecut=    40.00 Ry     beta= 0.70
     Davidson diagonalization with overlap
     ethr =  1.11E-07,  avg # of iterations =  1.8

     negative rho (up, down):  2.094E-04 0.000E+00

     total cpu time spent up to now is      259.1 secs

     total energy              =  -27774.42721439 Ry
     estimated scf accuracy    <       0.00025272 Ry

     iteration # 11     ecut=    40.00 Ry     beta= 0.70
     Davidson diagonalization with overlap
     ethr =  6.92E-08,  avg # of iterations =  2.6

     negative rho (up, down):  3.826E-04 0.000E+00

     total cpu time spent up to now is      271.9 secs

     total energy              =  -27774.42727159 Ry
     estimated scf accuracy    <       0.00015025 Ry

     iteration # 12     ecut=    40.00 Ry     beta= 0.70
     Davidson diagonalization with overlap
     c_bands:  1 eigenvalues not converged
     c_bands:  1 eigenvalues not converged
     ethr =  4.12E-08,  avg # of iterations =  7.1

     negative rho (up, down):  6.060E-04 0.000E+00

     total cpu time spent up to now is      293.8 secs

     total energy              =  -27774.42730935 Ry
     estimated scf accuracy    <       0.00010125 Ry

     iteration # 13     ecut=    40.00 Ry     beta= 0.70
     Davidson diagonalization with overlap
     ethr =  2.77E-08,  avg # of iterations =  2.1

     negative rho (up, down):  1.613E-03 0.000E+00

     total cpu time spent up to now is      308.3 secs

     total energy              =  -27774.42735100 Ry
     estimated scf accuracy    <       0.00005040 Ry

     iteration # 14     ecut=    40.00 Ry     beta= 0.70
     Davidson diagonalization with overlap
     ethr =  1.38E-08,  avg # of iterations =  5.1

     negative rho (up, down):  1.682E-03 0.000E+00

     total cpu time spent up to now is      328.4 secs

     total energy              =  -27774.42736281 Ry
     estimated scf accuracy    <       0.00001781 Ry

     iteration # 15     ecut=    40.00 Ry     beta= 0.70
     Davidson diagonalization with overlap
     ethr =  4.88E-09,  avg # of iterations =  2.5

     negative rho (up, down):  2.719E-03 0.000E+00

     total cpu time spent up to now is      350.2 secs

     total energy              =  -27774.42736277 Ry
     estimated scf accuracy    <       0.00001006 Ry

     iteration # 16     ecut=    40.00 Ry     beta= 0.70
     Davidson diagonalization with overlap
     ethr =  2.76E-09,  avg # of iterations =  2.0

     negative rho (up, down):  3.083E-03 0.000E+00

     total cpu time spent up to now is      365.3 secs

     total energy              =  -27774.42736238 Ry
     estimated scf accuracy    <       0.00000333 Ry

     iteration # 17     ecut=    40.00 Ry     beta= 0.70
     Davidson diagonalization with overlap
     ethr =  9.12E-10,  avg # of iterations =  4.5

     negative rho (up, down):  3.163E-03 0.000E+00

     total cpu time spent up to now is      391.2 secs

     total energy              =  -27774.42736291 Ry
     estimated scf accuracy    <       0.00000044 Ry

     iteration # 18     ecut=    40.00 Ry     beta= 0.70
     Davidson diagonalization with overlap
     ethr =  1.21E-10,  avg # of iterations =  5.2

     negative rho (up, down):  3.215E-03 0.000E+00

     total cpu time spent up to now is      423.0 secs

     total energy              =  -27774.42736291 Ry
     estimated scf accuracy    <       0.00000028 Ry

     iteration # 19     ecut=    40.00 Ry     beta= 0.70
     Davidson diagonalization with overlap
     ethr =  7.74E-11,  avg # of iterations =  1.2

     negative rho (up, down):  3.160E-03 0.000E+00

     total cpu time spent up to now is      443.0 secs

     total energy              =  -27774.42736325 Ry
     estimated scf accuracy    <       0.00000010 Ry

     iteration # 20     ecut=    40.00 Ry     beta= 0.70
     Davidson diagonalization with overlap
     ethr =  2.75E-11,  avg # of iterations =  2.2

     negative rho (up, down):  3.167E-03 0.000E+00

     total cpu time spent up to now is      455.7 secs

     total energy              =  -27774.42736323 Ry
     estimated scf accuracy    <       0.00000005 Ry

     iteration # 21     ecut=    40.00 Ry     beta= 0.70
     Davidson diagonalization with overlap
     ethr =  1.50E-11,  avg # of iterations =  2.0

     negative rho (up, down):  3.171E-03 0.000E+00

     total cpu time spent up to now is      474.8 secs

     total energy              =  -27774.42736321 Ry
     estimated scf accuracy    <       0.00000002 Ry

     iteration # 22     ecut=    40.00 Ry     beta= 0.70
     Davidson diagonalization with overlap
     ethr =  4.53E-12,  avg # of iterations =  2.9

     negative rho (up, down):  3.143E-03 0.000E+00

     total cpu time spent up to now is      489.6 secs

     End of self-consistent calculation

          k = 0.0000 0.0000 0.0000 ( 42913 PWs)   bands (ev):

   -10.1225  -6.1076  -4.9971  -4.6467  -3.8282  -3.7778  -3.7335  -3.7153
    -3.6993  -3.6876  -3.6804  -3.5658  -3.4395  -3.2669  -3.1628  -3.1626
    -3.1562  -3.0791  -3.0311  -2.9638  -2.7175  -2.7102  -2.6862  -2.5770
    -2.5242  -2.5213  -2.4887  -2.4838  -2.4650  -2.3844  -2.3710  -2.3634
    -2.2857  -2.2855  -2.2409  -2.2309  -2.2254  -2.2165  -2.1950  -2.1765
    -2.1636  -1.9108  -1.7412  -1.7317  -1.6641  -1.6240  -1.6121  -1.5803
    -1.5765  -1.5694  -1.5477  -1.5039  -1.4634  -1.3827  -1.3774  -1.3021
    -1.2631  -1.2173  -0.9173  -0.8958  -0.8369  -0.8252  -0.7966  -0.7682
    -0.7488  -0.6794  -0.6724  -0.6271  -0.6173  -0.6164  -0.6049  -0.5916
    -0.5758  -0.5752  -0.5657  -0.5346  -0.5257  -0.5114  -0.5099  -0.4844
    -0.4599  -0.4326  -0.4103  -0.3913  -0.3868  -0.3851  -0.2277  -0.2135
    -0.2098  -0.1915  -0.1722  -0.1633  -0.1417  -0.1405  -0.1070  -0.0838
    -0.0792   0.0262   0.0274   0.0703   0.0745   0.0858   0.1198   0.1442
     0.1627   0.2104   0.2123   0.2404   0.3154   0.3374   0.4031   0.6124
     0.6153   0.6374   0.6969   0.7169   0.7382   0.7405   0.7617   0.8003
     0.8750   0.8870   0.9273   0.9283   0.9375   0.9610   0.9681   1.0001
     1.0484   1.1158   1.1715   1.1867   1.2047   1.2517   1.2640   1.2657
     1.4087   1.4584   1.4657   1.4740   1.4844   1.5154   1.5252   1.5449
     1.5968   1.6057   1.6394   1.6972   1.7167   1.7265   1.7529   1.8094
     1.8433   1.8971   1.9040   1.9116   1.9217   1.9234   1.9303   1.9416
     1.9534   1.9554   1.9718   2.0137   2.0316   2.0338   2.0427   2.0548
     2.1169   2.1257   2.1319   2.1365   2.1490   2.1897   2.1959   2.2298
     2.2769   2.2792   2.2853   2.2945   2.3030   2.3304   2.3642   2.3730
     2.3885   2.4072   2.4328   2.4403   2.5260   2.5580   2.6497   2.6822
     2.6916   2.7041   2.7321   2.7377   2.7495   3.1188   3.2820   3.4656
     3.5981   3.6088   3.6316   3.7169   4.5724   4.7272   5.7113   5.9197
     5.9321   5.9409   6.3532   6.3616   7.1406   7.5160   7.5257   7.5622
     7.5710   7.6461   7.7122   7.7139

          k = 0.0000 0.2309 0.0000 ( 42996 PWs)   bands (ev):

   -10.1189  -5.9661  -4.9596  -4.5589  -4.1789  -3.8815  -3.8283  -3.6005
    -3.5665  -3.5479  -3.4778  -3.4677  -3.3503  -3.2662  -3.2201  -3.1291
    -3.0960  -3.0688  -2.9445  -2.8773  -2.7763  -2.6663  -2.6348  -2.6286
    -2.5561  -2.5530  -2.5198  -2.4768  -2.4670  -2.3996  -2.3976  -2.3624
    -2.3447  -2.3312  -2.2610  -2.2570  -2.1542  -2.1379  -2.0755  -2.0488
    -2.0128  -1.8959  -1.8182  -1.7750  -1.7435  -1.7286  -1.7044  -1.6807
    -1.6143  -1.6031  -1.4646  -1.4639  -1.4473  -1.3774  -1.3403  -1.2888
    -1.2799  -1.2270  -1.0786  -1.0052  -0.9805  -0.9753  -0.9476  -0.9213
    -0.8710  -0.8317  -0.8070  -0.7960  -0.7695  -0.7186  -0.6781  -0.6667
    -0.6356  -0.6188  -0.5988  -0.5186  -0.4988  -0.4965  -0.4508  -0.4394
    -0.4247  -0.3824  -0.3738  -0.3730  -0.3440  -0.2900  -0.2657  -0.2394
    -0.2104  -0.2069  -0.1810  -0.1601  -0.1447  -0.1034  -0.0961  -0.0753
    -0.0483  -0.0397  -0.0176   0.0136   0.0168   0.0782   0.0855   0.1121
     0.1239   0.1915   0.2259   0.2516   0.2583   0.2847   0.2940   0.3209
     0.3221   0.4532   0.4717   0.4978   0.6111   0.6885   0.7067   0.7384
     0.7678   0.7683   0.7792   0.8112   0.9385   0.9881   1.0317   1.0369
     1.0741   1.0860   1.1093   1.1160   1.1603   1.1770   1.1963   1.2425
     1.3209   1.3532   1.3569   1.3712   1.4155   1.4789   1.4923   1.5337
     1.5397   1.5882   1.5902   1.6403   1.6899   1.7061   1.7309   1.7485
     1.7492   1.8077   1.8369   1.8763   1.8844   1.9165   1.9268   1.9606
     1.9650   2.0436   2.0451   2.0990   2.1063   2.1567   2.2107   2.2257
     2.2493   2.2662   2.2792   2.2962   2.3069   2.3521   2.3679   2.3702
     2.4031   2.4039   2.4600   2.4615   2.5120   2.5601   2.5880   2.6138
     2.6387   2.6505   2.6647   2.6964   2.7035   2.7280   2.7779   2.8069
     2.8613   2.8883   2.9612   3.0062   3.0275   3.1667   3.2930   3.4135
     3.6662   3.9884   4.2319   4.3189   4.6239   4.8194   5.4376   5.6652
     5.8990   6.2273   6.3775   6.5250   6.6763   6.7348   7.3083   7.3826
     7.4787   7.6971   7.7948   7.8102

          k = 0.0000 0.4619 0.0000 ( 43046 PWs)   bands (ev):

   -10.1130  -5.5646  -5.0331  -4.7507  -4.2067  -3.9046  -3.8643  -3.6979
    -3.4652  -3.3400  -3.3250  -3.2154  -3.1815  -3.1377  -3.1002  -3.0127
    -2.9418  -2.9105  -2.8952  -2.7984  -2.7820  -2.7575  -2.7358  -2.7047
    -2.6564  -2.6396  -2.6230  -2.5844  -2.5310  -2.5221  -2.3269  -2.3244
    -2.2939  -2.2741  -2.2110  -2.1650  -2.1562  -2.0902  -2.0380  -2.0351
    -2.0034  -1.9049  -1.8687  -1.8211  -1.7526  -1.7111  -1.6769  -1.6584
    -1.5897  -1.5843  -1.5681  -1.5271  -1.5225  -1.5008  -1.3969  -1.3655
    -1.3307  -1.2547  -1.2279  -1.1897  -1.1788  -1.1350  -1.1194  -1.0787
    -0.9930  -0.9547  -0.8981  -0.8948  -0.8393  -0.8004  -0.7964  -0.7813
    -0.7230  -0.6453  -0.6316  -0.6026  -0.5715  -0.5661  -0.5256  -0.5014
    -0.4879  -0.4387  -0.4372  -0.4217  -0.4054  -0.3820  -0.3735  -0.3533
    -0.3463  -0.2670  -0.2666  -0.2302  -0.2058  -0.1862  -0.1593  -0.1473
    -0.0774  -0.0500  -0.0051   0.0029   0.0498   0.0671   0.0681   0.0992
     0.1411   0.1984   0.2001   0.2416   0.2573   0.3061   0.3304   0.4184
     0.4529   0.4681   0.5374   0.5565   0.5899   0.6092   0.6294   0.6627
     0.6689   0.7133   0.7148   0.7498   0.7791   0.7852   0.8150   0.8417
     0.8614   0.9228   0.9708   0.9762   1.0259   1.0571   1.1214   1.1226
     1.2496   1.2635   1.3032   1.3339   1.3536   1.4151   1.4648   1.4984
     1.5605   1.5739   1.5941   1.5975   1.6464   1.6488   1.6766   1.6918
     1.7102   1.7841   1.7872   1.8283   1.8667   1.8948   1.9389   1.9435
     2.0180   2.0454   2.1190   2.1229   2.1593   2.2180   2.2728   2.2769
     2.3100   2.3166   2.3569   2.3820   2.4234   2.4530   2.4563   2.4892
     2.5596   2.5939   2.5956   2.6060   2.6189   2.6569   2.6757   2.6803
     2.8006   2.8251   2.8639   2.8709   2.8743   2.9626   3.1099   3.2149
     3.2942   3.3992   3.5638   3.8615   3.8934   4.0418   4.1316   4.1980
     4.5380   4.6233   4.7459   4.8619   5.1516   5.1886   5.3127   5.4227
     5.4405   5.5866   5.6743   6.0154   6.1898   6.3477   6.5827   7.0025
     7.0439   7.4931   7.5639   7.7314

          k = 0.2000-0.1155 0.0000 ( 42996 PWs)   bands (ev):

   -10.1194  -5.9644  -4.9255  -4.5602  -4.2370  -3.8613  -3.8156  -3.6282
    -3.5821  -3.5203  -3.4978  -3.4510  -3.3800  -3.2562  -3.2464  -3.1001
    -3.0914  -3.0419  -2.9846  -2.8984  -2.7621  -2.6712  -2.6433  -2.6279
    -2.5610  -2.5479  -2.5067  -2.4853  -2.4674  -2.4160  -2.3905  -2.3630
    -2.3386  -2.3261  -2.2691  -2.2523  -2.1641  -2.1200  -2.0691  -2.0396
    -2.0137  -1.8892  -1.8033  -1.7690  -1.7549  -1.7160  -1.6978  -1.6606
    -1.6117  -1.5862  -1.5264  -1.4528  -1.4295  -1.3760  -1.3444  -1.3038
    -1.2797  -1.2070  -1.0577  -1.0024  -0.9764  -0.9665  -0.9145  -0.8955
    -0.8663  -0.8510  -0.8211  -0.8116  -0.7590  -0.7158  -0.6852  -0.6478
    -0.6343  -0.6185  -0.5856  -0.5563  -0.5302  -0.5115  -0.4412  -0.4271
    -0.4230  -0.3775  -0.3681  -0.3515  -0.3169  -0.2918  -0.2648  -0.2473
    -0.2159  -0.2011  -0.1908  -0.1697  -0.1400  -0.1264  -0.0808  -0.0650
    -0.0477  -0.0409  -0.0204   0.0180   0.0306   0.0487   0.0797   0.1058
     0.1262   0.1910   0.2131   0.2388   0.2600   0.2815   0.3042   0.3206
     0.3266   0.4055   0.4752   0.5630   0.6223   0.6776   0.7068   0.7249
     0.7492   0.7671   0.7864   0.8325   0.9210   0.9877   1.0238   1.0307
     1.0724   1.0866   1.1044   1.1148   1.1603   1.1719   1.1940   1.2166
     1.3263   1.3396   1.3540   1.3683   1.3808   1.4633   1.4914   1.5294
     1.5408   1.5564   1.6039   1.6366   1.6801   1.7058   1.7243   1.7496
     1.7598   1.8020   1.8398   1.8787   1.9029   1.9253   1.9345   1.9616
     1.9806   2.0192   2.0643   2.0938   2.1061   2.1546   2.2022   2.2246
     2.2446   2.2525   2.2787   2.2889   2.3043   2.3549   2.3660   2.3747
     2.3969   2.4100   2.4437   2.4511   2.5133   2.5444   2.5936   2.6129
     2.6458   2.6620   2.6746   2.7052   2.7258   2.7403   2.7925   2.8107
     2.8593   2.9084   2.9834   3.0075   3.0410   3.1281   3.2779   3.4621
     3.7243   3.9663   4.2418   4.3087   4.5926   4.8017   5.3917   5.7409
     5.9097   6.2264   6.3638   6.5420   6.6766   6.7157   7.3366   7.3512
     7.4645   7.6949   7.7801   7.7977

          k = 0.2000 0.1155 0.0000 ( 42996 PWs)   bands (ev):

   -10.1194  -5.9644  -4.9255  -4.5602  -4.2373  -3.8610  -3.8156  -3.6282
    -3.5821  -3.5207  -3.4977  -3.4507  -3.3799  -3.2562  -3.2465  -3.1003
    -3.0916  -3.0421  -2.9847  -2.8983  -2.7620  -2.6715  -2.6432  -2.6278
    -2.5609  -2.5478  -2.5068  -2.4851  -2.4678  -2.4160  -2.3903  -2.3629
    -2.3385  -2.3264  -2.2690  -2.2523  -2.1641  -2.1200  -2.0689  -2.0397
    -2.0135  -1.8893  -1.8030  -1.7691  -1.7547  -1.7159  -1.6980  -1.6607
    -1.6117  -1.5863  -1.5263  -1.4525  -1.4293  -1.3760  -1.3445  -1.3039
    -1.2796  -1.2070  -1.0573  -1.0023  -0.9762  -0.9659  -0.9141  -0.8951
    -0.8668  -0.8514  -0.8215  -0.8120  -0.7584  -0.7158  -0.6850  -0.6475
    -0.6335  -0.6186  -0.5860  -0.5576  -0.5311  -0.5117  -0.4409  -0.4269
    -0.4229  -0.3778  -0.3672  -0.3513  -0.3172  -0.2927  -0.2648  -0.2472
    -0.2157  -0.2004  -0.1905  -0.1697  -0.1400  -0.1260  -0.0815  -0.0654
    -0.0478  -0.0408  -0.0206   0.0181   0.0305   0.0489   0.0796   0.1056
     0.1263   0.1906   0.2125   0.2386   0.2602   0.2817   0.3043   0.3207
     0.3266   0.4057   0.4752   0.5637   0.6224   0.6779   0.7067   0.7248
     0.7491   0.7664   0.7863   0.8326   0.9208   0.9873   1.0238   1.0304
     1.0723   1.0866   1.1047   1.1146   1.1599   1.1719   1.1938   1.2164
     1.3263   1.3396   1.3543   1.3682   1.3808   1.4634   1.4913   1.5293
     1.5409   1.5561   1.6042   1.6367   1.6799   1.7060   1.7244   1.7498
     1.7600   1.8020   1.8400   1.8788   1.9031   1.9253   1.9344   1.9618
     1.9807   2.0189   2.0643   2.0939   2.1061   2.1547   2.2020   2.2245
     2.2443   2.2524   2.2785   2.2889   2.3041   2.3551   2.3661   2.3746
     2.3968   2.4102   2.4433   2.4508   2.5133   2.5441   2.5932   2.6131
     2.6462   2.6621   2.6750   2.7058   2.7263   2.7407   2.7925   2.8107
     2.8593   2.9083   2.9833   3.0075   3.0413   3.1279   3.2783   3.4628
     3.7242   3.9664   4.2415   4.3085   4.5927   4.8015   5.3914   5.7413
     5.9102   6.2264   6.3638   6.5420   6.6768   6.7154   7.3364   7.3510
     7.4638   7.6949   7.7799   7.7977

          k = 0.2000 0.3464 0.0000 ( 43046 PWs)   bands (ev):

   -10.1146  -5.6907  -4.8990  -4.4888  -4.4527  -4.2864  -3.5929  -3.4673
    -3.3928  -3.3792  -3.3581  -3.3183  -3.3043  -3.2332  -3.2137  -3.1458
    -3.0622  -2.9107  -2.8124  -2.8010  -2.7926  -2.7653  -2.7088  -2.6548
    -2.5883  -2.5826  -2.5551  -2.4851  -2.4583  -2.4516  -2.4184  -2.3736
    -2.3466  -2.3178  -2.2874  -2.2536  -2.1914  -2.1343  -2.1046  -1.9417
    -1.9041  -1.8329  -1.8145  -1.7829  -1.7645  -1.7293  -1.7135  -1.6585
    -1.6069  -1.5718  -1.5460  -1.5029  -1.4585  -1.4129  -1.3695  -1.3274
    -1.3060  -1.2714  -1.2297  -1.1761  -1.1053  -1.0917  -1.0434  -1.0249
    -0.9939  -0.9357  -0.9241  -0.8998  -0.8718  -0.8288  -0.7360  -0.7204
    -0.6891  -0.6744  -0.6596  -0.6332  -0.5770  -0.5536  -0.5016  -0.4888
    -0.4323  -0.4255  -0.4095  -0.3720  -0.3624  -0.3443  -0.3276  -0.2920
    -0.2792  -0.2637  -0.2289  -0.1940  -0.1481  -0.1392  -0.1143  -0.0931
    -0.0785  -0.0513  -0.0220   0.0018   0.0172   0.0337   0.0435   0.0527
     0.0788   0.1006   0.1253   0.1765   0.2127   0.2555   0.3033   0.3392
     0.3597   0.3798   0.4519   0.5111   0.5581   0.5954   0.6063   0.6824
     0.7294   0.7461   0.7626   0.7918   0.8131   0.8497   0.8830   0.8998
     0.9372   0.9525   1.0089   1.0841   1.0923   1.1291   1.1598   1.1934
     1.2548   1.2914   1.3207   1.3481   1.3757   1.4056   1.4394   1.4551
     1.4938   1.5156   1.5751   1.5897   1.6372   1.6728   1.6925   1.7078
     1.7180   1.7371   1.7549   1.7698   1.7974   1.8846   1.9131   1.9884
     2.0075   2.0728   2.1358   2.2253   2.2353   2.2621   2.2774   2.3120
     2.3671   2.3903   2.4107   2.4318   2.4539   2.4604   2.4766   2.4939
     2.5164   2.5309   2.5747   2.5984   2.6256   2.6322   2.6825   2.6943
     2.7384   2.8032   2.8587   2.8958   2.9239   2.9492   2.9885   3.0167
     3.0941   3.1411   3.3340   3.5552   3.6824   3.8745   3.9194   4.1672
     4.2061   4.2983   4.6898   4.8642   5.0373   5.0912   5.1783   5.3415
     5.4345   6.0514   6.2187   6.3850   6.4764   6.6682   6.9007   7.0870
     7.1564   7.1887   7.2622   7.5521

          k = 0.2000-0.5774 0.0000 ( 43014 PWs)   bands (ev):

   -10.1116  -5.2376  -5.1515  -4.7557  -4.5620  -3.9581  -3.8206  -3.5224
    -3.3579  -3.2904  -3.2405  -3.1749  -3.1023  -3.0896  -3.0495  -2.9686
    -2.9519  -2.8750  -2.8608  -2.8481  -2.8332  -2.7991  -2.7450  -2.6892
    -2.6599  -2.6463  -2.6224  -2.6092  -2.5433  -2.5043  -2.4004  -2.3619
    -2.3473  -2.3029  -2.2524  -2.2206  -2.1882  -2.1522  -2.0421  -2.0235
    -1.9849  -1.8882  -1.8247  -1.7983  -1.7606  -1.7077  -1.7011  -1.6242
    -1.5580  -1.5104  -1.4715  -1.4248  -1.4119  -1.3845  -1.3786  -1.3328
    -1.3143  -1.2579  -1.2522  -1.2236  -1.2021  -1.1657  -1.1405  -1.1345
    -1.0719  -1.0410  -1.0386  -0.9497  -0.9109  -0.8971  -0.8150  -0.7849
    -0.7556  -0.7439  -0.7247  -0.7078  -0.6686  -0.6550  -0.5883  -0.5544
    -0.5367  -0.5018  -0.4847  -0.4455  -0.3995  -0.3636  -0.3511  -0.3280
    -0.3091  -0.2211  -0.2122  -0.1979  -0.1610  -0.1253  -0.1083  -0.0833
    -0.0538  -0.0473  -0.0120  -0.0055   0.0049   0.0185   0.0641   0.0727
     0.0931   0.1085   0.1224   0.1359   0.1693   0.1754   0.1959   0.3499
     0.3789   0.4436   0.4565   0.5295   0.5764   0.5947   0.6167   0.6548
     0.6645   0.7007   0.7110   0.7448   0.7748   0.7913   0.8197   0.8545
     0.9359   0.9604   0.9802   0.9932   1.0362   1.0961   1.1449   1.1720
     1.2336   1.2593   1.3110   1.3189   1.3453   1.3863   1.3967   1.4099
     1.4327   1.4851   1.5198   1.5311   1.5547   1.6017   1.6262   1.6704
     1.6960   1.7126   1.7706   1.8295   1.9132   1.9201   1.9822   2.0506
     2.0911   2.0975   2.1424   2.1713   2.2201   2.2333   2.2944   2.3557
     2.3807   2.3953   2.4370   2.4571   2.4735   2.5124   2.5189   2.5694
     2.5945   2.6051   2.6129   2.6631   2.6854   2.7169   2.7465   2.7741
     2.8156   2.8668   2.8802   2.8879   2.9469   2.9791   3.0115   3.1249
     3.4749   3.8255   3.9600   4.0522   4.1643   4.2950   4.3502   4.3758
     4.5458   4.7798   4.8514   5.0557   5.1566   5.1803   5.5223   5.5584
     5.7263   5.7743   5.8689   5.9467   6.0961   6.2371   6.4273   6.4767
     6.7174   7.0489   7.1369   7.2230

          k = 0.2000-0.3464 0.0000 ( 43046 PWs)   bands (ev):

   -10.1146  -5.6907  -4.8990  -4.4887  -4.4528  -4.2864  -3.5929  -3.4673
    -3.3924  -3.3793  -3.3583  -3.3183  -3.3048  -3.2333  -3.2137  -3.1458
    -3.0619  -2.9105  -2.8118  -2.8010  -2.7926  -2.7649  -2.7090  -2.6547
    -2.5882  -2.5825  -2.5555  -2.4855  -2.4586  -2.4516  -2.4187  -2.3735
    -2.3464  -2.3179  -2.2872  -2.2539  -2.1910  -2.1341  -2.1045  -1.9418
    -1.9044  -1.8331  -1.8146  -1.7831  -1.7647  -1.7294  -1.7137  -1.6584
    -1.6072  -1.5719  -1.5460  -1.5031  -1.4584  -1.4130  -1.3696  -1.3273
    -1.3060  -1.2716  -1.2298  -1.1760  -1.1055  -1.0919  -1.0436  -1.0252
    -0.9946  -0.9356  -0.9243  -0.9000  -0.8719  -0.8291  -0.7356  -0.7201
    -0.6886  -0.6746  -0.6593  -0.6331  -0.5767  -0.5530  -0.5016  -0.4888
    -0.4326  -0.4259  -0.4093  -0.3717  -0.3622  -0.3438  -0.3275  -0.2925
    -0.2786  -0.2637  -0.2284  -0.1933  -0.1481  -0.1392  -0.1140  -0.0932
    -0.0785  -0.0517  -0.0218   0.0019   0.0173   0.0340   0.0435   0.0524
     0.0785   0.1006   0.1252   0.1764   0.2128   0.2553   0.3032   0.3396
     0.3599   0.3800   0.4519   0.5113   0.5583   0.5953   0.6063   0.6823
     0.7297   0.7464   0.7627   0.7918   0.8131   0.8496   0.8832   0.8999
     0.9373   0.9514   1.0088   1.0846   1.0924   1.1293   1.1599   1.1935
     1.2550   1.2916   1.3207   1.3481   1.3760   1.4056   1.4395   1.4551
     1.4939   1.5157   1.5750   1.5895   1.6369   1.6727   1.6922   1.7075
     1.7180   1.7370   1.7547   1.7698   1.7974   1.8845   1.9130   1.9887
     2.0075   2.0730   2.1357   2.2253   2.2355   2.2622   2.2774   2.3121
     2.3670   2.3904   2.4106   2.4320   2.4539   2.4604   2.4768   2.4941
     2.5167   2.5311   2.5745   2.5984   2.6259   2.6322   2.6825   2.6943
     2.7385   2.8029   2.8581   2.8956   2.9233   2.9491   2.9879   3.0167
     3.0941   3.1412   3.3340   3.5555   3.6826   3.8742   3.9194   4.1670
     4.2056   4.2979   4.6898   4.8642   5.0375   5.0913   5.1783   5.3415
     5.4346   6.0513   6.2183   6.3850   6.4760   6.6685   6.9008   7.0874
     7.1565   7.1888   7.2624   7.5523

          k = 0.4000-0.2309 0.0000 ( 43046 PWs)   bands (ev):

   -10.1142  -5.5530  -4.9453  -4.7916  -4.2636  -3.8915  -3.8557  -3.7504
    -3.4997  -3.4045  -3.3049  -3.2125  -3.1986  -3.1238  -3.0866  -3.0161
    -2.9333  -2.9155  -2.8945  -2.8410  -2.7941  -2.7621  -2.7265  -2.7169
    -2.6852  -2.6469  -2.6208  -2.5884  -2.5413  -2.5125  -2.3181  -2.3115
    -2.2867  -2.2717  -2.2007  -2.1598  -2.0760  -2.0500  -2.0374  -2.0235
    -1.9618  -1.9153  -1.8363  -1.7722  -1.7480  -1.7140  -1.6839  -1.6497
    -1.6173  -1.5848  -1.5475  -1.5310  -1.5203  -1.4979  -1.3951  -1.3611
    -1.3363  -1.2909  -1.2267  -1.1792  -1.1411  -1.1310  -1.1102  -1.0534
    -0.9715  -0.9409  -0.9156  -0.9000  -0.8569  -0.8192  -0.7911  -0.7708
    -0.7058  -0.6702  -0.6387  -0.6057  -0.5732  -0.5645  -0.5159  -0.4985
    -0.4657  -0.4458  -0.4214  -0.4188  -0.3925  -0.3846  -0.3686  -0.3546
    -0.3342  -0.2886  -0.2413  -0.2262  -0.2081  -0.1800  -0.1548  -0.1166
    -0.0745  -0.0663  -0.0342   0.0061   0.0273   0.0381   0.0642   0.0977
     0.1306   0.1592   0.2043   0.2404   0.2607   0.2943   0.3071   0.3568
     0.4213   0.4855   0.5195   0.5560   0.5809   0.6100   0.6538   0.6647
     0.7011   0.7153   0.7597   0.7727   0.7847   0.8042   0.8109   0.8206
     0.8512   0.9224   0.9637   0.9741   1.0117   1.0454   1.0887   1.1600
     1.1855   1.2460   1.2724   1.3243   1.3624   1.4085   1.4443   1.4971
     1.5407   1.5674   1.5872   1.6043   1.6225   1.6435   1.6847   1.6941
     1.7291   1.7899   1.8130   1.8341   1.8772   1.8833   1.8931   1.9410
     2.0266   2.0558   2.0977   2.1311   2.1650   2.2342   2.2703   2.2798
     2.2977   2.3175   2.3266   2.3812   2.4193   2.4270   2.4497   2.4788
     2.5560   2.5885   2.5974   2.6195   2.6222   2.6615   2.6864   2.6953
     2.8108   2.8563   2.8692   2.8823   2.8992   2.9652   3.1085   3.1412
     3.2848   3.4720   3.6103   3.8695   3.8893   4.0317   4.1358   4.2625
     4.5362   4.5684   4.7694   4.9234   5.1477   5.2112   5.3205   5.3910
     5.4128   5.6146   5.6926   6.0678   6.1348   6.3794   6.5559   6.9550
     7.0024   7.5033   7.5589   7.7055

          k = 0.4000-0.0000 0.0000 ( 43046 PWs)   bands (ev):

   -10.1153  -5.6843  -4.8388  -4.5030  -4.4745  -4.3150  -3.6379  -3.4533
    -3.3966  -3.3866  -3.3685  -3.3200  -3.2984  -3.2407  -3.2050  -3.1974
    -3.0180  -2.9090  -2.8298  -2.8004  -2.7966  -2.7637  -2.7084  -2.7047
    -2.5920  -2.5794  -2.5454  -2.4703  -2.4525  -2.4358  -2.4176  -2.3743
    -2.3409  -2.3146  -2.3125  -2.2578  -2.2091  -2.1450  -2.0066  -1.9224
    -1.8796  -1.8507  -1.8226  -1.7783  -1.7571  -1.7360  -1.6932  -1.6291
    -1.6141  -1.5764  -1.5459  -1.4881  -1.4507  -1.4291  -1.3601  -1.3285
    -1.3187  -1.2644  -1.2488  -1.1860  -1.0975  -1.0728  -1.0327  -0.9743
    -0.9569  -0.9382  -0.9235  -0.8864  -0.8534  -0.8270  -0.7366  -0.7136
    -0.7051  -0.6879  -0.6801  -0.6459  -0.5701  -0.5458  -0.5163  -0.4865
    -0.4147  -0.3993  -0.3946  -0.3872  -0.3664  -0.3388  -0.3314  -0.2975
    -0.2840  -0.2637  -0.2556  -0.2110  -0.1663  -0.1562  -0.1078  -0.0978
    -0.0781  -0.0438  -0.0311  -0.0075   0.0065   0.0287   0.0452   0.0518
     0.0711   0.0965   0.1177   0.1949   0.2176   0.2596   0.3099   0.3281
     0.3679   0.3839   0.4374   0.4988   0.5518   0.5936   0.6129   0.6867
     0.7058   0.7403   0.7451   0.7986   0.8298   0.8514   0.8825   0.8932
     0.9380   0.9894   1.0181   1.0611   1.0791   1.1250   1.1501   1.2056
     1.2372   1.2677   1.2959   1.3446   1.3602   1.4057   1.4236   1.4431
     1.4739   1.5026   1.5778   1.6085   1.6378   1.6694   1.6901   1.7204
     1.7238   1.7329   1.7578   1.7775   1.8326   1.8839   1.9090   1.9973
     2.0217   2.0485   2.1118   2.2245   2.2304   2.2673   2.2811   2.2992
     2.3475   2.3995   2.4170   2.4242   2.4433   2.4564   2.4678   2.4908
     2.5106   2.5352   2.5914   2.5981   2.6191   2.6478   2.6767   2.6953
     2.7371   2.8321   2.8741   2.9075   2.9382   2.9853   2.9864   3.0142
     3.0933   3.1324   3.3082   3.6041   3.6666   3.7725   3.9569   4.1996
     4.2113   4.3982   4.6551   4.8650   5.0590   5.1312   5.1682   5.2642
     5.4371   6.0527   6.2800   6.3774   6.4980   6.6659   6.8917   7.0282
     7.1467   7.1899   7.2827   7.5926

          k = 0.4000 0.2309 0.0000 ( 43046 PWs)   bands (ev):

   -10.1142  -5.5531  -4.9454  -4.7916  -4.2636  -3.8914  -3.8555  -3.7504
    -3.5002  -3.4045  -3.3050  -3.2125  -3.1987  -3.1235  -3.0866  -3.0163
    -2.9336  -2.9157  -2.8945  -2.8411  -2.7942  -2.7623  -2.7265  -2.7168
    -2.6852  -2.6472  -2.6208  -2.5884  -2.5412  -2.5124  -2.3180  -2.3113
    -2.2865  -2.2714  -2.2007  -2.1595  -2.0759  -2.0497  -2.0374  -2.0234
    -1.9617  -1.9150  -1.8363  -1.7720  -1.7478  -1.7137  -1.6839  -1.6497
    -1.6173  -1.5852  -1.5475  -1.5313  -1.5202  -1.4976  -1.3948  -1.3609
    -1.3360  -1.2908  -1.2263  -1.1787  -1.1404  -1.1304  -1.1099  -1.0532
    -0.9712  -0.9408  -0.9159  -0.9001  -0.8572  -0.8195  -0.7906  -0.7707
    -0.7067  -0.6712  -0.6399  -0.6057  -0.5732  -0.5643  -0.5157  -0.4986
    -0.4656  -0.4452  -0.4211  -0.4187  -0.3926  -0.3851  -0.3690  -0.3548
    -0.3343  -0.2882  -0.2414  -0.2262  -0.2080  -0.1807  -0.1545  -0.1164
    -0.0744  -0.0665  -0.0347   0.0058   0.0267   0.0376   0.0637   0.0973
     0.1304   0.1588   0.2042   0.2405   0.2607   0.2943   0.3070   0.3566
     0.4212   0.4859   0.5196   0.5560   0.5808   0.6101   0.6537   0.6652
     0.7016   0.7154   0.7598   0.7725   0.7847   0.8038   0.8108   0.8205
     0.8510   0.9223   0.9637   0.9741   1.0111   1.0452   1.0882   1.1596
     1.1853   1.2458   1.2722   1.3243   1.3623   1.4089   1.4443   1.4972
     1.5402   1.5674   1.5874   1.6044   1.6227   1.6436   1.6850   1.6944
     1.7292   1.7900   1.8131   1.8342   1.8772   1.8830   1.8930   1.9410
     2.0266   2.0556   2.0978   2.1310   2.1649   2.2338   2.2702   2.2797
     2.2976   2.3173   2.3265   2.3810   2.4190   2.4272   2.4493   2.4784
     2.5561   2.5886   2.5973   2.6197   2.6223   2.6616   2.6867   2.6959
     2.8113   2.8569   2.8695   2.8826   2.8996   2.9653   3.1085   3.1412
     3.2852   3.4727   3.6098   3.8695   3.8892   4.0317   4.1357   4.2624
     4.5362   4.5690   4.7696   4.9238   5.1477   5.2114   5.3204   5.3908
     5.4126   5.6150   5.6927   6.0679   6.1348   6.3803   6.5552   6.9549
     7.0023   7.5032   7.5588   7.7056

          k = 0.4000-0.6928 0.0000 ( 43014 PWs)   bands (ev):

   -10.1124  -5.1963  -5.1451  -4.8124  -4.5004  -4.0258  -3.8469  -3.4771
    -3.3896  -3.3389  -3.2375  -3.1717  -3.1091  -3.0877  -3.0431  -2.9897
    -2.9358  -2.8734  -2.8668  -2.8507  -2.8165  -2.7879  -2.7787  -2.7171
    -2.6592  -2.6538  -2.6419  -2.6208  -2.5360  -2.4948  -2.3962  -2.3510
    -2.3399  -2.2891  -2.2427  -2.2012  -2.1792  -2.0943  -2.0369  -2.0189
    -1.9740  -1.8524  -1.8339  -1.7960  -1.7617  -1.7056  -1.6693  -1.6393
    -1.5695  -1.5178  -1.4772  -1.4620  -1.4216  -1.3752  -1.3416  -1.3199
    -1.3005  -1.2634  -1.2397  -1.2193  -1.1769  -1.1709  -1.1524  -1.1163
    -1.0854  -1.0607  -1.0048  -0.9463  -0.9255  -0.8957  -0.8400  -0.7754
    -0.7625  -0.7466  -0.7131  -0.6908  -0.6634  -0.6242  -0.5812  -0.5603
    -0.5426  -0.5022  -0.4897  -0.4523  -0.3905  -0.3553  -0.3451  -0.3339
    -0.3031  -0.2558  -0.2204  -0.1708  -0.1478  -0.1365  -0.1140  -0.0800
    -0.0721  -0.0539  -0.0414  -0.0142   0.0001   0.0259   0.0524   0.0795
     0.0936   0.0994   0.1147   0.1308   0.1596   0.1693   0.2097   0.3318
     0.3933   0.4195   0.4478   0.5093   0.5723   0.6018   0.6221   0.6532
     0.6727   0.6938   0.7219   0.7541   0.7631   0.7941   0.8352   0.8651
     0.9189   0.9744   0.9803   0.9974   1.0332   1.0703   1.1516   1.1758
     1.2304   1.2570   1.3040   1.3250   1.3586   1.3656   1.3985   1.4100
     1.4394   1.4732   1.5196   1.5374   1.5637   1.5989   1.6180   1.6384
     1.6858   1.7003   1.7534   1.8073   1.9039   1.9252   1.9838   2.0676
     2.0884   2.1093   2.1421   2.1693   2.2325   2.2434   2.2928   2.3381
     2.3619   2.3946   2.4381   2.4462   2.4643   2.5216   2.5337   2.5694
     2.5926   2.5998   2.6193   2.6597   2.6710   2.7073   2.7552   2.7728
     2.8184   2.8783   2.8939   2.9138   2.9505   2.9992   3.0218   3.1412
     3.4600   3.7384   3.9995   4.0564   4.1942   4.3218   4.3389   4.3667
     4.5670   4.7266   4.9041   5.0910   5.1680   5.2123   5.5119   5.5540
     5.7257   5.7897   5.8974   5.9473   6.1179   6.1982   6.3960   6.4467
     6.7590   7.0447   7.1089   7.1851

          k = 0.4000-0.4619 0.0000 ( 43014 PWs)   bands (ev):

   -10.1124  -5.1961  -5.1451  -4.8124  -4.5005  -4.0259  -3.8468  -3.4769
    -3.3893  -3.3389  -3.2376  -3.1718  -3.1093  -3.0877  -3.0430  -2.9897
    -2.9357  -2.8733  -2.8667  -2.8507  -2.8165  -2.7881  -2.7785  -2.7169
    -2.6593  -2.6537  -2.6418  -2.6206  -2.5359  -2.4948  -2.3964  -2.3513
    -2.3400  -2.2890  -2.2431  -2.2013  -2.1793  -2.0945  -2.0371  -2.0192
    -1.9742  -1.8526  -1.8334  -1.7960  -1.7619  -1.7057  -1.6695  -1.6394
    -1.5692  -1.5174  -1.4772  -1.4617  -1.4219  -1.3751  -1.3424  -1.3201
    -1.3009  -1.2636  -1.2399  -1.2196  -1.1772  -1.1711  -1.1525  -1.1166
    -1.0852  -1.0609  -1.0051  -0.9462  -0.9257  -0.8956  -0.8397  -0.7749
    -0.7629  -0.7464  -0.7129  -0.6901  -0.6629  -0.6240  -0.5811  -0.5604
    -0.5427  -0.5022  -0.4900  -0.4525  -0.3903  -0.3550  -0.3456  -0.3341
    -0.3029  -0.2551  -0.2207  -0.1710  -0.1482  -0.1360  -0.1138  -0.0800
    -0.0718  -0.0533  -0.0411  -0.0142   0.0007   0.0266   0.0521   0.0790
     0.0938   0.0993   0.1146   0.1302   0.1598   0.1693   0.2093   0.3325
     0.3935   0.4197   0.4480   0.5092   0.5724   0.6014   0.6220   0.6533
     0.6728   0.6941   0.7214   0.7540   0.7631   0.7940   0.8351   0.8650
     0.9191   0.9746   0.9805   0.9976   1.0332   1.0706   1.1516   1.1760
     1.2303   1.2567   1.3040   1.3251   1.3587   1.3657   1.3985   1.4101
     1.4393   1.4733   1.5196   1.5372   1.5636   1.5989   1.6180   1.6382
     1.6859   1.7006   1.7536   1.8072   1.9042   1.9252   1.9838   2.0674
     2.0882   2.1092   2.1421   2.1693   2.2324   2.2435   2.2927   2.3383
     2.3621   2.3949   2.4380   2.4465   2.4645   2.5216   2.5335   2.5695
     2.5924   2.5997   2.6192   2.6599   2.6712   2.7076   2.7552   2.7730
     2.8181   2.8779   2.8932   2.9137   2.9503   2.9988   3.0215   3.1411
     3.4600   3.7383   3.9995   4.0564   4.1942   4.3218   4.3390   4.3672
     4.5668   4.7265   4.9040   5.0910   5.1678   5.2122   5.5120   5.5538
     5.7258   5.7885   5.8964   5.9473   6.1184   6.1987   6.3960   6.4467
     6.7591   7.0447   7.1092   7.1857

     the Fermi energy is     2.6722 ev

!    total energy              =  -27774.42736336 Ry
     total all-electron energy =  -1326718.956877 Ry
     estimated scf accuracy    <          6.0E-09 Ry
     smearing contrib. (-TS)   =       0.00454453 Ry
     internal energy E=F+TS    =  -27774.43190789 Ry

     The total energy is F=E-TS. E is the sum of the following terms:
     one-electron contribution =  -20797.63581603 Ry
     hartree contribution      =   10709.25099828 Ry
     xc contribution           =    -895.61137014 Ry
     ewald contribution        =    8690.14814602 Ry
     one-center paw contrib.   =  -25480.58386602 Ry

     convergence has been achieved in  22 iterations

     negative rho (up, down):  3.143E-03 0.000E+00

     Forces acting on atoms (cartesian axes, Ry/au):

     atom    1 type  1   force =     0.00006394   -0.00053687   -0.00317536
     atom    2 type  1   force =    -0.00009227   -0.00053744   -0.00317019
     atom    3 type  1   force =    -0.00001410   -0.00145491   -0.00390049
     atom    4 type  1   force =    -0.00001652   -0.00078299   -0.00327660
     atom    5 type  1   force =     0.00039482   -0.00015523   -0.00392041
     atom    6 type  1   force =    -0.00042616   -0.00015633   -0.00391960
     atom    7 type  1   force =     0.00049839   -0.00051153   -0.00448981
     atom    8 type  1   force =    -0.00001747   -0.00091890   -0.00398608
     atom    9 type  1   force =    -0.00052361   -0.00050730   -0.00448568
     atom   10 type  1   force =     0.00004813    0.00093691    0.00806544
     atom   11 type  1   force =     0.00017171   -0.00135721    0.00364445
     atom   12 type  1   force =    -0.00008928   -0.00134771    0.00363107
     atom   13 type  1   force =    -0.00095525    0.00121306    0.00165716
     atom   14 type  1   force =     0.00003690    0.00132840    0.00028898
     atom   15 type  1   force =     0.00103588    0.00121383    0.00165317
     atom   16 type  1   force =    -0.00162063    0.00158987    0.00314293
     atom   17 type  1   force =     0.00170435    0.00159269    0.00314551
     atom   18 type  1   force =     0.00002703    0.00180809   -0.00369368
     atom   19 type  1   force =    -0.00065704    0.00032725   -0.00162065
     atom   20 type  1   force =     0.00064497    0.00032332   -0.00159655
     atom   21 type  1   force =    -0.00000766    0.00008979    0.00014236
     atom   22 type  1   force =    -0.00001563    0.00530290   -0.00672365
     atom   23 type  1   force =     0.00002661    0.00065742    0.00036860
     atom   24 type  1   force =    -0.00003677    0.00065467    0.00036263
     atom   25 type  1   force =     0.00027226    0.00080595    0.00009186
     atom   26 type  1   force =    -0.00000223    0.00036055    0.00064476
     atom   27 type  1   force =    -0.00027852    0.00080266    0.00007028
     atom   28 type  1   force =     0.00467866    0.00444093    0.00238859
     atom   29 type  1   force =    -0.00471396    0.00444554    0.00236864
     atom   30 type  1   force =    -0.00001312    0.00099381   -0.00002436
     atom   31 type  1   force =    -0.00000540    0.00149239   -0.01872245
     atom   32 type  1   force =     0.00004512    0.00101018    0.00054562
     atom   33 type  1   force =    -0.00006336    0.00100390    0.00055927
     atom   34 type  1   force =     0.00060090    0.00195474    0.00053976
     atom   35 type  1   force =    -0.00000944    0.00141795    0.00126472
     atom   36 type  1   force =    -0.00063385    0.00196171    0.00053485
     atom   37 type  2   force =    -0.00002172    0.01727937    0.01104917
     atom   38 type  3   force =    -0.00003566   -0.04674144    0.02054575
     The non-local contrib.  to forces
     atom    1 type  1   force =     0.00009695    0.00002282   -0.01918454
     atom    2 type  1   force =    -0.00008757    0.00002361   -0.01918436
     atom    3 type  1   force =     0.00000155    0.00058032   -0.01847626
     atom    4 type  1   force =     0.00000404    0.00058004   -0.01868095
     atom    5 type  1   force =     0.00048213    0.00024143   -0.01855016
     atom    6 type  1   force =    -0.00047583    0.00024365   -0.01855113
     atom    7 type  1   force =    -0.00142238   -0.00001583   -0.01805179
     atom    8 type  1   force =     0.00000524    0.00001653   -0.01734614
     atom    9 type  1   force =     0.00143181   -0.00001829   -0.01804807
     atom   10 type  1   force =     0.00005020    0.00150872    0.00111102
     atom   11 type  1   force =    -0.00089316    0.00236346   -0.00003086
     atom   12 type  1   force =     0.00098336    0.00236618   -0.00004229
     atom   13 type  1   force =     0.00048439   -0.00142629   -0.00040357
     atom   14 type  1   force =     0.00004535    0.00111642   -0.00240865
     atom   15 type  1   force =    -0.00039341   -0.00142180   -0.00041126
     atom   16 type  1   force =     0.00207904    0.00184438    0.00027647
     atom   17 type  1   force =    -0.00198709    0.00184545    0.00027805
     atom   18 type  1   force =     0.00002646    0.00326736    0.00162708
     atom   19 type  1   force =    -0.00018942    0.00366188    0.00941069
     atom   20 type  1   force =     0.00016848    0.00367507    0.00944100
     atom   21 type  1   force =     0.00000537    0.00359199    0.00594483
     atom   22 type  1   force =    -0.00000742    0.00339022    0.00086114
     atom   23 type  1   force =     0.00186185   -0.00127400    0.00586124
     atom   24 type  1   force =    -0.00186579   -0.00128047    0.00585797
     atom   25 type  1   force =    -0.00644184   -0.00280410   -0.00400779
     atom   26 type  1   force =    -0.00002649   -0.00055698    0.01291440
     atom   27 type  1   force =     0.00641126   -0.00280099   -0.00401678
     atom   28 type  1   force =     0.04680569    0.01629980   -0.03805951
     atom   29 type  1   force =    -0.04685788    0.01631308   -0.03805402
     atom   30 type  1   force =    -0.00002810    0.00076626    0.01373716
     atom   31 type  1   force =    -0.00004877   -0.09442638    0.05270326
     atom   32 type  1   force =    -0.01825411   -0.00612608    0.02128971
     atom   33 type  1   force =     0.01817320   -0.00615080    0.02129205
     atom   34 type  1   force =    -0.00356276   -0.00446502    0.01632408
     atom   35 type  1   force =    -0.00005655    0.01763165    0.02179379
     atom   36 type  1   force =     0.00345376   -0.00448823    0.01630725
     atom   37 type  2   force =    -0.00000539    0.22435817   -0.12316724
     atom   38 type  3   force =    -0.00001931   -0.04789323   -0.04886668
     The ionic contribution  to forces
     atom    1 type  1   force =     0.00300695   -0.00310484  -94.03821642
     atom    2 type  1   force =    -0.00297019   -0.00310807  -94.03815895
     atom    3 type  1   force =    -0.00003288   -0.01259934  -94.04343578
     atom    4 type  1   force =     0.00001565   -0.00798596  -94.05160823
     atom    5 type  1   force =    -0.00905608   -0.00822414  -94.06813862
     atom    6 type  1   force =     0.00904475   -0.00820416  -94.06816855
     atom    7 type  1   force =    -0.00523977    0.01259385  -94.05124196
     atom    8 type  1   force =     0.00001162    0.01833082  -94.05960964
     atom    9 type  1   force =     0.00523288    0.01262765  -94.05121224
     atom   10 type  1   force =     0.00060630   -0.03232276  -32.55689148
     atom   11 type  1   force =    -0.06285398   -0.08302661  -32.61913886
     atom   12 type  1   force =     0.06369906   -0.08276464  -32.61943946
     atom   13 type  1   force =    -0.04860367   -0.04096340  -32.65317236
     atom   14 type  1   force =     0.00039162    0.03556841  -32.74475798
     atom   15 type  1   force =     0.04964533   -0.04087654  -32.65331849
     atom   16 type  1   force =     0.00105810    0.12636936  -32.57303487
     atom   17 type  1   force =     0.00016138    0.12664510  -32.57286364
     atom   18 type  1   force =     0.00009039    0.11788100  -32.48396291
     atom   19 type  1   force =     0.04062412   -0.18070454   29.78312966
     atom   20 type  1   force =    -0.04067879   -0.18132371   29.78445626
     atom   21 type  1   force =    -0.00001061   -0.13708134   29.01660886
     atom   22 type  1   force =    -0.00010651    0.27889149   28.96577245
     atom   23 type  1   force =    -0.04040581    0.13325484   29.06464484
     atom   24 type  1   force =     0.04049638    0.13333052   29.06345841
     atom   25 type  1   force =    -0.05532715   -0.01845959   29.76836133
     atom   26 type  1   force =     0.00007889    0.10578736   30.10005863
     atom   27 type  1   force =     0.05466490   -0.01813291   29.77153459
     atom   28 type  1   force =    -2.70248460   -1.76727763   90.87011517
     atom   29 type  1   force =     2.70197670   -1.76695010   90.87721763
     atom   30 type  1   force =     0.00012811    0.03726776   91.43680974
     atom   31 type  1   force =    -0.00019168    2.61634848   88.21987070
     atom   32 type  1   force =     0.35269113    0.17027663   90.94114478
     atom   33 type  1   force =    -0.35329423    0.17018203   90.93975426
     atom   34 type  1   force =     0.11694949    0.09022610   91.56739573
     atom   35 type  1   force =    -0.00057457   -0.22382015   90.99653963
     atom   36 type  1   force =    -0.11797027    0.08956693   91.56635690
     atom   37 type  2   force =    -0.00105424   -0.72504556   44.80709977
     atom   38 type  3   force =     0.00028131    1.06682768   12.40604110
     The local contribution  to forces
     atom    1 type  1   force =    -0.00301211    0.00256477   94.03713163
     atom    2 type  1   force =     0.00292232    0.00256658   94.03707308
     atom    3 type  1   force =     0.00002487    0.01041341   94.04078643
     atom    4 type  1   force =    -0.00004320    0.00660563   94.04995082
     atom    5 type  1   force =     0.00893164    0.00772675   94.06570070
     atom    6 type  1   force =    -0.00895822    0.00769455   94.06573584
     atom    7 type  1   force =     0.00713376   -0.01314236   94.04741548
     atom    8 type  1   force =    -0.00004176   -0.01923421   94.05585476
     atom    9 type  1   force =    -0.00716274   -0.01317716   94.04738698
     atom   10 type  1   force =    -0.00062051    0.03169570   32.56307420
     atom   11 type  1   force =     0.06372537    0.07916031   32.62179201
     atom   12 type  1   force =    -0.06456560    0.07890270   32.62208715
     atom   13 type  1   force =     0.04699691    0.04358705   32.65414587
     atom   14 type  1   force =    -0.00039904   -0.03525642   32.74598199
     atom   15 type  1   force =    -0.04804962    0.04348040   32.65429069
     atom   16 type  1   force =    -0.00486985   -0.12635881   32.57502086
     atom   17 type  1   force =     0.00363255   -0.12663784   32.57484830
     atom   18 type  1   force =    -0.00007856   -0.11900439   32.47833006
     atom   19 type  1   force =    -0.04060342    0.17715055  -29.79079840
     atom   20 type  1   force =     0.04065741    0.17775945  -29.79211718
     atom   21 type  1   force =     0.00000133    0.13346641  -29.02075054
     atom   22 type  1   force =     0.00010424   -0.27591870  -28.97203415
     atom   23 type  1   force =     0.03831805   -0.13108566  -29.06846330
     atom   24 type  1   force =    -0.03842545   -0.13116617  -29.06728385
     atom   25 type  1   force =     0.06190284    0.02207041  -29.76224168
     atom   26 type  1   force =    -0.00006718   -0.10434434  -30.10897995
     atom   27 type  1   force =    -0.06121186    0.02174115  -29.76542287
     atom   28 type  1   force =     2.64547417    1.74648602  -90.82439258
     atom   29 type  1   force =    -2.64495921    1.74616275  -90.83150859
     atom   30 type  1   force =    -0.00011206   -0.03652786  -91.43452029
     atom   31 type  1   force =     0.00023746   -2.50722558  -88.29219350
     atom   32 type  1   force =    -0.33655652   -0.16428324  -90.94568716
     atom   33 type  1   force =     0.33721287   -0.16417637  -90.94428631
     atom   34 type  1   force =    -0.11222845   -0.08385286  -91.56741564
     atom   35 type  1   force =     0.00061031    0.20981140  -91.00106413
     atom   36 type  1   force =     0.11332552   -0.08316345  -91.56635942
     atom   37 type  2   force =     0.00111725    0.52207281  -44.67589003
     atom   38 type  3   force =    -0.00029947   -1.06567960  -12.33663238
     The core correction contribution to forces
     atom    1 type  1   force =    -0.00003965   -0.00002761    0.01716258
     atom    2 type  1   force =     0.00004032   -0.00002771    0.01716228
     atom    3 type  1   force =     0.00000068    0.00014128    0.01729093
     atom    4 type  1   force =     0.00000031    0.00003816    0.01713908
     atom    5 type  1   force =     0.00003801    0.00012303    0.01714553
     atom    6 type  1   force =    -0.00003697    0.00012284    0.01714580
     atom    7 type  1   force =     0.00002497    0.00003100    0.01746793
     atom    8 type  1   force =     0.00000064   -0.00006168    0.01719873
     atom    9 type  1   force =    -0.00002304    0.00003067    0.01746767
     atom   10 type  1   force =    -0.00000203    0.00006500    0.00076808
     atom   11 type  1   force =     0.00019976    0.00015604    0.00101895
     atom   12 type  1   force =    -0.00020440    0.00015494    0.00102028
     atom   13 type  1   force =     0.00016789    0.00003955    0.00108576
     atom   14 type  1   force =    -0.00000176   -0.00008403    0.00146927
     atom   15 type  1   force =    -0.00017233    0.00004002    0.00108657
     atom   16 type  1   force =     0.00010295   -0.00030591    0.00088784
     atom   17 type  1   force =    -0.00010838   -0.00030638    0.00088771
     atom   18 type  1   force =    -0.00000219   -0.00037365    0.00031603
     atom   19 type  1   force =    -0.00049465    0.00022827   -0.00338704
     atom   20 type  1   force =     0.00049627    0.00023114   -0.00339406
     atom   21 type  1   force =    -0.00000151    0.00012744   -0.00168589
     atom   22 type  1   force =    -0.00000017   -0.00105061   -0.00136195
     atom   23 type  1   force =     0.00024676   -0.00023059   -0.00170774
     atom   24 type  1   force =    -0.00024815   -0.00023040   -0.00170509
     atom   25 type  1   force =     0.00013700   -0.00003925   -0.00204161
     atom   26 type  1   force =     0.00000065   -0.00056143   -0.00336105
     atom   27 type  1   force =    -0.00013599   -0.00004038   -0.00204105
     atom   28 type  1   force =     0.01489403    0.00892087   -0.00529975
     atom   29 type  1   force =    -0.01489075    0.00891429   -0.00530723
     atom   30 type  1   force =    -0.00000002   -0.00053620   -0.01607613
     atom   31 type  1   force =    -0.00000026   -0.01321999    0.00088224
     atom   32 type  1   force =     0.00215167    0.00114872   -0.01623274
     atom   33 type  1   force =    -0.00215001    0.00114787   -0.01623429
     atom   34 type  1   force =    -0.00055726    0.00004324   -0.01580382
     atom   35 type  1   force =     0.00000106   -0.00220045   -0.01604477
     atom   36 type  1   force =     0.00056135    0.00004416   -0.01580581
     atom   37 type  2   force =    -0.00008141   -0.00410989    0.00298702
     atom   38 type  3   force =     0.00000000    0.00000000    0.00000000
     The Hubbard contrib.    to forces
     atom    1 type  1   force =     0.00000000    0.00000000    0.00000000
     atom    2 type  1   force =     0.00000000    0.00000000    0.00000000
     atom    3 type  1   force =     0.00000000    0.00000000    0.00000000
     atom    4 type  1   force =     0.00000000    0.00000000    0.00000000
     atom    5 type  1   force =     0.00000000    0.00000000    0.00000000
     atom    6 type  1   force =     0.00000000    0.00000000    0.00000000
     atom    7 type  1   force =     0.00000000    0.00000000    0.00000000
     atom    8 type  1   force =     0.00000000    0.00000000    0.00000000
     atom    9 type  1   force =     0.00000000    0.00000000    0.00000000
     atom   10 type  1   force =     0.00000000    0.00000000    0.00000000
     atom   11 type  1   force =     0.00000000    0.00000000    0.00000000
     atom   12 type  1   force =     0.00000000    0.00000000    0.00000000
     atom   13 type  1   force =     0.00000000    0.00000000    0.00000000
     atom   14 type  1   force =     0.00000000    0.00000000    0.00000000
     atom   15 type  1   force =     0.00000000    0.00000000    0.00000000
     atom   16 type  1   force =     0.00000000    0.00000000    0.00000000
     atom   17 type  1   force =     0.00000000    0.00000000    0.00000000
     atom   18 type  1   force =     0.00000000    0.00000000    0.00000000
     atom   19 type  1   force =     0.00000000    0.00000000    0.00000000
     atom   20 type  1   force =     0.00000000    0.00000000    0.00000000
     atom   21 type  1   force =     0.00000000    0.00000000    0.00000000
     atom   22 type  1   force =     0.00000000    0.00000000    0.00000000
     atom   23 type  1   force =     0.00000000    0.00000000    0.00000000
     atom   24 type  1   force =     0.00000000    0.00000000    0.00000000
     atom   25 type  1   force =     0.00000000    0.00000000    0.00000000
     atom   26 type  1   force =     0.00000000    0.00000000    0.00000000
     atom   27 type  1   force =     0.00000000    0.00000000    0.00000000
     atom   28 type  1   force =     0.00000000    0.00000000    0.00000000
     atom   29 type  1   force =     0.00000000    0.00000000    0.00000000
     atom   30 type  1   force =     0.00000000    0.00000000    0.00000000
     atom   31 type  1   force =     0.00000000    0.00000000    0.00000000
     atom   32 type  1   force =     0.00000000    0.00000000    0.00000000
     atom   33 type  1   force =     0.00000000    0.00000000    0.00000000
     atom   34 type  1   force =     0.00000000    0.00000000    0.00000000
     atom   35 type  1   force =     0.00000000    0.00000000    0.00000000
     atom   36 type  1   force =     0.00000000    0.00000000    0.00000000
     atom   37 type  2   force =     0.00000000    0.00000000    0.00000000
     atom   38 type  3   force =     0.00000000    0.00000000    0.00000000
     The SCF correction term to forces
     atom    1 type  1   force =     0.00000000    0.00000000   -0.00000000
     atom    2 type  1   force =     0.00000000    0.00000000   -0.00000000
     atom    3 type  1   force =    -0.00000000    0.00000000   -0.00000000
     atom    4 type  1   force =     0.00000000   -0.00000000   -0.00000000
     atom    5 type  1   force =    -0.00000000   -0.00000000   -0.00000000
     atom    6 type  1   force =    -0.00000000   -0.00000000   -0.00000000
     atom    7 type  1   force =    -0.00000000    0.00000000   -0.00000000
     atom    8 type  1   force =     0.00000000    0.00000000   -0.00000000
     atom    9 type  1   force =    -0.00000000    0.00000000   -0.00000000
     atom   10 type  1   force =     0.00000000   -0.00000000    0.00000000
     atom   11 type  1   force =    -0.00000000   -0.00000000    0.00000000
     atom   12 type  1   force =    -0.00000000   -0.00000000    0.00000000
     atom   13 type  1   force =    -0.00000000   -0.00000000    0.00000000
     atom   14 type  1   force =    -0.00000000   -0.00000000    0.00000000
     atom   15 type  1   force =     0.00000000   -0.00000000    0.00000000
     atom   16 type  1   force =     0.00000000    0.00000000   -0.00000000
     atom   17 type  1   force =     0.00000000    0.00000000   -0.00000000
     atom   18 type  1   force =    -0.00000000    0.00000000   -0.00000000
     atom   19 type  1   force =     0.00000433   -0.00001457    0.00002324
     atom   20 type  1   force =    -0.00000039   -0.00002429    0.00001623
     atom   21 type  1   force =    -0.00000423   -0.00002038    0.00002390
     atom   22 type  1   force =    -0.00000777   -0.00001517    0.00003766
     atom   23 type  1   force =     0.00000376   -0.00001283    0.00003236
     atom   24 type  1   force =     0.00000426   -0.00000448    0.00003400
     atom   25 type  1   force =    -0.00000058    0.00003281    0.00002041
     atom   26 type  1   force =     0.00000991    0.00003026    0.00001153
     atom   27 type  1   force =    -0.00000882    0.00003011    0.00001519
     atom   28 type  1   force =    -0.00001262    0.00000621    0.00002405
     atom   29 type  1   force =     0.00001519   -0.00000015    0.00001965
     atom   30 type  1   force =    -0.00000304    0.00001819    0.00002397
     atom   31 type  1   force =    -0.00000414    0.00001018    0.00001363
     atom   32 type  1   force =     0.00001095   -0.00001152    0.00002981
     atom   33 type  1   force =    -0.00000719   -0.00000451    0.00003235
     atom   34 type  1   force =    -0.00000211   -0.00000240    0.00003820
     atom   35 type  1   force =     0.00000832   -0.00001016    0.00003900
     atom   36 type  1   force =    -0.00000620   -0.00000336    0.00003472
     atom   37 type  2   force =     0.00000008   -0.00000183    0.00001845
     atom   38 type  3   force =    -0.00000018   -0.00000197    0.00000252

     Total force =     0.059785     Total SCF correction =     0.000142

     Writing all to output data dir ./pwscf.save/

     init_run     :     16.97s CPU     17.34s WALL (       1 calls)
     electrons    :    454.48s CPU    472.26s WALL (       1 calls)
     forces       :     10.10s CPU     11.22s WALL (       1 calls)

     Called by init_run:
     wfcinit      :     12.17s CPU     12.38s WALL (       1 calls)
     potinit      :      3.22s CPU      3.31s WALL (       1 calls)
     hinit0       :      0.99s CPU      1.01s WALL (       1 calls)

     Called by electrons:
     c_bands      :    382.82s CPU    395.24s WALL (      23 calls)
     sum_band     :     51.18s CPU     53.34s WALL (      23 calls)
     v_of_rho     :     10.04s CPU     11.98s WALL (      23 calls)
     newd         :      3.12s CPU      3.98s WALL (      23 calls)
     PAW_pot      :      4.82s CPU      4.94s WALL (      23 calls)
     mix_rho      :      4.46s CPU      4.57s WALL (      23 calls)
     vdW_kernel   :      1.71s CPU      1.72s WALL (       1 calls)

     Called by c_bands:
     init_us_2    :      3.26s CPU      3.53s WALL (     624 calls)
     init_us_2:cp :      3.26s CPU      3.53s WALL (     624 calls)
     cegterg      :    373.27s CPU    385.26s WALL (     299 calls)

     Called by *egterg:
     cdiaghg      :     93.51s CPU     97.13s WALL (    1458 calls)
     h_psi        :    173.38s CPU    178.00s WALL (    1484 calls)
     s_psi        :     17.87s CPU     18.31s WALL (    1484 calls)
     g_psi        :      0.53s CPU      0.55s WALL (    1172 calls)

     Called by h_psi:
     h_psi:calbec :     27.65s CPU     28.96s WALL (    1484 calls)
     vloc_psi     :    126.28s CPU    129.21s WALL (    1484 calls)
     add_vuspsi   :     18.13s CPU     18.48s WALL (    1484 calls)

     General routines
     calbec       :     45.37s CPU     47.15s WALL (    1835 calls)
     fft          :      5.87s CPU      7.96s WALL (    1509 calls)
     ffts         :      2.39s CPU      2.43s WALL (    5321 calls)
     fftw         :    135.34s CPU    138.46s WALL (  386124 calls)
     interpolate  :      0.70s CPU      0.77s WALL (      23 calls)

     Parallel routines

     PWSCF        :   8m 3.20s CPU   8m25.59s WALL


   This run was terminated on:   3:28:26   2Mar2025            

=------------------------------------------------------------------------------=
   JOB DONE.
=------------------------------------------------------------------------------=
