
     Program PWSCF v.7.1 starts on  6Dec2025 at 15:33: 2 
        Git branch: heads/qe-7.1
        Last git commit: 48ba0178f8fede6d020eb786884699a9f063f55d-dirty
        Last git commit date: Fri Jan 27 14:22:33 2023 +0000
        Last git commit subject: Merge branch 'fix_hubbard' into 'develop'

     This program is part of the open-source Quantum ESPRESSO suite
     for quantum simulation of materials; please cite
         "P. Giannozzi et al., J. Phys.:Condens. Matter 21 395502 (2009);
         "P. Giannozzi et al., J. Phys.:Condens. Matter 29 465901 (2017);
         "P. Giannozzi et al., J. Chem. Phys. 152 154105 (2020);
          URL http://www.quantum-espresso.org", 
     in publications or presentations arising from this work. More details at
     http://www.quantum-espresso.org/quote

     Parallel version (MPI), running on    48 processors

     MPI processes distributed on     1 nodes
     37614 MiB available memory on the printing compute node when the environment starts

     Reading input from espresso.pwi
Warning: card &CELL ignored
Warning: card / ignored
Warning: card &FCP ignored
Warning: card / ignored
Warning: card &RISM ignored
Warning: card / ignored

     Current dimensions of program PWSCF are:
     Max number of different atomic species (ntypx) = 10
     Max number of k-points (npk) =  40000
     Max angular momentum in pseudopotentials (lmaxx) =  4
     file Pt.pbe-n-kjpaw_psl.1.0.0.UPF: wavefunction(s)  6S 5D renormalized
     file C.pbe-n-kjpaw_psl.1.0.0.UPF: wavefunction(s)  2S 2P renormalized
     file H.pbe-kjpaw_psl.1.0.0.UPF: wavefunction(s)  1S renormalized

     **************************************************************************
     Initializing libbeef V0.1.2 with the BEEF-vdW functional.
     Citation: Wellendorff et al., PRB 85, 235149 (2012).
     **************************************************************************


     IMPORTANT: XC functional enforced from input :
     Exchange-correlation= BEEF-VDW
                           (   1   4  43  14   2   0   0)
     Any further DFT definition will be discarded
     Please, verify this is what you really want


     R & G space division:  proc/nbgrp/npool/nimage =      48
     Subspace diagonalization in iterative solution of the eigenvalue problem:
     one sub-group per band group will be used
     custom distributed-memory algorithm (size of sub-group:  2*  2 procs)


     Parallelization info
     --------------------
     sticks:   dense  smooth     PW     G-vecs:    dense   smooth      PW
     Min         151      59     16                29407     7165    1028
     Max         152      60     17                29420     7176    1042
     Sum        7267    2839    769              1411785   344073   49691

     Using Slab Decomposition



     bravais-lattice index     =            0
     lattice parameter (alat)  =      16.0349  a.u.
     unit-cell volume          =   10068.6169 (a.u.)^3
     number of atoms/cell      =           39
     number of atomic types    =            3
     number of electrons       =       369.00
     number of Kohn-Sham states=          222
     kinetic-energy cutoff     =      40.0000  Ry
     charge density cutoff     =     410.0000  Ry
     scf convergence threshold =      1.0E-06
     mixing beta               =       0.7000
     number of iterations used =            8  local-TF  mixing
     Exchange-correlation= BEEF-VDW
                           (   1   4  43  14   2   0   0)

     celldm(1)=  16.034858  celldm(2)=   0.000000  celldm(3)=   0.000000
     celldm(4)=   0.000000  celldm(5)=   0.000000  celldm(6)=   0.000000

     crystal axes: (cart. coord. in units of alat)
               a(1) = (   1.000000   0.000000   0.000000 )  
               a(2) = (   0.500000   0.866025   0.000000 )  
               a(3) = (   0.000000   0.000000   2.819966 )  

     reciprocal axes: (cart. coord. in units 2 pi/alat)
               b(1) = (  1.000000 -0.577350  0.000000 )  
               b(2) = (  0.000000  1.154701  0.000000 )  
               b(3) = (  0.000000  0.000000  0.354614 )  


     PseudoPot. # 1 for Pt read from file:
     /users/kbadger1/espresso/pseudo/pslibrary.1.0.0/pbe/PSEUDOPOTENTIALS/Pt.pbe-n-kjpaw_psl.1.0.0.UPF
     MD5 check sum: 2e24a0b5bf98a4ed1a57fa81bca8c143
     Pseudo is Projector augmented-wave + core cor, Zval = 10.0
     Generated using 'atomic' code by A. Dal Corso  v.7.0
     Shape of augmentation charge: PSQ
     Using radial grid of 1277 points,  6 beta functions with: 
                l(1) =   0
                l(2) =   0
                l(3) =   1
                l(4) =   1
                l(5) =   2
                l(6) =   2
     Q(r) pseudized with 0 coefficients 


     PseudoPot. # 2 for C  read from file:
     /users/kbadger1/espresso/pseudo/pslibrary.1.0.0/pbe/PSEUDOPOTENTIALS/C.pbe-n-kjpaw_psl.1.0.0.UPF
     MD5 check sum: 6408e75cdba28732cea38a4db8498ce4
     Pseudo is Projector augmented-wave + core cor, Zval =  4.0
     Generated using 'atomic' code by A. Dal Corso  v.7.0
     Shape of augmentation charge: PSQ
     Using radial grid of 1073 points,  4 beta functions with: 
                l(1) =   0
                l(2) =   0
                l(3) =   1
                l(4) =   1
     Q(r) pseudized with 0 coefficients 


     PseudoPot. # 3 for H  read from file:
     /users/kbadger1/espresso/pseudo/pslibrary.1.0.0/pbe/PSEUDOPOTENTIALS/H.pbe-kjpaw_psl.1.0.0.UPF
     MD5 check sum: fe4c6fa958fa6d3815bf5d2419cbf1df
     Pseudo is Projector augmented-wave, Zval =  1.0
     Generated using 'atomic' code by A. Dal Corso  v.7.0
     Shape of augmentation charge: PSQ
     Using radial grid of  929 points,  2 beta functions with: 
                l(1) =   0
                l(2) =   0
     Q(r) pseudized with 0 coefficients 


     atomic species   valence    mass     pseudopotential
        Pt            10.00   195.08400     Pt( 1.00)
        C              4.00    12.01100     C ( 1.00)
        H              1.00     1.00800     H ( 1.00)

     No symmetry found



   Cartesian axes

     site n.     atom                  positions (alat units)
         1           Pt  tau(   1) = (   0.0000000   0.0000000   1.0017346  )
         2           Pt  tau(   2) = (   0.3333333   0.0000000   1.0017346  )
         3           Pt  tau(   3) = (   0.6666667   0.0000000   1.0017346  )
         4           Pt  tau(   4) = (   0.1666667   0.2886751   1.0017346  )
         5           Pt  tau(   5) = (   0.5000000   0.2886751   1.0017346  )
         6           Pt  tau(   6) = (   0.8333333   0.2886751   1.0017346  )
         7           Pt  tau(   7) = (   0.3333333   0.5773503   1.0017346  )
         8           Pt  tau(   8) = (   0.6666667   0.5773503   1.0017346  )
         9           Pt  tau(   9) = (   1.0000000   0.5773503   1.0017346  )
        10           Pt  tau(  10) = (   0.1666667   0.0962250   1.2739001  )
        11           Pt  tau(  11) = (   0.5000000   0.0962250   1.2739001  )
        12           Pt  tau(  12) = (   0.8333333   0.0962250   1.2739001  )
        13           Pt  tau(  13) = (   0.3333333   0.3849002   1.2739001  )
        14           Pt  tau(  14) = (   0.6666667   0.3849002   1.2739001  )
        15           Pt  tau(  15) = (   1.0000000   0.3849002   1.2739001  )
        16           Pt  tau(  16) = (   0.5000000   0.6735753   1.2739001  )
        17           Pt  tau(  17) = (   0.8333333   0.6735753   1.2739001  )
        18           Pt  tau(  18) = (   1.1666667   0.6735753   1.2739001  )
        19           Pt  tau(  19) = (   0.0041145   0.1908520   1.5523407  )
        20           Pt  tau(  20) = (   0.3291173   0.1908440   1.5523307  )
        21           Pt  tau(  21) = (   0.6666336   0.1935726   1.5388711  )
        22           Pt  tau(  22) = (   0.1666136   0.4759507   1.5505006  )
        23           Pt  tau(  23) = (   0.4969199   0.4804795   1.5443327  )
        24           Pt  tau(  24) = (   0.8363332   0.4804772   1.5443257  )
        25           Pt  tau(  25) = (   0.3345341   0.7686820   1.5460544  )
        26           Pt  tau(  26) = (   0.6666254   0.7696969   1.5464062  )
        27           Pt  tau(  27) = (   0.9987232   0.7686681   1.5460541  )
        28           Pt  tau(  28) = (  -0.0138832  -0.0110232   1.8288069  )
        29           Pt  tau(  29) = (   0.3470739  -0.0110047   1.8287930  )
        30           Pt  tau(  30) = (   0.6665978   0.0048340   1.8128166  )
        31           Pt  tau(  31) = (   0.1664994   0.2964686   1.8968864  )
        32           Pt  tau(  32) = (   0.5030648   0.2847203   1.8146001  )
        33           Pt  tau(  33) = (   0.8300971   0.2847184   1.8146038  )
        34           Pt  tau(  34) = (   0.3407428   0.5751095   1.8296132  )
        35           Pt  tau(  35) = (   0.6665911   0.5680245   1.8124065  )
        36           Pt  tau(  36) = (   0.9924195   0.5751216   1.8296304  )
        37           C   tau(  37) = (   0.1666004   0.0659790   1.9288482  )
        38           H   tau(  38) = (   0.1664393   0.2906455   2.0805034  )
        39           C   tau(  39) = (   0.1665892   0.5416164   1.9642191  )

     number of k points=    13  Marzari-Vanderbilt smearing, width (Ry)=  0.0010
                       cart. coord. in units 2pi/alat
        k(    1) = (   0.0000000   0.0000000   0.0000000), wk =   0.0800000
        k(    2) = (   0.0000000   0.2309401   0.0000000), wk =   0.1600000
        k(    3) = (   0.0000000   0.4618802   0.0000000), wk =   0.1600000
        k(    4) = (   0.2000000  -0.1154701   0.0000000), wk =   0.1600000
        k(    5) = (   0.2000000   0.1154701   0.0000000), wk =   0.1600000
        k(    6) = (   0.2000000   0.3464102   0.0000000), wk =   0.1600000
        k(    7) = (   0.2000000  -0.5773503   0.0000000), wk =   0.1600000
        k(    8) = (   0.2000000  -0.3464102   0.0000000), wk =   0.1600000
        k(    9) = (   0.4000000  -0.2309401   0.0000000), wk =   0.1600000
        k(   10) = (   0.4000000  -0.0000000   0.0000000), wk =   0.1600000
        k(   11) = (   0.4000000   0.2309401   0.0000000), wk =   0.1600000
        k(   12) = (   0.4000000  -0.6928203   0.0000000), wk =   0.1600000
        k(   13) = (   0.4000000  -0.4618802   0.0000000), wk =   0.1600000

     Dense  grid:  1411785 G-vectors     FFT dimensions: ( 108, 108, 300)

     Smooth grid:   344073 G-vectors     FFT dimensions: (  72,  72, 192)

     Estimated max dynamical RAM per process >     207.37 MB

     Estimated total dynamical RAM >       9.72 GB

     Initial potential from superposition of free atoms

     starting charge     368.9938, renormalised to     369.0000

     negative rho (up, down):  3.188E-03 0.000E+00


     %%%%%%%%%%%%%%%%%%%%%%%%%%%%%%%%%%%%%%%%%%%%%%%%%%%%%%%%%%%%%%%%%%%%%%%%
     %                                                                      %
     % You are using vdW-DF, which was implemented by the Thonhauser group. %
     % Please cite the following two papers that made this development      %
     % possible and the two reviews that describe the various versions:     %
     %                                                                      %
     %   T. Thonhauser et al., PRL 115, 136402 (2015).                      %
     %   T. Thonhauser et al., PRB 76, 125112 (2007).                       %
     %   K. Berland et al., Rep. Prog. Phys. 78, 066501 (2015).             %
     %   D.C. Langreth et al., J. Phys.: Condens. Matter 21, 084203 (2009). %
     %                                                                      %
     % If you are calculating stress with vdW-DF, please also cite:         %
     %                                                                      %
     %   R. Sabatini et al., J. Phys.: Condens. Matter 24, 424209 (2012).   %
     %                                                                      %
     %%%%%%%%%%%%%%%%%%%%%%%%%%%%%%%%%%%%%%%%%%%%%%%%%%%%%%%%%%%%%%%%%%%%%%%%

     %%%%%%%%%%%%%%%%%%%%%%%%%%%%%%%%%%%%%%%%%%%%%%%%%%%%%%%%%%%%%%%%%%%%%%%%
     %                                                                      %
     %  vdW-DF NEWS:                                                        %
     %                                                                      %
     %  * vdW-DF3 is now available. DOI: 10.1021/acs.jctc.0c00471           %
     %    use with input_dft = 'vdW-DF3-opt1' or 'vdW-DF3-opt2'             %
     %                                                                      %
     %  * Unscreened and range-separated hybrid vdW-DF-cx functionals       %
     %    DOI: 10.1063/1.4986522 and 10.1088/1361-648X/ac2ad2               %
     %    use with input_dft = 'vdW-DF-cx0'    and 'vdW-DF-ahcx'            %
     %  * Unscreened and range-separated hybrid vdW-DF2-b86r functionals    %
     %    DOI: 10.1063/1.4986522 and DOI: 10.1103/PhysRevX.12.041003        %
     %    use with input_dft = 'vdW-DF2-br0' and 'vdW-DF2-ahbr'             %
     %                                                                      %
     %%%%%%%%%%%%%%%%%%%%%%%%%%%%%%%%%%%%%%%%%%%%%%%%%%%%%%%%%%%%%%%%%%%%%%%%


     Starting wfcs are  333 randomized atomic wfcs
     Checking if some PAW data can be deallocated... 

     total cpu time spent up to now is       11.8 secs

     per-process dynamical memory:   212.5 Mb

     Self-consistent Calculation

     iteration #  1     ecut=    40.00 Ry     beta= 0.70
     Davidson diagonalization with overlap
     ethr =  1.00E-02,  avg # of iterations =  2.0

     Threshold (ethr) on eigenvalues was too large:
     Diagonalizing with lowered threshold

     Davidson diagonalization with overlap
     ethr =  7.18E-04,  avg # of iterations =  2.4

     negative rho (up, down):  1.686E-02 0.000E+00

     total cpu time spent up to now is       45.5 secs

     total energy              =  -27792.74663048 Ry
     estimated scf accuracy    <       2.93483106 Ry

     iteration #  2     ecut=    40.00 Ry     beta= 0.70
     Davidson diagonalization with overlap
     ethr =  7.95E-04,  avg # of iterations =  2.0

     negative rho (up, down):  1.281E-02 0.000E+00

     total cpu time spent up to now is       62.9 secs

     total energy              =  -27793.11656149 Ry
     estimated scf accuracy    <       0.95777420 Ry

     iteration #  3     ecut=    40.00 Ry     beta= 0.70
     Davidson diagonalization with overlap
     ethr =  2.60E-04,  avg # of iterations =  2.0

     negative rho (up, down):  9.190E-03 0.000E+00

     total cpu time spent up to now is       76.5 secs

     total energy              =  -27793.19773220 Ry
     estimated scf accuracy    <       0.30459194 Ry

     iteration #  4     ecut=    40.00 Ry     beta= 0.70
     Davidson diagonalization with overlap
     ethr =  8.25E-05,  avg # of iterations =  9.5

     negative rho (up, down):  4.211E-03 0.000E+00

     total cpu time spent up to now is      103.1 secs

     total energy              =  -27793.23260617 Ry
     estimated scf accuracy    <       0.05481259 Ry

     iteration #  5     ecut=    40.00 Ry     beta= 0.70
     Davidson diagonalization with overlap
     ethr =  1.49E-05,  avg # of iterations = 11.2

     negative rho (up, down):  2.765E-03 0.000E+00

     total cpu time spent up to now is      144.1 secs

     total energy              =  -27793.25508617 Ry
     estimated scf accuracy    <       0.05346384 Ry

     iteration #  6     ecut=    40.00 Ry     beta= 0.70
     Davidson diagonalization with overlap
     ethr =  1.45E-05,  avg # of iterations =  1.6

     negative rho (up, down):  9.302E-04 0.000E+00

     total cpu time spent up to now is      163.0 secs

     total energy              =  -27793.25607973 Ry
     estimated scf accuracy    <       0.00786537 Ry

     iteration #  7     ecut=    40.00 Ry     beta= 0.70
     Davidson diagonalization with overlap
     c_bands:  1 eigenvalues not converged
     c_bands:  1 eigenvalues not converged
     c_bands:  1 eigenvalues not converged
     c_bands:  2 eigenvalues not converged
     c_bands:  2 eigenvalues not converged
     ethr =  2.13E-06,  avg # of iterations = 15.5

     negative rho (up, down):  4.015E-04 0.000E+00

     total cpu time spent up to now is      203.1 secs

     total energy              =  -27793.25722415 Ry
     estimated scf accuracy    <       0.00302196 Ry

     iteration #  8     ecut=    40.00 Ry     beta= 0.70
     Davidson diagonalization with overlap
     c_bands:  1 eigenvalues not converged
     c_bands:  1 eigenvalues not converged
     ethr =  8.19E-07,  avg # of iterations =  7.5

     negative rho (up, down):  2.756E-04 0.000E+00

     total cpu time spent up to now is      228.1 secs

     total energy              =  -27793.25754596 Ry
     estimated scf accuracy    <       0.00064108 Ry

     iteration #  9     ecut=    40.00 Ry     beta= 0.70
     Davidson diagonalization with overlap
     ethr =  1.74E-07,  avg # of iterations =  6.1

     negative rho (up, down):  2.614E-04 0.000E+00

     total cpu time spent up to now is      260.3 secs

     total energy              =  -27793.25773119 Ry
     estimated scf accuracy    <       0.00042513 Ry

     iteration # 10     ecut=    40.00 Ry     beta= 0.70
     Davidson diagonalization with overlap
     ethr =  1.15E-07,  avg # of iterations =  1.2

     negative rho (up, down):  2.933E-04 0.000E+00

     total cpu time spent up to now is      276.8 secs

     total energy              =  -27793.25775762 Ry
     estimated scf accuracy    <       0.00029406 Ry

     iteration # 11     ecut=    40.00 Ry     beta= 0.70
     Davidson diagonalization with overlap
     ethr =  7.97E-08,  avg # of iterations =  3.0

     negative rho (up, down):  3.564E-04 0.000E+00

     total cpu time spent up to now is      292.4 secs

     total energy              =  -27793.25778684 Ry
     estimated scf accuracy    <       0.00025731 Ry

     iteration # 12     ecut=    40.00 Ry     beta= 0.70
     Davidson diagonalization with overlap
     ethr =  6.97E-08,  avg # of iterations =  1.2

     negative rho (up, down):  4.283E-04 0.000E+00

     total cpu time spent up to now is      309.2 secs

     total energy              =  -27793.25779700 Ry
     estimated scf accuracy    <       0.00012212 Ry

     iteration # 13     ecut=    40.00 Ry     beta= 0.70
     Davidson diagonalization with overlap
     ethr =  3.31E-08,  avg # of iterations =  1.2

     negative rho (up, down):  7.991E-04 0.000E+00

     total cpu time spent up to now is      322.6 secs

     total energy              =  -27793.25783959 Ry
     estimated scf accuracy    <       0.00005444 Ry

     iteration # 14     ecut=    40.00 Ry     beta= 0.70
     Davidson diagonalization with overlap
     ethr =  1.48E-08,  avg # of iterations =  2.5

     negative rho (up, down):  1.360E-03 0.000E+00

     total cpu time spent up to now is      340.4 secs

     total energy              =  -27793.25786340 Ry
     estimated scf accuracy    <       0.00002570 Ry

     iteration # 15     ecut=    40.00 Ry     beta= 0.70
     Davidson diagonalization with overlap
     ethr =  6.97E-09,  avg # of iterations =  1.9

     negative rho (up, down):  2.219E-03 0.000E+00

     total cpu time spent up to now is      354.4 secs

     total energy              =  -27793.25786775 Ry
     estimated scf accuracy    <       0.00001665 Ry

     iteration # 16     ecut=    40.00 Ry     beta= 0.70
     Davidson diagonalization with overlap
     c_bands:  1 eigenvalues not converged
     ethr =  4.51E-09,  avg # of iterations =  3.4

     negative rho (up, down):  2.743E-03 0.000E+00

     total cpu time spent up to now is      373.2 secs

     total energy              =  -27793.25786681 Ry
     estimated scf accuracy    <       0.00000348 Ry

     iteration # 17     ecut=    40.00 Ry     beta= 0.70
     Davidson diagonalization with overlap
     ethr =  9.43E-10,  avg # of iterations =  4.2

     negative rho (up, down):  2.947E-03 0.000E+00

     total cpu time spent up to now is      397.9 secs

     total energy              =  -27793.25786685 Ry
     estimated scf accuracy    <       0.00000164 Ry

     iteration # 18     ecut=    40.00 Ry     beta= 0.70
     Davidson diagonalization with overlap
     ethr =  4.43E-10,  avg # of iterations =  2.0

     negative rho (up, down):  3.063E-03 0.000E+00

     total cpu time spent up to now is      412.3 secs

     End of self-consistent calculation

          k = 0.0000 0.0000 0.0000 ( 42913 PWs)   bands (ev):

    -9.9270  -9.1242  -5.9559  -4.7063  -4.3285  -4.1993  -3.6474  -3.6380
    -3.6293  -3.6230  -3.5582  -3.5375  -3.4822  -3.4335  -3.3723  -3.2760
    -3.2222  -3.0866  -3.0639  -3.0300  -2.9726  -2.9356  -2.8580  -2.7316
    -2.7244  -2.5570  -2.5350  -2.4554  -2.4164  -2.4119  -2.3884  -2.3454
    -2.3309  -2.2939  -2.2805  -2.2534  -2.2105  -2.1681  -2.1526  -2.0919
    -2.0795  -2.0351  -1.9903  -1.9884  -1.9457  -1.9389  -1.7738  -1.7001
    -1.6445  -1.6160  -1.5365  -1.5173  -1.5089  -1.4987  -1.4495  -1.4151
    -1.2728  -1.2717  -1.2342  -1.2176  -1.1926  -1.0968  -0.9844  -0.8997
    -0.8936  -0.8061  -0.7493  -0.7222  -0.7164  -0.6847  -0.6241  -0.6219
    -0.6000  -0.5858  -0.5245  -0.5165  -0.5043  -0.5040  -0.5025  -0.4843
    -0.4418  -0.4197  -0.4114  -0.4041  -0.3938  -0.3922  -0.3627  -0.3596
    -0.3353  -0.3053  -0.2505  -0.2178  -0.1842  -0.1497  -0.1307  -0.0786
    -0.0610  -0.0088  -0.0076   0.0135   0.0413   0.1039   0.1113   0.1207
     0.1396   0.1530   0.1572   0.1594   0.1838   0.2457   0.2519   0.3053
     0.4305   0.4488   0.4726   0.4744   0.6855   0.7167   0.7472   0.7955
     0.8488   0.8692   0.9131   0.9268   0.9540   0.9630   0.9821   0.9919
     1.0241   1.0271   1.0600   1.0903   1.1093   1.1365   1.2395   1.2457
     1.3058   1.3263   1.3600   1.3602   1.4219   1.4925   1.4935   1.4996
     1.5503   1.5525   1.5720   1.6288   1.6701   1.7439   1.7510   1.8353
     1.8438   1.8483   1.8676   1.8917   1.9112   1.9455   1.9460   1.9642
     1.9745   1.9858   1.9935   2.0083   2.0348   2.0476   2.0706   2.0742
     2.1161   2.1178   2.1318   2.1842   2.1882   2.2129   2.2530   2.2548
     2.3047   2.3215   2.3421   2.3449   2.3485   2.3676   2.3991   2.4200
     2.4235   2.4847   2.4914   2.5166   2.5452   2.6230   2.6459   2.6717
     2.7073   2.7392   2.7795   2.7885   2.8002   2.8184   3.0397   3.2242
     3.4259   3.5682   3.6258   3.9604   4.1385   4.5484   4.7525   4.8528
     4.8573   5.7551   5.8342   5.9691   6.0872   6.1578   6.4811   7.0311
     7.4483   7.5971   7.6392   7.6465   7.6893   7.8356

          k = 0.0000 0.2309 0.0000 ( 42996 PWs)   bands (ev):

    -9.8989  -9.1566  -5.8092  -4.5657  -4.2744  -4.2035  -4.0537  -3.6774
    -3.6464  -3.5407  -3.4895  -3.4334  -3.3757  -3.3380  -3.2991  -3.2584
    -3.2355  -3.1078  -3.0072  -2.9758  -2.9465  -2.9074  -2.8000  -2.6915
    -2.6426  -2.6245  -2.5812  -2.4831  -2.4628  -2.4437  -2.4131  -2.3669
    -2.3108  -2.3071  -2.2691  -2.2232  -2.2230  -2.2036  -2.1840  -2.0931
    -2.0757  -2.0126  -1.9803  -1.9667  -1.8492  -1.8277  -1.7899  -1.7057
    -1.6797  -1.6451  -1.6219  -1.6012  -1.5102  -1.4934  -1.3971  -1.3894
    -1.3323  -1.3268  -1.2524  -1.2506  -1.1955  -1.0649  -1.0046  -0.9830
    -0.9157  -0.9048  -0.8779  -0.8718  -0.8208  -0.7830  -0.7605  -0.7287
    -0.6787  -0.6532  -0.6159  -0.6059  -0.5854  -0.5443  -0.5409  -0.4800
    -0.4552  -0.4533  -0.4229  -0.3855  -0.3767  -0.3285  -0.3268  -0.3103
    -0.3052  -0.2561  -0.2513  -0.1865  -0.1808  -0.1478  -0.1005  -0.0997
    -0.0863  -0.0674  -0.0552  -0.0315   0.0233   0.0391   0.0576   0.0613
     0.0967   0.1193   0.1498   0.2136   0.2155   0.2789   0.2986   0.3372
     0.3819   0.3925   0.4088   0.4309   0.4502   0.4557   0.5243   0.5723
     0.6705   0.7157   0.7571   0.8053   0.8166   0.8502   0.9090   0.9590
     1.0037   1.0212   1.0808   1.1025   1.1247   1.1345   1.1589   1.1847
     1.2286   1.2609   1.3151   1.3343   1.3439   1.3866   1.4336   1.4339
     1.4815   1.4958   1.5266   1.5395   1.5907   1.6302   1.6434   1.7185
     1.7544   1.7697   1.8317   1.8813   1.8970   1.9180   1.9529   1.9580
     1.9746   1.9977   2.0084   2.0412   2.1115   2.1171   2.2069   2.2145
     2.2705   2.3161   2.3230   2.3265   2.3356   2.3612   2.3962   2.3975
     2.4222   2.4441   2.4989   2.4998   2.5288   2.5691   2.6147   2.6401
     2.6656   2.6682   2.6776   2.7035   2.7643   2.7769   2.7902   2.8140
     2.8490   2.9143   2.9455   3.0523   3.0563   3.1476   3.2196   3.3821
     3.5846   3.7067   3.8756   4.1481   4.2522   4.6895   4.8192   5.0472
     5.1845   5.4141   5.6530   6.1345   6.2459   6.3318   6.4183   6.7471
     6.9153   7.0104   7.4406   7.4737   7.7675   7.8426

          k = 0.0000 0.4619 0.0000 ( 43046 PWs)   bands (ev):

    -9.8478  -9.2146  -5.3902  -4.7700  -4.2303  -4.1680  -4.0941  -3.7211
    -3.6519  -3.6310  -3.4173  -3.3944  -3.3595  -3.2764  -3.2076  -3.0989
    -3.0680  -2.9797  -2.9242  -2.8785  -2.8202  -2.7749  -2.7609  -2.6874
    -2.6823  -2.6178  -2.5893  -2.5872  -2.5481  -2.5212  -2.4701  -2.4498
    -2.4190  -2.3416  -2.2791  -2.1872  -2.1842  -2.1299  -2.1262  -2.0730
    -2.0313  -1.9995  -1.9461  -1.9101  -1.9099  -1.8525  -1.7969  -1.7799
    -1.6789  -1.6522  -1.6456  -1.5709  -1.5530  -1.4762  -1.4719  -1.4113
    -1.4107  -1.3550  -1.3198  -1.2908  -1.2419  -1.2256  -1.1490  -1.0762
    -1.0557  -1.0338  -1.0172  -0.9622  -0.9022  -0.8534  -0.8483  -0.8414
    -0.7911  -0.7377  -0.7212  -0.7067  -0.6420  -0.6331  -0.6067  -0.5265
    -0.5256  -0.4746  -0.4565  -0.4328  -0.4223  -0.3952  -0.3548  -0.3304
    -0.3141  -0.2979  -0.2857  -0.2530  -0.2418  -0.1844  -0.1784  -0.1364
    -0.0985  -0.0782  -0.0759  -0.0472  -0.0470  -0.0284  -0.0056   0.0243
     0.0755   0.0807   0.1166   0.1656   0.1819   0.2230   0.2389   0.3303
     0.3470   0.3655   0.3873   0.4409   0.4644   0.5437   0.5570   0.5920
     0.5949   0.6615   0.6893   0.7534   0.7803   0.8007   0.8048   0.8287
     0.8541   0.8840   0.8904   0.9594   1.0013   1.0328   1.0550   1.1009
     1.1242   1.1638   1.1777   1.2702   1.2775   1.3216   1.3494   1.4174
     1.4472   1.4755   1.4868   1.5621   1.5823   1.6241   1.6243   1.6771
     1.6901   1.7356   1.7693   1.8101   1.8344   1.8703   1.8928   1.9423
     1.9739   2.0137   2.0532   2.0749   2.1278   2.1404   2.2203   2.2317
     2.3338   2.3528   2.3662   2.3773   2.4052   2.4357   2.4918   2.5215
     2.5246   2.5888   2.5908   2.6475   2.6501   2.6841   2.7031   2.7506
     2.8007   2.8269   2.9123   2.9233   2.9399   2.9436   3.0072   3.1337
     3.1852   3.2279   3.2545   3.6007   3.8787   3.8914   4.0533   4.1758
     4.2119   4.4264   4.5764   4.7162   4.7730   4.8585   5.1337   5.1953
     5.3072   5.4745   5.5342   5.5424   5.8501   5.8829   6.0786   6.5427
     6.5741   6.6726   6.9406   6.9538   7.1028   7.7202

          k = 0.2000-0.1155 0.0000 ( 42996 PWs)   bands (ev):

    -9.9085  -9.1358  -5.8164  -4.5984  -4.3837  -4.1444  -3.9745  -3.6985
    -3.6501  -3.5392  -3.4853  -3.4548  -3.4185  -3.3286  -3.2890  -3.2216
    -3.1735  -3.1019  -3.0429  -3.0065  -2.9269  -2.8626  -2.8325  -2.7262
    -2.6540  -2.6100  -2.5455  -2.5002  -2.4663  -2.4103  -2.3781  -2.3473
    -2.3378  -2.3013  -2.2829  -2.2631  -2.2251  -2.1828  -2.1517  -2.1090
    -2.0925  -2.0368  -1.9906  -1.9249  -1.8897  -1.8239  -1.8103  -1.7047
    -1.6839  -1.6478  -1.6337  -1.5677  -1.5442  -1.5092  -1.4322  -1.3733
    -1.3531  -1.3065  -1.2438  -1.2311  -1.1867  -1.0860  -1.0094  -0.9694
    -0.9440  -0.9067  -0.8981  -0.8587  -0.8382  -0.8037  -0.7490  -0.7204
    -0.6818  -0.6402  -0.6274  -0.6066  -0.5698  -0.5533  -0.5314  -0.4866
    -0.4787  -0.4440  -0.4288  -0.3971  -0.3802  -0.3578  -0.3249  -0.3132
    -0.2899  -0.2786  -0.2368  -0.2099  -0.1930  -0.1488  -0.1253  -0.1071
    -0.0836  -0.0563  -0.0414  -0.0056   0.0200   0.0360   0.0570   0.0694
     0.0914   0.1065   0.1651   0.1839   0.2389   0.2814   0.3154   0.3367
     0.3678   0.3888   0.3978   0.4315   0.4730   0.5024   0.5463   0.6044
     0.6645   0.7009   0.7420   0.8029   0.8261   0.8451   0.8922   0.9499
     1.0152   1.0526   1.0792   1.0891   1.1353   1.1645   1.1945   1.2084
     1.2229   1.2568   1.3248   1.3433   1.3903   1.4139   1.4381   1.4465
     1.5040   1.5183   1.5426   1.5747   1.6325   1.6683   1.7027   1.7404
     1.7677   1.7829   1.8326   1.8793   1.9138   1.9314   1.9552   1.9759
     1.9989   2.0120   2.0258   2.0503   2.0974   2.1234   2.1717   2.2072
     2.2536   2.2726   2.3037   2.3141   2.3343   2.3590   2.3813   2.4093
     2.4237   2.4538   2.4852   2.5024   2.5326   2.5642   2.6117   2.6381
     2.6545   2.6658   2.6909   2.7044   2.7479   2.7661   2.7779   2.8140
     2.8165   2.9098   2.9250   3.0126   3.0425   3.0907   3.1533   3.4131
     3.6143   3.8249   3.9053   4.0597   4.2441   4.5506   4.7487   4.9040
     5.0504   5.6031   5.7333   6.0355   6.2483   6.3535   6.5579   6.6306
     6.8298   6.9788   7.4526   7.5280   7.7155   7.8761

          k = 0.2000 0.1155 0.0000 ( 42996 PWs)   bands (ev):

    -9.9085  -9.1358  -5.8164  -4.5984  -4.3836  -4.1445  -3.9744  -3.6986
    -3.6502  -3.5393  -3.4853  -3.4547  -3.4184  -3.3286  -3.2891  -3.2215
    -3.1736  -3.1020  -3.0429  -3.0064  -2.9269  -2.8626  -2.8325  -2.7262
    -2.6540  -2.6101  -2.5455  -2.5002  -2.4663  -2.4104  -2.3780  -2.3473
    -2.3378  -2.3013  -2.2829  -2.2631  -2.2252  -2.1828  -2.1518  -2.1089
    -2.0924  -2.0367  -1.9905  -1.9249  -1.8897  -1.8241  -1.8102  -1.7047
    -1.6840  -1.6479  -1.6337  -1.5677  -1.5441  -1.5093  -1.4322  -1.3734
    -1.3532  -1.3065  -1.2438  -1.2310  -1.1867  -1.0860  -1.0096  -0.9697
    -0.9441  -0.9065  -0.8981  -0.8587  -0.8382  -0.8038  -0.7490  -0.7204
    -0.6817  -0.6402  -0.6274  -0.6066  -0.5699  -0.5533  -0.5314  -0.4864
    -0.4788  -0.4439  -0.4287  -0.3970  -0.3802  -0.3577  -0.3248  -0.3131
    -0.2901  -0.2785  -0.2367  -0.2098  -0.1930  -0.1489  -0.1253  -0.1069
    -0.0836  -0.0564  -0.0414  -0.0056   0.0200   0.0361   0.0570   0.0694
     0.0914   0.1064   0.1651   0.1839   0.2389   0.2813   0.3154   0.3367
     0.3678   0.3888   0.3978   0.4315   0.4730   0.5025   0.5462   0.6044
     0.6645   0.7010   0.7420   0.8030   0.8262   0.8451   0.8923   0.9499
     1.0153   1.0527   1.0793   1.0891   1.1354   1.1644   1.1946   1.2084
     1.2229   1.2571   1.3247   1.3431   1.3904   1.4139   1.4381   1.4465
     1.5040   1.5183   1.5426   1.5747   1.6324   1.6683   1.7027   1.7404
     1.7676   1.7829   1.8326   1.8792   1.9137   1.9314   1.9552   1.9758
     1.9989   2.0120   2.0259   2.0503   2.0974   2.1233   2.1717   2.2073
     2.2536   2.2726   2.3037   2.3142   2.3342   2.3590   2.3814   2.4093
     2.4237   2.4538   2.4853   2.5025   2.5326   2.5642   2.6118   2.6381
     2.6545   2.6659   2.6909   2.7043   2.7479   2.7660   2.7778   2.8139
     2.8164   2.9098   2.9250   3.0126   3.0424   3.0907   3.1533   3.4129
     3.6144   3.8249   3.9053   4.0595   4.2443   4.5506   4.7488   4.9039
     5.0506   5.6031   5.7333   6.0354   6.2483   6.3535   6.5579   6.6306
     6.8300   6.9787   7.4527   7.5279   7.7154   7.8690

          k = 0.2000 0.3464 0.0000 ( 43046 PWs)   bands (ev):

    -9.8695  -9.1805  -5.5335  -4.5081  -4.3699  -4.2667  -4.0901  -3.9816
    -3.5783  -3.4272  -3.4115  -3.3136  -3.2652  -3.2213  -3.2063  -3.1631
    -3.1158  -3.0668  -3.0418  -2.9987  -2.8539  -2.7974  -2.7270  -2.6956
    -2.6673  -2.6331  -2.6020  -2.5531  -2.5075  -2.4358  -2.3952  -2.3856
    -2.3648  -2.3575  -2.3335  -2.2679  -2.2354  -2.1809  -2.1723  -2.1276
    -2.0699  -2.0323  -1.9799  -1.9135  -1.8567  -1.7981  -1.7689  -1.7350
    -1.6815  -1.6510  -1.6032  -1.5607  -1.5274  -1.4699  -1.4534  -1.4316
    -1.3542  -1.3209  -1.2846  -1.2486  -1.2037  -1.1897  -1.1516  -1.0867
    -1.0544  -1.0164  -0.9761  -0.9502  -0.9047  -0.8791  -0.8412  -0.8266
    -0.7878  -0.7284  -0.7172  -0.6690  -0.6413  -0.6287  -0.5928  -0.5509
    -0.5230  -0.5007  -0.4623  -0.4258  -0.4005  -0.3757  -0.3569  -0.3452
    -0.2873  -0.2615  -0.2461  -0.2112  -0.1959  -0.1808  -0.1578  -0.1355
    -0.1096  -0.0848  -0.0732  -0.0499  -0.0281   0.0008   0.0390   0.0509
     0.0898   0.1184   0.1275   0.1486   0.1727   0.1885   0.2416   0.2673
     0.2910   0.3181   0.3589   0.4247   0.4501   0.4995   0.5480   0.5929
     0.6329   0.6672   0.7031   0.7346   0.7577   0.7774   0.8112   0.8622
     0.8958   0.9099   0.9353   0.9749   1.0203   1.0608   1.1111   1.1312
     1.1803   1.2278   1.2432   1.2882   1.3240   1.3513   1.3780   1.4008
     1.4257   1.4658   1.4914   1.5429   1.5744   1.6066   1.6657   1.6856
     1.7263   1.7403   1.7808   1.8343   1.8376   1.8789   1.8930   1.9445
     2.0154   2.0570   2.1008   2.1177   2.1427   2.1824   2.2564   2.3202
     2.3328   2.3688   2.4172   2.4314   2.4645   2.4835   2.5096   2.5246
     2.5495   2.5655   2.5782   2.6025   2.6519   2.6659   2.7060   2.7269
     2.7452   2.7805   2.8081   2.8654   2.8995   2.9733   2.9935   3.0491
     3.0903   3.1746   3.1927   3.3982   3.5349   3.6983   3.8147   3.8878
     4.0185   4.1310   4.2951   4.5016   4.6620   4.7592   5.0645   5.2082
     5.2441   5.3881   5.5599   5.8465   6.0289   6.2114   6.3627   6.5224
     6.7212   6.8380   6.9986   7.1731   7.2238   7.4282

          k = 0.2000-0.5774 0.0000 ( 43014 PWs)   bands (ev):

    -9.8427  -9.2107  -5.0189  -5.0045  -4.5194  -4.1452  -3.9435  -3.8560
    -3.7694  -3.5444  -3.4083  -3.3190  -3.1884  -3.1617  -3.1343  -3.0293
    -3.0217  -2.9273  -2.8971  -2.8231  -2.8200  -2.7698  -2.7570  -2.7488
    -2.7161  -2.6775  -2.6163  -2.5610  -2.5465  -2.5243  -2.5013  -2.4479
    -2.4305  -2.3611  -2.2924  -2.2794  -2.1936  -2.1878  -2.1418  -2.1128
    -2.1087  -2.0338  -1.9656  -1.9437  -1.8670  -1.8268  -1.7739  -1.7064
    -1.6962  -1.6686  -1.6098  -1.5863  -1.5147  -1.4615  -1.4138  -1.3666
    -1.3523  -1.2948  -1.2588  -1.2262  -1.2113  -1.2011  -1.1786  -1.1263
    -1.0932  -1.0750  -1.0407  -1.0134  -0.9837  -0.9414  -0.9140  -0.8982
    -0.8586  -0.8074  -0.7483  -0.7438  -0.7178  -0.6913  -0.6647  -0.6330
    -0.6227  -0.5553  -0.5297  -0.4829  -0.4787  -0.4307  -0.3929  -0.3746
    -0.3144  -0.3055  -0.2618  -0.2487  -0.2384  -0.1925  -0.1320  -0.1170
    -0.0935  -0.0762  -0.0493  -0.0025   0.0123   0.0196   0.0260   0.0365
     0.1021   0.1117   0.1408   0.1685   0.1990   0.2056   0.2268   0.2338
     0.2379   0.2700   0.3369   0.3677   0.3994   0.4585   0.5214   0.5755
     0.6014   0.6285   0.6752   0.6877   0.7089   0.7727   0.7851   0.8183
     0.8619   0.8892   0.9166   0.9299   1.0125   1.0295   1.0695   1.0962
     1.1329   1.1935   1.2149   1.2624   1.3230   1.3498   1.3683   1.3996
     1.4231   1.4645   1.4847   1.5334   1.5377   1.5655   1.5822   1.6106
     1.6358   1.6615   1.7533   1.7866   1.8191   1.8734   1.9502   1.9785
     2.0296   2.0960   2.1160   2.1281   2.1971   2.2055   2.2622   2.2694
     2.3603   2.3982   2.4395   2.4644   2.4867   2.5014   2.5211   2.5452
     2.5614   2.6317   2.6403   2.6770   2.7134   2.7366   2.7572   2.8148
     2.8356   2.9128   2.9360   2.9459   2.9574   2.9903   3.0199   3.0806
     3.1945   3.3822   3.4946   3.7805   3.9663   4.1088   4.2169   4.3835
     4.4450   4.5426   4.6081   4.7750   4.8826   4.9429   5.1136   5.3968
     5.4935   5.5218   5.6478   5.7690   5.7966   6.0164   6.1616   6.2780
     6.3516   6.3991   6.7005   6.8762   7.0508   7.1637

          k = 0.2000-0.3464 0.0000 ( 43046 PWs)   bands (ev):

    -9.8695  -9.1805  -5.5335  -4.5081  -4.3699  -4.2667  -4.0902  -3.9815
    -3.5783  -3.4272  -3.4116  -3.3135  -3.2653  -3.2213  -3.2063  -3.1630
    -3.1157  -3.0667  -3.0417  -2.9987  -2.8538  -2.7976  -2.7272  -2.6956
    -2.6673  -2.6331  -2.6021  -2.5532  -2.5075  -2.4357  -2.3952  -2.3855
    -2.3648  -2.3574  -2.3335  -2.2679  -2.2354  -2.1809  -2.1723  -2.1277
    -2.0701  -2.0323  -1.9798  -1.9136  -1.8566  -1.7982  -1.7688  -1.7350
    -1.6816  -1.6510  -1.6030  -1.5606  -1.5274  -1.4699  -1.4534  -1.4316
    -1.3542  -1.3208  -1.2846  -1.2485  -1.2037  -1.1896  -1.1515  -1.0866
    -1.0543  -1.0163  -0.9760  -0.9502  -0.9047  -0.8790  -0.8413  -0.8265
    -0.7877  -0.7284  -0.7172  -0.6691  -0.6413  -0.6288  -0.5928  -0.5511
    -0.5231  -0.5009  -0.4624  -0.4257  -0.4006  -0.3757  -0.3570  -0.3452
    -0.2873  -0.2616  -0.2460  -0.2112  -0.1959  -0.1807  -0.1578  -0.1356
    -0.1097  -0.0849  -0.0733  -0.0498  -0.0281   0.0008   0.0392   0.0509
     0.0898   0.1183   0.1276   0.1486   0.1728   0.1886   0.2416   0.2673
     0.2910   0.3181   0.3589   0.4246   0.4502   0.4995   0.5479   0.5929
     0.6327   0.6670   0.7032   0.7345   0.7577   0.7775   0.8112   0.8622
     0.8958   0.9100   0.9352   0.9748   1.0204   1.0607   1.1110   1.1313
     1.1802   1.2277   1.2430   1.2883   1.3241   1.3513   1.3780   1.4007
     1.4258   1.4658   1.4914   1.5429   1.5744   1.6066   1.6657   1.6856
     1.7264   1.7403   1.7809   1.8344   1.8377   1.8788   1.8930   1.9446
     2.0154   2.0570   2.1008   2.1177   2.1428   2.1825   2.2564   2.3201
     2.3329   2.3688   2.4173   2.4314   2.4644   2.4835   2.5095   2.5245
     2.5495   2.5655   2.5782   2.6025   2.6519   2.6658   2.7060   2.7268
     2.7451   2.7804   2.8081   2.8654   2.8995   2.9736   2.9938   3.0492
     3.0903   3.1746   3.1927   3.3985   3.5349   3.6982   3.8147   3.8880
     4.0185   4.1311   4.2952   4.5017   4.6619   4.7591   5.0646   5.2082
     5.2442   5.3881   5.5597   5.8465   6.0291   6.2113   6.3628   6.5223
     6.7209   6.8378   6.9988   7.1729   7.2239   7.4283

          k = 0.4000-0.2309 0.0000 ( 43046 PWs)   bands (ev):

    -9.8770  -9.1561  -5.4213  -4.8376  -4.3134  -4.1610  -4.0534  -3.7506
    -3.7124  -3.5430  -3.4148  -3.3678  -3.3218  -3.2190  -3.1450  -3.0951
    -3.0149  -2.9975  -2.9329  -2.8940  -2.8035  -2.7790  -2.7437  -2.7189
    -2.6771  -2.6455  -2.5979  -2.5833  -2.5599  -2.5186  -2.5083  -2.4747
    -2.4094  -2.3851  -2.3209  -2.2467  -2.1909  -2.1519  -2.1193  -2.0752
    -2.0434  -1.9992  -1.9553  -1.9197  -1.8817  -1.8537  -1.8237  -1.7563
    -1.6871  -1.6266  -1.5889  -1.5460  -1.5077  -1.4959  -1.4598  -1.4529
    -1.4038  -1.3483  -1.3260  -1.2874  -1.2482  -1.1983  -1.1655  -1.1229
    -1.0759  -1.0503  -1.0221  -0.9571  -0.9306  -0.9004  -0.8696  -0.8455
    -0.7848  -0.7355  -0.7181  -0.6985  -0.6612  -0.6036  -0.5640  -0.5407
    -0.5325  -0.4999  -0.4728  -0.4488  -0.4337  -0.4018  -0.3696  -0.3502
    -0.3112  -0.3020  -0.2917  -0.2662  -0.2489  -0.2236  -0.1708  -0.1501
    -0.1218  -0.0912  -0.0712  -0.0445  -0.0340  -0.0114   0.0283   0.0423
     0.0673   0.1004   0.1402   0.1930   0.2082   0.2320   0.2686   0.3155
     0.3425   0.3545   0.3762   0.4187   0.4383   0.4774   0.5665   0.6065
     0.6318   0.6625   0.6827   0.7110   0.7520   0.7653   0.8017   0.8467
     0.8664   0.9163   0.9688   0.9827   1.0241   1.0381   1.0727   1.0933
     1.1165   1.1637   1.2393   1.2799   1.3292   1.3399   1.4286   1.4508
     1.4747   1.5445   1.5783   1.5993   1.6131   1.6299   1.6693   1.6974
     1.7460   1.7677   1.7905   1.8413   1.8692   1.9144   1.9369   1.9628
     1.9838   2.0012   2.0953   2.1098   2.1527   2.1788   2.2704   2.2859
     2.3305   2.3429   2.3525   2.3678   2.4008   2.4243   2.4723   2.5063
     2.5334   2.5685   2.5995   2.6324   2.6536   2.6751   2.7305   2.7559
     2.7980   2.8343   2.8854   2.9265   2.9426   2.9634   3.0017   3.1096
     3.1882   3.2418   3.3352   3.5078   3.7232   3.8259   4.0107   4.0825
     4.1825   4.3459   4.4253   4.4946   4.6369   4.9162   4.9858   5.1741
     5.2366   5.4296   5.5343   5.6285   5.7902   6.0050   6.0482   6.2799
     6.3900   6.7223   6.9679   7.0478   7.2641   7.5693

          k = 0.4000-0.0000 0.0000 ( 43046 PWs)   bands (ev):

    -9.8863  -9.1453  -5.5541  -4.5378  -4.4633  -4.2478  -4.0544  -3.9630
    -3.6064  -3.4133  -3.3198  -3.3015  -3.2721  -3.2469  -3.2129  -3.1513
    -3.1296  -3.0637  -3.0155  -2.9746  -2.9494  -2.7619  -2.7088  -2.6838
    -2.6632  -2.6193  -2.5630  -2.5349  -2.5095  -2.4625  -2.4201  -2.3891
    -2.3745  -2.3567  -2.3153  -2.2615  -2.2305  -2.2220  -2.1657  -2.1389
    -2.1025  -2.0574  -2.0217  -1.9512  -1.8467  -1.8138  -1.7606  -1.7200
    -1.6621  -1.6189  -1.5969  -1.5445  -1.5308  -1.5198  -1.4639  -1.4126
    -1.3964  -1.3051  -1.2642  -1.2468  -1.2245  -1.1853  -1.1737  -1.0863
    -1.0543  -1.0096  -0.9958  -0.9666  -0.9149  -0.8678  -0.8292  -0.8104
    -0.8055  -0.7181  -0.6985  -0.6777  -0.6511  -0.6237  -0.5963  -0.5780
    -0.5421  -0.4695  -0.4474  -0.4115  -0.3926  -0.3783  -0.3636  -0.3460
    -0.3224  -0.2723  -0.2646  -0.2086  -0.2048  -0.1794  -0.1552  -0.1382
    -0.1071  -0.0804  -0.0685  -0.0592   0.0026   0.0091   0.0340   0.0505
     0.0919   0.1047   0.1266   0.1369   0.1661   0.1945   0.2402   0.2486
     0.2954   0.3262   0.3489   0.3876   0.4365   0.5147   0.5347   0.5687
     0.6220   0.6361   0.6978   0.7441   0.7842   0.8063   0.8388   0.8715
     0.8977   0.9377   0.9698   1.0014   1.0534   1.0705   1.0916   1.1377
     1.1687   1.2130   1.2809   1.2919   1.3250   1.3713   1.3945   1.4214
     1.4362   1.4916   1.5330   1.5780   1.6457   1.6650   1.6979   1.7291
     1.7514   1.7848   1.7883   1.8060   1.8298   1.8623   1.9057   1.9597
     2.0135   2.0439   2.0997   2.1432   2.2118   2.2472   2.3084   2.3344
     2.3412   2.3818   2.4123   2.4356   2.4585   2.4819   2.5083   2.5341
     2.5647   2.5725   2.5853   2.6114   2.6206   2.6501   2.6909   2.7110
     2.7629   2.8052   2.8414   2.8675   2.9166   2.9281   2.9686   2.9764
     3.0966   3.1443   3.2429   3.3808   3.4327   3.6272   3.7546   3.9554
     4.1226   4.1370   4.2605   4.3090   4.5930   4.7580   4.9014   4.9431
     5.0558   5.4033   5.4989   5.8583   6.1930   6.3253   6.3645   6.5296
     6.7074   6.8905   6.9880   7.0731   7.3588   7.4165

          k = 0.4000 0.2309 0.0000 ( 43046 PWs)   bands (ev):

    -9.8770  -9.1561  -5.4212  -4.8376  -4.3135  -4.1608  -4.0536  -3.7507
    -3.7124  -3.5431  -3.4147  -3.3677  -3.3217  -3.2189  -3.1450  -3.0951
    -3.0150  -2.9976  -2.9329  -2.8938  -2.8036  -2.7789  -2.7437  -2.7189
    -2.6771  -2.6454  -2.5978  -2.5832  -2.5600  -2.5187  -2.5083  -2.4747
    -2.4094  -2.3852  -2.3209  -2.2468  -2.1909  -2.1519  -2.1194  -2.0752
    -2.0434  -1.9993  -1.9554  -1.9196  -1.8817  -1.8538  -1.8236  -1.7563
    -1.6871  -1.6265  -1.5889  -1.5461  -1.5076  -1.4959  -1.4598  -1.4530
    -1.4039  -1.3483  -1.3261  -1.2875  -1.2483  -1.1985  -1.1656  -1.1232
    -1.0760  -1.0505  -1.0222  -0.9572  -0.9306  -0.9003  -0.8697  -0.8455
    -0.7846  -0.7353  -0.7181  -0.6984  -0.6612  -0.6036  -0.5637  -0.5406
    -0.5324  -0.4998  -0.4727  -0.4489  -0.4338  -0.4019  -0.3696  -0.3502
    -0.3113  -0.3021  -0.2917  -0.2662  -0.2488  -0.2236  -0.1707  -0.1500
    -0.1217  -0.0913  -0.0712  -0.0444  -0.0342  -0.0115   0.0283   0.0422
     0.0675   0.1004   0.1404   0.1930   0.2083   0.2321   0.2687   0.3154
     0.3424   0.3544   0.3762   0.4188   0.4384   0.4774   0.5665   0.6065
     0.6319   0.6625   0.6826   0.7110   0.7520   0.7652   0.8017   0.8467
     0.8664   0.9162   0.9689   0.9828   1.0241   1.0382   1.0729   1.0934
     1.1166   1.1637   1.2393   1.2800   1.3291   1.3399   1.4286   1.4508
     1.4747   1.5445   1.5783   1.5991   1.6130   1.6300   1.6692   1.6974
     1.7460   1.7677   1.7905   1.8414   1.8691   1.9143   1.9370   1.9629
     1.9838   2.0011   2.0953   2.1096   2.1526   2.1787   2.2705   2.2860
     2.3305   2.3429   2.3525   2.3678   2.4008   2.4244   2.4723   2.5064
     2.5335   2.5686   2.5995   2.6324   2.6536   2.6751   2.7307   2.7557
     2.7978   2.8343   2.8854   2.9264   2.9426   2.9635   3.0016   3.1093
     3.1882   3.2416   3.3351   3.5079   3.7230   3.8257   4.0107   4.0825
     4.1825   4.3457   4.4255   4.4947   4.6369   4.9160   4.9858   5.1742
     5.2366   5.4297   5.5343   5.6286   5.7903   6.0048   6.0483   6.2799
     6.3898   6.7223   6.9681   7.0478   7.2640   7.5694

          k = 0.4000-0.6928 0.0000 ( 43014 PWs)   bands (ev):

    -9.8614  -9.1739  -5.1059  -4.9858  -4.4683  -4.1562  -4.0395  -3.9646
    -3.6818  -3.4378  -3.3528  -3.2743  -3.2110  -3.1820  -3.0900  -3.0532
    -2.9779  -2.9418  -2.9132  -2.8470  -2.8029  -2.7725  -2.7615  -2.7443
    -2.7106  -2.6755  -2.6157  -2.6028  -2.5714  -2.5268  -2.4967  -2.4613
    -2.4253  -2.3894  -2.3596  -2.2825  -2.2336  -2.1675  -2.1506  -2.1063
    -2.0785  -2.0408  -1.9751  -1.9252  -1.8772  -1.8227  -1.7830  -1.7303
    -1.6834  -1.6429  -1.6042  -1.5348  -1.5089  -1.4404  -1.4082  -1.3593
    -1.3541  -1.3190  -1.2727  -1.2613  -1.2271  -1.2084  -1.1676  -1.1517
    -1.0854  -1.0626  -1.0463  -1.0214  -0.9734  -0.9548  -0.9279  -0.8901
    -0.8562  -0.8233  -0.7902  -0.7623  -0.7090  -0.6953  -0.6477  -0.6378
    -0.5892  -0.5667  -0.5229  -0.4937  -0.4743  -0.4214  -0.3744  -0.3534
    -0.3228  -0.3081  -0.2818  -0.2607  -0.2325  -0.1882  -0.1498  -0.1276
    -0.0990  -0.0716  -0.0508  -0.0114   0.0126   0.0359   0.0405   0.0720
     0.1003   0.1114   0.1368   0.1693   0.1962   0.2027   0.2196   0.2345
     0.2437   0.2867   0.3090   0.3467   0.3870   0.4423   0.4926   0.5670
     0.5810   0.6444   0.6512   0.6913   0.7465   0.7635   0.7885   0.8300
     0.8436   0.8703   0.9353   0.9537   1.0281   1.0381   1.0822   1.1326
     1.1480   1.1923   1.2155   1.2487   1.3056   1.3672   1.3786   1.4073
     1.4442   1.4780   1.5128   1.5294   1.5507   1.5929   1.6277   1.6641
     1.7138   1.7271   1.7547   1.8068   1.8394   1.8889   1.9339   1.9880
     2.0934   2.1090   2.1305   2.1810   2.2044   2.2262   2.2467   2.3268
     2.3698   2.4235   2.4407   2.4462   2.4722   2.5090   2.5271   2.5568
     2.5754   2.6004   2.6323   2.6520   2.7050   2.7240   2.7513   2.8266
     2.8397   2.8911   2.9397   2.9527   2.9767   3.0127   3.0442   3.1605
     3.1986   3.3273   3.5169   3.7426   3.8772   4.0568   4.0988   4.2427
     4.3879   4.4820   4.5865   4.6906   4.9377   5.0204   5.1450   5.1981
     5.3354   5.4433   5.6250   5.7100   5.9333   5.9934   6.0220   6.1921
     6.3926   6.5004   6.7106   6.9128   7.0287   7.2007

          k = 0.4000-0.4619 0.0000 ( 43014 PWs)   bands (ev):

    -9.8614  -9.1739  -5.1059  -4.9858  -4.4682  -4.1566  -4.0390  -3.9647
    -3.6819  -3.4376  -3.3530  -3.2744  -3.2111  -3.1820  -3.0899  -3.0532
    -2.9779  -2.9419  -2.9132  -2.8470  -2.8029  -2.7725  -2.7616  -2.7443
    -2.7105  -2.6755  -2.6158  -2.6028  -2.5713  -2.5268  -2.4968  -2.4613
    -2.4253  -2.3894  -2.3596  -2.2824  -2.2336  -2.1674  -2.1506  -2.1063
    -2.0785  -2.0408  -1.9751  -1.9252  -1.8771  -1.8227  -1.7830  -1.7303
    -1.6834  -1.6429  -1.6043  -1.5348  -1.5089  -1.4405  -1.4081  -1.3594
    -1.3542  -1.3189  -1.2726  -1.2609  -1.2271  -1.2082  -1.1675  -1.1516
    -1.0853  -1.0626  -1.0461  -1.0214  -0.9733  -0.9549  -0.9279  -0.8901
    -0.8562  -0.8232  -0.7901  -0.7624  -0.7090  -0.6952  -0.6480  -0.6379
    -0.5893  -0.5668  -0.5229  -0.4938  -0.4742  -0.4214  -0.3745  -0.3533
    -0.3228  -0.3080  -0.2820  -0.2607  -0.2325  -0.1883  -0.1498  -0.1275
    -0.0992  -0.0717  -0.0509  -0.0115   0.0125   0.0359   0.0405   0.0719
     0.1003   0.1113   0.1373   0.1693   0.1962   0.2026   0.2196   0.2345
     0.2437   0.2868   0.3089   0.3465   0.3869   0.4424   0.4926   0.5669
     0.5809   0.6444   0.6513   0.6913   0.7463   0.7635   0.7885   0.8300
     0.8436   0.8704   0.9352   0.9538   1.0280   1.0380   1.0822   1.1325
     1.1480   1.1922   1.2156   1.2488   1.3057   1.3672   1.3786   1.4073
     1.4442   1.4780   1.5128   1.5294   1.5507   1.5928   1.6277   1.6641
     1.7137   1.7272   1.7547   1.8068   1.8394   1.8889   1.9338   1.9880
     2.0935   2.1090   2.1304   2.1810   2.2045   2.2263   2.2467   2.3269
     2.3698   2.4234   2.4407   2.4462   2.4721   2.5090   2.5270   2.5568
     2.5754   2.6004   2.6324   2.6520   2.7050   2.7238   2.7512   2.8266
     2.8397   2.8911   2.9398   2.9527   2.9769   3.0128   3.0442   3.1605
     3.1986   3.3272   3.5172   3.7431   3.8769   4.0567   4.0987   4.2427
     4.3878   4.4821   4.5864   4.6908   4.9376   5.0206   5.1450   5.1981
     5.3355   5.4431   5.6249   5.7106   5.9332   5.9934   6.0220   6.1920
     6.3928   6.5004   6.7106   6.9127   7.0286   7.2008

     the Fermi energy is     2.7346 ev

!    total energy              =  -27793.25786631 Ry
     total all-electron energy =  -1326795.551478 Ry
     estimated scf accuracy    <       0.00000036 Ry
     smearing contrib. (-TS)   =       0.00000645 Ry
     internal energy E=F+TS    =  -27793.25787276 Ry

     The total energy is F=E-TS. E is the sum of the following terms:
     one-electron contribution =  -20707.54546844 Ry
     hartree contribution      =   10666.10046105 Ry
     xc contribution           =    -900.30583873 Ry
     ewald contribution        =    8635.73151595 Ry
     one-center paw contrib.   =  -25487.23854258 Ry

     convergence has been achieved in  18 iterations

     negative rho (up, down):  3.063E-03 0.000E+00

     Forces acting on atoms (cartesian axes, Ry/au):

     atom    1 type  1   force =    -0.00009577    0.00014772   -0.00480596
     atom    2 type  1   force =     0.00010718    0.00009486   -0.00481124
     atom    3 type  1   force =    -0.00000068   -0.00376199   -0.00799520
     atom    4 type  1   force =    -0.00003802    0.00192373   -0.00571936
     atom    5 type  1   force =    -0.00016786    0.00006592   -0.00843701
     atom    6 type  1   force =     0.00021080    0.00009204   -0.00840818
     atom    7 type  1   force =    -0.00131527    0.00091682   -0.00842928
     atom    8 type  1   force =     0.00004800   -0.00021504   -0.00387060
     atom    9 type  1   force =     0.00128306    0.00089773   -0.00841567
     atom   10 type  1   force =    -0.00004796    0.00416056    0.02164831
     atom   11 type  1   force =    -0.00371467   -0.00077127    0.00267931
     atom   12 type  1   force =     0.00372946   -0.00072390    0.00268834
     atom   13 type  1   force =    -0.00182874   -0.00229238    0.01032364
     atom   14 type  1   force =     0.00004286    0.00007093   -0.00155168
     atom   15 type  1   force =     0.00174893   -0.00229664    0.01031127
     atom   16 type  1   force =    -0.00277340   -0.00002530    0.00659902
     atom   17 type  1   force =     0.00277309   -0.00007134    0.00656218
     atom   18 type  1   force =    -0.00003536   -0.00256179    0.00218758
     atom   19 type  1   force =    -0.00006113    0.00020796    0.00008195
     atom   20 type  1   force =     0.00006505    0.00021238    0.00008103
     atom   21 type  1   force =     0.00000031    0.00002881   -0.00009564
     atom   22 type  1   force =     0.00000667    0.00014625   -0.00010357
     atom   23 type  1   force =     0.00003472    0.00003879    0.00006674
     atom   24 type  1   force =    -0.00003540    0.00003988    0.00007384
     atom   25 type  1   force =     0.00012072    0.00010700    0.00014063
     atom   26 type  1   force =    -0.00000500    0.00010994   -0.00042874
     atom   27 type  1   force =    -0.00012172    0.00010989    0.00013739
     atom   28 type  1   force =    -0.00059665    0.00022975   -0.00045277
     atom   29 type  1   force =     0.00062866    0.00021442   -0.00046970
     atom   30 type  1   force =     0.00000231   -0.00014492    0.00014574
     atom   31 type  1   force =    -0.00000913    0.00054846   -0.00164290
     atom   32 type  1   force =    -0.00020280    0.00007745   -0.00001576
     atom   33 type  1   force =     0.00021187    0.00007176   -0.00001142
     atom   34 type  1   force =     0.00019258    0.00031129   -0.00055558
     atom   35 type  1   force =     0.00000407   -0.00005490    0.00012485
     atom   36 type  1   force =    -0.00018546    0.00031329   -0.00055143
     atom   37 type  2   force =     0.00000665   -0.00108268   -0.00074151
     atom   38 type  3   force =    -0.00001528    0.00189573    0.00329851
     atom   39 type  2   force =     0.00003330    0.00096879    0.00036287
     The non-local contrib.  to forces
     atom    1 type  1   force =     0.00172889   -0.00009396   -0.01920826
     atom    2 type  1   force =    -0.00173066   -0.00014020   -0.01921193
     atom    3 type  1   force =    -0.00000078   -0.00127617   -0.01901132
     atom    4 type  1   force =    -0.00004145   -0.00005746   -0.02044488
     atom    5 type  1   force =     0.00081618    0.00119989   -0.02247287
     atom    6 type  1   force =    -0.00078766    0.00123438   -0.02243034
     atom    7 type  1   force =    -0.00170096   -0.00100273   -0.02110864
     atom    8 type  1   force =     0.00004360   -0.00033119   -0.02398916
     atom    9 type  1   force =     0.00165635   -0.00102153   -0.02109994
     atom   10 type  1   force =    -0.00004887    0.00135412    0.00489717
     atom   11 type  1   force =    -0.00595237    0.00126164    0.00226809
     atom   12 type  1   force =     0.00596209    0.00131054    0.00228272
     atom   13 type  1   force =    -0.00156779   -0.00363094    0.00329912
     atom   14 type  1   force =     0.00004479    0.00252490   -0.00216721
     atom   15 type  1   force =     0.00147897   -0.00363236    0.00329709
     atom   16 type  1   force =     0.00286079    0.00006255   -0.00021893
     atom   17 type  1   force =    -0.00286369    0.00000863   -0.00024815
     atom   18 type  1   force =    -0.00003470   -0.00380193    0.00414902
     atom   19 type  1   force =    -0.01571819   -0.00924748    0.00261257
     atom   20 type  1   force =     0.01571231   -0.00925471    0.00260352
     atom   21 type  1   force =     0.00001705    0.00175336    0.01394932
     atom   22 type  1   force =    -0.00000635    0.01701096    0.01792564
     atom   23 type  1   force =     0.01067595   -0.00347399    0.00094230
     atom   24 type  1   force =    -0.01065556   -0.00348516    0.00095782
     atom   25 type  1   force =     0.00029230   -0.00039069    0.00466111
     atom   26 type  1   force =     0.00000108   -0.00436082    0.01785247
     atom   27 type  1   force =    -0.00028748   -0.00040389    0.00464318
     atom   28 type  1   force =     0.08213580    0.03372599   -0.00517709
     atom   29 type  1   force =    -0.08213427    0.03363817   -0.00520468
     atom   30 type  1   force =     0.00000903   -0.05533042    0.03476264
     atom   31 type  1   force =     0.00014870    0.00812306   -0.12589039
     atom   32 type  1   force =    -0.01957625    0.00158449    0.02178625
     atom   33 type  1   force =     0.01960080    0.00157857    0.02171738
     atom   34 type  1   force =    -0.09727382   -0.02299610    0.01322244
     atom   35 type  1   force =     0.00002376    0.03720882    0.03006817
     atom   36 type  1   force =     0.09728126   -0.02301499    0.01320951
     atom   37 type  2   force =    -0.00010328    0.09230762   -0.13357947
     atom   38 type  3   force =     0.00001371    0.00132532   -0.04227324
     atom   39 type  2   force =    -0.00001167   -0.16463587   -0.45880614
     The ionic contribution  to forces
     atom    1 type  1   force =     0.01501227    0.02373199  -94.31892944
     atom    2 type  1   force =    -0.01499819    0.02379387  -94.31890849
     atom    3 type  1   force =    -0.00001514   -0.01904571  -94.35368313
     atom    4 type  1   force =     0.00006029   -0.00228859  -94.26812341
     atom    5 type  1   force =    -0.04423617   -0.00562415  -94.34791637
     atom    6 type  1   force =     0.04417447   -0.00565333  -94.34804741
     atom    7 type  1   force =    -0.02549076   -0.01545386  -94.32226985
     atom    8 type  1   force =    -0.00005659    0.01583246  -94.36561735
     atom    9 type  1   force =     0.02554552   -0.01540549  -94.32238349
     atom   10 type  1   force =    -0.00015348    0.22154576  -33.16910982
     atom   11 type  1   force =    -0.34382170   -0.00644845  -33.37462974
     atom   12 type  1   force =     0.34338444   -0.00670289  -33.37534561
     atom   13 type  1   force =    -0.26528770   -0.16665849  -33.18932740
     atom   14 type  1   force =    -0.00076120    0.13309908  -33.63382489
     atom   15 type  1   force =     0.26545975   -0.16689062  -33.19037639
     atom   16 type  1   force =    -0.02528192    0.07993446  -33.49270744
     atom   17 type  1   force =     0.02468348    0.08049074  -33.49309222
     atom   18 type  1   force =     0.00012728   -0.21164535  -33.20352267
     atom   19 type  1   force =     0.77218101    0.42900665   29.72911074
     atom   20 type  1   force =    -0.76949087    0.43071369   29.72790439
     atom   21 type  1   force =    -0.00241400   -0.05681801   25.98892901
     atom   22 type  1   force =     0.00229866   -0.63160379   29.28547268
     atom   23 type  1   force =    -0.30511715   -0.16453781   27.11331684
     atom   24 type  1   force =     0.30325340   -0.16313565   27.11213910
     atom   25 type  1   force =    -0.17723768   -0.14695214   27.26800109
     atom   26 type  1   force =     0.00000912    0.39758403   27.83773934
     atom   27 type  1   force =     0.17728999   -0.14447559   27.26819541
     atom   28 type  1   force =    -2.13898318   -0.62411821   87.85144989
     atom   29 type  1   force =     2.13941308   -0.62046104   87.84912499
     atom   30 type  1   force =    -0.00102323    0.55512872   87.92360217
     atom   31 type  1   force =     0.00498409   -0.42641969   93.81273365
     atom   32 type  1   force =     0.25799501    0.02824937   88.05090746
     atom   33 type  1   force =    -0.26394407    0.02797837   88.05008461
     atom   34 type  1   force =     3.25063849    0.49209789   86.77502889
     atom   35 type  1   force =    -0.00114444   -0.28133480   88.23416930
     atom   36 type  1   force =    -3.25008566    0.49674871   86.77761985
     atom   37 type  2   force =     0.00196359   -1.01130577   43.86128229
     atom   38 type  3   force =    -0.00071120   -0.12054756   12.32342518
     atom   39 type  2   force =     0.00178038    1.57759120   46.24757826
     The local contribution  to forces
     atom    1 type  1   force =    -0.01694974   -0.02348934   94.31647694
     atom    2 type  1   force =     0.01693562   -0.02338379   94.31647851
     atom    3 type  1   force =     0.00003248    0.01666205   94.34757103
     atom    4 type  1   force =     0.00008855    0.00433005   94.26619015
     atom    5 type  1   force =     0.04316047    0.00437752   94.34518556
     atom    6 type  1   force =    -0.04322538    0.00429820   94.34520851
     atom    7 type  1   force =     0.02604170    0.01735937   94.31800439
     atom    8 type  1   force =    -0.00009564   -0.01576966   94.36920849
     atom    9 type  1   force =    -0.02592474    0.01738436   94.31807145
     atom   10 type  1   force =     0.00025925   -0.21847346   33.18675300
     atom   11 type  1   force =     0.34543277    0.00451569   33.37553424
     atom   12 type  1   force =    -0.34509750    0.00460964   33.37618930
     atom   13 type  1   force =     0.26493466    0.16764204   33.19713174
     atom   14 type  1   force =     0.00056512   -0.13499207   33.63412187
     atom   15 type  1   force =    -0.26490440    0.16787808   33.19820234
     atom   16 type  1   force =     0.01940761   -0.07991849   33.49963305
     atom   17 type  1   force =    -0.01889657   -0.08029129   33.50009316
     atom   18 type  1   force =    -0.00003967    0.21275326   33.20283848
     atom   19 type  1   force =    -0.75593143   -0.41899355  -29.72811272
     atom   20 type  1   force =     0.75341851   -0.42064256  -29.72695471
     atom   21 type  1   force =     0.00224210    0.05450729  -26.00125241
     atom   22 type  1   force =    -0.00217150    0.61504512  -29.29862514
     atom   23 type  1   force =     0.29448829    0.16788445  -27.11313770
     atom   24 type  1   force =    -0.29275133    0.16660280  -27.11188696
     atom   25 type  1   force =     0.17594656    0.14710887  -27.27134964
     atom   26 type  1   force =     0.00001896   -0.39319358  -27.85373640
     atom   27 type  1   force =    -0.17603503    0.14480492  -27.27150839
     atom   28 type  1   force =     2.03495611    0.58298668  -87.84670718
     atom   29 type  1   force =    -2.03530509    0.57947141  -87.84443235
     atom   30 type  1   force =     0.00095711   -0.50212122  -87.94282882
     atom   31 type  1   force =    -0.00506897    0.42790624  -93.70965235
     atom   32 type  1   force =    -0.24152367   -0.02954342  -88.05666020
     atom   33 type  1   force =     0.24735859   -0.02924808  -88.05569065
     atom   34 type  1   force =    -3.12960748   -0.46530867  -86.79508599
     atom   35 type  1   force =     0.00109140    0.24623573  -88.24745249
     atom   36 type  1   force =     3.12908367   -0.46986110  -86.79763508
     atom   37 type  2   force =    -0.00184220    0.92000035  -43.73111360
     atom   38 type  3   force =     0.00068494    0.12112586  -12.27785736
     atom   39 type  2   force =    -0.00174776   -1.41555080  -45.79696569
     The core correction contribution to forces
     atom    1 type  1   force =     0.00000212   -0.00003228    0.01697560
     atom    2 type  1   force =    -0.00000357   -0.00003173    0.01697582
     atom    3 type  1   force =     0.00000034   -0.00003823    0.01733050
     atom    4 type  1   force =    -0.00000056   -0.00006208    0.01676184
     atom    5 type  1   force =     0.00006491    0.00007031    0.01696527
     atom    6 type  1   force =    -0.00006556    0.00007025    0.01696618
     atom    7 type  1   force =    -0.00012870    0.00002407    0.01708306
     atom    8 type  1   force =    -0.00000034    0.00002162    0.01660954
     atom    9 type  1   force =     0.00012818    0.00002388    0.01708312
     atom   10 type  1   force =     0.00000111   -0.00021998   -0.00051766
     atom   11 type  1   force =     0.00070537   -0.00002578   -0.00009379
     atom   12 type  1   force =    -0.00070315   -0.00002633   -0.00009357
     atom   13 type  1   force =     0.00024063    0.00031719   -0.00040247
     atom   14 type  1   force =     0.00000266   -0.00071867    0.00071893
     atom   15 type  1   force =    -0.00023953    0.00031834   -0.00040062
     atom   16 type  1   force =     0.00008183   -0.00014822    0.00025347
     atom   17 type  1   force =    -0.00007952   -0.00014959    0.00025330
     atom   18 type  1   force =     0.00000084    0.00029317   -0.00086512
     atom   19 type  1   force =    -0.00058534   -0.00055823   -0.00338701
     atom   20 type  1   force =     0.00057701   -0.00056405   -0.00338465
     atom   21 type  1   force =     0.00000725    0.00049946   -0.00165861
     atom   22 type  1   force =    -0.00000624   -0.00026219   -0.00468715
     atom   23 type  1   force =    -0.00011900    0.00012177   -0.00087129
     atom   24 type  1   force =     0.00012288    0.00011894   -0.00087709
     atom   25 type  1   force =     0.00104017    0.00030483   -0.00096470
     atom   26 type  1   force =     0.00000031    0.00006180   -0.00211368
     atom   27 type  1   force =    -0.00104036    0.00029689   -0.00096601
     atom   28 type  1   force =     0.02097287    0.00741941   -0.00004126
     atom   29 type  1   force =    -0.02097772    0.00741885   -0.00003598
     atom   30 type  1   force =     0.00000243    0.00218495   -0.01534053
     atom   31 type  1   force =    -0.00001824   -0.00893584    0.02097928
     atom   32 type  1   force =     0.00295104   -0.00019813   -0.01599310
     atom   33 type  1   force =    -0.00293572   -0.00019933   -0.01598807
     atom   34 type  1   force =    -0.02331917   -0.00339703    0.00615484
     atom   35 type  1   force =     0.00000200   -0.00222340   -0.01650244
     atom   36 type  1   force =     0.02331657   -0.00340534    0.00615360
     atom   37 type  2   force =     0.00000875   -0.00213554    0.00280067
     atom   38 type  3   force =     0.00000000    0.00000000    0.00000000
     atom   39 type  2   force =     0.00001536    0.00362630    0.00866566
     The Hubbard contrib.    to forces
     atom    1 type  1   force =     0.00000000    0.00000000    0.00000000
     atom    2 type  1   force =     0.00000000    0.00000000    0.00000000
     atom    3 type  1   force =     0.00000000    0.00000000    0.00000000
     atom    4 type  1   force =     0.00000000    0.00000000    0.00000000
     atom    5 type  1   force =     0.00000000    0.00000000    0.00000000
     atom    6 type  1   force =     0.00000000    0.00000000    0.00000000
     atom    7 type  1   force =     0.00000000    0.00000000    0.00000000
     atom    8 type  1   force =     0.00000000    0.00000000    0.00000000
     atom    9 type  1   force =     0.00000000    0.00000000    0.00000000
     atom   10 type  1   force =     0.00000000    0.00000000    0.00000000
     atom   11 type  1   force =     0.00000000    0.00000000    0.00000000
     atom   12 type  1   force =     0.00000000    0.00000000    0.00000000
     atom   13 type  1   force =     0.00000000    0.00000000    0.00000000
     atom   14 type  1   force =     0.00000000    0.00000000    0.00000000
     atom   15 type  1   force =     0.00000000    0.00000000    0.00000000
     atom   16 type  1   force =     0.00000000    0.00000000    0.00000000
     atom   17 type  1   force =     0.00000000    0.00000000    0.00000000
     atom   18 type  1   force =     0.00000000    0.00000000    0.00000000
     atom   19 type  1   force =     0.00000000    0.00000000    0.00000000
     atom   20 type  1   force =     0.00000000    0.00000000    0.00000000
     atom   21 type  1   force =     0.00000000    0.00000000    0.00000000
     atom   22 type  1   force =     0.00000000    0.00000000    0.00000000
     atom   23 type  1   force =     0.00000000    0.00000000    0.00000000
     atom   24 type  1   force =     0.00000000    0.00000000    0.00000000
     atom   25 type  1   force =     0.00000000    0.00000000    0.00000000
     atom   26 type  1   force =     0.00000000    0.00000000    0.00000000
     atom   27 type  1   force =     0.00000000    0.00000000    0.00000000
     atom   28 type  1   force =     0.00000000    0.00000000    0.00000000
     atom   29 type  1   force =     0.00000000    0.00000000    0.00000000
     atom   30 type  1   force =     0.00000000    0.00000000    0.00000000
     atom   31 type  1   force =     0.00000000    0.00000000    0.00000000
     atom   32 type  1   force =     0.00000000    0.00000000    0.00000000
     atom   33 type  1   force =     0.00000000    0.00000000    0.00000000
     atom   34 type  1   force =     0.00000000    0.00000000    0.00000000
     atom   35 type  1   force =     0.00000000    0.00000000    0.00000000
     atom   36 type  1   force =     0.00000000    0.00000000    0.00000000
     atom   37 type  2   force =     0.00000000    0.00000000    0.00000000
     atom   38 type  3   force =     0.00000000    0.00000000    0.00000000
     atom   39 type  2   force =     0.00000000    0.00000000    0.00000000
     The SCF correction term to forces
     atom    1 type  1   force =     0.00000000    0.00000000   -0.00000000
     atom    2 type  1   force =    -0.00000000   -0.00000000   -0.00000000
     atom    3 type  1   force =    -0.00000000   -0.00000000   -0.00000000
     atom    4 type  1   force =    -0.00000000    0.00000000   -0.00000000
     atom    5 type  1   force =     0.00000000    0.00000000   -0.00000000
     atom    6 type  1   force =     0.00000000    0.00000000   -0.00000000
     atom    7 type  1   force =    -0.00000000   -0.00000000   -0.00000000
     atom    8 type  1   force =     0.00000000    0.00000000   -0.00000000
     atom    9 type  1   force =    -0.00000000   -0.00000000   -0.00000000
     atom   10 type  1   force =    -0.00000000   -0.00000000   -0.00000000
     atom   11 type  1   force =    -0.00000000   -0.00000000   -0.00000000
     atom   12 type  1   force =     0.00000000    0.00000000   -0.00000000
     atom   13 type  1   force =    -0.00000000    0.00000000   -0.00000000
     atom   14 type  1   force =     0.00000000    0.00000000   -0.00000000
     atom   15 type  1   force =    -0.00000000    0.00000000   -0.00000000
     atom   16 type  1   force =     0.00000000    0.00000000   -0.00000000
     atom   17 type  1   force =    -0.00000000   -0.00000000   -0.00000000
     atom   18 type  1   force =    -0.00000000   -0.00000000   -0.00000000
     atom   19 type  1   force =    -0.00000643    0.00000617   -0.00019016
     atom   20 type  1   force =    -0.00015115   -0.00003439   -0.00013604
     atom   21 type  1   force =     0.00014866    0.00009231   -0.00011147
     atom   22 type  1   force =    -0.00010714   -0.00003825   -0.00023812
     atom   23 type  1   force =     0.00010740    0.00004997   -0.00023194
     atom   24 type  1   force =    -0.00000403   -0.00005546   -0.00030756
     atom   25 type  1   force =     0.00008013    0.00004174   -0.00025576
     atom   26 type  1   force =    -0.00003372    0.00002410   -0.00021900
     atom   27 type  1   force =    -0.00004809   -0.00010684   -0.00027532
     atom   28 type  1   force =     0.00032250    0.00022149   -0.00002567
     atom   29 type  1   force =    -0.00036658    0.00015263    0.00002979
     atom   30 type  1   force =     0.00005774   -0.00000134   -0.00009825
     atom   31 type  1   force =    -0.00005395   -0.00011971    0.00013838
     atom   32 type  1   force =    -0.00004816   -0.00000926   -0.00010470
     atom   33 type  1   force =     0.00013303   -0.00003217   -0.00018322
     atom   34 type  1   force =    -0.00024468   -0.00007919    0.00007571
     atom   35 type  1   force =     0.00003210    0.00006435   -0.00020622
     atom   36 type  1   force =     0.00021945   -0.00014838    0.00005217
     atom   37 type  2   force =    -0.00001945    0.00005627   -0.00017994
     atom   38 type  3   force =    -0.00000197   -0.00000229   -0.00004459
     atom   39 type  2   force =    -0.00000225   -0.00005642   -0.00015775

     Total force =     0.004800     Total SCF correction =     0.001121
     SCF correction compared to forces is large: reduce conv_thr to get better values

     Writing all to output data dir ./pwscf.save/

     init_run     :     11.17s CPU     11.51s WALL (       1 calls)
     electrons    :    386.18s CPU    400.77s WALL (       1 calls)
     forces       :     11.09s CPU     11.97s WALL (       1 calls)

     Called by init_run:
     wfcinit      :      6.16s CPU      6.34s WALL (       1 calls)
     potinit      :      3.31s CPU      3.40s WALL (       1 calls)
     hinit0       :      1.06s CPU      1.09s WALL (       1 calls)

     Called by electrons:
     c_bands      :    325.57s CPU    334.72s WALL (      19 calls)
     sum_band     :     34.12s CPU     35.90s WALL (      19 calls)
     v_of_rho     :     16.76s CPU     18.80s WALL (      19 calls)
     newd         :      3.08s CPU      3.82s WALL (      19 calls)
     PAW_pot      :      4.07s CPU      4.32s WALL (      19 calls)
     mix_rho      :      4.33s CPU      4.71s WALL (      19 calls)
     vdW_kernel   :      1.75s CPU      1.76s WALL (       1 calls)

     Called by c_bands:
     init_us_2    :      2.79s CPU      2.91s WALL (     520 calls)
     init_us_2:cp :      2.79s CPU      2.91s WALL (     520 calls)
     cegterg      :    317.69s CPU    326.50s WALL (     247 calls)

     Called by *egterg:
     cdiaghg      :     86.32s CPU     88.10s WALL (    1278 calls)
     h_psi        :    144.60s CPU    148.94s WALL (    1304 calls)
     s_psi        :     15.12s CPU     15.65s WALL (    1304 calls)
     g_psi        :      0.45s CPU      0.46s WALL (    1044 calls)

     Called by h_psi:
     h_psi:calbec :     23.00s CPU     23.77s WALL (    1304 calls)
     vloc_psi     :    105.32s CPU    108.41s WALL (    1304 calls)
     add_vuspsi   :     15.14s CPU     15.59s WALL (    1304 calls)

     General routines
     calbec       :     31.73s CPU     32.87s WALL (    1603 calls)
     fft          :     20.54s CPU     22.83s WALL (    1257 calls)
     ffts         :      2.47s CPU      2.54s WALL (    4671 calls)
     fftw         :    105.39s CPU    108.42s WALL (  317460 calls)
     interpolate  :      1.04s CPU      1.08s WALL (      19 calls)

     Parallel routines

     PWSCF        :   6m50.78s CPU   7m 9.64s WALL


   This run was terminated on:  15:40:11   6Dec2025            

=------------------------------------------------------------------------------=
   JOB DONE.
=------------------------------------------------------------------------------=
