
     Program PWSCF v.7.1 starts on 27Jan2025 at  9:14: 6 
        Git branch: heads/qe-7.1
        Last git commit: 48ba0178f8fede6d020eb786884699a9f063f55d-dirty
        Last git commit date: Fri Jan 27 14:22:33 2023 +0000
        Last git commit subject: Merge branch 'fix_hubbard' into 'develop'

     This program is part of the open-source Quantum ESPRESSO suite
     for quantum simulation of materials; please cite
         "P. Giannozzi et al., J. Phys.:Condens. Matter 21 395502 (2009);
         "P. Giannozzi et al., J. Phys.:Condens. Matter 29 465901 (2017);
         "P. Giannozzi et al., J. Chem. Phys. 152 154105 (2020);
          URL http://www.quantum-espresso.org", 
     in publications or presentations arising from this work. More details at
     http://www.quantum-espresso.org/quote

     Parallel version (MPI), running on    48 processors

     MPI processes distributed on     1 nodes
     270075 MiB available memory on the printing compute node when the environment starts

     Reading input from espresso.pwi
Warning: card &CELL ignored
Warning: card / ignored
Warning: card &FCP ignored
Warning: card / ignored
Warning: card &RISM ignored
Warning: card / ignored

     Current dimensions of program PWSCF are:
     Max number of different atomic species (ntypx) = 10
     Max number of k-points (npk) =  40000
     Max angular momentum in pseudopotentials (lmaxx) =  4
     file Pt.pbe-n-kjpaw_psl.1.0.0.UPF: wavefunction(s)  6S 5D renormalized
     file H.pbe-kjpaw_psl.1.0.0.UPF: wavefunction(s)  1S renormalized

     **************************************************************************
     Initializing libbeef V0.1.2 with the BEEF-vdW functional.
     Citation: Wellendorff et al., PRB 85, 235149 (2012).
     **************************************************************************


     IMPORTANT: XC functional enforced from input :
     Exchange-correlation= BEEF-VDW
                           (   1   4  43  14   2   0   0)
     Any further DFT definition will be discarded
     Please, verify this is what you really want


     R & G space division:  proc/nbgrp/npool/nimage =      48
     Subspace diagonalization in iterative solution of the eigenvalue problem:
     one sub-group per band group will be used
     custom distributed-memory algorithm (size of sub-group:  2*  2 procs)


     Parallelization info
     --------------------
     sticks:   dense  smooth     PW     G-vecs:    dense   smooth      PW
     Min         150      59     16                30552     7447    1068
     Max         151      60     17                30571     7456    1081
     Sum        7243    2839    769              1467143   357639   51591

     Using Slab Decomposition



     bravais-lattice index     =            0
     lattice parameter (alat)  =      16.0028  a.u.
     unit-cell volume          =   10463.1828 (a.u.)^3
     number of atoms/cell      =           37
     number of atomic types    =            2
     number of electrons       =       361.00
     number of Kohn-Sham states=          217
     kinetic-energy cutoff     =      40.0000  Ry
     charge density cutoff     =     410.0000  Ry
     scf convergence threshold =      1.0E-06
     mixing beta               =       0.7000
     number of iterations used =            8  local-TF  mixing
     Exchange-correlation= BEEF-VDW
                           (   1   4  43  14   2   0   0)

     celldm(1)=  16.002787  celldm(2)=   0.000000  celldm(3)=   0.000000
     celldm(4)=   0.000000  celldm(5)=   0.000000  celldm(6)=   0.000000

     crystal axes: (cart. coord. in units of alat)
               a(1) = (   1.000000   0.000000   0.000000 )  
               a(2) = (   0.500000   0.866025   0.000000 )  
               a(3) = (   0.000000   0.000000   2.948128 )  

     reciprocal axes: (cart. coord. in units 2 pi/alat)
               b(1) = (  1.000000 -0.577350  0.000000 )  
               b(2) = (  0.000000  1.154701  0.000000 )  
               b(3) = (  0.000000  0.000000  0.339198 )  


     PseudoPot. # 1 for Pt read from file:
     /users/kbadger1/espresso/pseudo/pslibrary.1.0.0/pbe/PSEUDOPOTENTIALS/Pt.pbe-n-kjpaw_psl.1.0.0.UPF
     MD5 check sum: 2e24a0b5bf98a4ed1a57fa81bca8c143
     Pseudo is Projector augmented-wave + core cor, Zval = 10.0
     Generated using 'atomic' code by A. Dal Corso  v.7.0
     Shape of augmentation charge: PSQ
     Using radial grid of 1277 points,  6 beta functions with: 
                l(1) =   0
                l(2) =   0
                l(3) =   1
                l(4) =   1
                l(5) =   2
                l(6) =   2
     Q(r) pseudized with 0 coefficients 


     PseudoPot. # 2 for H  read from file:
     /users/kbadger1/espresso/pseudo/pslibrary.1.0.0/pbe/PSEUDOPOTENTIALS/H.pbe-kjpaw_psl.1.0.0.UPF
     MD5 check sum: fe4c6fa958fa6d3815bf5d2419cbf1df
     Pseudo is Projector augmented-wave, Zval =  1.0
     Generated using 'atomic' code by A. Dal Corso  v.7.0
     Shape of augmentation charge: PSQ
     Using radial grid of  929 points,  2 beta functions with: 
                l(1) =   0
                l(2) =   0
     Q(r) pseudized with 0 coefficients 


     atomic species   valence    mass     pseudopotential
        Pt            10.00   195.08400     Pt( 1.00)
        H              1.00     1.00800     H ( 1.00)

     No symmetry found



   Cartesian axes

     site n.     atom                  positions (alat units)
         1           Pt  tau(   1) = (   0.0000000   0.0000000   1.0037422  )
         2           Pt  tau(   2) = (   0.3340014   0.0000000   1.0037422  )
         3           Pt  tau(   3) = (   0.6680027   0.0000000   1.0037422  )
         4           Pt  tau(   4) = (   0.1670007   0.2892537   1.0037422  )
         5           Pt  tau(   5) = (   0.5010021   0.2892537   1.0037422  )
         6           Pt  tau(   6) = (   0.8350034   0.2892537   1.0037422  )
         7           Pt  tau(   7) = (   0.3340014   0.5785073   1.0037422  )
         8           Pt  tau(   8) = (   0.6680027   0.5785073   1.0037422  )
         9           Pt  tau(   9) = (   1.0020041   0.5785073   1.0037422  )
        10           Pt  tau(  10) = (   0.1670007   0.0964179   1.2764532  )
        11           Pt  tau(  11) = (   0.5010021   0.0964179   1.2764532  )
        12           Pt  tau(  12) = (   0.8350034   0.0964179   1.2764532  )
        13           Pt  tau(  13) = (   0.3340014   0.3856716   1.2764532  )
        14           Pt  tau(  14) = (   0.6680027   0.3856716   1.2764532  )
        15           Pt  tau(  15) = (   1.0020041   0.3856716   1.2764532  )
        16           Pt  tau(  16) = (   0.5010021   0.6749252   1.2764532  )
        17           Pt  tau(  17) = (   0.8350034   0.6749252   1.2764532  )
        18           Pt  tau(  18) = (   1.1690048   0.6749252   1.2764532  )
        19           Pt  tau(  19) = (   0.0017409   0.1912844   1.5475204  )
        20           Pt  tau(  20) = (   0.3344377   0.1911620   1.5471980  )
        21           Pt  tau(  21) = (   0.6681326   0.1912195   1.5458405  )
        22           Pt  tau(  22) = (   0.1681922   0.4765840   1.5511486  )
        23           Pt  tau(  23) = (   0.5013631   0.4799348   1.5461202  )
        24           Pt  tau(  24) = (   0.8349255   0.4799667   1.5460268  )
        25           Pt  tau(  25) = (   0.3347796   0.7678748   1.5464738  )
        26           Pt  tau(  26) = (   0.6681957   0.7686257   1.5466093  )
        27           Pt  tau(  27) = (   1.0018366   0.7677696   1.5460725  )
        28           Pt  tau(  28) = (  -0.0002411  -0.0052900   1.8211668  )
        29           Pt  tau(  29) = (   0.3368750  -0.0052642   1.8209391  )
        30           Pt  tau(  30) = (   0.6682548  -0.0035972   1.8217354  )
        31           Pt  tau(  31) = (   0.1683056   0.2828607   1.8341072  )
        32           Pt  tau(  32) = (   0.5023175   0.2851625   1.8209411  )
        33           Pt  tau(  33) = (   0.8342344   0.2851728   1.8210074  )
        34           Pt  tau(  34) = (   0.3349726   0.5737606   1.8221844  )
        35           Pt  tau(  35) = (   0.6682895   0.5732415   1.8211841  )
        36           Pt  tau(  36) = (   1.0015951   0.5737967   1.8220603  )
        37           H   tau(  37) = (   0.1682822   0.2088140   2.0033810  )

     number of k points=    13  Marzari-Vanderbilt smearing, width (Ry)=  0.0200
                       cart. coord. in units 2pi/alat
        k(    1) = (   0.0000000   0.0000000   0.0000000), wk =   0.0800000
        k(    2) = (   0.0000000   0.2309401   0.0000000), wk =   0.1600000
        k(    3) = (   0.0000000   0.4618802   0.0000000), wk =   0.1600000
        k(    4) = (   0.2000000  -0.1154701   0.0000000), wk =   0.1600000
        k(    5) = (   0.2000000   0.1154701   0.0000000), wk =   0.1600000
        k(    6) = (   0.2000000   0.3464102   0.0000000), wk =   0.1600000
        k(    7) = (   0.2000000  -0.5773503   0.0000000), wk =   0.1600000
        k(    8) = (   0.2000000  -0.3464102   0.0000000), wk =   0.1600000
        k(    9) = (   0.4000000  -0.2309401   0.0000000), wk =   0.1600000
        k(   10) = (   0.4000000   0.0000000   0.0000000), wk =   0.1600000
        k(   11) = (   0.4000000   0.2309401   0.0000000), wk =   0.1600000
        k(   12) = (   0.4000000  -0.6928203   0.0000000), wk =   0.1600000
        k(   13) = (   0.4000000  -0.4618802   0.0000000), wk =   0.1600000

     Dense  grid:  1467143 G-vectors     FFT dimensions: ( 108, 108, 320)

     Smooth grid:   357639 G-vectors     FFT dimensions: (  72,  72, 192)

     Estimated max dynamical RAM per process >     211.30 MB

     Estimated total dynamical RAM >       9.90 GB

     Initial potential from superposition of free atoms

     starting charge     360.9939, renormalised to     361.0000

     negative rho (up, down):  3.573E-03 0.000E+00


     %%%%%%%%%%%%%%%%%%%%%%%%%%%%%%%%%%%%%%%%%%%%%%%%%%%%%%%%%%%%%%%%%%%%%%%%
     %                                                                      %
     % You are using vdW-DF, which was implemented by the Thonhauser group. %
     % Please cite the following two papers that made this development      %
     % possible and the two reviews that describe the various versions:     %
     %                                                                      %
     %   T. Thonhauser et al., PRL 115, 136402 (2015).                      %
     %   T. Thonhauser et al., PRB 76, 125112 (2007).                       %
     %   K. Berland et al., Rep. Prog. Phys. 78, 066501 (2015).             %
     %   D.C. Langreth et al., J. Phys.: Condens. Matter 21, 084203 (2009). %
     %                                                                      %
     % If you are calculating stress with vdW-DF, please also cite:         %
     %                                                                      %
     %   R. Sabatini et al., J. Phys.: Condens. Matter 24, 424209 (2012).   %
     %                                                                      %
     %%%%%%%%%%%%%%%%%%%%%%%%%%%%%%%%%%%%%%%%%%%%%%%%%%%%%%%%%%%%%%%%%%%%%%%%

     %%%%%%%%%%%%%%%%%%%%%%%%%%%%%%%%%%%%%%%%%%%%%%%%%%%%%%%%%%%%%%%%%%%%%%%%
     %                                                                      %
     %  vdW-DF NEWS:                                                        %
     %                                                                      %
     %  * vdW-DF3 is now available. DOI: 10.1021/acs.jctc.0c00471           %
     %    use with input_dft = 'vdW-DF3-opt1' or 'vdW-DF3-opt2'             %
     %                                                                      %
     %  * Unscreened and range-separated hybrid vdW-DF-cx functionals       %
     %    DOI: 10.1063/1.4986522 and 10.1088/1361-648X/ac2ad2               %
     %    use with input_dft = 'vdW-DF-cx0'    and 'vdW-DF-ahcx'            %
     %  * Unscreened and range-separated hybrid vdW-DF2-b86r functionals    %
     %    DOI: 10.1063/1.4986522 and DOI: 10.1103/PhysRevX.12.041003        %
     %    use with input_dft = 'vdW-DF2-br0' and 'vdW-DF2-ahbr'             %
     %                                                                      %
     %%%%%%%%%%%%%%%%%%%%%%%%%%%%%%%%%%%%%%%%%%%%%%%%%%%%%%%%%%%%%%%%%%%%%%%%


     Starting wfcs are  325 randomized atomic wfcs
     Checking if some PAW data can be deallocated... 

     total cpu time spent up to now is       16.4 secs

     per-process dynamical memory:   208.8 Mb

     Self-consistent Calculation

     iteration #  1     ecut=    40.00 Ry     beta= 0.70
     Davidson diagonalization with overlap
     ethr =  1.00E-02,  avg # of iterations =  2.0

     Threshold (ethr) on eigenvalues was too large:
     Diagonalizing with lowered threshold

     Davidson diagonalization with overlap
     ethr =  3.92E-04,  avg # of iterations =  3.8

     negative rho (up, down):  1.762E-02 0.000E+00

     total cpu time spent up to now is       54.4 secs

     total energy              =  -27755.28293466 Ry
     estimated scf accuracy    <       1.61862734 Ry

     iteration #  2     ecut=    40.00 Ry     beta= 0.70
     Davidson diagonalization with overlap
     ethr =  4.48E-04,  avg # of iterations =  2.0

     negative rho (up, down):  1.577E-02 0.000E+00

     total cpu time spent up to now is       73.7 secs

     total energy              =  -27755.38574921 Ry
     estimated scf accuracy    <       0.81904979 Ry

     iteration #  3     ecut=    40.00 Ry     beta= 0.70
     Davidson diagonalization with overlap
     ethr =  2.27E-04,  avg # of iterations =  2.0

     negative rho (up, down):  1.039E-02 0.000E+00

     total cpu time spent up to now is       86.6 secs

     total energy              =  -27755.43988059 Ry
     estimated scf accuracy    <       0.09849372 Ry

     iteration #  4     ecut=    40.00 Ry     beta= 0.70
     Davidson diagonalization with overlap
     c_bands:  1 eigenvalues not converged
     c_bands:  1 eigenvalues not converged
     c_bands:  1 eigenvalues not converged
     c_bands:  1 eigenvalues not converged
     c_bands:  1 eigenvalues not converged
     c_bands:  1 eigenvalues not converged
     c_bands:  1 eigenvalues not converged
     ethr =  2.73E-05,  avg # of iterations = 15.8

     negative rho (up, down):  7.689E-03 0.000E+00

     total cpu time spent up to now is      132.2 secs

     total energy              =  -27755.48982016 Ry
     estimated scf accuracy    <       0.08253645 Ry

     iteration #  5     ecut=    40.00 Ry     beta= 0.70
     Davidson diagonalization with overlap
     ethr =  2.29E-05,  avg # of iterations =  2.4

     negative rho (up, down):  3.767E-03 0.000E+00

     total cpu time spent up to now is      145.5 secs

     total energy              =  -27755.48999353 Ry
     estimated scf accuracy    <       0.02945686 Ry

     iteration #  6     ecut=    40.00 Ry     beta= 0.70
     Davidson diagonalization with overlap
     ethr =  8.16E-06,  avg # of iterations =  7.7

     negative rho (up, down):  1.871E-03 0.000E+00

     total cpu time spent up to now is      167.6 secs

     total energy              =  -27755.49206261 Ry
     estimated scf accuracy    <       0.00237535 Ry

     iteration #  7     ecut=    40.00 Ry     beta= 0.70
     Davidson diagonalization with overlap
     c_bands:  1 eigenvalues not converged
     ethr =  6.58E-07,  avg # of iterations = 11.6

     negative rho (up, down):  1.446E-03 0.000E+00

     total cpu time spent up to now is      204.4 secs

     total energy              =  -27755.49274026 Ry
     estimated scf accuracy    <       0.00190406 Ry

     iteration #  8     ecut=    40.00 Ry     beta= 0.70
     Davidson diagonalization with overlap
     ethr =  5.27E-07,  avg # of iterations =  1.9

     negative rho (up, down):  1.224E-03 0.000E+00

     total cpu time spent up to now is      223.9 secs

     total energy              =  -27755.49287017 Ry
     estimated scf accuracy    <       0.00021923 Ry

     iteration #  9     ecut=    40.00 Ry     beta= 0.70
     Davidson diagonalization with overlap
     ethr =  6.07E-08,  avg # of iterations =  4.8

     negative rho (up, down):  9.237E-04 0.000E+00

     total cpu time spent up to now is      255.0 secs

     total energy              =  -27755.49297838 Ry
     estimated scf accuracy    <       0.00009924 Ry

     iteration # 10     ecut=    40.00 Ry     beta= 0.70
     Davidson diagonalization with overlap
     ethr =  2.75E-08,  avg # of iterations =  3.3

     negative rho (up, down):  8.842E-04 0.000E+00

     total cpu time spent up to now is      278.8 secs

     total energy              =  -27755.49299607 Ry
     estimated scf accuracy    <       0.00009830 Ry

     iteration # 11     ecut=    40.00 Ry     beta= 0.70
     Davidson diagonalization with overlap
     ethr =  2.72E-08,  avg # of iterations =  1.2

     negative rho (up, down):  9.535E-04 0.000E+00

     total cpu time spent up to now is      291.5 secs

     total energy              =  -27755.49300016 Ry
     estimated scf accuracy    <       0.00006313 Ry

     iteration # 12     ecut=    40.00 Ry     beta= 0.70
     Davidson diagonalization with overlap
     ethr =  1.75E-08,  avg # of iterations =  1.5

     negative rho (up, down):  1.152E-03 0.000E+00

     total cpu time spent up to now is      312.3 secs

     total energy              =  -27755.49300502 Ry
     estimated scf accuracy    <       0.00002603 Ry

     iteration # 13     ecut=    40.00 Ry     beta= 0.70
     Davidson diagonalization with overlap
     ethr =  7.21E-09,  avg # of iterations =  1.9

     negative rho (up, down):  1.645E-03 0.000E+00

     total cpu time spent up to now is      324.8 secs

     total energy              =  -27755.49300949 Ry
     estimated scf accuracy    <       0.00001552 Ry

     iteration # 14     ecut=    40.00 Ry     beta= 0.70
     Davidson diagonalization with overlap
     ethr =  4.30E-09,  avg # of iterations =  2.0

     negative rho (up, down):  2.019E-03 0.000E+00

     total cpu time spent up to now is      344.4 secs

     total energy              =  -27755.49301557 Ry
     estimated scf accuracy    <       0.00000804 Ry

     iteration # 15     ecut=    40.00 Ry     beta= 0.70
     Davidson diagonalization with overlap
     ethr =  2.23E-09,  avg # of iterations =  2.0

     negative rho (up, down):  2.862E-03 0.000E+00

     total cpu time spent up to now is      357.5 secs

     total energy              =  -27755.49301309 Ry
     estimated scf accuracy    <       0.00000697 Ry

     iteration # 16     ecut=    40.00 Ry     beta= 0.70
     Davidson diagonalization with overlap
     ethr =  1.93E-09,  avg # of iterations =  1.5

     negative rho (up, down):  3.383E-03 0.000E+00

     total cpu time spent up to now is      376.4 secs

     End of self-consistent calculation

          k = 0.0000 0.0000 0.0000 ( 44645 PWs)   bands (ev):

    -6.6399  -5.3723  -4.3306  -4.2336  -4.2227  -4.2100  -4.2073  -4.2045
    -4.1937  -4.1875  -3.7657  -3.6628  -3.6597  -3.6547  -3.6490  -3.6434
    -3.3830  -3.1948  -3.1876  -3.1825  -3.1814  -3.1782  -3.1086  -2.9761
    -2.9696  -2.9665  -2.9595  -2.9564  -2.8120  -2.7507  -2.7470  -2.7447
    -2.7370  -2.7321  -2.7171  -2.7122  -2.7098  -2.7022  -2.6957  -2.6620
    -2.5305  -2.1194  -2.1151  -2.0929  -2.0717  -2.0589  -2.0452  -2.0402
    -2.0329  -2.0295  -1.9547  -1.8821  -1.8622  -1.7903  -1.6857  -1.3347
    -1.3233  -1.3056  -1.2979  -1.2963  -1.2653  -1.2371  -1.1169  -1.1152
    -1.1129  -1.1052  -1.0964  -1.0907  -1.0712  -1.0670  -1.0570  -1.0465
    -1.0395  -1.0268  -1.0043  -1.0008  -0.9719  -0.9048  -0.8875  -0.8836
    -0.8777  -0.8676  -0.7873  -0.6941  -0.6768  -0.6689  -0.6625  -0.6538
    -0.6327  -0.6270  -0.6103  -0.5481  -0.5397  -0.4899  -0.4835  -0.4546
    -0.4513  -0.4264  -0.4130  -0.4065  -0.3679  -0.2759  -0.2650  -0.2510
    -0.2434  -0.2321  -0.2203   0.0759   0.2501   0.2525   0.2671   0.2718
     0.2754   0.2769   0.2814   0.3168   0.3275   0.3323   0.3341   0.3711
     0.4005   0.4251   0.5363   0.5552   0.5722   0.5771   0.5781   0.6626
     0.6648   0.7158   0.7325   0.7360   0.7643   0.7896   0.9729   0.9900
     1.0047   1.0070   1.0196   1.0265   1.0754   1.0841   1.2412   1.2447
     1.2485   1.2562   1.2575   1.3130   1.4155   1.4196   1.4342   1.4399
     1.4459   1.4568   1.4605   1.4640   1.4660   1.4691   1.4718   1.5600
     1.5823   1.5836   1.6014   1.6095   1.6178   1.6344   1.6437   1.6917
     1.7004   1.7147   1.7271   1.7348   1.7406   1.7435   1.7484   1.8199
     1.8227   1.8322   1.8374   1.8406   1.8428   1.8569   1.9125   1.9372
     1.9421   1.9445   1.9601   1.9635   2.1354   2.1675   2.2342   2.2482
     2.2698   2.2707   2.2734   2.2802   2.6319   3.0850   3.1391   3.1544
     3.1618   3.1637   3.1657   4.7618   5.4371   5.4539   5.4816   5.4862
     5.5028   6.6833   7.0764   7.0866   7.1074   7.1207   7.1350   7.1370
     7.2584

          k = 0.0000 0.2309 0.0000 ( 44694 PWs)   bands (ev):

    -6.4922  -5.2280  -4.7265  -4.3422  -4.3154  -4.1636  -4.0856  -4.0209
    -3.9916  -3.9634  -3.8160  -3.7493  -3.6601  -3.5938  -3.5894  -3.5749
    -3.3603  -3.2227  -3.1567  -3.1487  -3.1414  -3.1288  -3.0678  -3.0401
    -3.0091  -2.9762  -2.9702  -2.9433  -2.9221  -2.8662  -2.8257  -2.7762
    -2.7644  -2.7320  -2.7239  -2.6235  -2.5315  -2.5299  -2.5112  -2.5095
    -2.4334  -2.2409  -2.2313  -2.1664  -2.1650  -2.1279  -2.1246  -2.0666
    -1.9415  -1.9359  -1.8630  -1.8589  -1.8070  -1.7920  -1.7349  -1.5452
    -1.4803  -1.4711  -1.4169  -1.3877  -1.3716  -1.3157  -1.3151  -1.2903
    -1.2689  -1.2518  -1.2015  -1.1879  -1.1338  -1.1139  -1.0941  -1.0802
    -1.0409  -1.0194  -1.0065  -0.9229  -0.9161  -0.9029  -0.8534  -0.8171
    -0.8141  -0.7965  -0.7854  -0.7122  -0.7077  -0.6972  -0.6868  -0.6638
    -0.6511  -0.6133  -0.5832  -0.5595  -0.5317  -0.5173  -0.4985  -0.4957
    -0.4585  -0.4354  -0.4321  -0.4205  -0.3265  -0.2671  -0.2603  -0.2467
    -0.2448  -0.2239  -0.2146  -0.2051  -0.1601  -0.1543  -0.1300  -0.1206
     0.0801   0.1054   0.1913   0.2268   0.2682   0.2709   0.2837   0.3159
     0.3221   0.3699   0.4704   0.4796   0.4880   0.5889   0.6138   0.6540
     0.6660   0.6892   0.7208   0.7464   0.7633   0.7676   0.8504   0.8749
     0.8836   0.8910   0.8949   1.0749   1.0822   1.1114   1.1262   1.1350
     1.1529   1.1854   1.2321   1.2666   1.2843   1.2937   1.3371   1.3661
     1.3724   1.3797   1.4182   1.4863   1.4944   1.5223   1.5544   1.6193
     1.6549   1.6597   1.6611   1.6751   1.6827   1.7303   1.7801   1.8075
     1.8148   1.8620   1.8756   1.8817   1.9172   1.9238   1.9286   1.9344
     1.9408   1.9845   1.9946   2.1106   2.1429   2.1717   2.1923   2.1993
     2.2075   2.2374   2.2758   2.2778   2.2919   2.3767   2.3912   2.3975
     2.4143   2.5740   2.5790   2.5923   2.6121   2.9330   3.0325   3.4460
     3.7459   3.7516   3.8799   4.5498   4.9866   5.1947   5.7245   5.9359
     5.9372   6.0378   6.2531   6.6302   6.9006   6.9523   7.2401   7.2976
     7.3061

          k = 0.0000 0.4619 0.0000 ( 44748 PWs)   bands (ev):

    -6.0672  -5.4299  -4.8232  -4.3745  -4.3487  -4.2630  -3.9955  -3.8538
    -3.7969  -3.7074  -3.6615  -3.6205  -3.5553  -3.4615  -3.4226  -3.4099
    -3.4039  -3.3146  -3.2603  -3.2323  -3.2080  -3.1915  -3.1636  -3.1436
    -3.0653  -3.0545  -3.0523  -2.9816  -2.7925  -2.7831  -2.7782  -2.7668
    -2.7571  -2.7055  -2.5398  -2.5225  -2.5061  -2.4952  -2.4786  -2.4113
    -2.2405  -2.2073  -2.1915  -2.1780  -2.1431  -2.1292  -2.1191  -2.0507
    -2.0450  -1.9937  -1.9840  -1.9539  -1.8317  -1.8162  -1.7935  -1.7876
    -1.6766  -1.6270  -1.6079  -1.6042  -1.5320  -1.4550  -1.3970  -1.3939
    -1.3801  -1.3646  -1.2935  -1.2625  -1.2483  -1.1754  -1.1621  -1.1474
    -1.1325  -1.0324  -1.0098  -0.9902  -0.9879  -0.9636  -0.9291  -0.9069
    -0.8981  -0.8719  -0.8673  -0.8642  -0.8591  -0.8399  -0.8120  -0.7387
    -0.7162  -0.6973  -0.6933  -0.6848  -0.6691  -0.5749  -0.5377  -0.5248
    -0.5045  -0.4667  -0.4507  -0.4235  -0.4040  -0.4000  -0.3421  -0.2597
    -0.2297  -0.2032  -0.1770  -0.1531  -0.1317   0.0023   0.0154   0.0661
     0.0959   0.1534   0.1737   0.1904   0.2164   0.2185   0.2372   0.3001
     0.3094   0.3174   0.3266   0.3322   0.3555   0.3608   0.3801   0.3924
     0.4439   0.5255   0.5535   0.5757   0.5828   0.6527   0.7295   0.7589
     0.7833   0.8714   0.8951   0.9839   1.0334   1.0446   1.0810   1.0967
     1.1113   1.1488   1.1504   1.2115   1.2361   1.2530   1.3029   1.3125
     1.3725   1.4006   1.4186   1.4267   1.4442   1.4563   1.5593   1.6165
     1.6705   1.6922   1.7140   1.7206   1.7268   1.8166   1.8337   1.8418
     1.9127   1.9165   1.9268   1.9840   1.9979   2.0144   2.0337   2.1125
     2.1517   2.1711   2.1744   2.1918   2.1979   2.2209   2.2292   2.3963
     2.4197   2.4337   2.4469   2.4488   2.6221   2.6614   2.8274   3.0417
     3.0871   3.2290   3.4922   3.4930   3.7912   3.8794   3.9268   4.2178
     4.4160   4.7179   4.7179   4.7428   4.8921   4.9627   5.0322   5.0914
     5.3503   5.3714   5.7718   6.0046   6.3306   6.5340   6.7257   7.0097
     7.2420

          k = 0.2000-0.1155 0.0000 ( 44694 PWs)   bands (ev):

    -6.4921  -5.2283  -4.7254  -4.3397  -4.3163  -4.1676  -4.0854  -4.0240
    -3.9778  -3.9707  -3.8287  -3.7496  -3.6504  -3.5866  -3.5855  -3.5712
    -3.3405  -3.2820  -3.1601  -3.1477  -3.1364  -3.1004  -3.0652  -3.0481
    -3.0063  -2.9821  -2.9740  -2.9395  -2.8941  -2.8647  -2.8396  -2.7686
    -2.7583  -2.7309  -2.7278  -2.6063  -2.5349  -2.5298  -2.5198  -2.4919
    -2.4695  -2.2416  -2.2311  -2.2139  -2.1579  -2.1444  -2.1231  -2.0555
    -1.9468  -1.9117  -1.8634  -1.8434  -1.8247  -1.7894  -1.7230  -1.5701
    -1.4791  -1.4607  -1.4288  -1.4016  -1.3767  -1.3273  -1.2975  -1.2807
    -1.2587  -1.2481  -1.2253  -1.1902  -1.1469  -1.1249  -1.0936  -1.0757
    -1.0068  -0.9948  -0.9893  -0.9227  -0.9151  -0.8924  -0.8517  -0.8339
    -0.8224  -0.7977  -0.7726  -0.7124  -0.7069  -0.6879  -0.6820  -0.6760
    -0.6482  -0.6259  -0.5794  -0.5461  -0.5297  -0.5239  -0.5087  -0.4903
    -0.4758  -0.4401  -0.4256  -0.4105  -0.3300  -0.2728  -0.2514  -0.2436
    -0.2376  -0.2282  -0.2196  -0.2032  -0.1686  -0.1490  -0.1390  -0.1276
     0.0011   0.1511   0.1992   0.2446   0.2635   0.2771   0.2851   0.3002
     0.3251   0.3607   0.4676   0.4878   0.5124   0.5967   0.6222   0.6395
     0.6822   0.6907   0.7309   0.7438   0.7615   0.8215   0.8518   0.8621
     0.8800   0.8909   0.9039   1.0618   1.0916   1.1107   1.1233   1.1374
     1.1556   1.1820   1.2340   1.2592   1.2730   1.2942   1.3134   1.3630
     1.3663   1.3837   1.4074   1.4835   1.4948   1.5180   1.5597   1.6203
     1.6445   1.6548   1.6667   1.6857   1.7013   1.7299   1.7857   1.8107
     1.8241   1.8651   1.8738   1.8826   1.9165   1.9244   1.9317   1.9345
     1.9384   1.9921   2.0054   2.1277   2.1417   2.1654   2.1805   2.1909
     2.2012   2.2206   2.2456   2.2689   2.2911   2.3537   2.3946   2.4125
     2.4340   2.5633   2.5847   2.5873   2.6246   2.9089   3.0164   3.4640
     3.7458   3.7591   3.8823   4.5537   5.0045   5.1837   5.7140   5.9349
     5.9411   6.0338   6.2376   6.6433   6.9017   6.9515   7.2567   7.2796
     7.3059

          k = 0.2000 0.1155 0.0000 ( 44694 PWs)   bands (ev):

    -6.4921  -5.2284  -4.7259  -4.3392  -4.3162  -4.1673  -4.0857  -4.0249
    -3.9779  -3.9696  -3.8298  -3.7494  -3.6473  -3.5895  -3.5863  -3.5704
    -3.3405  -3.2815  -3.1603  -3.1475  -3.1352  -3.1016  -3.0650  -3.0483
    -3.0070  -2.9821  -2.9740  -2.9411  -2.8961  -2.8637  -2.8372  -2.7703
    -2.7583  -2.7298  -2.7273  -2.6069  -2.5355  -2.5295  -2.5200  -2.4913
    -2.4680  -2.2424  -2.2297  -2.2143  -2.1584  -2.1429  -2.1222  -2.0578
    -1.9462  -1.9117  -1.8638  -1.8439  -1.8248  -1.7893  -1.7216  -1.5689
    -1.4782  -1.4600  -1.4294  -1.3990  -1.3761  -1.3251  -1.3002  -1.2822
    -1.2600  -1.2484  -1.2255  -1.1894  -1.1456  -1.1243  -1.0926  -1.0755
    -1.0077  -0.9987  -0.9925  -0.9225  -0.9142  -0.8911  -0.8522  -0.8317
    -0.8205  -0.7940  -0.7746  -0.7130  -0.7088  -0.6883  -0.6812  -0.6766
    -0.6477  -0.6259  -0.5799  -0.5467  -0.5300  -0.5234  -0.5076  -0.4912
    -0.4759  -0.4416  -0.4258  -0.4112  -0.3305  -0.2738  -0.2516  -0.2444
    -0.2395  -0.2270  -0.2200  -0.2012  -0.1660  -0.1509  -0.1410  -0.1271
     0.0032   0.1515   0.1985   0.2430   0.2662   0.2770   0.2844   0.2990
     0.3257   0.3613   0.4671   0.4870   0.5121   0.5933   0.6218   0.6407
     0.6828   0.6895   0.7296   0.7438   0.7613   0.8220   0.8503   0.8655
     0.8810   0.8888   0.9052   1.0639   1.0899   1.1105   1.1213   1.1374
     1.1546   1.1831   1.2342   1.2604   1.2733   1.2926   1.3120   1.3622
     1.3681   1.3821   1.4104   1.4841   1.4947   1.5185   1.5614   1.6193
     1.6437   1.6537   1.6665   1.6851   1.6999   1.7296   1.7862   1.8111
     1.8256   1.8646   1.8723   1.8833   1.9171   1.9239   1.9305   1.9354
     1.9388   1.9908   2.0039   2.1277   2.1398   2.1659   2.1820   2.1917
     2.2030   2.2216   2.2475   2.2707   2.2914   2.3528   2.3958   2.4116
     2.4335   2.5649   2.5841   2.5879   2.6231   2.9113   3.0185   3.4630
     3.7447   3.7585   3.8821   4.5518   5.0065   5.1857   5.7131   5.9344
     5.9406   6.0340   6.2389   6.6417   6.9013   6.9498   7.2554   7.2804
     7.3066

          k = 0.2000 0.3464 0.0000 ( 44714 PWs)   bands (ev):

    -6.2051  -4.9965  -4.9648  -4.9381  -4.0414  -3.8980  -3.8862  -3.8711
    -3.8529  -3.8245  -3.8151  -3.7997  -3.7070  -3.7067  -3.4420  -3.3210
    -3.3123  -3.3031  -3.2434  -3.2369  -3.1446  -3.0719  -3.0578  -3.0541
    -3.0508  -3.0087  -2.9292  -2.9074  -2.8981  -2.8914  -2.8534  -2.8150
    -2.7967  -2.7732  -2.7365  -2.6688  -2.5833  -2.4019  -2.3145  -2.2976
    -2.2676  -2.2534  -2.2479  -2.2376  -2.1818  -2.1678  -2.0711  -2.0105
    -2.0029  -1.9941  -1.9054  -1.8732  -1.8315  -1.8172  -1.7931  -1.7300
    -1.6934  -1.5643  -1.5587  -1.5238  -1.4569  -1.4502  -1.4222  -1.4135
    -1.3773  -1.3425  -1.3230  -1.2102  -1.1891  -1.1745  -1.1565  -1.1206
    -1.1094  -1.0591  -1.0393  -1.0199  -0.9884  -0.9022  -0.8882  -0.8650
    -0.8472  -0.8379  -0.8236  -0.8152  -0.7819  -0.7640  -0.7451  -0.7195
    -0.6923  -0.6512  -0.5978  -0.5803  -0.5683  -0.5330  -0.5093  -0.4968
    -0.4847  -0.4455  -0.4394  -0.4218  -0.4125  -0.4024  -0.3957  -0.3792
    -0.3418  -0.3144  -0.2391  -0.2195  -0.1738  -0.1579  -0.1020  -0.0912
    -0.0790   0.0120   0.1117   0.1433   0.2208   0.2448   0.2724   0.2850
     0.3071   0.3411   0.3475   0.3813   0.3969   0.4113   0.4528   0.4999
     0.5238   0.6097   0.6719   0.6954   0.7320   0.7393   0.7689   0.8043
     0.8223   0.9202   0.9347   0.9525   1.0075   1.0165   1.0636   1.1334
     1.1558   1.1601   1.1808   1.2203   1.2324   1.2515   1.2545   1.2728
     1.2830   1.2898   1.3037   1.3946   1.4588   1.5005   1.5702   1.6212
     1.6432   1.7264   1.8024   1.8138   1.8182   1.8534   1.9207   1.9420
     1.9588   1.9725   1.9869   2.0075   2.0191   2.0210   2.0327   2.0636
     2.0909   2.1108   2.1674   2.1905   2.2159   2.2445   2.2554   2.2875
     2.4076   2.4484   2.4867   2.4963   2.5577   2.5654   2.5772   2.6979
     2.7189   2.9719   3.2336   3.2522   3.6078   3.7808   3.7977   3.8114
     4.1329   4.4884   4.5032   4.6995   4.7297   4.7618   5.3636   5.6081
     5.9190   5.9372   6.1537   6.2561   6.6294   6.6873   6.7075   6.7356
     7.1385

          k = 0.2000-0.5774 0.0000 ( 44692 PWs)   bands (ev):

    -5.6714  -5.6638  -5.0571  -4.4911  -4.4292  -3.9694  -3.8937  -3.7632
    -3.7217  -3.6589  -3.6006  -3.5064  -3.4982  -3.4921  -3.3894  -3.3842
    -3.3613  -3.3353  -3.3258  -3.3095  -3.2341  -3.1662  -3.1638  -3.1428
    -3.1164  -3.0545  -3.0064  -2.9537  -2.9059  -2.8336  -2.7671  -2.7602
    -2.7471  -2.7373  -2.6898  -2.6319  -2.5774  -2.5135  -2.4530  -2.3382
    -2.3185  -2.1992  -2.1937  -2.1754  -2.1306  -2.0962  -2.0070  -1.9604
    -1.9362  -1.9117  -1.8884  -1.8321  -1.8203  -1.7959  -1.7161  -1.7033
    -1.6880  -1.6736  -1.6711  -1.6575  -1.6080  -1.5946  -1.5630  -1.4639
    -1.4508  -1.3906  -1.3860  -1.2992  -1.2519  -1.2365  -1.2165  -1.1796
    -1.1773  -1.1536  -1.1070  -1.0618  -1.0411  -1.0296  -1.0047  -0.9870
    -0.9297  -0.8999  -0.8536  -0.8197  -0.8095  -0.7989  -0.7631  -0.6979
    -0.6336  -0.6182  -0.5960  -0.5829  -0.5559  -0.5537  -0.5416  -0.5181
    -0.5046  -0.4844  -0.4712  -0.4644  -0.4165  -0.4046  -0.3844  -0.3800
    -0.3712  -0.3514  -0.3196  -0.3000  -0.2898  -0.1637  -0.0807  -0.0619
     0.0273   0.0449   0.1320   0.1507   0.1678   0.2022   0.2131   0.2271
     0.2448   0.2680   0.3071   0.3647   0.3831   0.4086   0.4397   0.4603
     0.5115   0.5288   0.5656   0.6531   0.7240   0.7881   0.8038   0.8088
     0.8296   0.9011   0.9222   0.9379   0.9489   0.9619   0.9825   0.9990
     1.0413   1.0920   1.1233   1.1581   1.1833   1.1984   1.2101   1.2297
     1.2330   1.3297   1.4028   1.4574   1.5017   1.5620   1.6340   1.6461
     1.6548   1.7271   1.7724   1.7835   1.8112   1.8746   1.9327   1.9518
     1.9713   1.9989   2.0077   2.0254   2.0541   2.0929   2.1527   2.1638
     2.1678   2.1876   2.2164   2.2202   2.2225   2.2886   2.4103   2.4259
     2.4388   2.4454   2.4504   2.5087   2.5462   2.6340   2.7583   3.3455
     3.6037   3.6051   3.7807   3.8519   3.9668   3.9822   3.9966   4.2884
     4.6125   4.6208   4.8099   5.0584   5.0883   5.1881   5.2133   5.3298
     5.4484   5.5222   5.5712   5.8274   6.0128   6.0419   6.3447   6.6747
     6.6966

          k = 0.2000-0.3464 0.0000 ( 44714 PWs)   bands (ev):

    -6.2050  -4.9910  -4.9697  -4.9388  -4.0383  -3.8978  -3.8841  -3.8760
    -3.8515  -3.8244  -3.8171  -3.8002  -3.7075  -3.7060  -3.4413  -3.3185
    -3.3134  -3.3041  -3.2433  -3.2352  -3.1467  -3.0693  -3.0606  -3.0562
    -3.0488  -3.0069  -2.9292  -2.9104  -2.8966  -2.8911  -2.8544  -2.8162
    -2.7924  -2.7737  -2.7385  -2.6668  -2.5843  -2.4022  -2.3102  -2.2997
    -2.2713  -2.2530  -2.2469  -2.2384  -2.1819  -2.1674  -2.0728  -2.0151
    -2.0015  -1.9922  -1.9053  -1.8730  -1.8309  -1.8214  -1.7881  -1.7288
    -1.6948  -1.5654  -1.5615  -1.5236  -1.4593  -1.4517  -1.4231  -1.4147
    -1.3746  -1.3423  -1.3244  -1.2124  -1.1880  -1.1720  -1.1551  -1.1204
    -1.1079  -1.0616  -1.0399  -1.0204  -0.9868  -0.9021  -0.8912  -0.8651
    -0.8475  -0.8391  -0.8233  -0.8143  -0.7833  -0.7629  -0.7446  -0.7174
    -0.6905  -0.6496  -0.5965  -0.5792  -0.5684  -0.5315  -0.5093  -0.4938
    -0.4858  -0.4451  -0.4396  -0.4227  -0.4138  -0.4010  -0.3952  -0.3783
    -0.3427  -0.3143  -0.2402  -0.2190  -0.1725  -0.1583  -0.1009  -0.0911
    -0.0786   0.0123   0.1155   0.1382   0.2221   0.2456   0.2743   0.2843
     0.3079   0.3374   0.3487   0.3829   0.3954   0.4081   0.4523   0.5000
     0.5236   0.6123   0.6716   0.6943   0.7305   0.7419   0.7700   0.8054
     0.8215   0.9212   0.9382   0.9501   1.0073   1.0155   1.0628   1.1313
     1.1555   1.1611   1.1817   1.2213   1.2324   1.2521   1.2553   1.2728
     1.2820   1.2889   1.3037   1.3937   1.4608   1.4995   1.5694   1.6225
     1.6431   1.7263   1.8038   1.8129   1.8179   1.8540   1.9212   1.9404
     1.9592   1.9725   1.9862   2.0076   2.0207   2.0212   2.0339   2.0649
     2.0910   2.1077   2.1682   2.1897   2.2174   2.2446   2.2552   2.2885
     2.4056   2.4465   2.4851   2.4951   2.5566   2.5662   2.5745   2.6992
     2.7182   2.9731   3.2342   3.2532   3.6071   3.7792   3.7978   3.8113
     4.1331   4.4881   4.5019   4.7006   4.7297   4.7616   5.3630   5.6071
     5.9191   5.9368   6.1543   6.2551   6.6307   6.6849   6.7092   6.7316
     6.7517

          k = 0.4000-0.2309 0.0000 ( 44748 PWs)   bands (ev):

    -6.0669  -5.4287  -4.8271  -4.3771  -4.3460  -4.2667  -4.0031  -3.8411
    -3.7827  -3.7045  -3.6415  -3.6282  -3.5567  -3.4563  -3.4186  -3.4082
    -3.3988  -3.3250  -3.2616  -3.2370  -3.2200  -3.1898  -3.1709  -3.1385
    -3.0903  -3.0579  -3.0517  -2.9185  -2.7887  -2.7858  -2.7793  -2.7723
    -2.7651  -2.6996  -2.5385  -2.5214  -2.5083  -2.5012  -2.4779  -2.4192
    -2.3072  -2.2026  -2.1953  -2.1885  -2.1690  -2.1252  -2.0881  -2.0639
    -2.0415  -2.0269  -1.9788  -1.9141  -1.8384  -1.8195  -1.7974  -1.7693
    -1.6824  -1.6514  -1.6218  -1.6009  -1.5774  -1.4571  -1.4096  -1.3833
    -1.3712  -1.3548  -1.2883  -1.2801  -1.2412  -1.1576  -1.1317  -1.1225
    -1.0944  -1.0294  -1.0177  -0.9959  -0.9884  -0.9658  -0.9440  -0.9101
    -0.8916  -0.8847  -0.8703  -0.8550  -0.8478  -0.8345  -0.7835  -0.7280
    -0.7226  -0.7110  -0.7046  -0.6948  -0.6835  -0.6002  -0.5268  -0.5184
    -0.4739  -0.4618  -0.4438  -0.4323  -0.4001  -0.3847  -0.3054  -0.2577
    -0.2346  -0.2278  -0.1837  -0.1462  -0.1218  -0.0011   0.0123   0.0355
     0.1031   0.1401   0.1808   0.1882   0.2046   0.2141   0.2240   0.2371
     0.3073   0.3130   0.3303   0.3507   0.3593   0.3800   0.3982   0.4190
     0.4336   0.5424   0.5707   0.5781   0.6198   0.6583   0.7588   0.7710
     0.7989   0.8733   0.8853   0.9499   1.0199   1.0490   1.0850   1.1140
     1.1186   1.1326   1.1479   1.2054   1.2226   1.2490   1.2748   1.3130
     1.3693   1.3941   1.4179   1.4235   1.4478   1.4899   1.5344   1.6153
     1.6626   1.6934   1.7203   1.7278   1.7400   1.8132   1.8372   1.8465
     1.9187   1.9213   1.9310   1.9810   2.0091   2.0239   2.0387   2.1172
     2.1459   2.1672   2.1772   2.1867   2.1921   2.2065   2.2174   2.3931
     2.4002   2.4243   2.4279   2.4442   2.6231   2.6612   2.8369   3.0242
     3.1070   3.2208   3.4858   3.4981   3.8046   3.8822   3.9251   4.2067
     4.4136   4.7080   4.7196   4.7386   4.9086   4.9693   5.0278   5.0819
     5.3512   5.3724   5.7586   5.9901   6.3387   6.5433   6.7347   7.0084
     7.2458

          k = 0.4000 0.0000 0.0000 ( 44714 PWs)   bands (ev):

    -6.2049  -4.9885  -4.9717  -4.9401  -4.0376  -3.8874  -3.8839  -3.8809
    -3.8482  -3.8273  -3.8205  -3.8047  -3.7109  -3.7008  -3.4235  -3.3136
    -3.3089  -3.2990  -3.2672  -3.2148  -3.1631  -3.0762  -3.0601  -3.0550
    -3.0501  -3.0029  -2.9476  -2.9099  -2.9008  -2.8903  -2.8526  -2.8113
    -2.7889  -2.7651  -2.7386  -2.6494  -2.5636  -2.3901  -2.3097  -2.2989
    -2.2837  -2.2641  -2.2457  -2.2421  -2.2382  -2.1772  -2.1369  -2.0085
    -1.9999  -1.9183  -1.9069  -1.8761  -1.8271  -1.8205  -1.7825  -1.7357
    -1.7119  -1.5736  -1.5416  -1.5167  -1.4871  -1.4465  -1.4244  -1.4187
    -1.3741  -1.3419  -1.3376  -1.1970  -1.1938  -1.1637  -1.1464  -1.1167
    -1.0906  -1.0592  -1.0565  -1.0042  -0.9973  -0.8974  -0.8812  -0.8665
    -0.8517  -0.8353  -0.8235  -0.8153  -0.7732  -0.7726  -0.7417  -0.7086
    -0.6843  -0.6626  -0.5934  -0.5815  -0.5556  -0.5407  -0.5103  -0.4858
    -0.4768  -0.4563  -0.4438  -0.4234  -0.4203  -0.4141  -0.3964  -0.3803
    -0.3306  -0.3156  -0.2863  -0.2146  -0.1747  -0.1664  -0.0943  -0.0827
    -0.0770   0.0407   0.1103   0.1311   0.2399   0.2445   0.2909   0.2979
     0.3020   0.3284   0.3668   0.3717   0.3987   0.4121   0.4433   0.4899
     0.5457   0.6306   0.6783   0.7064   0.7221   0.7422   0.7707   0.8139
     0.8400   0.9104   0.9422   0.9621   0.9958   1.0155   1.0635   1.1236
     1.1355   1.1542   1.1814   1.2212   1.2373   1.2456   1.2533   1.2700
     1.2744   1.2839   1.2995   1.3679   1.4855   1.4966   1.5528   1.6326
     1.6497   1.7275   1.8056   1.8100   1.8182   1.8812   1.9229   1.9360
     1.9595   1.9660   1.9930   2.0097   2.0192   2.0292   2.0407   2.0667
     2.0878   2.0910   2.1726   2.2031   2.2150   2.2443   2.2530   2.2933
     2.3571   2.4315   2.4760   2.4891   2.5445   2.5662   2.5734   2.7013
     2.7220   3.0009   3.2479   3.2583   3.6041   3.7739   3.7813   3.8041
     4.1363   4.4889   4.5064   4.7128   4.7295   4.7572   5.3890   5.5863
     5.9154   5.9241   6.1361   6.2531   6.6337   6.6929   6.7009   6.7322
     6.7499

          k = 0.4000 0.2309 0.0000 ( 44748 PWs)   bands (ev):

    -6.0670  -5.4293  -4.8262  -4.3764  -4.3462  -4.2685  -4.0040  -3.8416
    -3.7818  -3.7050  -3.6394  -3.6281  -3.5560  -3.4570  -3.4204  -3.4089
    -3.3985  -3.3256  -3.2614  -3.2366  -3.2206  -3.1894  -3.1699  -3.1411
    -3.0906  -3.0581  -3.0519  -2.9164  -2.7907  -2.7816  -2.7799  -2.7762
    -2.7608  -2.7006  -2.5370  -2.5217  -2.5096  -2.5023  -2.4763  -2.4177
    -2.3080  -2.2032  -2.1956  -2.1888  -2.1674  -2.1247  -2.0864  -2.0618
    -2.0420  -2.0255  -1.9788  -1.9176  -1.8372  -1.8194  -1.7967  -1.7691
    -1.6806  -1.6488  -1.6214  -1.6007  -1.5753  -1.4592  -1.4084  -1.3852
    -1.3710  -1.3534  -1.2865  -1.2811  -1.2428  -1.1585  -1.1350  -1.1237
    -1.0948  -1.0316  -1.0169  -0.9950  -0.9865  -0.9668  -0.9429  -0.9088
    -0.8900  -0.8827  -0.8695  -0.8556  -0.8489  -0.8334  -0.7840  -0.7292
    -0.7231  -0.7119  -0.7021  -0.6943  -0.6781  -0.6027  -0.5293  -0.5195
    -0.4787  -0.4641  -0.4420  -0.4351  -0.3997  -0.3891  -0.3056  -0.2553
    -0.2357  -0.2305  -0.1860  -0.1450  -0.1231  -0.0020   0.0125   0.0374
     0.1018   0.1399   0.1808   0.1895   0.2034   0.2169   0.2241   0.2397
     0.3066   0.3157   0.3304   0.3497   0.3592   0.3805   0.3938   0.4175
     0.4367   0.5426   0.5687   0.5779   0.6195   0.6570   0.7569   0.7701
     0.7997   0.8745   0.8839   0.9525   1.0207   1.0487   1.0831   1.1128
     1.1179   1.1331   1.1483   1.2051   1.2212   1.2492   1.2779   1.3139
     1.3703   1.3946   1.4202   1.4236   1.4458   1.4878   1.5332   1.6152
     1.6606   1.6929   1.7199   1.7276   1.7394   1.8133   1.8373   1.8482
     1.9182   1.9205   1.9301   1.9812   2.0071   2.0234   2.0386   2.1169
     2.1465   2.1675   2.1771   2.1869   2.1934   2.2093   2.2185   2.3942
     2.4008   2.4272   2.4286   2.4467   2.6230   2.6606   2.8389   3.0265
     3.1033   3.2200   3.4856   3.4982   3.8036   3.8820   3.9244   4.2079
     4.4156   4.7091   4.7195   4.7399   4.9069   4.9686   5.0299   5.0841
     5.3509   5.3724   5.7573   5.9912   6.3391   6.5426   6.7328   7.0081
     7.2462

          k = 0.4000-0.6928 0.0000 ( 44692 PWs)   bands (ev):

    -5.6731  -5.6615  -5.0573  -4.5048  -4.4210  -3.9671  -3.8891  -3.7579
    -3.7186  -3.6366  -3.6096  -3.5366  -3.5008  -3.4593  -3.3936  -3.3719
    -3.3678  -3.3317  -3.3269  -3.3146  -3.2500  -3.1738  -3.1665  -3.1352
    -3.1183  -3.0593  -3.0144  -2.9193  -2.9044  -2.8298  -2.7656  -2.7590
    -2.7450  -2.7360  -2.6864  -2.6330  -2.5925  -2.5199  -2.4658  -2.3275
    -2.3158  -2.2891  -2.1886  -2.1490  -2.1258  -2.0884  -2.0005  -1.9520
    -1.9253  -1.9073  -1.8721  -1.8441  -1.8344  -1.8066  -1.7181  -1.7123
    -1.6912  -1.6772  -1.6708  -1.6632  -1.6095  -1.6012  -1.5776  -1.4656
    -1.4453  -1.3943  -1.3565  -1.2918  -1.2688  -1.2319  -1.2221  -1.1736
    -1.1578  -1.1498  -1.0963  -1.0637  -1.0456  -1.0354  -0.9976  -0.9742
    -0.9367  -0.9207  -0.8459  -0.8236  -0.8166  -0.8014  -0.7498  -0.6703
    -0.6486  -0.6147  -0.6059  -0.5961  -0.5555  -0.5439  -0.5332  -0.5133
    -0.5062  -0.4785  -0.4594  -0.4399  -0.4255  -0.4050  -0.3876  -0.3831
    -0.3710  -0.3649  -0.3301  -0.2845  -0.2819  -0.2262  -0.0674  -0.0018
     0.0313   0.0372   0.1363   0.1498   0.1619   0.1781   0.2088   0.2411
     0.2471   0.2619   0.3104   0.3572   0.3811   0.3974   0.4502   0.4585
     0.5131   0.5344   0.5790   0.6710   0.7419   0.7839   0.7992   0.8114
     0.8307   0.8821   0.9058   0.9314   0.9468   0.9553   0.9841   0.9942
     1.0435   1.1039   1.1179   1.1645   1.1780   1.1995   1.2063   1.2260
     1.2423   1.3729   1.3886   1.4429   1.4962   1.5623   1.6201   1.6424
     1.6686   1.7316   1.7706   1.7803   1.8240   1.8794   1.9354   1.9586
     1.9798   2.0009   2.0049   2.0200   2.0501   2.0814   2.1515   2.1632
     2.1729   2.1982   2.2131   2.2194   2.2273   2.2906   2.3969   2.4173
     2.4301   2.4356   2.4494   2.5044   2.5277   2.6314   2.7538   3.3626
     3.6046   3.6082   3.7946   3.8444   3.9825   3.9896   4.0041   4.2720
     4.5943   4.6193   4.8358   5.0595   5.0873   5.1764   5.2127   5.2916
     5.4174   5.5212   5.5892   5.8365   6.0101   6.0551   6.3499   6.6781
     6.7097

          k = 0.4000-0.4619 0.0000 ( 44692 PWs)   bands (ev):

    -5.6764  -5.6577  -5.0578  -4.5091  -4.4154  -3.9684  -3.8883  -3.7576
    -3.7180  -3.6385  -3.6093  -3.5369  -3.5002  -3.4582  -3.3961  -3.3733
    -3.3663  -3.3313  -3.3240  -3.3150  -3.2494  -3.1745  -3.1671  -3.1356
    -3.1163  -3.0609  -3.0121  -2.9196  -2.9073  -2.8289  -2.7667  -2.7597
    -2.7430  -2.7352  -2.6897  -2.6332  -2.5928  -2.5190  -2.4666  -2.3279
    -2.3153  -2.2885  -2.1890  -2.1491  -2.1227  -2.0908  -2.0011  -1.9519
    -1.9258  -1.9051  -1.8727  -1.8506  -1.8311  -1.8085  -1.7202  -1.7106
    -1.6918  -1.6758  -1.6729  -1.6646  -1.6080  -1.6039  -1.5735  -1.4673
    -1.4450  -1.3935  -1.3571  -1.2917  -1.2716  -1.2306  -1.2211  -1.1745
    -1.1550  -1.1494  -1.0958  -1.0631  -1.0445  -1.0380  -0.9968  -0.9742
    -0.9378  -0.9233  -0.8449  -0.8243  -0.8189  -0.8004  -0.7495  -0.6675
    -0.6477  -0.6160  -0.6065  -0.5979  -0.5535  -0.5447  -0.5330  -0.5105
    -0.5037  -0.4762  -0.4593  -0.4418  -0.4281  -0.4035  -0.3845  -0.3823
    -0.3728  -0.3660  -0.3281  -0.2849  -0.2821  -0.2240  -0.0662  -0.0005
     0.0260   0.0431   0.1347   0.1510   0.1621   0.1776   0.2068   0.2423
     0.2472   0.2613   0.3095   0.3543   0.3815   0.3990   0.4495   0.4579
     0.5082   0.5394   0.5815   0.6721   0.7418   0.7838   0.7999   0.8116
     0.8308   0.8802   0.9060   0.9324   0.9469   0.9543   0.9840   0.9918
     1.0424   1.1022   1.1178   1.1652   1.1787   1.2000   1.2069   1.2265
     1.2442   1.3722   1.3884   1.4462   1.4982   1.5616   1.6206   1.6413
     1.6682   1.7308   1.7702   1.7783   1.8248   1.8804   1.9360   1.9582
     1.9827   2.0009   2.0051   2.0208   2.0486   2.0805   2.1510   2.1636
     2.1725   2.2002   2.2139   2.2193   2.2265   2.2906   2.3954   2.4159
     2.4301   2.4344   2.4468   2.5043   2.5264   2.6311   2.7541   3.3630
     3.6046   3.6082   3.7976   3.8428   3.9821   3.9895   4.0073   4.2695
     4.5943   4.6184   4.8349   5.0612   5.0868   5.1784   5.2103   5.2912
     5.4113   5.5171   5.5951   5.8345   6.0109   6.0560   6.3498   6.6802
     6.7115

     the Fermi energy is     2.2026 ev

!    total energy              =  -27755.49301105 Ry
     total all-electron energy =  -1326642.258428 Ry
     estimated scf accuracy    <       0.00000091 Ry
     smearing contrib. (-TS)   =       0.00318871 Ry
     internal energy E=F+TS    =  -27755.49619976 Ry

     The total energy is F=E-TS. E is the sum of the following terms:
     one-electron contribution =  -22804.83305444 Ry
     hartree contribution      =   11705.30561049 Ry
     xc contribution           =    -890.77754852 Ry
     ewald contribution        =    9708.80776136 Ry
     one-center paw contrib.   =  -25473.99896865 Ry

     convergence has been achieved in  16 iterations

     negative rho (up, down):  3.383E-03 0.000E+00

     Forces acting on atoms (cartesian axes, Ry/au):

     atom    1 type  1   force =     0.00228892    0.00207858   -0.00574646
     atom    2 type  1   force =     0.00058216    0.00286118   -0.00432796
     atom    3 type  1   force =    -0.00160245    0.00502989   -0.00785588
     atom    4 type  1   force =     0.00214699   -0.00025632   -0.00468015
     atom    5 type  1   force =     0.00034650    0.00005054   -0.00341401
     atom    6 type  1   force =    -0.00229783    0.00068635   -0.00398211
     atom    7 type  1   force =     0.00153688   -0.00249589   -0.00453621
     atom    8 type  1   force =    -0.00041533   -0.00179529   -0.00363716
     atom    9 type  1   force =    -0.00214523   -0.00100795   -0.00371829
     atom   10 type  1   force =     0.00303688    0.00116640    0.00627908
     atom   11 type  1   force =     0.00206503    0.00072302   -0.00057573
     atom   12 type  1   force =    -0.00375131    0.00172995    0.00087093
     atom   13 type  1   force =     0.00060025   -0.00077790    0.00797959
     atom   14 type  1   force =    -0.00003085   -0.00088431    0.00205198
     atom   15 type  1   force =    -0.00077743    0.00102270    0.00890842
     atom   16 type  1   force =     0.00192164   -0.00450315    0.00436803
     atom   17 type  1   force =    -0.00036157   -0.00360105    0.00394621
     atom   18 type  1   force =    -0.00311703   -0.00194125    0.00403745
     atom   19 type  1   force =    -0.00000765   -0.00002959    0.00005538
     atom   20 type  1   force =    -0.00000491   -0.00006400    0.00004418
     atom   21 type  1   force =     0.00000609   -0.00013285    0.00006246
     atom   22 type  1   force =    -0.00003683   -0.00016171    0.00020384
     atom   23 type  1   force =    -0.00010832   -0.00018713    0.00014238
     atom   24 type  1   force =     0.00013140   -0.00018770    0.00015145
     atom   25 type  1   force =    -0.00011761   -0.00017963    0.00000988
     atom   26 type  1   force =     0.00001629   -0.00006769   -0.00002909
     atom   27 type  1   force =     0.00009367   -0.00019275   -0.00000571
     atom   28 type  1   force =     0.00008824   -0.00040398   -0.00026014
     atom   29 type  1   force =    -0.00009251   -0.00041951   -0.00027413
     atom   30 type  1   force =    -0.00000636   -0.00026077   -0.00012287
     atom   31 type  1   force =    -0.00000731   -0.00057232    0.00001460
     atom   32 type  1   force =    -0.00006005   -0.00044601    0.00005585
     atom   33 type  1   force =     0.00005889   -0.00042404    0.00004352
     atom   34 type  1   force =    -0.00015281   -0.00044562    0.00005585
     atom   35 type  1   force =     0.00002141   -0.00005571   -0.00005482
     atom   36 type  1   force =     0.00013622   -0.00044462    0.00003814
     atom   37 type  2   force =     0.00001593    0.00659010    0.00390148
     The non-local contrib.  to forces
     atom    1 type  1   force =     0.00242748    0.00115778   -0.01666592
     atom    2 type  1   force =     0.00038746    0.00172133   -0.01726278
     atom    3 type  1   force =    -0.00087075    0.00030120   -0.01487409
     atom    4 type  1   force =     0.00191609   -0.00117756   -0.01825739
     atom    5 type  1   force =    -0.00001905    0.00019368   -0.01810444
     atom    6 type  1   force =    -0.00152273    0.00040624   -0.01718995
     atom    7 type  1   force =     0.00198509   -0.00118893   -0.01739079
     atom    8 type  1   force =    -0.00054607   -0.00157687   -0.01789892
     atom    9 type  1   force =    -0.00244051   -0.00040531   -0.01707211
     atom   10 type  1   force =     0.00179171   -0.00049516    0.00017052
     atom   11 type  1   force =    -0.00120249    0.00138638   -0.00011207
     atom   12 type  1   force =     0.00072012    0.00184517    0.00034528
     atom   13 type  1   force =     0.00151898   -0.00105754    0.00181177
     atom   14 type  1   force =     0.00009830   -0.00037214   -0.00030789
     atom   15 type  1   force =    -0.00180253   -0.00050593    0.00232151
     atom   16 type  1   force =     0.00183705   -0.00278184    0.00014706
     atom   17 type  1   force =    -0.00135139   -0.00269468    0.00018693
     atom   18 type  1   force =    -0.00199435   -0.00438610    0.00101396
     atom   19 type  1   force =    -0.00568914   -0.00500209    0.00178263
     atom   20 type  1   force =     0.00550744   -0.00486449    0.00223179
     atom   21 type  1   force =     0.00008234   -0.00009511    0.00284388
     atom   22 type  1   force =     0.00000607    0.01478281   -0.01023044
     atom   23 type  1   force =     0.00175882    0.00067453    0.00209370
     atom   24 type  1   force =    -0.00182761    0.00050407    0.00243071
     atom   25 type  1   force =     0.00079976    0.00025706    0.00297392
     atom   26 type  1   force =    -0.00021201   -0.00258609   -0.00039049
     atom   27 type  1   force =    -0.00074190    0.00022205    0.00378115
     atom   28 type  1   force =     0.01440646    0.01445817    0.02456479
     atom   29 type  1   force =    -0.01452310    0.01431033    0.02439788
     atom   30 type  1   force =     0.00007380    0.00023118    0.01511235
     atom   31 type  1   force =    -0.00015001    0.01637362   -0.11181337
     atom   32 type  1   force =    -0.00606148   -0.00110366    0.01851355
     atom   33 type  1   force =     0.00587139   -0.00109017    0.01862377
     atom   34 type  1   force =    -0.00095660   -0.00287104    0.01644724
     atom   35 type  1   force =    -0.00006464    0.00151383    0.01514083
     atom   36 type  1   force =     0.00085640   -0.00297897    0.01642342
     atom   37 type  2   force =     0.00000250    0.01629107   -0.03769218
     The ionic contribution  to forces
     atom    1 type  1   force =     0.13586631    0.08280173  -96.28828632
     atom    2 type  1   force =     0.01799354    0.14602641  -96.22683084
     atom    3 type  1   force =    -0.13345635    0.21196815  -96.23730570
     atom    4 type  1   force =     0.13170019   -0.04459378  -96.20493967
     atom    5 type  1   force =     0.00231769    0.00943301  -96.16454762
     atom    6 type  1   force =    -0.12701945    0.08754692  -96.17596486
     atom    7 type  1   force =     0.11067216   -0.23330997  -96.22044271
     atom    8 type  1   force =     0.00530161   -0.16228797  -96.18345005
     atom    9 type  1   force =    -0.13135293   -0.09114102  -96.17057975
     atom   10 type  1   force =     0.14063182    0.13023818  -32.46009758
     atom   11 type  1   force =    -0.04142309    0.15239793  -32.50168417
     atom   12 type  1   force =    -0.07950072    0.20969157  -32.42458217
     atom   13 type  1   force =     0.01716815   -0.04214664  -32.41667033
     atom   14 type  1   force =    -0.01410697   -0.01705248  -32.56811035
     atom   15 type  1   force =    -0.00738970    0.08888997  -32.36272007
     atom   16 type  1   force =     0.09235924   -0.22484983  -32.45912868
     atom   17 type  1   force =     0.01546296   -0.14825503  -32.48178611
     atom   18 type  1   force =    -0.12897707   -0.25132582  -32.24991416
     atom   19 type  1   force =     0.09910262    0.07649671   32.16792124
     atom   20 type  1   force =    -0.08185908    0.05340204   32.05887834
     atom   21 type  1   force =    -0.01893449   -0.02002400   31.67569417
     atom   22 type  1   force =    -0.00870880    0.04058721   32.75962482
     atom   23 type  1   force =    -0.04908669   -0.04303459   31.72044616
     atom   24 type  1   force =     0.05653961   -0.01672807   31.69804273
     atom   25 type  1   force =    -0.10707041   -0.05673787   31.85114942
     atom   26 type  1   force =     0.02959246    0.01854797   31.90113882
     atom   27 type  1   force =     0.07905923   -0.05387917   31.72021856
     atom   28 type  1   force =    -0.06964867   -0.24927976   95.08237898
     atom   29 type  1   force =     0.07937158   -0.25096399   95.02653555
     atom   30 type  1   force =    -0.00976596    0.01529111   95.50696880
     atom   31 type  1   force =     0.00485508    0.81519929   95.21054410
     atom   32 type  1   force =     0.19276085    0.05742475   95.16809254
     atom   33 type  1   force =    -0.20072380    0.06826774   95.18863907
     atom   34 type  1   force =     0.06654030    0.06744808   95.47329263
     atom   35 type  1   force =     0.00653120    0.00871682   95.46507573
     atom   36 type  1   force =    -0.07518113    0.07506509   95.44489769
     atom   37 type  2   force =     0.00037873   -0.50983070   12.67750183
     The local contribution  to forces
     atom    1 type  1   force =    -0.13589923   -0.08167638   96.28141201
     atom    2 type  1   force =    -0.01740936   -0.14460844   96.22212335
     atom    3 type  1   force =     0.13232542   -0.20662023   96.22645473
     atom    4 type  1   force =    -0.13115456    0.04541460   96.20095204
     atom    5 type  1   force =    -0.00177416   -0.00976470   96.16177490
     atom    6 type  1   force =     0.12577747   -0.08718554   96.17171368
     atom    7 type  1   force =    -0.11104773    0.23173454   96.21577425
     atom    8 type  1   force =    -0.00507701    0.16168569   96.18017223
     atom    9 type  1   force =     0.13138135    0.09061840   96.16657802
     atom   10 type  1   force =    -0.13895167   -0.12820886   32.46546569
     atom   11 type  1   force =     0.04504800   -0.15303588   32.50024012
     atom   12 type  1   force =     0.07434198   -0.20950740   32.42432338
     atom   13 type  1   force =    -0.01813134    0.04248532   32.42239274
     atom   14 type  1   force =     0.01405625    0.01629018   32.56935770
     atom   15 type  1   force =     0.00834446   -0.08688577   32.36893612
     atom   16 type  1   force =    -0.09226293    0.22259760   32.46247638
     atom   17 type  1   force =    -0.01410779    0.14694051   32.48455802
     atom   18 type  1   force =     0.12732481    0.25311231   32.25296151
     atom   19 type  1   force =    -0.09302445   -0.07136954  -32.16657812
     atom   20 type  1   force =     0.07598859   -0.04851650  -32.05799759
     atom   21 type  1   force =     0.01882589    0.01948803  -31.67623129
     atom   22 type  1   force =     0.00863217   -0.05546169  -32.74696503
     atom   23 type  1   force =     0.04692501    0.04210763  -31.72004719
     atom   24 type  1   force =    -0.05425344    0.01603723  -31.69798447
     atom   25 type  1   force =     0.10546640    0.05612669  -31.85190923
     atom   26 type  1   force =    -0.02927393   -0.01595410  -31.89825198
     atom   27 type  1   force =    -0.07762185    0.05326918  -31.72184107
     atom   28 type  1   force =     0.05565263    0.23416773  -95.09072318
     atom   29 type  1   force =    -0.06523165    0.23596914  -95.03478380
     atom   30 type  1   force =     0.00965904   -0.01585506  -95.50539164
     atom   31 type  1   force =    -0.00469419   -0.82308190  -95.09919328
     atom   32 type  1   force =    -0.18706080   -0.05669222  -95.16973923
     atom   33 type  1   force =     0.19519128   -0.06745954  -95.19036648
     atom   34 type  1   force =    -0.06591496   -0.06534240  -95.47253513
     atom   35 type  1   force =    -0.00639787   -0.01001185  -95.46309683
     atom   36 type  1   force =     0.07457781   -0.07285035  -95.44415566
     atom   37 type  2   force =    -0.00036551    0.50013478  -12.63598238
     The core correction contribution to forces
     atom    1 type  1   force =    -0.00041496   -0.00023732    0.01754676
     atom    2 type  1   force =    -0.00001809   -0.00042640    0.01741195
     atom    3 type  1   force =     0.00033089   -0.00069479    0.01778612
     atom    4 type  1   force =    -0.00038001    0.00021719    0.01735764
     atom    5 type  1   force =     0.00000916   -0.00005566    0.01725900
     atom    6 type  1   force =     0.00033781   -0.00020999    0.01726051
     atom    7 type  1   force =    -0.00030127    0.00053711    0.01735187
     atom    8 type  1   force =     0.00003881    0.00037904    0.01724701
     atom    9 type  1   force =     0.00035812    0.00018936    0.01722111
     atom   10 type  1   force =    -0.00039379   -0.00032209    0.00111642
     atom   11 type  1   force =    -0.00007880   -0.00028613    0.00124509
     atom   12 type  1   force =     0.00036074   -0.00045515    0.00103995
     atom   13 type  1   force =    -0.00005692    0.00005307    0.00092623
     atom   14 type  1   force =     0.00000880    0.00003533    0.00141092
     atom   15 type  1   force =     0.00007915   -0.00026134    0.00077782
     atom   16 type  1   force =    -0.00032652    0.00058799    0.00121850
     atom   17 type  1   force =     0.00005926    0.00042906    0.00126775
     atom   18 type  1   force =     0.00041429    0.00085679    0.00031728
     atom   19 type  1   force =    -0.00042220   -0.00002251   -0.00256477
     atom   20 type  1   force =     0.00040945    0.00000016   -0.00253458
     atom   21 type  1   force =     0.00000677    0.00026560   -0.00190642
     atom   22 type  1   force =     0.00000483    0.00008422   -0.00170661
     atom   23 type  1   force =     0.00006060    0.00005467   -0.00181482
     atom   24 type  1   force =    -0.00006458    0.00004515   -0.00184834
     atom   25 type  1   force =     0.00037652    0.00009286   -0.00181904
     atom   26 type  1   force =    -0.00002897   -0.00007143   -0.00196170
     atom   27 type  1   force =    -0.00035832    0.00010699   -0.00181144
     atom   28 type  1   force =    -0.00037732    0.00018061   -0.01604907
     atom   29 type  1   force =     0.00037539    0.00018801   -0.01600683
     atom   30 type  1   force =    -0.00000462   -0.00009618   -0.01651356
     atom   31 type  1   force =    -0.00001093   -0.00886461    0.00051611
     atom   32 type  1   force =     0.00022124   -0.00006118   -0.01640507
     atom   33 type  1   force =    -0.00021120   -0.00006641   -0.01642305
     atom   34 type  1   force =     0.00002993    0.00031691   -0.01681785
     atom   35 type  1   force =    -0.00000006   -0.00024892   -0.01663889
     atom   36 type  1   force =    -0.00001973    0.00032277   -0.01679431
     atom   37 type  2   force =     0.00000000    0.00000000    0.00000000
     The Hubbard contrib.    to forces
     atom    1 type  1   force =     0.00000000    0.00000000    0.00000000
     atom    2 type  1   force =     0.00000000    0.00000000    0.00000000
     atom    3 type  1   force =     0.00000000    0.00000000    0.00000000
     atom    4 type  1   force =     0.00000000    0.00000000    0.00000000
     atom    5 type  1   force =     0.00000000    0.00000000    0.00000000
     atom    6 type  1   force =     0.00000000    0.00000000    0.00000000
     atom    7 type  1   force =     0.00000000    0.00000000    0.00000000
     atom    8 type  1   force =     0.00000000    0.00000000    0.00000000
     atom    9 type  1   force =     0.00000000    0.00000000    0.00000000
     atom   10 type  1   force =     0.00000000    0.00000000    0.00000000
     atom   11 type  1   force =     0.00000000    0.00000000    0.00000000
     atom   12 type  1   force =     0.00000000    0.00000000    0.00000000
     atom   13 type  1   force =     0.00000000    0.00000000    0.00000000
     atom   14 type  1   force =     0.00000000    0.00000000    0.00000000
     atom   15 type  1   force =     0.00000000    0.00000000    0.00000000
     atom   16 type  1   force =     0.00000000    0.00000000    0.00000000
     atom   17 type  1   force =     0.00000000    0.00000000    0.00000000
     atom   18 type  1   force =     0.00000000    0.00000000    0.00000000
     atom   19 type  1   force =     0.00000000    0.00000000    0.00000000
     atom   20 type  1   force =     0.00000000    0.00000000    0.00000000
     atom   21 type  1   force =     0.00000000    0.00000000    0.00000000
     atom   22 type  1   force =     0.00000000    0.00000000    0.00000000
     atom   23 type  1   force =     0.00000000    0.00000000    0.00000000
     atom   24 type  1   force =     0.00000000    0.00000000    0.00000000
     atom   25 type  1   force =     0.00000000    0.00000000    0.00000000
     atom   26 type  1   force =     0.00000000    0.00000000    0.00000000
     atom   27 type  1   force =     0.00000000    0.00000000    0.00000000
     atom   28 type  1   force =     0.00000000    0.00000000    0.00000000
     atom   29 type  1   force =     0.00000000    0.00000000    0.00000000
     atom   30 type  1   force =     0.00000000    0.00000000    0.00000000
     atom   31 type  1   force =     0.00000000    0.00000000    0.00000000
     atom   32 type  1   force =     0.00000000    0.00000000    0.00000000
     atom   33 type  1   force =     0.00000000    0.00000000    0.00000000
     atom   34 type  1   force =     0.00000000    0.00000000    0.00000000
     atom   35 type  1   force =     0.00000000    0.00000000    0.00000000
     atom   36 type  1   force =     0.00000000    0.00000000    0.00000000
     atom   37 type  2   force =     0.00000000    0.00000000    0.00000000
     The SCF correction term to forces
     atom    1 type  1   force =     0.00000000    0.00000000    0.00000000
     atom    2 type  1   force =    -0.00000000    0.00000000    0.00000000
     atom    3 type  1   force =     0.00000000    0.00000000    0.00000000
     atom    4 type  1   force =     0.00000000   -0.00000000    0.00000000
     atom    5 type  1   force =    -0.00000000    0.00000000    0.00000000
     atom    6 type  1   force =     0.00000000    0.00000000    0.00000000
     atom    7 type  1   force =     0.00000000   -0.00000000    0.00000000
     atom    8 type  1   force =    -0.00000000    0.00000000    0.00000000
     atom    9 type  1   force =    -0.00000000   -0.00000000    0.00000000
     atom   10 type  1   force =    -0.00000000   -0.00000000   -0.00000000
     atom   11 type  1   force =    -0.00000000    0.00000000   -0.00000000
     atom   12 type  1   force =     0.00000000    0.00000000   -0.00000000
     atom   13 type  1   force =     0.00000000   -0.00000000   -0.00000000
     atom   14 type  1   force =    -0.00000000    0.00000000   -0.00000000
     atom   15 type  1   force =    -0.00000000   -0.00000000   -0.00000000
     atom   16 type  1   force =     0.00000000   -0.00000000   -0.00000000
     atom   17 type  1   force =    -0.00000000   -0.00000000   -0.00000000
     atom   18 type  1   force =     0.00000000   -0.00000000   -0.00000000
     atom   19 type  1   force =     0.00002447   -0.00013168   -0.00057783
     atom   20 type  1   force =    -0.00005237   -0.00008473   -0.00060601
     atom   21 type  1   force =     0.00002452    0.00023309   -0.00041012
     atom   22 type  1   force =     0.00002785   -0.00015379   -0.00059113
     atom   23 type  1   force =     0.00023288    0.00001110   -0.00060769
     atom   24 type  1   force =    -0.00026364   -0.00004561   -0.00056141
     atom   25 type  1   force =     0.00030905    0.00008209   -0.00045743
     atom   26 type  1   force =    -0.00006232   -0.00000355   -0.00063598
     atom   27 type  1   force =    -0.00024454    0.00008866   -0.00042514
     atom   28 type  1   force =     0.00005409    0.00006975   -0.00050389
     atom   29 type  1   force =    -0.00008578    0.00007747   -0.00048918
     atom   30 type  1   force =     0.00003032    0.00016866   -0.00037106
     atom   31 type  1   force =    -0.00000831   -0.00019824   -0.00011120
     atom   32 type  1   force =     0.00007910   -0.00001323   -0.00047817
     atom   33 type  1   force =    -0.00006984   -0.00007519   -0.00050202
     atom   34 type  1   force =     0.00014748    0.00000330   -0.00040328
     atom   35 type  1   force =    -0.00004827   -0.00002511   -0.00060790
     atom   36 type  1   force =    -0.00009819   -0.00000268   -0.00040523
     atom   37 type  2   force =    -0.00000085   -0.00000459    0.00000199

     Total force =     0.007794     Total SCF correction =     0.002251
     SCF correction compared to forces is large: reduce conv_thr to get better values

     Writing all to output data dir ./pwscf.save/

     init_run     :     15.91s CPU     16.26s WALL (       1 calls)
     electrons    :    346.37s CPU    360.28s WALL (       1 calls)
     forces       :      3.42s CPU      4.09s WALL (       1 calls)

     Called by init_run:
     wfcinit      :      5.78s CPU      5.96s WALL (       1 calls)
     potinit      :      8.69s CPU      8.80s WALL (       1 calls)
     hinit0       :      0.83s CPU      0.85s WALL (       1 calls)

     Called by electrons:
     c_bands      :    292.34s CPU    301.94s WALL (      17 calls)
     sum_band     :     33.65s CPU     34.85s WALL (      17 calls)
     v_of_rho     :     14.46s CPU     16.53s WALL (      17 calls)
     newd         :      4.05s CPU      4.79s WALL (      17 calls)
     PAW_pot      :      5.64s CPU      5.73s WALL (      17 calls)
     mix_rho      :      3.66s CPU      3.72s WALL (      17 calls)
     vdW_kernel   :      7.06s CPU      7.10s WALL (       1 calls)

     Called by c_bands:
     init_us_2    :      2.45s CPU      2.49s WALL (     468 calls)
     init_us_2:cp :      2.45s CPU      2.49s WALL (     468 calls)
     cegterg      :    284.19s CPU    293.47s WALL (     221 calls)

     Called by *egterg:
     cdiaghg      :     59.64s CPU     60.47s WALL (    1083 calls)
     h_psi        :    147.79s CPU    152.09s WALL (    1109 calls)
     s_psi        :     13.41s CPU     14.36s WALL (    1109 calls)
     g_psi        :      0.42s CPU      0.43s WALL (     875 calls)

     Called by h_psi:
     h_psi:calbec :     18.97s CPU     19.77s WALL (    1109 calls)
     vloc_psi     :    114.38s CPU    116.94s WALL (    1109 calls)
     add_vuspsi   :     13.37s CPU     14.30s WALL (    1109 calls)

     General routines
     calbec       :     26.51s CPU     27.55s WALL (    1382 calls)
     fft          :      5.89s CPU      7.75s WALL (    1131 calls)
     ffts         :      2.15s CPU      2.18s WALL (    4403 calls)
     fftw         :    119.11s CPU    121.44s WALL (  289349 calls)
     interpolate  :      0.77s CPU      0.80s WALL (      17 calls)

     Parallel routines

     PWSCF        :   6m 7.38s CPU   6m25.27s WALL


   This run was terminated on:   9:20:31  27Jan2025            

=------------------------------------------------------------------------------=
   JOB DONE.
=------------------------------------------------------------------------------=
