
     Program PWSCF v.7.1 starts on  6Dec2025 at 15:46:48 
        Git branch: heads/qe-7.1
        Last git commit: 48ba0178f8fede6d020eb786884699a9f063f55d-dirty
        Last git commit date: Fri Jan 27 14:22:33 2023 +0000
        Last git commit subject: Merge branch 'fix_hubbard' into 'develop'

     This program is part of the open-source Quantum ESPRESSO suite
     for quantum simulation of materials; please cite
         "P. Giannozzi et al., J. Phys.:Condens. Matter 21 395502 (2009);
         "P. Giannozzi et al., J. Phys.:Condens. Matter 29 465901 (2017);
         "P. Giannozzi et al., J. Chem. Phys. 152 154105 (2020);
          URL http://www.quantum-espresso.org", 
     in publications or presentations arising from this work. More details at
     http://www.quantum-espresso.org/quote

     Parallel version (MPI), running on    48 processors

     MPI processes distributed on     1 nodes
     37550 MiB available memory on the printing compute node when the environment starts

     Reading input from espresso.pwi
Warning: card &CELL ignored
Warning: card / ignored
Warning: card &FCP ignored
Warning: card / ignored
Warning: card &RISM ignored
Warning: card / ignored

     Current dimensions of program PWSCF are:
     Max number of different atomic species (ntypx) = 10
     Max number of k-points (npk) =  40000
     Max angular momentum in pseudopotentials (lmaxx) =  4
     file Pt.pbe-n-kjpaw_psl.1.0.0.UPF: wavefunction(s)  6S 5D renormalized
     file C.pbe-n-kjpaw_psl.1.0.0.UPF: wavefunction(s)  2S 2P renormalized
     file H.pbe-kjpaw_psl.1.0.0.UPF: wavefunction(s)  1S renormalized

     **************************************************************************
     Initializing libbeef V0.1.2 with the BEEF-vdW functional.
     Citation: Wellendorff et al., PRB 85, 235149 (2012).
     **************************************************************************


     IMPORTANT: XC functional enforced from input :
     Exchange-correlation= BEEF-VDW
                           (   1   4  43  14   2   0   0)
     Any further DFT definition will be discarded
     Please, verify this is what you really want


     R & G space division:  proc/nbgrp/npool/nimage =      48
     Subspace diagonalization in iterative solution of the eigenvalue problem:
     one sub-group per band group will be used
     custom distributed-memory algorithm (size of sub-group:  2*  2 procs)


     Parallelization info
     --------------------
     sticks:   dense  smooth     PW     G-vecs:    dense   smooth      PW
     Min         151      59     16                29407     7165    1028
     Max         152      60     17                29420     7176    1042
     Sum        7267    2839    769              1411785   344073   49691

     Using Slab Decomposition



     bravais-lattice index     =            0
     lattice parameter (alat)  =      16.0349  a.u.
     unit-cell volume          =   10068.6169 (a.u.)^3
     number of atoms/cell      =           39
     number of atomic types    =            3
     number of electrons       =       369.00
     number of Kohn-Sham states=          222
     kinetic-energy cutoff     =      40.0000  Ry
     charge density cutoff     =     410.0000  Ry
     scf convergence threshold =      1.0E-06
     mixing beta               =       0.7000
     number of iterations used =            8  local-TF  mixing
     Exchange-correlation= BEEF-VDW
                           (   1   4  43  14   2   0   0)

     celldm(1)=  16.034858  celldm(2)=   0.000000  celldm(3)=   0.000000
     celldm(4)=   0.000000  celldm(5)=   0.000000  celldm(6)=   0.000000

     crystal axes: (cart. coord. in units of alat)
               a(1) = (   1.000000   0.000000   0.000000 )  
               a(2) = (   0.500000   0.866025   0.000000 )  
               a(3) = (   0.000000   0.000000   2.819966 )  

     reciprocal axes: (cart. coord. in units 2 pi/alat)
               b(1) = (  1.000000 -0.577350  0.000000 )  
               b(2) = (  0.000000  1.154701  0.000000 )  
               b(3) = (  0.000000  0.000000  0.354614 )  


     PseudoPot. # 1 for Pt read from file:
     /users/kbadger1/espresso/pseudo/pslibrary.1.0.0/pbe/PSEUDOPOTENTIALS/Pt.pbe-n-kjpaw_psl.1.0.0.UPF
     MD5 check sum: 2e24a0b5bf98a4ed1a57fa81bca8c143
     Pseudo is Projector augmented-wave + core cor, Zval = 10.0
     Generated using 'atomic' code by A. Dal Corso  v.7.0
     Shape of augmentation charge: PSQ
     Using radial grid of 1277 points,  6 beta functions with: 
                l(1) =   0
                l(2) =   0
                l(3) =   1
                l(4) =   1
                l(5) =   2
                l(6) =   2
     Q(r) pseudized with 0 coefficients 


     PseudoPot. # 2 for C  read from file:
     /users/kbadger1/espresso/pseudo/pslibrary.1.0.0/pbe/PSEUDOPOTENTIALS/C.pbe-n-kjpaw_psl.1.0.0.UPF
     MD5 check sum: 6408e75cdba28732cea38a4db8498ce4
     Pseudo is Projector augmented-wave + core cor, Zval =  4.0
     Generated using 'atomic' code by A. Dal Corso  v.7.0
     Shape of augmentation charge: PSQ
     Using radial grid of 1073 points,  4 beta functions with: 
                l(1) =   0
                l(2) =   0
                l(3) =   1
                l(4) =   1
     Q(r) pseudized with 0 coefficients 


     PseudoPot. # 3 for H  read from file:
     /users/kbadger1/espresso/pseudo/pslibrary.1.0.0/pbe/PSEUDOPOTENTIALS/H.pbe-kjpaw_psl.1.0.0.UPF
     MD5 check sum: fe4c6fa958fa6d3815bf5d2419cbf1df
     Pseudo is Projector augmented-wave, Zval =  1.0
     Generated using 'atomic' code by A. Dal Corso  v.7.0
     Shape of augmentation charge: PSQ
     Using radial grid of  929 points,  2 beta functions with: 
                l(1) =   0
                l(2) =   0
     Q(r) pseudized with 0 coefficients 


     atomic species   valence    mass     pseudopotential
        Pt            10.00   195.08400     Pt( 1.00)
        C              4.00    12.01100     C ( 1.00)
        H              1.00     1.00800     H ( 1.00)

     No symmetry found



   Cartesian axes

     site n.     atom                  positions (alat units)
         1           Pt  tau(   1) = (   0.0000000   0.0000000   1.0017346  )
         2           Pt  tau(   2) = (   0.3333333   0.0000000   1.0017346  )
         3           Pt  tau(   3) = (   0.6666667   0.0000000   1.0017346  )
         4           Pt  tau(   4) = (   0.1666667   0.2886751   1.0017346  )
         5           Pt  tau(   5) = (   0.5000000   0.2886751   1.0017346  )
         6           Pt  tau(   6) = (   0.8333333   0.2886751   1.0017346  )
         7           Pt  tau(   7) = (   0.3333333   0.5773503   1.0017346  )
         8           Pt  tau(   8) = (   0.6666667   0.5773503   1.0017346  )
         9           Pt  tau(   9) = (   1.0000000   0.5773503   1.0017346  )
        10           Pt  tau(  10) = (   0.1666667   0.0962250   1.2739001  )
        11           Pt  tau(  11) = (   0.5000000   0.0962250   1.2739001  )
        12           Pt  tau(  12) = (   0.8333333   0.0962250   1.2739001  )
        13           Pt  tau(  13) = (   0.3333333   0.3849002   1.2739001  )
        14           Pt  tau(  14) = (   0.6666667   0.3849002   1.2739001  )
        15           Pt  tau(  15) = (   1.0000000   0.3849002   1.2739001  )
        16           Pt  tau(  16) = (   0.5000000   0.6735753   1.2739001  )
        17           Pt  tau(  17) = (   0.8333333   0.6735753   1.2739001  )
        18           Pt  tau(  18) = (   1.1666667   0.6735753   1.2739001  )
        19           Pt  tau(  19) = (   0.0021252   0.1895442   1.5487676  )
        20           Pt  tau(  20) = (   0.3311311   0.1895450   1.5487580  )
        21           Pt  tau(  21) = (   0.6666334   0.1923853   1.5381343  )
        22           Pt  tau(  22) = (   0.1666241   0.4778594   1.5486234  )
        23           Pt  tau(  23) = (   0.4972563   0.4817527   1.5462533  )
        24           Pt  tau(  24) = (   0.8359987   0.4817524   1.5462526  )
        25           Pt  tau(  25) = (   0.3352132   0.7674904   1.5482326  )
        26           Pt  tau(  26) = (   0.6666304   0.7703107   1.5473784  )
        27           Pt  tau(  27) = (   0.9980455   0.7674903   1.5482201  )
        28           Pt  tau(  28) = (  -0.0155777  -0.0161381   1.8345919  )
        29           Pt  tau(  29) = (   0.3487625  -0.0161107   1.8345689  )
        30           Pt  tau(  30) = (   0.6665966   0.0005330   1.8125008  )
        31           Pt  tau(  31) = (   0.1665672   0.2775330   1.8416814  )
        32           Pt  tau(  32) = (   0.5045862   0.2840947   1.8137002  )
        33           Pt  tau(  33) = (   0.8285963   0.2840959   1.8137034  )
        34           Pt  tau(  34) = (   0.3345266   0.5682428   1.8400335  )
        35           Pt  tau(  35) = (   0.6665852   0.5679378   1.8142543  )
        36           Pt  tau(  36) = (   0.9986176   0.5682617   1.8400130  )
        37           C   tau(  37) = (   0.1665937   0.0654057   1.9349329  )
        38           H   tau(  38) = (   0.1665178   0.4025816   2.0795746  )
        39           C   tau(  39) = (   0.1665617   0.4803816   1.9747984  )

     number of k points=    13  Marzari-Vanderbilt smearing, width (Ry)=  0.0010
                       cart. coord. in units 2pi/alat
        k(    1) = (   0.0000000   0.0000000   0.0000000), wk =   0.0800000
        k(    2) = (   0.0000000   0.2309401   0.0000000), wk =   0.1600000
        k(    3) = (   0.0000000   0.4618802   0.0000000), wk =   0.1600000
        k(    4) = (   0.2000000  -0.1154701   0.0000000), wk =   0.1600000
        k(    5) = (   0.2000000   0.1154701   0.0000000), wk =   0.1600000
        k(    6) = (   0.2000000   0.3464102   0.0000000), wk =   0.1600000
        k(    7) = (   0.2000000  -0.5773503   0.0000000), wk =   0.1600000
        k(    8) = (   0.2000000  -0.3464102   0.0000000), wk =   0.1600000
        k(    9) = (   0.4000000  -0.2309401   0.0000000), wk =   0.1600000
        k(   10) = (   0.4000000  -0.0000000   0.0000000), wk =   0.1600000
        k(   11) = (   0.4000000   0.2309401   0.0000000), wk =   0.1600000
        k(   12) = (   0.4000000  -0.6928203   0.0000000), wk =   0.1600000
        k(   13) = (   0.4000000  -0.4618802   0.0000000), wk =   0.1600000

     Dense  grid:  1411785 G-vectors     FFT dimensions: ( 108, 108, 300)

     Smooth grid:   344073 G-vectors     FFT dimensions: (  72,  72, 192)

     Estimated max dynamical RAM per process >     207.37 MB

     Estimated total dynamical RAM >       9.72 GB

     Initial potential from superposition of free atoms

     starting charge     368.9938, renormalised to     369.0000

     negative rho (up, down):  3.217E-03 0.000E+00


     %%%%%%%%%%%%%%%%%%%%%%%%%%%%%%%%%%%%%%%%%%%%%%%%%%%%%%%%%%%%%%%%%%%%%%%%
     %                                                                      %
     % You are using vdW-DF, which was implemented by the Thonhauser group. %
     % Please cite the following two papers that made this development      %
     % possible and the two reviews that describe the various versions:     %
     %                                                                      %
     %   T. Thonhauser et al., PRL 115, 136402 (2015).                      %
     %   T. Thonhauser et al., PRB 76, 125112 (2007).                       %
     %   K. Berland et al., Rep. Prog. Phys. 78, 066501 (2015).             %
     %   D.C. Langreth et al., J. Phys.: Condens. Matter 21, 084203 (2009). %
     %                                                                      %
     % If you are calculating stress with vdW-DF, please also cite:         %
     %                                                                      %
     %   R. Sabatini et al., J. Phys.: Condens. Matter 24, 424209 (2012).   %
     %                                                                      %
     %%%%%%%%%%%%%%%%%%%%%%%%%%%%%%%%%%%%%%%%%%%%%%%%%%%%%%%%%%%%%%%%%%%%%%%%

     %%%%%%%%%%%%%%%%%%%%%%%%%%%%%%%%%%%%%%%%%%%%%%%%%%%%%%%%%%%%%%%%%%%%%%%%
     %                                                                      %
     %  vdW-DF NEWS:                                                        %
     %                                                                      %
     %  * vdW-DF3 is now available. DOI: 10.1021/acs.jctc.0c00471           %
     %    use with input_dft = 'vdW-DF3-opt1' or 'vdW-DF3-opt2'             %
     %                                                                      %
     %  * Unscreened and range-separated hybrid vdW-DF-cx functionals       %
     %    DOI: 10.1063/1.4986522 and 10.1088/1361-648X/ac2ad2               %
     %    use with input_dft = 'vdW-DF-cx0'    and 'vdW-DF-ahcx'            %
     %  * Unscreened and range-separated hybrid vdW-DF2-b86r functionals    %
     %    DOI: 10.1063/1.4986522 and DOI: 10.1103/PhysRevX.12.041003        %
     %    use with input_dft = 'vdW-DF2-br0' and 'vdW-DF2-ahbr'             %
     %                                                                      %
     %%%%%%%%%%%%%%%%%%%%%%%%%%%%%%%%%%%%%%%%%%%%%%%%%%%%%%%%%%%%%%%%%%%%%%%%


     Starting wfcs are  333 randomized atomic wfcs
     Checking if some PAW data can be deallocated... 

     total cpu time spent up to now is       16.1 secs

     per-process dynamical memory:   212.7 Mb

     Self-consistent Calculation

     iteration #  1     ecut=    40.00 Ry     beta= 0.70
     Davidson diagonalization with overlap
     ethr =  1.00E-02,  avg # of iterations =  2.0

     Threshold (ethr) on eigenvalues was too large:
     Diagonalizing with lowered threshold

     Davidson diagonalization with overlap
     ethr =  6.54E-04,  avg # of iterations =  2.9

     negative rho (up, down):  1.158E-02 0.000E+00

     total cpu time spent up to now is       50.2 secs

     total energy              =  -27792.90312110 Ry
     estimated scf accuracy    <       2.71053215 Ry

     iteration #  2     ecut=    40.00 Ry     beta= 0.70
     Davidson diagonalization with overlap
     ethr =  7.35E-04,  avg # of iterations =  2.0

     negative rho (up, down):  8.578E-03 0.000E+00

     total cpu time spent up to now is       63.4 secs

     total energy              =  -27793.23174435 Ry
     estimated scf accuracy    <       0.74723166 Ry

     iteration #  3     ecut=    40.00 Ry     beta= 0.70
     Davidson diagonalization with overlap
     ethr =  2.03E-04,  avg # of iterations =  4.2

     negative rho (up, down):  5.619E-03 0.000E+00

     total cpu time spent up to now is       83.1 secs

     total energy              =  -27793.30326445 Ry
     estimated scf accuracy    <       0.30032370 Ry

     iteration #  4     ecut=    40.00 Ry     beta= 0.70
     Davidson diagonalization with overlap
     ethr =  8.14E-05,  avg # of iterations =  7.6

     negative rho (up, down):  2.074E-03 0.000E+00

     total cpu time spent up to now is      105.9 secs

     total energy              =  -27793.33467079 Ry
     estimated scf accuracy    <       0.05755426 Ry

     iteration #  5     ecut=    40.00 Ry     beta= 0.70
     Davidson diagonalization with overlap
     c_bands:  1 eigenvalues not converged
     c_bands:  1 eigenvalues not converged
     ethr =  1.56E-05,  avg # of iterations = 12.5

     negative rho (up, down):  1.147E-03 0.000E+00

     total cpu time spent up to now is      145.8 secs

     total energy              =  -27793.35544923 Ry
     estimated scf accuracy    <       0.04804738 Ry

     iteration #  6     ecut=    40.00 Ry     beta= 0.70
     Davidson diagonalization with overlap
     ethr =  1.30E-05,  avg # of iterations =  3.2

     negative rho (up, down):  3.528E-04 0.000E+00

     total cpu time spent up to now is      164.2 secs

     total energy              =  -27793.35669838 Ry
     estimated scf accuracy    <       0.00679040 Ry

     iteration #  7     ecut=    40.00 Ry     beta= 0.70
     Davidson diagonalization with overlap
     c_bands:  1 eigenvalues not converged
     c_bands:  2 eigenvalues not converged
     c_bands:  1 eigenvalues not converged
     c_bands:  1 eigenvalues not converged
     c_bands:  1 eigenvalues not converged
     ethr =  1.84E-06,  avg # of iterations = 14.5

     negative rho (up, down):  1.469E-04 0.000E+00

     total cpu time spent up to now is      206.2 secs

     total energy              =  -27793.35799977 Ry
     estimated scf accuracy    <       0.00423809 Ry

     iteration #  8     ecut=    40.00 Ry     beta= 0.70
     Davidson diagonalization with overlap
     c_bands:  2 eigenvalues not converged
     ethr =  1.15E-06,  avg # of iterations =  3.3

     negative rho (up, down):  9.940E-05 0.000E+00

     total cpu time spent up to now is      224.3 secs

     total energy              =  -27793.35824560 Ry
     estimated scf accuracy    <       0.00097237 Ry

     iteration #  9     ecut=    40.00 Ry     beta= 0.70
     Davidson diagonalization with overlap
     ethr =  2.64E-07,  avg # of iterations =  4.5

     negative rho (up, down):  9.671E-05 0.000E+00

     total cpu time spent up to now is      243.9 secs

     total energy              =  -27793.35839459 Ry
     estimated scf accuracy    <       0.00063571 Ry

     iteration # 10     ecut=    40.00 Ry     beta= 0.70
     Davidson diagonalization with overlap
     ethr =  1.72E-07,  avg # of iterations =  2.0

     negative rho (up, down):  1.232E-04 0.000E+00

     total cpu time spent up to now is      261.6 secs

     total energy              =  -27793.35844042 Ry
     estimated scf accuracy    <       0.00048645 Ry

     iteration # 11     ecut=    40.00 Ry     beta= 0.70
     Davidson diagonalization with overlap
     ethr =  1.32E-07,  avg # of iterations =  2.2

     negative rho (up, down):  2.142E-04 0.000E+00

     total cpu time spent up to now is      275.1 secs

     total energy              =  -27793.35850989 Ry
     estimated scf accuracy    <       0.00029426 Ry

     iteration # 12     ecut=    40.00 Ry     beta= 0.70
     Davidson diagonalization with overlap
     ethr =  7.97E-08,  avg # of iterations =  4.5

     negative rho (up, down):  2.836E-04 0.000E+00

     total cpu time spent up to now is      293.9 secs

     total energy              =  -27793.35854130 Ry
     estimated scf accuracy    <       0.00016633 Ry

     iteration # 13     ecut=    40.00 Ry     beta= 0.70
     Davidson diagonalization with overlap
     ethr =  4.51E-08,  avg # of iterations =  1.7

     negative rho (up, down):  7.729E-04 0.000E+00

     total cpu time spent up to now is      308.5 secs

     total energy              =  -27793.35861673 Ry
     estimated scf accuracy    <       0.00007144 Ry

     iteration # 14     ecut=    40.00 Ry     beta= 0.70
     Davidson diagonalization with overlap
     ethr =  1.94E-08,  avg # of iterations =  5.5

     negative rho (up, down):  1.003E-03 0.000E+00

     total cpu time spent up to now is      329.1 secs

     total energy              =  -27793.35864420 Ry
     estimated scf accuracy    <       0.00004405 Ry

     iteration # 15     ecut=    40.00 Ry     beta= 0.70
     Davidson diagonalization with overlap
     ethr =  1.19E-08,  avg # of iterations =  1.7

     negative rho (up, down):  2.274E-03 0.000E+00

     total cpu time spent up to now is      346.6 secs

     total energy              =  -27793.35865824 Ry
     estimated scf accuracy    <       0.00003652 Ry

     iteration # 16     ecut=    40.00 Ry     beta= 0.70
     Davidson diagonalization with overlap
     ethr =  9.90E-09,  avg # of iterations =  1.6

     negative rho (up, down):  2.817E-03 0.000E+00

     total cpu time spent up to now is      359.1 secs

     total energy              =  -27793.35865945 Ry
     estimated scf accuracy    <       0.00000540 Ry

     iteration # 17     ecut=    40.00 Ry     beta= 0.70
     Davidson diagonalization with overlap
     ethr =  1.46E-09,  avg # of iterations =  4.2

     negative rho (up, down):  3.108E-03 0.000E+00

     total cpu time spent up to now is      387.6 secs

     total energy              =  -27793.35866066 Ry
     estimated scf accuracy    <       0.00000409 Ry

     iteration # 18     ecut=    40.00 Ry     beta= 0.70
     Davidson diagonalization with overlap
     ethr =  1.11E-09,  avg # of iterations =  1.1

     negative rho (up, down):  3.111E-03 0.000E+00

     total cpu time spent up to now is      399.2 secs

     End of self-consistent calculation

          k = 0.0000 0.0000 0.0000 ( 42913 PWs)   bands (ev):

   -10.1877  -9.3578  -5.9164  -4.9284  -4.5584  -4.1699  -3.8604  -3.6119
    -3.5860  -3.5381  -3.5318  -3.5127  -3.4267  -3.3989  -3.3334  -3.1519
    -3.0377  -3.0096  -2.9656  -2.9525  -2.8925  -2.8109  -2.7405  -2.6163
    -2.6072  -2.4590  -2.3831  -2.3790  -2.3778  -2.3612  -2.3425  -2.2630
    -2.2377  -2.2223  -2.2085  -2.1840  -2.1624  -2.1280  -2.0642  -2.0492
    -2.0017  -1.9814  -1.9488  -1.9321  -1.7898  -1.7282  -1.6490  -1.5850
    -1.5501  -1.5367  -1.5132  -1.4860  -1.4489  -1.4373  -1.3754  -1.3170
    -1.2341  -1.2235  -1.1870  -1.1363  -1.0221  -0.9776  -0.8912  -0.8343
    -0.7821  -0.7693  -0.7075  -0.6765  -0.6473  -0.5882  -0.5501  -0.5377
    -0.5276  -0.4766  -0.4722  -0.4577  -0.4495  -0.4268  -0.4066  -0.4048
    -0.3919  -0.3655  -0.3535  -0.3422  -0.3257  -0.3223  -0.3213  -0.2893
    -0.2465  -0.2451  -0.2095  -0.0865  -0.0739  -0.0401  -0.0226   0.0174
     0.0221   0.0313   0.0770   0.0829   0.1010   0.1434   0.1482   0.1640
     0.1931   0.1933   0.2287   0.2497   0.3097   0.3201   0.3413   0.3979
     0.4303   0.5225   0.6118   0.6722   0.6868   0.7053   0.7726   0.7896
     0.8575   0.9514   0.9779   0.9920   0.9953   1.0252   1.0440   1.0505
     1.0569   1.0810   1.1115   1.1240   1.2306   1.3061   1.3291   1.3403
     1.3519   1.3770   1.4467   1.4577   1.5413   1.5425   1.5483   1.5533
     1.5996   1.6028   1.6158   1.6590   1.7429   1.7430   1.8076   1.8607
     1.8953   1.8982   1.9311   1.9377   1.9682   1.9843   1.9928   2.0023
     2.0313   2.0378   2.0484   2.0654   2.0856   2.0873   2.0894   2.1179
     2.1217   2.1269   2.1568   2.1973   2.2262   2.2290   2.2600   2.2898
     2.2980   2.3438   2.3648   2.3836   2.3869   2.3980   2.4106   2.4514
     2.4556   2.4856   2.5082   2.5554   2.5605   2.6788   2.6865   2.7194
     2.7743   2.7978   2.8069   2.8334   2.8438   2.8637   3.1145   3.2290
     3.3666   3.4616   3.6339   3.7120   4.3513   4.6587   4.6816   4.9507
     5.2489   5.7544   5.9363   6.0096   6.2368   6.2401   6.7291   7.1312
     7.6248   7.6352   7.6966   7.7062   7.8415   7.8672

          k = 0.0000 0.2309 0.0000 ( 42996 PWs)   bands (ev):

   -10.1721  -9.3718  -5.7766  -4.9252  -4.4314  -4.1097  -4.0507  -3.8075
    -3.5763  -3.5588  -3.4532  -3.3931  -3.2863  -3.2629  -3.2395  -3.1764
    -3.0259  -2.9853  -2.9424  -2.9320  -2.8616  -2.7783  -2.7525  -2.5922
    -2.5169  -2.5087  -2.4423  -2.4206  -2.4163  -2.3504  -2.2877  -2.2645
    -2.2476  -2.2369  -2.2057  -2.1712  -2.1586  -2.1288  -2.1053  -2.0071
    -1.9887  -1.9738  -1.8932  -1.8527  -1.7955  -1.7332  -1.6650  -1.6462
    -1.6037  -1.5667  -1.5662  -1.5601  -1.4562  -1.4159  -1.3475  -1.3407
    -1.2677  -1.2279  -1.1890  -1.1827  -1.0769  -0.9703  -0.9240  -0.9030
    -0.8609  -0.8392  -0.8099  -0.8088  -0.7675  -0.7080  -0.7049  -0.6365
    -0.6185  -0.5866  -0.5337  -0.5167  -0.5158  -0.4791  -0.4545  -0.4474
    -0.3929  -0.3604  -0.3192  -0.3144  -0.2912  -0.2853  -0.2644  -0.2541
    -0.2466  -0.1922  -0.1160  -0.1048  -0.0790  -0.0772  -0.0503  -0.0410
    -0.0335  -0.0043   0.0045   0.0265   0.0740   0.0925   0.1121   0.1219
     0.1441   0.1808   0.2189   0.2374   0.2944   0.3146   0.3740   0.3982
     0.4209   0.4383   0.4418   0.4618   0.4684   0.6348   0.6444   0.6996
     0.7105   0.7828   0.7949   0.8485   0.8872   0.9543   0.9720   1.0423
     1.1027   1.1029   1.1492   1.1748   1.1826   1.2037   1.2209   1.2376
     1.3047   1.3241   1.3556   1.3795   1.4408   1.4436   1.4914   1.5037
     1.5561   1.5664   1.5889   1.6167   1.6396   1.6906   1.7146   1.7631
     1.7983   1.8179   1.8258   1.9182   1.9384   1.9678   1.9886   1.9933
     2.0235   2.0561   2.0625   2.1136   2.1304   2.1653   2.2114   2.2375
     2.2732   2.3414   2.3482   2.3687   2.3698   2.3960   2.4303   2.4477
     2.4699   2.4883   2.5330   2.5390   2.5837   2.6048   2.6545   2.6659
     2.6879   2.7226   2.7259   2.7550   2.7992   2.8193   2.8347   2.8520
     2.8893   2.9550   2.9600   3.0502   3.0791   3.1400   3.2801   3.3747
     3.5616   3.7517   3.8624   4.1949   4.4570   4.6404   4.7053   5.1316
     5.1393   5.6327   5.8986   6.1994   6.2990   6.4540   6.6114   6.8212
     6.8897   7.2355   7.4917   7.6554   7.7781   7.8983

          k = 0.0000 0.4619 0.0000 ( 43046 PWs)   bands (ev):

   -10.1454  -9.3958  -5.3862  -4.9565  -4.6471  -4.0699  -3.9986  -3.8261
    -3.6322  -3.5164  -3.4610  -3.3005  -3.1549  -3.1251  -3.0640  -3.0291
    -2.9516  -2.9171  -2.8679  -2.7894  -2.7608  -2.7230  -2.6490  -2.6442
    -2.5736  -2.5656  -2.5541  -2.4959  -2.4639  -2.4289  -2.4220  -2.3492
    -2.3326  -2.2000  -2.1804  -2.1389  -2.1153  -2.0791  -2.0264  -2.0215
    -1.9286  -1.9079  -1.8856  -1.8619  -1.7896  -1.7586  -1.7243  -1.6727
    -1.6066  -1.5798  -1.5635  -1.4895  -1.4826  -1.4282  -1.4079  -1.3805
    -1.3496  -1.3326  -1.2528  -1.2484  -1.1367  -1.1157  -1.0979  -1.0276
    -1.0164  -0.9362  -0.8980  -0.8751  -0.8738  -0.8151  -0.7603  -0.7445
    -0.7385  -0.6973  -0.6630  -0.6603  -0.6306  -0.5601  -0.5338  -0.4913
    -0.4754  -0.4210  -0.3664  -0.3564  -0.3531  -0.3311  -0.3194  -0.2672
    -0.2554  -0.2376  -0.2029  -0.1931  -0.1411  -0.1234  -0.1091  -0.1006
    -0.0423  -0.0214  -0.0130   0.0054   0.0471   0.0560   0.0745   0.0843
     0.1367   0.1588   0.2131   0.2289   0.2351   0.2953   0.3246   0.3633
     0.3903   0.4308   0.4525   0.4749   0.5097   0.6126   0.6194   0.6619
     0.6876   0.7251   0.7590   0.8084   0.8223   0.8285   0.8461   0.8973
     0.9122   0.9249   0.9783   1.0256   1.0524   1.0709   1.1137   1.1491
     1.1678   1.2443   1.2638   1.3015   1.3770   1.4260   1.4354   1.4684
     1.5411   1.5519   1.5850   1.6061   1.6332   1.6719   1.6728   1.7270
     1.7297   1.7934   1.8111   1.8787   1.8939   1.9015   1.9356   2.0153
     2.0252   2.0346   2.1135   2.1172   2.2104   2.2230   2.2785   2.3017
     2.3688   2.3850   2.3967   2.4294   2.4519   2.4796   2.5281   2.5360
     2.5892   2.6056   2.6458   2.6827   2.7078   2.7173   2.7324   2.8007
     2.8468   2.9189   2.9699   2.9757   2.9877   3.0408   3.0515   3.1014
     3.2203   3.2793   3.4323   3.6638   3.9080   3.9296   4.0942   4.1902
     4.2054   4.4580   4.4945   4.6502   4.8639   4.8843   5.0934   5.2562
     5.3527   5.4468   5.5848   5.6183   5.9669   5.9773   6.3016   6.4515
     6.4923   6.8254   7.0205   7.2263   7.3873   7.7185

          k = 0.2000-0.1155 0.0000 ( 42996 PWs)   bands (ev):

   -10.1779  -9.3612  -5.7769  -4.8948  -4.4549  -4.2288  -3.9405  -3.7669
    -3.6298  -3.5358  -3.4544  -3.3922  -3.3331  -3.2607  -3.2310  -3.1228
    -3.0999  -3.0110  -2.9574  -2.9326  -2.8514  -2.7621  -2.7076  -2.6108
    -2.5641  -2.5098  -2.4398  -2.4200  -2.4051  -2.3128  -2.2958  -2.2742
    -2.2535  -2.2363  -2.2184  -2.2058  -2.1547  -2.1291  -2.0612  -2.0393
    -1.9930  -1.9344  -1.8886  -1.8470  -1.8232  -1.7383  -1.6512  -1.6181
    -1.5895  -1.5733  -1.5630  -1.5238  -1.4649  -1.4258  -1.3468  -1.3220
    -1.3053  -1.2300  -1.2053  -1.1545  -1.0924  -0.9868  -0.9279  -0.8981
    -0.8704  -0.8473  -0.8198  -0.7990  -0.7545  -0.7273  -0.7111  -0.6390
    -0.6176  -0.5853  -0.5479  -0.5211  -0.5077  -0.4944  -0.4729  -0.4006
    -0.3848  -0.3627  -0.3470  -0.3307  -0.3086  -0.2742  -0.2643  -0.2464
    -0.2235  -0.1827  -0.1421  -0.1177  -0.0944  -0.0767  -0.0540  -0.0300
    -0.0193   0.0078   0.0325   0.0528   0.0764   0.0893   0.1057   0.1267
     0.1460   0.1757   0.2172   0.2463   0.3092   0.3504   0.3644   0.3846
     0.4202   0.4332   0.4567   0.4899   0.5310   0.5740   0.6400   0.6861
     0.7234   0.7818   0.8038   0.8450   0.8779   0.9615   0.9740   1.0334
     1.0741   1.0927   1.1344   1.1571   1.1984   1.2154   1.2333   1.2554
     1.2936   1.3153   1.3674   1.4114   1.4344   1.4649   1.4861   1.5216
     1.5717   1.5750   1.5957   1.6580   1.6760   1.7017   1.7362   1.7800
     1.7978   1.8226   1.8436   1.9077   1.9520   1.9708   1.9939   2.0109
     2.0348   2.0570   2.0856   2.1119   2.1517   2.1738   2.1941   2.2400
     2.2706   2.3106   2.3301   2.3531   2.3738   2.3846   2.4107   2.4337
     2.4596   2.4995   2.5256   2.5455   2.5933   2.6036   2.6460   2.6756
     2.6886   2.7138   2.7392   2.7449   2.7841   2.7964   2.8020   2.8279
     2.8773   2.9532   2.9687   3.0317   3.0706   3.1100   3.2117   3.3506
     3.5961   3.7668   3.9333   4.1271   4.3721   4.6276   4.7344   5.0698
     5.2745   5.6203   5.9345   6.0264   6.3222   6.4407   6.6338   6.7011
     6.8761   7.3281   7.4933   7.7428   7.8437   7.9074

          k = 0.2000 0.1155 0.0000 ( 42996 PWs)   bands (ev):

   -10.1779  -9.3612  -5.7769  -4.8948  -4.4549  -4.2288  -3.9404  -3.7670
    -3.6298  -3.5359  -3.4543  -3.3921  -3.3330  -3.2609  -3.2311  -3.1228
    -3.0999  -3.0110  -2.9573  -2.9326  -2.8514  -2.7622  -2.7076  -2.6109
    -2.5640  -2.5099  -2.4399  -2.4200  -2.4051  -2.3127  -2.2958  -2.2741
    -2.2535  -2.2363  -2.2184  -2.2058  -2.1547  -2.1291  -2.0612  -2.0393
    -1.9930  -1.9345  -1.8886  -1.8471  -1.8231  -1.7384  -1.6512  -1.6181
    -1.5896  -1.5733  -1.5630  -1.5238  -1.4649  -1.4258  -1.3468  -1.3220
    -1.3052  -1.2299  -1.2053  -1.1545  -1.0925  -0.9869  -0.9280  -0.8981
    -0.8705  -0.8474  -0.8198  -0.7990  -0.7545  -0.7274  -0.7111  -0.6390
    -0.6175  -0.5853  -0.5480  -0.5211  -0.5077  -0.4945  -0.4729  -0.4003
    -0.3846  -0.3626  -0.3469  -0.3307  -0.3086  -0.2743  -0.2643  -0.2465
    -0.2235  -0.1827  -0.1420  -0.1177  -0.0944  -0.0767  -0.0540  -0.0300
    -0.0193   0.0077   0.0324   0.0528   0.0764   0.0893   0.1057   0.1267
     0.1460   0.1757   0.2172   0.2463   0.3093   0.3505   0.3644   0.3846
     0.4202   0.4332   0.4566   0.4899   0.5310   0.5740   0.6400   0.6861
     0.7234   0.7818   0.8039   0.8450   0.8780   0.9614   0.9741   1.0334
     1.0742   1.0928   1.1344   1.1571   1.1983   1.2153   1.2334   1.2556
     1.2936   1.3153   1.3674   1.4114   1.4344   1.4649   1.4860   1.5217
     1.5718   1.5749   1.5957   1.6580   1.6760   1.7017   1.7362   1.7800
     1.7978   1.8225   1.8435   1.9076   1.9519   1.9708   1.9938   2.0109
     2.0349   2.0570   2.0856   2.1118   2.1516   2.1739   2.1941   2.2400
     2.2707   2.3106   2.3302   2.3531   2.3738   2.3846   2.4107   2.4337
     2.4596   2.4995   2.5257   2.5455   2.5934   2.6037   2.6461   2.6754
     2.6887   2.7139   2.7391   2.7449   2.7840   2.7964   2.8019   2.8278
     2.8772   2.9531   2.9687   3.0317   3.0706   3.1100   3.2116   3.3504
     3.5962   3.7668   3.9333   4.1271   4.3722   4.6276   4.7343   5.0699
     5.2745   5.6204   5.9345   6.0264   6.3222   6.4407   6.6338   6.7011
     6.8761   7.3282   7.4935   7.7429   7.8447   7.9154

          k = 0.2000 0.3464 0.0000 ( 43046 PWs)   bands (ev):

   -10.1569  -9.3800  -5.5092  -4.8939  -4.3965  -4.2591  -4.1732  -3.8744
    -3.6831  -3.3290  -3.2614  -3.2474  -3.1855  -3.1753  -3.1453  -3.0928
    -3.0771  -3.0146  -2.9581  -2.8984  -2.7535  -2.6779  -2.6414  -2.6139
    -2.5839  -2.5339  -2.5100  -2.4695  -2.3828  -2.3582  -2.3463  -2.3154
    -2.3072  -2.2675  -2.2200  -2.2028  -2.1448  -2.1341  -2.1000  -2.0640
    -1.9964  -1.9430  -1.8826  -1.7834  -1.7490  -1.7353  -1.6758  -1.6504
    -1.5973  -1.5889  -1.5305  -1.5077  -1.4669  -1.4304  -1.3862  -1.3518
    -1.3086  -1.2483  -1.1993  -1.1828  -1.1533  -1.1189  -1.0723  -1.0338
    -0.9823  -0.9373  -0.8967  -0.8590  -0.8336  -0.7925  -0.7722  -0.7442
    -0.7264  -0.6691  -0.6442  -0.6135  -0.5887  -0.5707  -0.5175  -0.4836
    -0.4461  -0.4212  -0.3859  -0.3744  -0.3456  -0.3146  -0.2993  -0.2678
    -0.2492  -0.2113  -0.1815  -0.1616  -0.1367  -0.1113  -0.0988  -0.0674
    -0.0473  -0.0290  -0.0088   0.0258   0.0447   0.0766   0.0898   0.1255
     0.1539   0.1605   0.1814   0.2114   0.2284   0.2565   0.2973   0.3241
     0.3605   0.3791   0.4196   0.4721   0.5130   0.5749   0.6096   0.6520
     0.7086   0.7450   0.7779   0.8084   0.8521   0.8606   0.8926   0.9037
     0.9733   0.9834   1.0149   1.0437   1.0779   1.1274   1.1740   1.1957
     1.2400   1.2573   1.3023   1.3339   1.3865   1.4066   1.4275   1.4525
     1.4930   1.5390   1.5655   1.5706   1.6302   1.6713   1.7168   1.7302
     1.7734   1.7864   1.7948   1.8387   1.8802   1.8866   1.9414   1.9926
     2.0505   2.1049   2.1123   2.1878   2.2204   2.2543   2.3055   2.3202
     2.3951   2.4230   2.4652   2.4899   2.5032   2.5127   2.5468   2.5694
     2.6009   2.6136   2.6228   2.6561   2.6920   2.7127   2.7285   2.7657
     2.7876   2.8220   2.8494   2.9246   2.9589   3.0182   3.0415   3.0643
     3.1492   3.1901   3.2501   3.2995   3.7135   3.7670   3.8919   3.9495
     4.0625   4.1522   4.3057   4.5059   4.6658   4.8064   5.0705   5.2007
     5.3435   5.4144   5.5773   5.9831   6.1936   6.3167   6.4845   6.6129
     6.8103   6.9208   7.1637   7.2114   7.4442   7.5402

          k = 0.2000-0.5774 0.0000 ( 43014 PWs)   bands (ev):

   -10.1433  -9.3921  -5.1142  -4.9756  -4.7242  -4.4275  -3.8580  -3.8130
    -3.6704  -3.5731  -3.2885  -3.2008  -3.1390  -3.0771  -3.0013  -2.9500
    -2.9062  -2.8541  -2.8044  -2.7878  -2.7295  -2.7209  -2.6886  -2.6816
    -2.6312  -2.6018  -2.5346  -2.5035  -2.4720  -2.4597  -2.3972  -2.3585
    -2.3381  -2.2934  -2.2547  -2.2310  -2.1297  -2.0992  -2.0707  -2.0624
    -1.9998  -1.9170  -1.8894  -1.7893  -1.7601  -1.7213  -1.7099  -1.6561
    -1.6232  -1.5611  -1.5413  -1.4677  -1.4266  -1.3605  -1.3442  -1.3135
    -1.3125  -1.2355  -1.2175  -1.1884  -1.1720  -1.1230  -1.1069  -1.0578
    -1.0220  -0.9865  -0.9589  -0.9161  -0.9123  -0.8789  -0.8383  -0.8119
    -0.7916  -0.7678  -0.7442  -0.7067  -0.6659  -0.6339  -0.5932  -0.5718
    -0.5293  -0.4993  -0.4841  -0.4579  -0.4056  -0.3872  -0.3493  -0.3242
    -0.2925  -0.2411  -0.2215  -0.1901  -0.1530  -0.1091  -0.0899  -0.0687
    -0.0276  -0.0181   0.0204   0.0576   0.0701   0.0897   0.1045   0.1153
     0.1486   0.1787   0.1943   0.2310   0.2379   0.2526   0.2689   0.2804
     0.3400   0.3839   0.4087   0.4874   0.5017   0.5777   0.5803   0.6475
     0.6808   0.6950   0.7158   0.7472   0.7731   0.8325   0.8430   0.8752
     0.9067   0.9244   0.9803   1.0305   1.0493   1.0707   1.0893   1.1479
     1.1917   1.2457   1.3061   1.3396   1.3734   1.4104   1.4300   1.4626
     1.4686   1.5021   1.5222   1.5753   1.6045   1.6251   1.6375   1.6800
     1.6982   1.7278   1.7727   1.7994   1.8764   1.9599   2.0170   2.0384
     2.0580   2.1391   2.1650   2.1891   2.2208   2.2629   2.2822   2.3548
     2.4138   2.4288   2.4638   2.5124   2.5277   2.5503   2.5680   2.6102
     2.6250   2.6787   2.6954   2.6995   2.7409   2.7530   2.7984   2.8425
     2.8812   2.9215   2.9743   2.9868   3.0091   3.0367   3.0589   3.1961
     3.2600   3.6539   3.7010   3.8399   3.9347   4.0479   4.1935   4.2789
     4.3978   4.6295   4.7437   4.8077   4.9128   5.0479   5.1859   5.3183
     5.4263   5.6898   5.7791   5.8383   5.9835   6.0385   6.0833   6.2817
     6.3506   6.3934   6.7799   7.1263   7.2060   7.3224

          k = 0.2000-0.3464 0.0000 ( 43046 PWs)   bands (ev):

   -10.1569  -9.3800  -5.5092  -4.8940  -4.3965  -4.2591  -4.1732  -3.8744
    -3.6831  -3.3290  -3.2614  -3.2475  -3.1855  -3.1753  -3.1453  -3.0928
    -3.0770  -3.0146  -2.9582  -2.8983  -2.7536  -2.6780  -2.6414  -2.6138
    -2.5839  -2.5340  -2.5100  -2.4695  -2.3827  -2.3581  -2.3463  -2.3154
    -2.3071  -2.2674  -2.2202  -2.2027  -2.1448  -2.1341  -2.1000  -2.0641
    -1.9964  -1.9430  -1.8826  -1.7833  -1.7490  -1.7352  -1.6757  -1.6503
    -1.5972  -1.5889  -1.5305  -1.5077  -1.4670  -1.4304  -1.3861  -1.3517
    -1.3086  -1.2483  -1.1992  -1.1828  -1.1532  -1.1188  -1.0723  -1.0338
    -0.9822  -0.9372  -0.8966  -0.8590  -0.8335  -0.7925  -0.7720  -0.7442
    -0.7264  -0.6690  -0.6443  -0.6136  -0.5888  -0.5708  -0.5176  -0.4837
    -0.4460  -0.4212  -0.3860  -0.3744  -0.3457  -0.3146  -0.2993  -0.2679
    -0.2492  -0.2114  -0.1816  -0.1618  -0.1366  -0.1114  -0.0987  -0.0675
    -0.0475  -0.0291  -0.0089   0.0259   0.0447   0.0766   0.0898   0.1258
     0.1538   0.1604   0.1814   0.2114   0.2285   0.2565   0.2972   0.3241
     0.3606   0.3791   0.4195   0.4721   0.5130   0.5749   0.6096   0.6519
     0.7086   0.7450   0.7780   0.8084   0.8522   0.8606   0.8927   0.9036
     0.9733   0.9833   1.0149   1.0437   1.0779   1.1275   1.1740   1.1957
     1.2400   1.2573   1.3023   1.3340   1.3865   1.4065   1.4275   1.4525
     1.4931   1.5390   1.5655   1.5705   1.6302   1.6713   1.7168   1.7302
     1.7735   1.7865   1.7948   1.8388   1.8803   1.8867   1.9414   1.9926
     2.0505   2.1049   2.1122   2.1878   2.2205   2.2543   2.3055   2.3202
     2.3951   2.4229   2.4653   2.4900   2.5032   2.5127   2.5468   2.5694
     2.6009   2.6135   2.6227   2.6561   2.6920   2.7126   2.7285   2.7657
     2.7876   2.8219   2.8493   2.9246   2.9590   3.0184   3.0416   3.0645
     3.1493   3.1901   3.2500   3.2994   3.7134   3.7670   3.8919   3.9495
     4.0626   4.1523   4.3058   4.5058   4.6658   4.8064   5.0705   5.2008
     5.3435   5.4143   5.5774   5.9831   6.1936   6.3167   6.4846   6.6129
     6.8102   6.9209   7.1636   7.2114   7.4443   7.5395

          k = 0.4000-0.2309 0.0000 ( 43046 PWs)   bands (ev):

   -10.1617  -9.3669  -5.3824  -4.8846  -4.7093  -4.1625  -3.9970  -3.7403
    -3.6633  -3.5176  -3.4570  -3.3039  -3.2014  -3.1315  -3.0680  -3.0433
    -2.9523  -2.9432  -2.8657  -2.7978  -2.7369  -2.7125  -2.6678  -2.6576
    -2.5754  -2.5455  -2.5373  -2.5091  -2.4993  -2.4477  -2.4072  -2.3613
    -2.3480  -2.2421  -2.1860  -2.1342  -2.1012  -2.0861  -2.0376  -2.0046
    -1.9385  -1.9048  -1.8782  -1.8442  -1.8113  -1.7646  -1.6866  -1.6546
    -1.6139  -1.5514  -1.5149  -1.4939  -1.4714  -1.4391  -1.4032  -1.3882
    -1.3786  -1.2970  -1.2721  -1.2170  -1.1692  -1.1239  -1.0858  -1.0548
    -1.0251  -0.9924  -0.9333  -0.9129  -0.8462  -0.8071  -0.7773  -0.7448
    -0.7057  -0.6679  -0.6523  -0.5926  -0.5795  -0.5272  -0.5057  -0.4928
    -0.4773  -0.4371  -0.4028  -0.3759  -0.3421  -0.3246  -0.3089  -0.2808
    -0.2519  -0.2307  -0.2176  -0.2087  -0.1562  -0.1327  -0.1078  -0.0840
    -0.0650  -0.0495  -0.0217  -0.0140   0.0429   0.0865   0.1069   0.1248
     0.1470   0.1756   0.2132   0.2481   0.2805   0.2958   0.3151   0.3673
     0.3994   0.4110   0.4430   0.4777   0.5317   0.5986   0.6177   0.6563
     0.6820   0.7219   0.7445   0.7840   0.8110   0.8266   0.8557   0.8794
     0.9061   0.9211   0.9821   1.0451   1.0700   1.0869   1.1267   1.1476
     1.1877   1.2222   1.3102   1.3411   1.3815   1.4538   1.4710   1.4816
     1.5077   1.5784   1.6063   1.6468   1.6672   1.6879   1.7030   1.7264
     1.7692   1.7985   1.8228   1.8720   1.9110   1.9324   1.9678   2.0122
     2.0300   2.0567   2.1408   2.1607   2.1858   2.2204   2.2522   2.3351
     2.3729   2.3881   2.3976   2.4141   2.4431   2.4951   2.5145   2.5473
     2.5749   2.6119   2.6394   2.6547   2.6877   2.7032   2.7326   2.7996
     2.8454   2.8923   2.9527   2.9625   2.9842   3.0159   3.0451   3.2057
     3.2228   3.2568   3.3671   3.5485   3.7276   3.8886   4.0873   4.1488
     4.2355   4.3663   4.5022   4.6674   4.8083   4.8964   5.0792   5.1844
     5.3623   5.4163   5.5175   5.6691   5.9525   6.0633   6.2930   6.3448
     6.4454   6.8177   6.9379   7.2116   7.5410   7.7218

          k = 0.4000-0.0000 0.0000 ( 43046 PWs)   bands (ev):

   -10.1666  -9.3624  -5.5076  -4.8575  -4.3830  -4.3458  -4.1858  -3.8699
    -3.6110  -3.3886  -3.2605  -3.2279  -3.1944  -3.1863  -3.1622  -3.1151
    -3.0787  -3.0063  -2.9587  -2.9065  -2.8328  -2.6406  -2.6304  -2.6055
    -2.5439  -2.5176  -2.4920  -2.4661  -2.4329  -2.3816  -2.3734  -2.3472
    -2.3038  -2.2533  -2.2065  -2.1888  -2.1512  -2.1247  -2.0873  -2.0682
    -2.0051  -1.9843  -1.8547  -1.8003  -1.7356  -1.7326  -1.7029  -1.6315
    -1.5660  -1.5376  -1.5177  -1.5045  -1.4660  -1.4379  -1.3947  -1.3367
    -1.3027  -1.2445  -1.2323  -1.1934  -1.1708  -1.1278  -1.0697  -0.9963
    -0.9809  -0.9573  -0.9182  -0.8762  -0.8457  -0.7974  -0.7833  -0.7456
    -0.7247  -0.6615  -0.6228  -0.6202  -0.5682  -0.5609  -0.5023  -0.4858
    -0.4608  -0.4127  -0.3758  -0.3615  -0.3558  -0.3150  -0.2959  -0.2816
    -0.2446  -0.1923  -0.1911  -0.1713  -0.1431  -0.1280  -0.1081  -0.0543
    -0.0467  -0.0097   0.0057   0.0330   0.0427   0.0944   0.1110   0.1399
     0.1462   0.1579   0.1668   0.2165   0.2380   0.2498   0.2649   0.3278
     0.3680   0.3937   0.4456   0.4829   0.5143   0.5685   0.6347   0.6483
     0.6773   0.7437   0.7694   0.8094   0.8347   0.8680   0.8745   0.9486
     0.9560   0.9863   1.0128   1.0367   1.0827   1.1180   1.1551   1.1982
     1.2320   1.2697   1.3280   1.3656   1.4041   1.4286   1.4370   1.4524
     1.4886   1.5412   1.5604   1.5903   1.6761   1.7009   1.7090   1.7360
     1.7835   1.8018   1.8261   1.8632   1.8688   1.8910   1.9275   1.9944
     2.0493   2.0769   2.1501   2.1651   2.2490   2.2915   2.3524   2.3647
     2.3965   2.4135   2.4430   2.4894   2.4963   2.5344   2.5429   2.5584
     2.5959   2.6140   2.6297   2.6375   2.6599   2.7159   2.7212   2.7616
     2.8016   2.8500   2.9017   2.9097   2.9678   2.9835   3.0058   3.0498
     3.0635   3.1680   3.2124   3.3435   3.5661   3.7259   3.8156   3.9831
     4.0898   4.2006   4.3060   4.5002   4.7044   4.8997   4.9747   5.0767
     5.2200   5.4581   5.5216   5.8575   6.2200   6.3431   6.5067   6.7027
     6.7715   6.8207   7.0780   7.3277   7.5254   7.5611

          k = 0.4000 0.2309 0.0000 ( 43046 PWs)   bands (ev):

   -10.1616  -9.3669  -5.3824  -4.8846  -4.7093  -4.1625  -3.9970  -3.7404
    -3.6633  -3.5176  -3.4570  -3.3038  -3.2013  -3.1315  -3.0680  -3.0433
    -2.9523  -2.9433  -2.8658  -2.7977  -2.7369  -2.7124  -2.6678  -2.6576
    -2.5754  -2.5454  -2.5374  -2.5091  -2.4992  -2.4477  -2.4073  -2.3613
    -2.3480  -2.2421  -2.1861  -2.1342  -2.1012  -2.0861  -2.0377  -2.0046
    -1.9386  -1.9048  -1.8782  -1.8442  -1.8115  -1.7646  -1.6867  -1.6547
    -1.6139  -1.5514  -1.5150  -1.4938  -1.4713  -1.4391  -1.4031  -1.3881
    -1.3786  -1.2971  -1.2722  -1.2171  -1.1694  -1.1240  -1.0860  -1.0549
    -1.0252  -0.9925  -0.9334  -0.9128  -0.8461  -0.8071  -0.7772  -0.7446
    -0.7057  -0.6678  -0.6523  -0.5923  -0.5795  -0.5271  -0.5056  -0.4926
    -0.4772  -0.4371  -0.4028  -0.3761  -0.3421  -0.3246  -0.3090  -0.2808
    -0.2519  -0.2306  -0.2177  -0.2087  -0.1560  -0.1327  -0.1078  -0.0841
    -0.0650  -0.0495  -0.0217  -0.0141   0.0430   0.0866   0.1070   0.1248
     0.1472   0.1758   0.2132   0.2481   0.2805   0.2958   0.3151   0.3674
     0.3994   0.4110   0.4430   0.4777   0.5316   0.5986   0.6176   0.6564
     0.6820   0.7218   0.7444   0.7840   0.8111   0.8266   0.8556   0.8795
     0.9062   0.9212   0.9821   1.0450   1.0701   1.0869   1.1268   1.1476
     1.1878   1.2223   1.3102   1.3412   1.3816   1.4538   1.4711   1.4816
     1.5077   1.5784   1.6062   1.6468   1.6673   1.6878   1.7030   1.7263
     1.7691   1.7984   1.8227   1.8720   1.9110   1.9324   1.9679   2.0123
     2.0299   2.0567   2.1408   2.1607   2.1857   2.2203   2.2523   2.3352
     2.3729   2.3881   2.3976   2.4141   2.4431   2.4952   2.5146   2.5474
     2.5750   2.6120   2.6395   2.6547   2.6876   2.7032   2.7325   2.7994
     2.8453   2.8924   2.9526   2.9624   2.9841   3.0159   3.0451   3.2058
     3.2228   3.2567   3.3670   3.5487   3.7277   3.8887   4.0873   4.1488
     4.2355   4.3662   4.5021   4.6674   4.8085   4.8962   5.0792   5.1844
     5.3623   5.4163   5.5175   5.6692   5.9524   6.0632   6.2930   6.3447
     6.4452   6.8177   6.9380   7.2115   7.5411   7.7218

          k = 0.4000-0.6928 0.0000 ( 43014 PWs)   bands (ev):

   -10.1535  -9.3741  -5.0831  -4.9719  -4.7765  -4.3644  -4.0048  -3.8176
    -3.6080  -3.5354  -3.2746  -3.2329  -3.1368  -3.0902  -2.9985  -2.9718
    -2.8952  -2.8729  -2.8211  -2.7597  -2.7307  -2.7225  -2.6896  -2.6640
    -2.6299  -2.6102  -2.5806  -2.5022  -2.4847  -2.4629  -2.4214  -2.4011
    -2.3259  -2.3038  -2.2452  -2.1868  -2.1517  -2.1041  -2.0698  -2.0539
    -1.9517  -1.9131  -1.8735  -1.8180  -1.7767  -1.7411  -1.6755  -1.6554
    -1.6279  -1.5838  -1.5083  -1.4571  -1.4140  -1.3739  -1.3491  -1.3200
    -1.2780  -1.2244  -1.2208  -1.2005  -1.1637  -1.1306  -1.1111  -1.0571
    -1.0367  -1.0085  -0.9985  -0.9449  -0.9080  -0.8824  -0.8352  -0.8057
    -0.7973  -0.7668  -0.6990  -0.6567  -0.6292  -0.6164  -0.5875  -0.5627
    -0.5412  -0.4972  -0.4802  -0.4514  -0.4167  -0.3914  -0.3690  -0.3410
    -0.2665  -0.2455  -0.2132  -0.2058  -0.1539  -0.1152  -0.0935  -0.0694
    -0.0389  -0.0040   0.0311   0.0558   0.0744   0.0847   0.1117   0.1447
     0.1516   0.1893   0.2121   0.2303   0.2521   0.2621   0.2781   0.2926
     0.3100   0.3504   0.4129   0.4533   0.4746   0.5720   0.5789   0.6629
     0.6697   0.6928   0.7342   0.7664   0.7834   0.8095   0.8582   0.8883
     0.9071   0.9300   0.9583   1.0183   1.0592   1.0935   1.1155   1.1596
     1.2170   1.2459   1.2854   1.3094   1.3696   1.4202   1.4291   1.4638
     1.4802   1.4979   1.5402   1.5739   1.6040   1.6147   1.6461   1.7054
     1.7324   1.7706   1.7853   1.8219   1.9060   1.9369   1.9763   2.0114
     2.1343   2.1664   2.1771   2.1846   2.2428   2.2730   2.3062   2.3678
     2.4081   2.4522   2.4838   2.5000   2.5379   2.5594   2.5720   2.5931
     2.6121   2.6503   2.6761   2.7027   2.7293   2.7575   2.7773   2.8595
     2.8839   2.9163   2.9625   2.9809   3.0179   3.0525   3.0667   3.2228
     3.2831   3.4549   3.5550   3.8158   3.9810   4.1401   4.2131   4.2522
     4.4378   4.4785   4.6874   4.8273   4.9331   5.0455   5.2142   5.2914
     5.3874   5.4650   5.7349   5.8662   5.9436   6.0561   6.0792   6.2374
     6.4515   6.5706   6.8340   6.9717   7.1457   7.2361

          k = 0.4000-0.4619 0.0000 ( 43014 PWs)   bands (ev):

   -10.1535  -9.3741  -5.0832  -4.9719  -4.7765  -4.3644  -4.0048  -3.8176
    -3.6080  -3.5354  -3.2746  -3.2329  -3.1369  -3.0902  -2.9984  -2.9718
    -2.8951  -2.8729  -2.8212  -2.7597  -2.7307  -2.7225  -2.6896  -2.6640
    -2.6299  -2.6101  -2.5806  -2.5022  -2.4847  -2.4629  -2.4214  -2.4012
    -2.3259  -2.3038  -2.2452  -2.1868  -2.1516  -2.1040  -2.0698  -2.0538
    -1.9516  -1.9131  -1.8734  -1.8179  -1.7766  -1.7411  -1.6757  -1.6554
    -1.6279  -1.5838  -1.5083  -1.4571  -1.4140  -1.3740  -1.3492  -1.3200
    -1.2781  -1.2241  -1.2207  -1.2005  -1.1636  -1.1305  -1.1109  -1.0571
    -1.0366  -1.0085  -0.9985  -0.9448  -0.9080  -0.8824  -0.8352  -0.8057
    -0.7972  -0.7667  -0.6991  -0.6567  -0.6293  -0.6166  -0.5877  -0.5628
    -0.5412  -0.4974  -0.4803  -0.4514  -0.4167  -0.3913  -0.3690  -0.3409
    -0.2663  -0.2455  -0.2133  -0.2059  -0.1539  -0.1153  -0.0934  -0.0693
    -0.0390  -0.0039   0.0311   0.0557   0.0744   0.0846   0.1114   0.1450
     0.1516   0.1891   0.2122   0.2304   0.2521   0.2620   0.2781   0.2926
     0.3101   0.3504   0.4128   0.4533   0.4746   0.5720   0.5788   0.6630
     0.6697   0.6928   0.7342   0.7664   0.7834   0.8094   0.8582   0.8883
     0.9072   0.9300   0.9583   1.0183   1.0592   1.0934   1.1155   1.1596
     1.2171   1.2460   1.2853   1.3095   1.3697   1.4201   1.4291   1.4638
     1.4803   1.4979   1.5402   1.5739   1.6040   1.6148   1.6462   1.7055
     1.7324   1.7705   1.7852   1.8219   1.9060   1.9370   1.9763   2.0114
     2.1343   2.1664   2.1770   2.1847   2.2429   2.2730   2.3062   2.3678
     2.4081   2.4521   2.4838   2.5000   2.5379   2.5594   2.5719   2.5931
     2.6122   2.6503   2.6762   2.7027   2.7293   2.7574   2.7772   2.8595
     2.8839   2.9164   2.9626   2.9809   3.0181   3.0526   3.0668   3.2228
     3.2831   3.4548   3.5549   3.8158   3.9811   4.1399   4.2130   4.2521
     4.4378   4.4784   4.6875   4.8273   4.9333   5.0455   5.2142   5.2914
     5.3873   5.4650   5.7353   5.8663   5.9437   6.0561   6.0791   6.2372
     6.4515   6.5706   6.8340   6.9720   7.1455   7.2361

     the Fermi energy is     2.7679 ev

!    total energy              =  -27793.35866080 Ry
     total all-electron energy =  -1326795.652272 Ry
     estimated scf accuracy    <       0.00000038 Ry
     smearing contrib. (-TS)   =       0.00003746 Ry
     internal energy E=F+TS    =  -27793.35869826 Ry

     The total energy is F=E-TS. E is the sum of the following terms:
     one-electron contribution =  -20760.68710637 Ry
     hartree contribution      =   10693.43567132 Ry
     xc contribution           =    -900.37424259 Ry
     ewald contribution        =    8661.46070036 Ry
     one-center paw contrib.   =  -25487.19372098 Ry

     convergence has been achieved in  18 iterations

     negative rho (up, down):  3.111E-03 0.000E+00

     Forces acting on atoms (cartesian axes, Ry/au):

     atom    1 type  1   force =     0.00006783    0.00009592   -0.00433479
     atom    2 type  1   force =    -0.00005549    0.00007897   -0.00433181
     atom    3 type  1   force =    -0.00000815   -0.00377963   -0.00673551
     atom    4 type  1   force =    -0.00000514    0.00098740   -0.00626421
     atom    5 type  1   force =    -0.00201511    0.00105463   -0.00755919
     atom    6 type  1   force =     0.00203176    0.00106861   -0.00754890
     atom    7 type  1   force =    -0.00184472   -0.00019870   -0.00835404
     atom    8 type  1   force =     0.00001663    0.00101481   -0.00502175
     atom    9 type  1   force =     0.00184266   -0.00019599   -0.00836109
     atom   10 type  1   force =    -0.00002392    0.00024048    0.01682293
     atom   11 type  1   force =    -0.00158198   -0.00029966   -0.00028729
     atom   12 type  1   force =     0.00156423   -0.00029282   -0.00027086
     atom   13 type  1   force =    -0.00009740    0.00012760    0.00849144
     atom   14 type  1   force =    -0.00000113    0.00170591   -0.00242508
     atom   15 type  1   force =     0.00006257    0.00013089    0.00849281
     atom   16 type  1   force =    -0.00289560   -0.00113643    0.01131202
     atom   17 type  1   force =     0.00287526   -0.00115016    0.01129284
     atom   18 type  1   force =    -0.00001560    0.00093918    0.00489674
     atom   19 type  1   force =    -0.00150428   -0.00077106   -0.00323321
     atom   20 type  1   force =     0.00149208   -0.00077283   -0.00323468
     atom   21 type  1   force =    -0.00000322   -0.00085977   -0.00024316
     atom   22 type  1   force =    -0.00000540    0.00064039    0.00108211
     atom   23 type  1   force =     0.00042818    0.00001427    0.00020112
     atom   24 type  1   force =    -0.00043412    0.00001670    0.00020431
     atom   25 type  1   force =     0.00028369   -0.00091534    0.00116639
     atom   26 type  1   force =     0.00000271   -0.00054144    0.00110590
     atom   27 type  1   force =    -0.00028875   -0.00092034    0.00117272
     atom   28 type  1   force =    -0.00014466   -0.00234765    0.00192409
     atom   29 type  1   force =     0.00013980   -0.00235838    0.00191531
     atom   30 type  1   force =    -0.00000304   -0.00288705    0.00014117
     atom   31 type  1   force =     0.00002934   -0.00747799   -0.02758565
     atom   32 type  1   force =     0.00084002   -0.00070965   -0.00057868
     atom   33 type  1   force =    -0.00084287   -0.00071057   -0.00057725
     atom   34 type  1   force =    -0.00007501   -0.00257520    0.00410228
     atom   35 type  1   force =     0.00000829   -0.00006107    0.00101191
     atom   36 type  1   force =     0.00011901   -0.00258561    0.00411995
     atom   37 type  2   force =     0.00001758    0.00444907    0.00081879
     atom   38 type  3   force =     0.00002382    0.04864902    0.02002556
     atom   39 type  2   force =     0.00000015   -0.02766648   -0.00335324
     The non-local contrib.  to forces
     atom    1 type  1   force =    -0.00000961   -0.00001084   -0.01965577
     atom    2 type  1   force =     0.00000929   -0.00002501   -0.01964927
     atom    3 type  1   force =    -0.00001026   -0.00057095   -0.02191727
     atom    4 type  1   force =    -0.00000987    0.00049332   -0.01911852
     atom    5 type  1   force =     0.00147873   -0.00068182   -0.02547762
     atom    6 type  1   force =    -0.00147575   -0.00067217   -0.02547388
     atom    7 type  1   force =    -0.00177517    0.00010651   -0.01909802
     atom    8 type  1   force =     0.00001039   -0.00043777   -0.02133962
     atom    9 type  1   force =     0.00176892    0.00010849   -0.01909746
     atom   10 type  1   force =    -0.00001736   -0.00124619    0.00172811
     atom   11 type  1   force =    -0.00387415   -0.00088548    0.00100545
     atom   12 type  1   force =     0.00384983   -0.00087629    0.00102248
     atom   13 type  1   force =    -0.00183614   -0.00304004    0.00170320
     atom   14 type  1   force =    -0.00000267    0.00378149   -0.00123659
     atom   15 type  1   force =     0.00179613   -0.00303300    0.00170660
     atom   16 type  1   force =     0.00298948    0.00095348    0.00107412
     atom   17 type  1   force =    -0.00300745    0.00094475    0.00105734
     atom   18 type  1   force =    -0.00002053   -0.00064127    0.00310228
     atom   19 type  1   force =    -0.00861160   -0.00116088    0.00859336
     atom   20 type  1   force =     0.00860796   -0.00117762    0.00858470
     atom   21 type  1   force =    -0.00000607    0.00161388    0.01493750
     atom   22 type  1   force =    -0.00000674    0.00428569    0.02952203
     atom   23 type  1   force =     0.01023353   -0.00759294    0.00340955
     atom   24 type  1   force =    -0.01021578   -0.00758665    0.00342348
     atom   25 type  1   force =    -0.00312954    0.00364013   -0.00102037
     atom   26 type  1   force =     0.00001202   -0.00358198    0.01752526
     atom   27 type  1   force =     0.00312769    0.00362971   -0.00101006
     atom   28 type  1   force =     0.08114862    0.04698061   -0.00798999
     atom   29 type  1   force =    -0.08114369    0.04690797   -0.00799808
     atom   30 type  1   force =    -0.00000321   -0.02700708    0.02218410
     atom   31 type  1   force =     0.00005495   -0.01460296   -0.00024412
     atom   32 type  1   force =    -0.02153713   -0.00598990    0.01996022
     atom   33 type  1   force =     0.02156229   -0.00598475    0.01996314
     atom   34 type  1   force =    -0.04669532   -0.01293909   -0.04786096
     atom   35 type  1   force =     0.00003316    0.03058941    0.02631163
     atom   36 type  1   force =     0.04675183   -0.01295617   -0.04785384
     atom   37 type  2   force =     0.00003208    0.07017415   -0.29372641
     atom   38 type  3   force =     0.00002796    0.04763276   -0.06022879
     atom   39 type  2   force =    -0.00006625   -0.20617393   -0.17999559
     The ionic contribution  to forces
     atom    1 type  1   force =     0.00484131   -0.00427560  -94.39451127
     atom    2 type  1   force =    -0.00489412   -0.00426092  -94.39461208
     atom    3 type  1   force =     0.00005173   -0.03029576  -94.40753021
     atom    4 type  1   force =    -0.00001376    0.00891070  -94.38041615
     atom    5 type  1   force =    -0.02429603    0.00713711  -94.42196054
     atom    6 type  1   force =     0.02430864    0.00708544  -94.42193756
     atom    7 type  1   force =    -0.01454943    0.00086365  -94.37941518
     atom    8 type  1   force =    -0.00003851    0.01387895  -94.40316520
     atom    9 type  1   force =     0.01458631    0.00082541  -94.37949375
     atom   10 type  1   force =    -0.00048622    0.03949145  -33.44345809
     atom   11 type  1   force =    -0.20811752   -0.15682080  -33.49845413
     atom   12 type  1   force =     0.20809766   -0.15709553  -33.49797408
     atom   13 type  1   force =    -0.11199616   -0.00428683  -33.34429119
     atom   14 type  1   force =    -0.00024630    0.24485804  -33.55789754
     atom   15 type  1   force =     0.11170230   -0.00470304  -33.34438947
     atom   16 type  1   force =    -0.01974131    0.02594803  -33.42940165
     atom   17 type  1   force =     0.01903505    0.02578414  -33.42999419
     atom   18 type  1   force =     0.00027170   -0.06182634  -33.19253397
     atom   19 type  1   force =     0.06164359    0.02971643   28.35106813
     atom   20 type  1   force =    -0.06155582    0.03095504   28.34970724
     atom   21 type  1   force =    -0.00033206   -0.08796791   25.95134349
     atom   22 type  1   force =     0.00108637    0.23462632   28.38773021
     atom   23 type  1   force =    -0.17310656    0.06293281   27.61567268
     atom   24 type  1   force =     0.17212799    0.06271490   27.61501542
     atom   25 type  1   force =    -0.21124124   -0.28225102   28.02557023
     atom   26 type  1   force =    -0.00070900    0.05236976   28.21757090
     atom   27 type  1   force =     0.21205258   -0.28160408   28.02306138
     atom   28 type  1   force =    -2.52265412   -1.10276762   89.23842627
     atom   29 type  1   force =     2.52277545   -1.10196894   89.23478343
     atom   30 type  1   force =    -0.00018341    0.39279786   88.06757602
     atom   31 type  1   force =     0.00154526   -0.56320723   87.02266475
     atom   32 type  1   force =     0.72691035   -0.20690482   88.37233595
     atom   33 type  1   force =    -0.72856076   -0.20788693   88.37262165
     atom   34 type  1   force =     3.29641793    1.80287528   89.00999345
     atom   35 type  1   force =    -0.00062716   -0.25683048   88.47211859
     atom   36 type  1   force =    -3.29413204    1.80378443   89.00736297
     atom   37 type  2   force =     0.00055527   -0.70139031   45.20044950
     atom   38 type  3   force =    -0.00069594   -0.87219066   12.37405668
     atom   39 type  2   force =     0.00016798    1.24097903   45.41230732
     The local contribution  to forces
     atom    1 type  1   force =    -0.00488705    0.00447825   94.39326196
     atom    2 type  1   force =     0.00493721    0.00450212   94.39335438
     atom    3 type  1   force =    -0.00002735    0.02720773   94.40592621
     atom    4 type  1   force =     0.00004543   -0.00852494   94.37665573
     atom    5 type  1   force =     0.02080151   -0.00547173   94.42329271
     atom    6 type  1   force =    -0.02082168   -0.00545592   94.42325154
     atom    7 type  1   force =     0.01456443   -0.00111409   94.37330368
     atom    8 type  1   force =     0.00000096   -0.01249264   94.40313879
     atom    9 type  1   force =    -0.01454948   -0.00107159   94.37335050
     atom   10 type  1   force =     0.00048437   -0.03788313   33.45905706
     atom   11 type  1   force =     0.20983457    0.15696602   33.49724357
     atom   12 type  1   force =    -0.20981314    0.15719009   33.49674943
     atom   13 type  1   force =     0.11387683    0.00723742   33.35184855
     atom   14 type  1   force =     0.00020181   -0.24642943   33.55686431
     atom   15 type  1   force =    -0.11353096    0.00762741   33.35195008
     atom   16 type  1   force =     0.01367715   -0.02782688   33.44015570
     atom   17 type  1   force =    -0.01301290   -0.02763981   33.44075803
     atom   18 type  1   force =    -0.00022521    0.06352385   33.19582589
     atom   19 type  1   force =    -0.05472997   -0.02926144  -28.36033719
     atom   20 type  1   force =     0.05466825   -0.03045151  -28.35895743
     atom   21 type  1   force =     0.00030492    0.08511979  -25.96502213
     atom   22 type  1   force =    -0.00104270   -0.23783202  -28.41218178
     atom   23 type  1   force =     0.16277634   -0.05569614  -27.61782969
     atom   24 type  1   force =    -0.16185730   -0.05547243  -27.61716863
     atom   25 type  1   force =     0.21360476    0.27698868  -28.02187189
     atom   26 type  1   force =     0.00068493   -0.04915327  -28.23127367
     atom   27 type  1   force =    -0.21439982    0.27639327  -28.01934688
     atom   28 type  1   force =     2.42168762    1.04502067  -89.22727544
     atom   29 type  1   force =    -2.42180168    1.04431788  -89.22363994
     atom   30 type  1   force =     0.00016764   -0.37044562  -88.07413337
     atom   31 type  1   force =    -0.00153390    0.57517616  -87.06020861
     atom   32 type  1   force =    -0.70709032    0.21158071  -88.37687589
     atom   33 type  1   force =     0.70867434    0.21255605  -88.37714712
     atom   34 type  1   force =    -3.23197084   -1.78350453  -88.95723858
     atom   35 type  1   force =     0.00058013    0.22826514  -88.48097725
     atom   36 type  1   force =     3.22970290   -1.78438326  -88.95457643
     atom   37 type  2   force =    -0.00058686    0.63748501  -44.91189497
     atom   38 type  3   force =     0.00069393    0.87320312  -12.29379291
     atom   39 type  2   force =    -0.00013393   -1.06609328  -45.23938874
     The core correction contribution to forces
     atom    1 type  1   force =     0.00007723   -0.00009087    0.01690060
     atom    2 type  1   force =    -0.00007705   -0.00009063    0.01690081
     atom    3 type  1   force =    -0.00000046   -0.00012094    0.01713730
     atom    4 type  1   force =    -0.00000020    0.00008195    0.01692040
     atom    5 type  1   force =    -0.00002329    0.00001570    0.01691448
     atom    6 type  1   force =     0.00002226    0.00001538    0.01691350
     atom    7 type  1   force =    -0.00010193   -0.00003961    0.01715402
     atom    8 type  1   force =    -0.00000003    0.00007147    0.01662288
     atom    9 type  1   force =     0.00010185   -0.00003984    0.01715422
     atom   10 type  1   force =     0.00000132   -0.00012436   -0.00012498
     atom   11 type  1   force =     0.00062491    0.00043567    0.00031905
     atom   12 type  1   force =    -0.00062298    0.00043591    0.00031742
     atom   13 type  1   force =    -0.00011902    0.00018644   -0.00038463
     atom   14 type  1   force =     0.00000138   -0.00062550    0.00025311
     atom   15 type  1   force =     0.00012093    0.00018775   -0.00038471
     atom   16 type  1   force =     0.00009256   -0.00016864   -0.00012143
     atom   17 type  1   force =    -0.00009043   -0.00016814   -0.00012083
     atom   18 type  1   force =     0.00000003   -0.00004363   -0.00108543
     atom   19 type  1   force =     0.00019096   -0.00010219   -0.00258436
     atom   20 type  1   force =    -0.00019083   -0.00010568   -0.00258501
     atom   21 type  1   force =     0.00000194    0.00027029   -0.00155811
     atom   22 type  1   force =    -0.00000252   -0.00045268   -0.00398913
     atom   23 type  1   force =     0.00044581    0.00036377   -0.00107101
     atom   24 type  1   force =    -0.00044361    0.00036371   -0.00107285
     atom   25 type  1   force =     0.00102975    0.00071898   -0.00148991
     atom   26 type  1   force =     0.00000146   -0.00015362   -0.00278177
     atom   27 type  1   force =    -0.00103104    0.00071756   -0.00149160
     atom   28 type  1   force =     0.01930887    0.00829940   -0.00144743
     atom   29 type  1   force =    -0.01931103    0.00829938   -0.00144377
     atom   30 type  1   force =     0.00000120    0.00184156   -0.01551658
     atom   31 type  1   force =    -0.00000399   -0.00478754    0.00981718
     atom   32 type  1   force =     0.00262663    0.00050253   -0.01598549
     atom   33 type  1   force =    -0.00262221    0.00050464   -0.01598498
     atom   34 type  1   force =    -0.01765527   -0.00889551   -0.00101182
     atom   35 type  1   force =     0.00000154   -0.00217121   -0.01643718
     atom   36 type  1   force =     0.01764251   -0.00889479   -0.00101464
     atom   37 type  2   force =     0.00002662   -0.00182546    0.00608436
     atom   38 type  3   force =     0.00000000    0.00000000    0.00000000
     atom   39 type  2   force =     0.00003711    0.00370013    0.00374997
     The Hubbard contrib.    to forces
     atom    1 type  1   force =     0.00000000    0.00000000    0.00000000
     atom    2 type  1   force =     0.00000000    0.00000000    0.00000000
     atom    3 type  1   force =     0.00000000    0.00000000    0.00000000
     atom    4 type  1   force =     0.00000000    0.00000000    0.00000000
     atom    5 type  1   force =     0.00000000    0.00000000    0.00000000
     atom    6 type  1   force =     0.00000000    0.00000000    0.00000000
     atom    7 type  1   force =     0.00000000    0.00000000    0.00000000
     atom    8 type  1   force =     0.00000000    0.00000000    0.00000000
     atom    9 type  1   force =     0.00000000    0.00000000    0.00000000
     atom   10 type  1   force =     0.00000000    0.00000000    0.00000000
     atom   11 type  1   force =     0.00000000    0.00000000    0.00000000
     atom   12 type  1   force =     0.00000000    0.00000000    0.00000000
     atom   13 type  1   force =     0.00000000    0.00000000    0.00000000
     atom   14 type  1   force =     0.00000000    0.00000000    0.00000000
     atom   15 type  1   force =     0.00000000    0.00000000    0.00000000
     atom   16 type  1   force =     0.00000000    0.00000000    0.00000000
     atom   17 type  1   force =     0.00000000    0.00000000    0.00000000
     atom   18 type  1   force =     0.00000000    0.00000000    0.00000000
     atom   19 type  1   force =     0.00000000    0.00000000    0.00000000
     atom   20 type  1   force =     0.00000000    0.00000000    0.00000000
     atom   21 type  1   force =     0.00000000    0.00000000    0.00000000
     atom   22 type  1   force =     0.00000000    0.00000000    0.00000000
     atom   23 type  1   force =     0.00000000    0.00000000    0.00000000
     atom   24 type  1   force =     0.00000000    0.00000000    0.00000000
     atom   25 type  1   force =     0.00000000    0.00000000    0.00000000
     atom   26 type  1   force =     0.00000000    0.00000000    0.00000000
     atom   27 type  1   force =     0.00000000    0.00000000    0.00000000
     atom   28 type  1   force =     0.00000000    0.00000000    0.00000000
     atom   29 type  1   force =     0.00000000    0.00000000    0.00000000
     atom   30 type  1   force =     0.00000000    0.00000000    0.00000000
     atom   31 type  1   force =     0.00000000    0.00000000    0.00000000
     atom   32 type  1   force =     0.00000000    0.00000000    0.00000000
     atom   33 type  1   force =     0.00000000    0.00000000    0.00000000
     atom   34 type  1   force =     0.00000000    0.00000000    0.00000000
     atom   35 type  1   force =     0.00000000    0.00000000    0.00000000
     atom   36 type  1   force =     0.00000000    0.00000000    0.00000000
     atom   37 type  2   force =     0.00000000    0.00000000    0.00000000
     atom   38 type  3   force =     0.00000000    0.00000000    0.00000000
     atom   39 type  2   force =     0.00000000    0.00000000    0.00000000
     The SCF correction term to forces
     atom    1 type  1   force =     0.00000000   -0.00000000   -0.00000000
     atom    2 type  1   force =    -0.00000000   -0.00000000   -0.00000000
     atom    3 type  1   force =    -0.00000000   -0.00000000   -0.00000000
     atom    4 type  1   force =    -0.00000000    0.00000000   -0.00000000
     atom    5 type  1   force =     0.00000000    0.00000000   -0.00000000
     atom    6 type  1   force =    -0.00000000    0.00000000   -0.00000000
     atom    7 type  1   force =     0.00000000   -0.00000000   -0.00000000
     atom    8 type  1   force =     0.00000000   -0.00000000   -0.00000000
     atom    9 type  1   force =    -0.00000000   -0.00000000   -0.00000000
     atom   10 type  1   force =    -0.00000000   -0.00000000   -0.00000000
     atom   11 type  1   force =    -0.00000000   -0.00000000   -0.00000000
     atom   12 type  1   force =     0.00000000    0.00000000   -0.00000000
     atom   13 type  1   force =    -0.00000000    0.00000000   -0.00000000
     atom   14 type  1   force =     0.00000000    0.00000000   -0.00000000
     atom   15 type  1   force =    -0.00000000    0.00000000   -0.00000000
     atom   16 type  1   force =     0.00000000   -0.00000000   -0.00000000
     atom   17 type  1   force =    -0.00000000   -0.00000000   -0.00000000
     atom   18 type  1   force =    -0.00000000   -0.00000000   -0.00000000
     atom   19 type  1   force =     0.00000408    0.00002776   -0.00000519
     atom   20 type  1   force =    -0.00003614   -0.00000232   -0.00001621
     atom   21 type  1   force =     0.00002939    0.00009491    0.00002405
     atom   22 type  1   force =    -0.00003846    0.00000382   -0.00003124
     atom   23 type  1   force =     0.00008041   -0.00000250   -0.00001245
     atom   24 type  1   force =    -0.00004406   -0.00001210   -0.00002515
     atom   25 type  1   force =     0.00002132   -0.00002137   -0.00005371
     atom   26 type  1   force =     0.00001466   -0.00003160    0.00003314
     atom   27 type  1   force =    -0.00003682   -0.00006606   -0.00007215
     atom   28 type  1   force =     0.00036571    0.00011003    0.00017865
     atom   29 type  1   force =    -0.00037790    0.00007607    0.00018163
     atom   30 type  1   force =     0.00001610   -0.00008303   -0.00000104
     atom   31 type  1   force =    -0.00003163   -0.00006569    0.00035312
     atom   32 type  1   force =    -0.00006815    0.00009256   -0.00004551
     atom   33 type  1   force =     0.00010482    0.00009115   -0.00006198
     atom   34 type  1   force =    -0.00017017   -0.00012061    0.00018816
     atom   35 type  1   force =     0.00002198    0.00007681   -0.00003590
     atom   36 type  1   force =     0.00015515   -0.00014509    0.00016985
     atom   37 type  2   force =    -0.00000818   -0.00000359   -0.00012571
     atom   38 type  3   force =    -0.00000078   -0.00000546   -0.00004145
     atom   39 type  2   force =    -0.00000341   -0.00008769   -0.00005823

     Total force =     0.067048     Total SCF correction =     0.000875

     Writing all to output data dir ./pwscf.save/

     init_run     :     15.26s CPU     15.86s WALL (       1 calls)
     electrons    :    363.64s CPU    383.37s WALL (       1 calls)
     forces       :      7.92s CPU      8.76s WALL (       1 calls)

     Called by init_run:
     wfcinit      :     10.41s CPU     10.79s WALL (       1 calls)
     potinit      :      3.24s CPU      3.36s WALL (       1 calls)
     hinit0       :      1.01s CPU      1.03s WALL (       1 calls)

     Called by electrons:
     c_bands      :    300.51s CPU    315.24s WALL (      19 calls)
     sum_band     :     37.74s CPU     39.37s WALL (      19 calls)
     v_of_rho     :     12.64s CPU     14.77s WALL (      19 calls)
     newd         :      2.68s CPU      3.44s WALL (      19 calls)
     PAW_pot      :      8.65s CPU      8.83s WALL (      19 calls)
     mix_rho      :      3.57s CPU      3.73s WALL (      19 calls)
     vdW_kernel   :      1.73s CPU      1.77s WALL (       1 calls)

     Called by c_bands:
     init_us_2    :      2.80s CPU      3.12s WALL (     520 calls)
     init_us_2:cp :      2.80s CPU      3.12s WALL (     520 calls)
     cegterg      :    292.95s CPU    306.15s WALL (     247 calls)

     Called by *egterg:
     cdiaghg      :     84.09s CPU     86.82s WALL (    1289 calls)
     h_psi        :    138.84s CPU    146.29s WALL (    1315 calls)
     s_psi        :     15.37s CPU     15.71s WALL (    1315 calls)
     g_psi        :      0.44s CPU      0.46s WALL (    1055 calls)

     Called by h_psi:
     h_psi:calbec :     20.19s CPU     21.10s WALL (    1315 calls)
     vloc_psi     :    101.92s CPU    107.67s WALL (    1315 calls)
     add_vuspsi   :     15.62s CPU     16.37s WALL (    1315 calls)

     General routines
     calbec       :     32.57s CPU     33.94s WALL (    1614 calls)
     fft          :      8.28s CPU     10.46s WALL (    1257 calls)
     ffts         :      2.12s CPU      2.17s WALL (    4389 calls)
     fftw         :    105.23s CPU    110.52s WALL (  318036 calls)
     interpolate  :      0.62s CPU      0.66s WALL (      19 calls)

     Parallel routines

     PWSCF        :   6m28.70s CPU   6m52.67s WALL


   This run was terminated on:  15:53:41   6Dec2025            

=------------------------------------------------------------------------------=
   JOB DONE.
=------------------------------------------------------------------------------=
