
     Program PWSCF v.7.1 starts on 25Feb2025 at 10:30:26 
        Git branch: heads/qe-7.1
        Last git commit: 48ba0178f8fede6d020eb786884699a9f063f55d-dirty
        Last git commit date: Fri Jan 27 14:22:33 2023 +0000
        Last git commit subject: Merge branch 'fix_hubbard' into 'develop'

     This program is part of the open-source Quantum ESPRESSO suite
     for quantum simulation of materials; please cite
         "P. Giannozzi et al., J. Phys.:Condens. Matter 21 395502 (2009);
         "P. Giannozzi et al., J. Phys.:Condens. Matter 29 465901 (2017);
         "P. Giannozzi et al., J. Chem. Phys. 152 154105 (2020);
          URL http://www.quantum-espresso.org", 
     in publications or presentations arising from this work. More details at
     http://www.quantum-espresso.org/quote

     Parallel version (MPI), running on    48 processors

     MPI processes distributed on     1 nodes
     108805 MiB available memory on the printing compute node when the environment starts

     Reading input from espresso.pwi
Warning: card &CELL ignored
Warning: card / ignored
Warning: card &FCP ignored
Warning: card / ignored
Warning: card &RISM ignored
Warning: card / ignored

     Current dimensions of program PWSCF are:
     Max number of different atomic species (ntypx) = 10
     Max number of k-points (npk) =  40000
     Max angular momentum in pseudopotentials (lmaxx) =  4
     file Pt.pbe-n-kjpaw_psl.1.0.0.UPF: wavefunction(s)  6S 5D renormalized
     file H.pbe-kjpaw_psl.1.0.0.UPF: wavefunction(s)  1S renormalized

     **************************************************************************
     Initializing libbeef V0.1.2 with the BEEF-vdW functional.
     Citation: Wellendorff et al., PRB 85, 235149 (2012).
     **************************************************************************


     IMPORTANT: XC functional enforced from input :
     Exchange-correlation= BEEF-VDW
                           (   1   4  43  14   2   0   0)
     Any further DFT definition will be discarded
     Please, verify this is what you really want


     R & G space division:  proc/nbgrp/npool/nimage =      48
     Subspace diagonalization in iterative solution of the eigenvalue problem:
     one sub-group per band group will be used
     custom distributed-memory algorithm (size of sub-group:  2*  2 procs)


     Parallelization info
     --------------------
     sticks:   dense  smooth     PW     G-vecs:    dense   smooth      PW
     Min         151      59     16                29407     7165    1028
     Max         152      60     17                29420     7176    1042
     Sum        7267    2839    769              1411785   344073   49691

     Using Slab Decomposition



     bravais-lattice index     =            0
     lattice parameter (alat)  =      16.0349  a.u.
     unit-cell volume          =   10068.6169 (a.u.)^3
     number of atoms/cell      =           37
     number of atomic types    =            2
     number of electrons       =       361.00
     number of Kohn-Sham states=          217
     kinetic-energy cutoff     =      40.0000  Ry
     charge density cutoff     =     410.0000  Ry
     scf convergence threshold =      1.0E-08
     mixing beta               =       0.7000
     number of iterations used =            8  local-TF  mixing
     Exchange-correlation= BEEF-VDW
                           (   1   4  43  14   2   0   0)

     celldm(1)=  16.034858  celldm(2)=   0.000000  celldm(3)=   0.000000
     celldm(4)=   0.000000  celldm(5)=   0.000000  celldm(6)=   0.000000

     crystal axes: (cart. coord. in units of alat)
               a(1) = (   1.000000   0.000000   0.000000 )  
               a(2) = (   0.500000   0.866025   0.000000 )  
               a(3) = (   0.000000   0.000000   2.819966 )  

     reciprocal axes: (cart. coord. in units 2 pi/alat)
               b(1) = (  1.000000 -0.577350  0.000000 )  
               b(2) = (  0.000000  1.154701  0.000000 )  
               b(3) = (  0.000000  0.000000  0.354614 )  


     PseudoPot. # 1 for Pt read from file:
     /users/kbadger1/espresso/pseudo/pslibrary.1.0.0/pbe/PSEUDOPOTENTIALS/Pt.pbe-n-kjpaw_psl.1.0.0.UPF
     MD5 check sum: 2e24a0b5bf98a4ed1a57fa81bca8c143
     Pseudo is Projector augmented-wave + core cor, Zval = 10.0
     Generated using 'atomic' code by A. Dal Corso  v.7.0
     Shape of augmentation charge: PSQ
     Using radial grid of 1277 points,  6 beta functions with: 
                l(1) =   0
                l(2) =   0
                l(3) =   1
                l(4) =   1
                l(5) =   2
                l(6) =   2
     Q(r) pseudized with 0 coefficients 


     PseudoPot. # 2 for H  read from file:
     /users/kbadger1/espresso/pseudo/pslibrary.1.0.0/pbe/PSEUDOPOTENTIALS/H.pbe-kjpaw_psl.1.0.0.UPF
     MD5 check sum: fe4c6fa958fa6d3815bf5d2419cbf1df
     Pseudo is Projector augmented-wave, Zval =  1.0
     Generated using 'atomic' code by A. Dal Corso  v.7.0
     Shape of augmentation charge: PSQ
     Using radial grid of  929 points,  2 beta functions with: 
                l(1) =   0
                l(2) =   0
     Q(r) pseudized with 0 coefficients 


     atomic species   valence    mass     pseudopotential
        Pt            10.00   195.08400     Pt( 1.00)
        H              1.00     1.00800     H ( 1.00)

     No symmetry found



   Cartesian axes

     site n.     atom                  positions (alat units)
         1           Pt  tau(   1) = (   0.0000000   0.0000000   1.0017346  )
         2           Pt  tau(   2) = (   0.3333333   0.0000000   1.0017346  )
         3           Pt  tau(   3) = (   0.6666667   0.0000000   1.0017346  )
         4           Pt  tau(   4) = (   0.1666667   0.2886751   1.0017346  )
         5           Pt  tau(   5) = (   0.5000000   0.2886751   1.0017346  )
         6           Pt  tau(   6) = (   0.8333333   0.2886751   1.0017346  )
         7           Pt  tau(   7) = (   0.3333333   0.5773503   1.0017346  )
         8           Pt  tau(   8) = (   0.6666667   0.5773503   1.0017346  )
         9           Pt  tau(   9) = (   1.0000000   0.5773503   1.0017346  )
        10           Pt  tau(  10) = (   0.1666667   0.0962250   1.2739001  )
        11           Pt  tau(  11) = (   0.5000000   0.0962250   1.2739001  )
        12           Pt  tau(  12) = (   0.8333333   0.0962250   1.2739001  )
        13           Pt  tau(  13) = (   0.3333333   0.3849002   1.2739001  )
        14           Pt  tau(  14) = (   0.6666667   0.3849002   1.2739001  )
        15           Pt  tau(  15) = (   1.0000000   0.3849002   1.2739001  )
        16           Pt  tau(  16) = (   0.5000000   0.6735753   1.2739001  )
        17           Pt  tau(  17) = (   0.8333333   0.6735753   1.2739001  )
        18           Pt  tau(  18) = (   1.1666667   0.6735753   1.2739001  )
        19           Pt  tau(  19) = (   0.0046877   0.1920675   1.5463186  )
        20           Pt  tau(  20) = (   0.3363067   0.1908527   1.5441955  )
        21           Pt  tau(  21) = (   0.6705775   0.1911624   1.5429028  )
        22           Pt  tau(  22) = (   0.1694475   0.4773402   1.5464455  )
        23           Pt  tau(  23) = (   0.5024922   0.4796291   1.5432870  )
        24           Pt  tau(  24) = (   0.8362210   0.4795733   1.5438729  )
        25           Pt  tau(  25) = (   0.3362879   0.7681793   1.5430142  )
        26           Pt  tau(  26) = (   0.6693141   0.7685736   1.5432866  )
        27           Pt  tau(  27) = (   1.0031729   0.7672104   1.5429105  )
        28           Pt  tau(  28) = (   0.0058243  -0.0038098   1.8178324  )
        29           Pt  tau(  29) = (   0.3410893  -0.0055611   1.8170458  )
        30           Pt  tau(  30) = (   0.6729831  -0.0033844   1.8177619  )
        31           Pt  tau(  31) = (   0.1761746   0.2833434   1.8316811  )
        32           Pt  tau(  32) = (   0.5088758   0.2851587   1.8170302  )
        33           Pt  tau(  33) = (   0.8403485   0.2849181   1.8186020  )
        34           Pt  tau(  34) = (   0.3397588   0.5745230   1.8178790  )
        35           Pt  tau(  35) = (   0.6726680   0.5741455   1.8176070  )
        36           Pt  tau(  36) = (   1.0069866   0.5735275   1.8186253  )
        37           H   tau(  37) = (   0.2120933   0.2609243   2.0108526  )

     number of k points=    13  Marzari-Vanderbilt smearing, width (Ry)=  0.0200
                       cart. coord. in units 2pi/alat
        k(    1) = (   0.0000000   0.0000000   0.0000000), wk =   0.0800000
        k(    2) = (   0.0000000   0.2309401   0.0000000), wk =   0.1600000
        k(    3) = (   0.0000000   0.4618802   0.0000000), wk =   0.1600000
        k(    4) = (   0.2000000  -0.1154701   0.0000000), wk =   0.1600000
        k(    5) = (   0.2000000   0.1154701   0.0000000), wk =   0.1600000
        k(    6) = (   0.2000000   0.3464102   0.0000000), wk =   0.1600000
        k(    7) = (   0.2000000  -0.5773503   0.0000000), wk =   0.1600000
        k(    8) = (   0.2000000  -0.3464102   0.0000000), wk =   0.1600000
        k(    9) = (   0.4000000  -0.2309401   0.0000000), wk =   0.1600000
        k(   10) = (   0.4000000  -0.0000000   0.0000000), wk =   0.1600000
        k(   11) = (   0.4000000   0.2309401   0.0000000), wk =   0.1600000
        k(   12) = (   0.4000000  -0.6928203   0.0000000), wk =   0.1600000
        k(   13) = (   0.4000000  -0.4618802   0.0000000), wk =   0.1600000

     Dense  grid:  1411785 G-vectors     FFT dimensions: ( 108, 108, 300)

     Smooth grid:   344073 G-vectors     FFT dimensions: (  72,  72, 192)

     Estimated max dynamical RAM per process >     203.68 MB

     Estimated total dynamical RAM >       9.55 GB

     Initial potential from superposition of free atoms

     starting charge     360.9939, renormalised to     361.0000

     negative rho (up, down):  3.372E-03 0.000E+00


     %%%%%%%%%%%%%%%%%%%%%%%%%%%%%%%%%%%%%%%%%%%%%%%%%%%%%%%%%%%%%%%%%%%%%%%%
     %                                                                      %
     % You are using vdW-DF, which was implemented by the Thonhauser group. %
     % Please cite the following two papers that made this development      %
     % possible and the two reviews that describe the various versions:     %
     %                                                                      %
     %   T. Thonhauser et al., PRL 115, 136402 (2015).                      %
     %   T. Thonhauser et al., PRB 76, 125112 (2007).                       %
     %   K. Berland et al., Rep. Prog. Phys. 78, 066501 (2015).             %
     %   D.C. Langreth et al., J. Phys.: Condens. Matter 21, 084203 (2009). %
     %                                                                      %
     % If you are calculating stress with vdW-DF, please also cite:         %
     %                                                                      %
     %   R. Sabatini et al., J. Phys.: Condens. Matter 24, 424209 (2012).   %
     %                                                                      %
     %%%%%%%%%%%%%%%%%%%%%%%%%%%%%%%%%%%%%%%%%%%%%%%%%%%%%%%%%%%%%%%%%%%%%%%%

     %%%%%%%%%%%%%%%%%%%%%%%%%%%%%%%%%%%%%%%%%%%%%%%%%%%%%%%%%%%%%%%%%%%%%%%%
     %                                                                      %
     %  vdW-DF NEWS:                                                        %
     %                                                                      %
     %  * vdW-DF3 is now available. DOI: 10.1021/acs.jctc.0c00471           %
     %    use with input_dft = 'vdW-DF3-opt1' or 'vdW-DF3-opt2'             %
     %                                                                      %
     %  * Unscreened and range-separated hybrid vdW-DF-cx functionals       %
     %    DOI: 10.1063/1.4986522 and 10.1088/1361-648X/ac2ad2               %
     %    use with input_dft = 'vdW-DF-cx0'    and 'vdW-DF-ahcx'            %
     %  * Unscreened and range-separated hybrid vdW-DF2-b86r functionals    %
     %    DOI: 10.1063/1.4986522 and DOI: 10.1103/PhysRevX.12.041003        %
     %    use with input_dft = 'vdW-DF2-br0' and 'vdW-DF2-ahbr'             %
     %                                                                      %
     %%%%%%%%%%%%%%%%%%%%%%%%%%%%%%%%%%%%%%%%%%%%%%%%%%%%%%%%%%%%%%%%%%%%%%%%


     Starting wfcs are  325 randomized atomic wfcs
     Checking if some PAW data can be deallocated... 

     total cpu time spent up to now is       13.4 secs

     per-process dynamical memory:   207.7 Mb

     Self-consistent Calculation

     iteration #  1     ecut=    40.00 Ry     beta= 0.70
     Davidson diagonalization with overlap
     ethr =  1.00E-02,  avg # of iterations =  2.0

     Threshold (ethr) on eigenvalues was too large:
     Diagonalizing with lowered threshold

     Davidson diagonalization with overlap
     ethr =  3.95E-04,  avg # of iterations =  4.2

     negative rho (up, down):  1.704E-02 0.000E+00

     total cpu time spent up to now is       53.3 secs

     total energy              =  -27755.27560659 Ry
     estimated scf accuracy    <       1.62296269 Ry

     iteration #  2     ecut=    40.00 Ry     beta= 0.70
     Davidson diagonalization with overlap
     ethr =  4.50E-04,  avg # of iterations =  2.0

     negative rho (up, down):  1.505E-02 0.000E+00

     total cpu time spent up to now is       74.3 secs

     total energy              =  -27755.37889737 Ry
     estimated scf accuracy    <       0.84421677 Ry

     iteration #  3     ecut=    40.00 Ry     beta= 0.70
     Davidson diagonalization with overlap
     ethr =  2.34E-04,  avg # of iterations =  2.0

     negative rho (up, down):  9.550E-03 0.000E+00

     total cpu time spent up to now is       95.9 secs

     total energy              =  -27755.43317786 Ry
     estimated scf accuracy    <       0.10197590 Ry

     iteration #  4     ecut=    40.00 Ry     beta= 0.70
     Davidson diagonalization with overlap
     c_bands:  1 eigenvalues not converged
     c_bands:  1 eigenvalues not converged
     c_bands:  1 eigenvalues not converged
     ethr =  2.82E-05,  avg # of iterations = 12.2

     negative rho (up, down):  6.917E-03 0.000E+00

     total cpu time spent up to now is      136.0 secs

     total energy              =  -27755.48472391 Ry
     estimated scf accuracy    <       0.08965891 Ry

     iteration #  5     ecut=    40.00 Ry     beta= 0.70
     Davidson diagonalization with overlap
     ethr =  2.48E-05,  avg # of iterations =  1.2

     negative rho (up, down):  3.107E-03 0.000E+00

     total cpu time spent up to now is      157.0 secs

     total energy              =  -27755.48491123 Ry
     estimated scf accuracy    <       0.03089830 Ry

     iteration #  6     ecut=    40.00 Ry     beta= 0.70
     Davidson diagonalization with overlap
     c_bands:  1 eigenvalues not converged
     c_bands:  1 eigenvalues not converged
     c_bands:  1 eigenvalues not converged
     ethr =  8.56E-06,  avg # of iterations = 11.4

     negative rho (up, down):  1.335E-03 0.000E+00

     total cpu time spent up to now is      183.1 secs

     total energy              =  -27755.48699662 Ry
     estimated scf accuracy    <       0.00265425 Ry

     iteration #  7     ecut=    40.00 Ry     beta= 0.70
     Davidson diagonalization with overlap
     c_bands:  2 eigenvalues not converged
     c_bands:  1 eigenvalues not converged
     ethr =  7.35E-07,  avg # of iterations = 11.7

     negative rho (up, down):  9.991E-04 0.000E+00

     total cpu time spent up to now is      220.7 secs

     total energy              =  -27755.48766619 Ry
     estimated scf accuracy    <       0.00215869 Ry

     iteration #  8     ecut=    40.00 Ry     beta= 0.70
     Davidson diagonalization with overlap
     ethr =  5.98E-07,  avg # of iterations =  2.2

     negative rho (up, down):  8.652E-04 0.000E+00

     total cpu time spent up to now is      241.5 secs

     total energy              =  -27755.48780144 Ry
     estimated scf accuracy    <       0.00025365 Ry

     iteration #  9     ecut=    40.00 Ry     beta= 0.70
     Davidson diagonalization with overlap
     ethr =  7.03E-08,  avg # of iterations =  4.7

     negative rho (up, down):  7.054E-04 0.000E+00

     total cpu time spent up to now is      275.7 secs

     total energy              =  -27755.48792058 Ry
     estimated scf accuracy    <       0.00010979 Ry

     iteration # 10     ecut=    40.00 Ry     beta= 0.70
     Davidson diagonalization with overlap
     c_bands:  1 eigenvalues not converged
     ethr =  3.04E-08,  avg # of iterations =  4.2

     negative rho (up, down):  7.049E-04 0.000E+00

     total cpu time spent up to now is      303.9 secs

     total energy              =  -27755.48793936 Ry
     estimated scf accuracy    <       0.00011572 Ry

     iteration # 11     ecut=    40.00 Ry     beta= 0.70
     Davidson diagonalization with overlap
     ethr =  3.04E-08,  avg # of iterations =  1.2

     negative rho (up, down):  7.951E-04 0.000E+00

     total cpu time spent up to now is      315.4 secs

     total energy              =  -27755.48794560 Ry
     estimated scf accuracy    <       0.00007224 Ry

     iteration # 12     ecut=    40.00 Ry     beta= 0.70
     Davidson diagonalization with overlap
     ethr =  2.00E-08,  avg # of iterations =  1.3

     negative rho (up, down):  1.025E-03 0.000E+00

     total cpu time spent up to now is      335.1 secs

     total energy              =  -27755.48795518 Ry
     estimated scf accuracy    <       0.00002792 Ry

     iteration # 13     ecut=    40.00 Ry     beta= 0.70
     Davidson diagonalization with overlap
     ethr =  7.73E-09,  avg # of iterations =  2.0

     negative rho (up, down):  1.572E-03 0.000E+00

     total cpu time spent up to now is      348.5 secs

     total energy              =  -27755.48796485 Ry
     estimated scf accuracy    <       0.00001532 Ry

     iteration # 14     ecut=    40.00 Ry     beta= 0.70
     Davidson diagonalization with overlap
     ethr =  4.24E-09,  avg # of iterations =  2.0

     negative rho (up, down):  1.933E-03 0.000E+00

     total cpu time spent up to now is      370.1 secs

     total energy              =  -27755.48797101 Ry
     estimated scf accuracy    <       0.00000739 Ry

     iteration # 15     ecut=    40.00 Ry     beta= 0.70
     Davidson diagonalization with overlap
     ethr =  2.05E-09,  avg # of iterations =  2.0

     negative rho (up, down):  2.680E-03 0.000E+00

     total cpu time spent up to now is      383.3 secs

     total energy              =  -27755.48796904 Ry
     estimated scf accuracy    <       0.00000608 Ry

     iteration # 16     ecut=    40.00 Ry     beta= 0.70
     Davidson diagonalization with overlap
     ethr =  1.68E-09,  avg # of iterations =  1.5

     negative rho (up, down):  2.878E-03 0.000E+00

     total cpu time spent up to now is      403.5 secs

     total energy              =  -27755.48796876 Ry
     estimated scf accuracy    <       0.00000095 Ry

     iteration # 17     ecut=    40.00 Ry     beta= 0.70
     Davidson diagonalization with overlap
     ethr =  2.63E-10,  avg # of iterations =  5.1

     negative rho (up, down):  3.018E-03 0.000E+00

     total cpu time spent up to now is      438.5 secs

     total energy              =  -27755.48796854 Ry
     estimated scf accuracy    <       0.00000062 Ry

     iteration # 18     ecut=    40.00 Ry     beta= 0.70
     Davidson diagonalization with overlap
     ethr =  1.73E-10,  avg # of iterations =  2.0

     negative rho (up, down):  3.074E-03 0.000E+00

     total cpu time spent up to now is      459.5 secs

     total energy              =  -27755.48796829 Ry
     estimated scf accuracy    <       0.00000029 Ry

     iteration # 19     ecut=    40.00 Ry     beta= 0.70
     Davidson diagonalization with overlap
     ethr =  8.17E-11,  avg # of iterations =  2.0

     negative rho (up, down):  3.156E-03 0.000E+00

     total cpu time spent up to now is      473.0 secs

     total energy              =  -27755.48796784 Ry
     estimated scf accuracy    <       0.00000011 Ry

     iteration # 20     ecut=    40.00 Ry     beta= 0.70
     Davidson diagonalization with overlap
     ethr =  2.94E-11,  avg # of iterations =  2.6

     negative rho (up, down):  3.186E-03 0.000E+00

     total cpu time spent up to now is      497.9 secs

     total energy              =  -27755.48796769 Ry
     estimated scf accuracy    <       0.00000002 Ry

     iteration # 21     ecut=    40.00 Ry     beta= 0.70
     Davidson diagonalization with overlap
     ethr =  5.36E-12,  avg # of iterations =  5.4

     negative rho (up, down):  3.187E-03 0.000E+00

     total cpu time spent up to now is      530.6 secs

     total energy              =  -27755.48796770 Ry
     estimated scf accuracy    <       0.00000001 Ry

     iteration # 22     ecut=    40.00 Ry     beta= 0.70
     Davidson diagonalization with overlap
     ethr =  3.29E-12,  avg # of iterations =  1.3

     negative rho (up, down):  3.189E-03 0.000E+00

     total cpu time spent up to now is      551.2 secs

     End of self-consistent calculation

          k = 0.0000 0.0000 0.0000 ( 42913 PWs)   bands (ev):

    -6.2761  -5.0030  -3.9348  -3.8821  -3.8620  -3.8577  -3.8503  -3.8444
    -3.8397  -3.8308  -3.3987  -3.3040  -3.3010  -3.2976  -3.2922  -3.2912
    -2.9814  -2.8335  -2.8319  -2.8252  -2.8242  -2.8225  -2.7598  -2.6143
    -2.6120  -2.6103  -2.6077  -2.6074  -2.4322  -2.3909  -2.3870  -2.3829
    -2.3808  -2.3783  -2.3745  -2.3655  -2.3569  -2.3529  -2.3521  -2.3107
    -2.1903  -1.7767  -1.7708  -1.7394  -1.7383  -1.7038  -1.7029  -1.6886
    -1.6866  -1.6830  -1.6343  -1.5374  -1.5201  -1.4480  -1.3205  -0.9843
    -0.9647  -0.9595  -0.9513  -0.9440  -0.9386  -0.8901  -0.7797  -0.7730
    -0.7706  -0.7687  -0.7529  -0.7447  -0.7241  -0.7212  -0.7208  -0.7028
    -0.6975  -0.6951  -0.6678  -0.6587  -0.6315  -0.5564  -0.5482  -0.5477
    -0.5342  -0.5277  -0.3934  -0.3504  -0.3467  -0.3359  -0.3226  -0.3065
    -0.3058  -0.2860  -0.2857  -0.2079  -0.2007  -0.1485  -0.1428  -0.1132
    -0.1129  -0.0767  -0.0761  -0.0679  -0.0561   0.0588   0.0729   0.0751
     0.0969   0.1145   0.1171   0.4342   0.5563   0.5823   0.5924   0.5970
     0.5991   0.6020   0.6023   0.6553   0.6567   0.6624   0.6677   0.6907
     0.7370   0.7395   0.8680   0.8977   0.8986   0.9109   0.9118   0.9873
     1.0103   1.0314   1.0431   1.0691   1.0743   1.1081   1.2972   1.2977
     1.3283   1.3321   1.3334   1.3479   1.3901   1.4070   1.5690   1.5727
     1.5780   1.5847   1.5957   1.6438   1.7358   1.7475   1.7538   1.7622
     1.7631   1.7814   1.7828   1.7925   1.7944   1.8004   1.8008   1.8868
     1.9057   1.9060   1.9262   1.9301   1.9372   1.9555   1.9643   2.0166
     2.0178   2.0359   2.0413   2.0555   2.0606   2.0656   2.0673   2.1319
     2.1425   2.1440   2.1575   2.1607   2.1616   2.1759   2.2374   2.2558
     2.2607   2.2688   2.2786   2.2923   2.4467   2.4953   2.5567   2.5685
     2.5864   2.5944   2.5950   2.6009   2.9268   3.4212   3.4656   3.4766
     3.4810   3.4886   3.4947   5.0199   5.7600   5.7695   5.7957   5.8141
     5.8232   6.9668   7.3645   7.3725   7.3945   7.3969   7.4312   7.4317
     7.5581

          k = 0.0000 0.2309 0.0000 ( 42996 PWs)   bands (ev):

    -6.1293  -4.8596  -4.3738  -3.9820  -3.9581  -3.7774  -3.7180  -3.6708
    -3.6296  -3.6071  -3.4654  -3.3884  -3.2917  -3.2339  -3.2321  -3.2198
    -2.9766  -2.8763  -2.8029  -2.7914  -2.7827  -2.7463  -2.7079  -2.6920
    -2.6498  -2.6331  -2.6176  -2.5792  -2.5561  -2.5144  -2.4814  -2.4209
    -2.4078  -2.3734  -2.3636  -2.2681  -2.1839  -2.1762  -2.1597  -2.1504
    -2.0991  -1.8943  -1.8779  -1.8427  -1.8159  -1.7954  -1.7729  -1.7287
    -1.5919  -1.5795  -1.5289  -1.5029  -1.4731  -1.4476  -1.3791  -1.2055
    -1.1386  -1.1145  -1.0607  -1.0546  -1.0305  -0.9709  -0.9624  -0.9341
    -0.9213  -0.9073  -0.8797  -0.8457  -0.8020  -0.7748  -0.7585  -0.7287
    -0.6933  -0.6666  -0.6595  -0.5841  -0.5754  -0.5584  -0.5048  -0.4789
    -0.4643  -0.4553  -0.4327  -0.3749  -0.3651  -0.3619  -0.3471  -0.3265
    -0.3013  -0.2834  -0.2465  -0.2273  -0.1917  -0.1739  -0.1632  -0.1474
    -0.1270  -0.1030  -0.0856  -0.0763   0.0273   0.0643   0.0814   0.0899
     0.0925   0.1122   0.1183   0.1338   0.1779   0.1839   0.2003   0.2127
     0.3416   0.4643   0.5182   0.5524   0.5883   0.6038   0.6169   0.6298
     0.6491   0.6682   0.7972   0.8084   0.8261   0.9230   0.9466   0.9674
     1.0134   1.0239   1.0610   1.0698   1.0898   1.1127   1.1783   1.1956
     1.2042   1.2132   1.2324   1.3836   1.4076   1.4372   1.4498   1.4610
     1.4817   1.5128   1.5609   1.5898   1.6023   1.6173   1.6497   1.6862
     1.6983   1.7017   1.7333   1.8124   1.8200   1.8483   1.8893   1.9418
     1.9696   1.9721   1.9859   2.0037   2.0109   2.0493   2.1037   2.1300
     2.1343   2.1847   2.1935   2.2006   2.2371   2.2451   2.2477   2.2539
     2.2569   2.3063   2.3173   2.4422   2.4616   2.4882   2.5063   2.5102
     2.5294   2.5527   2.5816   2.5974   2.6097   2.6767   2.7099   2.7240
     2.7334   2.8879   2.8969   2.9077   2.9385   3.2381   3.3536   3.7683
     4.0650   4.0787   4.2054   4.8405   5.3056   5.5142   6.0202   6.2244
     6.2299   6.3563   6.5546   6.9405   7.1906   7.2330   7.5486   7.5824
     7.5989

          k = 0.0000 0.4619 0.0000 ( 43046 PWs)   bands (ev):

    -5.7069  -5.0732  -4.4579  -4.0182  -3.9935  -3.9037  -3.6426  -3.4782
    -3.3893  -3.3414  -3.3040  -3.2684  -3.1985  -3.1092  -3.0670  -3.0556
    -3.0446  -2.9517  -2.9082  -2.8815  -2.8591  -2.8353  -2.8093  -2.7817
    -2.7208  -2.6998  -2.6958  -2.5820  -2.4346  -2.4295  -2.4222  -2.4149
    -2.4044  -2.3539  -2.1880  -2.1669  -2.1508  -2.1451  -2.1252  -2.0565
    -1.9368  -1.8563  -1.8412  -1.8330  -1.8103  -1.7751  -1.7601  -1.6995
    -1.6962  -1.6648  -1.6322  -1.5965  -1.4841  -1.4757  -1.4422  -1.4362
    -1.3312  -1.2840  -1.2637  -1.2543  -1.1977  -1.1123  -1.0577  -1.0436
    -1.0343  -1.0208  -0.9525  -0.9274  -0.9185  -0.8288  -0.8112  -0.7890
    -0.7809  -0.6844  -0.6607  -0.6546  -0.6428  -0.6275  -0.5911  -0.5611
    -0.5478  -0.5346  -0.5272  -0.5247  -0.5221  -0.4985  -0.4654  -0.3948
    -0.3808  -0.3651  -0.3548  -0.3417  -0.3244  -0.2473  -0.2084  -0.1777
    -0.1577  -0.1234  -0.1005  -0.0784  -0.0716  -0.0677   0.0142   0.0785
     0.1021   0.1304   0.1523   0.1912   0.2082   0.3292   0.3419   0.3706
     0.4300   0.4825   0.5108   0.5148   0.5388   0.5504   0.5666   0.5921
     0.6390   0.6481   0.6563   0.6823   0.6853   0.7026   0.7156   0.7358
     0.7689   0.8544   0.8872   0.9007   0.9263   0.9846   1.0609   1.0878
     1.1049   1.2061   1.2138   1.2999   1.3553   1.3697   1.4060   1.4248
     1.4295   1.4645   1.4848   1.5369   1.5509   1.5821   1.6127   1.6350
     1.7019   1.7259   1.7409   1.7513   1.7680   1.7888   1.8705   1.9404
     1.9810   2.0166   2.0320   2.0448   2.0496   2.1347   2.1576   2.1622
     2.2379   2.2408   2.2521   2.3081   2.3158   2.3383   2.3584   2.4291
     2.4683   2.4886   2.4949   2.5074   2.5184   2.5381   2.5416   2.7096
     2.7192   2.7485   2.7542   2.7768   2.9324   2.9712   3.1470   3.3617
     3.4122   3.5422   3.7947   3.8013   4.1226   4.1908   4.2185   4.5372
     4.7272   5.0107   5.0166   5.0559   5.2153   5.2769   5.3433   5.4106
     5.6565   5.6727   6.0484   6.3131   6.6267   6.8392   7.0119   7.3225
     7.5361

          k = 0.2000-0.1155 0.0000 ( 42996 PWs)   bands (ev):

    -6.1290  -4.8592  -4.3646  -3.9863  -3.9654  -3.7770  -3.7168  -3.6625
    -3.6272  -3.6172  -3.4661  -3.3915  -3.2920  -3.2286  -3.2273  -3.2189
    -2.9562  -2.9079  -2.8001  -2.7918  -2.7754  -2.7548  -2.7117  -2.6949
    -2.6511  -2.6276  -2.6131  -2.5783  -2.5461  -2.5222  -2.4805  -2.4057
    -2.4047  -2.3736  -2.3714  -2.2502  -2.1794  -2.1764  -2.1624  -2.1573
    -2.1186  -1.8977  -1.8822  -1.8642  -1.8113  -1.7962  -1.7793  -1.7271
    -1.5977  -1.5828  -1.5134  -1.5024  -1.4760  -1.4467  -1.3729  -1.2294
    -1.1349  -1.1199  -1.0852  -1.0814  -1.0288  -0.9784  -0.9410  -0.9336
    -0.9040  -0.9021  -0.8869  -0.8418  -0.7924  -0.7730  -0.7588  -0.7324
    -0.6656  -0.6390  -0.6350  -0.5897  -0.5759  -0.5542  -0.5090  -0.5076
    -0.4961  -0.4405  -0.4383  -0.3748  -0.3578  -0.3485  -0.3469  -0.3321
    -0.3071  -0.2919  -0.2369  -0.2082  -0.1954  -0.1876  -0.1592  -0.1463
    -0.1353  -0.0933  -0.0928  -0.0792   0.0208   0.0748   0.0785   0.0967
     0.1064   0.1085   0.1262   0.1295   0.1741   0.1790   0.2068   0.2150
     0.2793   0.4945   0.4966   0.5508   0.5952   0.5993   0.6264   0.6311
     0.6554   0.6834   0.8161   0.8168   0.8214   0.9327   0.9518   0.9563
     1.0278   1.0298   1.0634   1.0733   1.1006   1.1291   1.1774   1.1908
     1.2070   1.2164   1.2196   1.3889   1.4208   1.4371   1.4478   1.4581
     1.4848   1.5069   1.5619   1.5866   1.5905   1.6180   1.6314   1.6867
     1.6895   1.7067   1.7343   1.8097   1.8162   1.8386   1.8895   1.9522
     1.9742   1.9745   1.9900   2.0070   2.0269   2.0473   2.1088   2.1289
     2.1406   2.1856   2.1945   2.2006   2.2355   2.2443   2.2451   2.2545
     2.2602   2.3163   2.3346   2.4463   2.4664   2.4897   2.4959   2.5057
     2.5136   2.5375   2.5550   2.5752   2.6059   2.6684   2.7099   2.7311
     2.7447   2.8758   2.8964   2.9043   2.9521   3.2167   3.3313   3.7772
     4.0739   4.0857   4.2059   4.8592   5.2984   5.4953   6.0126   6.2277
     6.2311   6.3526   6.5682   6.9484   7.1967   7.2399   7.5599   7.5761
     7.5892

          k = 0.2000 0.1155 0.0000 ( 42996 PWs)   bands (ev):

    -6.1293  -4.8596  -4.3743  -3.9815  -3.9579  -3.7775  -3.7181  -3.6718
    -3.6287  -3.6070  -3.4657  -3.3882  -3.2914  -3.2339  -3.2323  -3.2200
    -2.9758  -2.8781  -2.8029  -2.7915  -2.7830  -2.7455  -2.7075  -2.6921
    -2.6496  -2.6330  -2.6184  -2.5797  -2.5549  -2.5139  -2.4818  -2.4214
    -2.4076  -2.3731  -2.3635  -2.2675  -2.1838  -2.1760  -2.1599  -2.1499
    -2.0999  -1.8940  -1.8776  -1.8449  -1.8156  -1.7962  -1.7730  -1.7280
    -1.5918  -1.5785  -1.5285  -1.5029  -1.4734  -1.4477  -1.3788  -1.2055
    -1.1385  -1.1138  -1.0607  -1.0537  -1.0298  -0.9717  -0.9628  -0.9341
    -0.9210  -0.9074  -0.8807  -0.8457  -0.8014  -0.7737  -0.7578  -0.7289
    -0.6948  -0.6669  -0.6606  -0.5840  -0.5748  -0.5579  -0.5048  -0.4778
    -0.4641  -0.4557  -0.4329  -0.3742  -0.3651  -0.3618  -0.3464  -0.3265
    -0.3012  -0.2841  -0.2464  -0.2279  -0.1917  -0.1738  -0.1633  -0.1470
    -0.1279  -0.1031  -0.0865  -0.0765   0.0272   0.0638   0.0812   0.0895
     0.0927   0.1120   0.1181   0.1339   0.1776   0.1843   0.1998   0.2125
     0.3403   0.4665   0.5192   0.5525   0.5879   0.6037   0.6163   0.6295
     0.6490   0.6682   0.7969   0.8083   0.8264   0.9226   0.9465   0.9679
     1.0134   1.0236   1.0615   1.0693   1.0895   1.1136   1.1784   1.1951
     1.2042   1.2136   1.2326   1.3836   1.4069   1.4372   1.4497   1.4612
     1.4817   1.5129   1.5611   1.5897   1.6024   1.6173   1.6496   1.6859
     1.6986   1.7017   1.7332   1.8125   1.8202   1.8485   1.8890   1.9416
     1.9692   1.9718   1.9860   2.0038   2.0110   2.0492   2.1036   2.1302
     2.1344   2.1847   2.1935   2.2006   2.2374   2.2449   2.2476   2.2540
     2.2571   2.3060   2.3168   2.4420   2.4611   2.4885   2.5067   2.5104
     2.5296   2.5532   2.5820   2.5976   2.6099   2.6758   2.7100   2.7242
     2.7340   2.8880   2.8971   2.9079   2.9381   3.2381   3.3543   3.7686
     4.0648   4.0783   4.2052   4.8397   5.3065   5.5149   6.0201   6.2243
     6.2299   6.3564   6.5537   6.9404   7.1904   7.2324   7.5486   7.5822
     7.5992

          k = 0.2000 0.3464 0.0000 ( 43046 PWs)   bands (ev):

    -5.8443  -4.6330  -4.6136  -4.5783  -3.6371  -3.5400  -3.5374  -3.5218
    -3.4896  -3.4622  -3.4580  -3.4454  -3.3478  -3.3441  -3.0720  -2.9716
    -2.9641  -2.9437  -2.8929  -2.8796  -2.7643  -2.7154  -2.7047  -2.7012
    -2.6917  -2.6338  -2.5626  -2.5496  -2.5407  -2.5334  -2.5122  -2.4592
    -2.4402  -2.4269  -2.3824  -2.3275  -2.2417  -2.0460  -1.9481  -1.9416
    -1.9203  -1.9057  -1.8956  -1.8906  -1.8401  -1.8228  -1.7281  -1.6613
    -1.6519  -1.6516  -1.5494  -1.5333  -1.4815  -1.4750  -1.4541  -1.3823
    -1.3337  -1.2164  -1.2088  -1.1607  -1.1158  -1.0993  -1.0776  -1.0627
    -1.0177  -1.0092  -0.9926  -0.8578  -0.8541  -0.8513  -0.8226  -0.7829
    -0.7710  -0.7049  -0.6944  -0.6820  -0.6651  -0.5417  -0.5341  -0.5190
    -0.5042  -0.4997  -0.4866  -0.4812  -0.4464  -0.4284  -0.4018  -0.3743
    -0.3541  -0.3065  -0.2653  -0.2474  -0.2272  -0.1887  -0.1744  -0.1596
    -0.1359  -0.1160  -0.0917  -0.0887  -0.0741  -0.0582  -0.0522  -0.0391
     0.0091   0.0167   0.0731   0.1202   0.1669   0.1838   0.2190   0.2358
     0.2482   0.3232   0.4495   0.4730   0.5342   0.5806   0.5990   0.6128
     0.6377   0.6710   0.6737   0.7094   0.7299   0.7394   0.7883   0.8161
     0.8583   0.9292   1.0073   1.0223   1.0598   1.0673   1.0961   1.1332
     1.1423   1.2495   1.2632   1.2754   1.3261   1.3392   1.3816   1.4587
     1.4808   1.4873   1.5074   1.5488   1.5590   1.5808   1.5872   1.5981
     1.6080   1.6153   1.6376   1.7099   1.7807   1.8244   1.8837   1.9409
     1.9632   2.0441   2.1251   2.1361   2.1385   2.1720   2.2418   2.2690
     2.2767   2.2923   2.3051   2.3248   2.3376   2.3391   2.3460   2.3851
     2.4041   2.4447   2.4790   2.5158   2.5212   2.5605   2.5695   2.6021
     2.7209   2.7766   2.8147   2.8240   2.8780   2.8847   2.8885   3.0115
     3.0272   3.2843   3.5458   3.5592   3.9334   4.0951   4.1130   4.1300
     4.4303   4.8058   4.8230   5.0269   5.0302   5.0781   5.6837   5.8722
     6.2159   6.2592   6.4411   6.5462   6.9271   7.0026   7.0186   7.0269
     7.0639

          k = 0.2000-0.5774 0.0000 ( 43014 PWs)   bands (ev):

    -5.3139  -5.3052  -4.7009  -4.1257  -4.0659  -3.5954  -3.5379  -3.3961
    -3.3668  -3.2819  -3.2490  -3.1533  -3.1439  -3.0855  -3.0353  -3.0244
    -2.9979  -2.9812  -2.9734  -2.9615  -2.9002  -2.8169  -2.8108  -2.7900
    -2.7647  -2.6988  -2.6233  -2.5677  -2.5562  -2.4897  -2.4150  -2.4041
    -2.3891  -2.3863  -2.3293  -2.2779  -2.2473  -2.1651  -2.0933  -1.9829
    -1.9647  -1.9123  -1.8377  -1.8207  -1.7766  -1.7535  -1.6621  -1.6002
    -1.5823  -1.5644  -1.5342  -1.4834  -1.4726  -1.4486  -1.3705  -1.3608
    -1.3381  -1.3333  -1.3264  -1.3116  -1.2672  -1.2526  -1.2054  -1.1377
    -1.1029  -1.0619  -1.0251  -0.9499  -0.9061  -0.8958  -0.8782  -0.8377
    -0.8253  -0.8158  -0.7518  -0.7131  -0.6997  -0.6874  -0.6608  -0.6377
    -0.5879  -0.5668  -0.5177  -0.4779  -0.4667  -0.4604  -0.4067  -0.3529
    -0.3057  -0.2693  -0.2575  -0.2509  -0.2149  -0.2114  -0.2068  -0.1949
    -0.1663  -0.1429  -0.1260  -0.1164  -0.0762  -0.0635  -0.0488  -0.0452
    -0.0370  -0.0138   0.0057   0.0370   0.0529   0.1340   0.2554   0.2979
     0.3653   0.3699   0.4663   0.4821   0.4967   0.5212   0.5416   0.5644
     0.5842   0.5959   0.6368   0.6889   0.7129   0.7269   0.7704   0.7895
     0.8402   0.8615   0.8998   0.9838   1.0577   1.1149   1.1263   1.1378
     1.1601   1.2236   1.2394   1.2587   1.2771   1.2849   1.3159   1.3279
     1.3614   1.4255   1.4518   1.4899   1.5073   1.5255   1.5293   1.5501
     1.5615   1.6585   1.7186   1.7741   1.8184   1.8852   1.9443   1.9659
     1.9814   2.0512   2.0955   2.1048   2.1370   2.2016   2.2552   2.2728
     2.2933   2.3198   2.3251   2.3384   2.3795   2.4060   2.4694   2.4826
     2.4907   2.5035   2.5315   2.5394   2.5479   2.6043   2.7210   2.7326
     2.7485   2.7570   2.7781   2.8218   2.8608   2.9449   3.0684   3.6564
     3.9069   3.9093   4.1086   4.1681   4.2867   4.2998   4.3019   4.5933
     4.9096   4.9257   5.1423   5.3702   5.3953   5.4895   5.5219   5.5923
     5.7521   5.8233   5.9028   6.1407   6.3145   6.3599   6.6321   6.9628
     7.0013

          k = 0.2000-0.3464 0.0000 ( 43046 PWs)   bands (ev):

    -5.8434  -4.6314  -4.6115  -4.5768  -3.6376  -3.5390  -3.5246  -3.5217
    -3.4858  -3.4730  -3.4598  -3.4543  -3.3502  -3.3431  -3.0664  -2.9598
    -2.9546  -2.9482  -2.8943  -2.8683  -2.7633  -2.7178  -2.7075  -2.6973
    -2.6933  -2.6592  -2.5850  -2.5509  -2.5436  -2.5356  -2.5099  -2.4609
    -2.4359  -2.4178  -2.3875  -2.3039  -2.2145  -2.0462  -1.9569  -1.9483
    -1.9310  -1.9049  -1.8987  -1.8920  -1.8603  -1.8289  -1.7634  -1.6651
    -1.6550  -1.6165  -1.5613  -1.5299  -1.4863  -1.4730  -1.4460  -1.3840
    -1.3523  -1.2288  -1.2153  -1.1785  -1.1361  -1.1034  -1.0807  -1.0728
    -1.0215  -0.9993  -0.9915  -0.8543  -0.8426  -0.8129  -0.7996  -0.7634
    -0.7472  -0.7174  -0.7043  -0.6938  -0.6469  -0.5630  -0.5422  -0.5272
    -0.5085  -0.4977  -0.4882  -0.4742  -0.4379  -0.4253  -0.4001  -0.3648
    -0.3431  -0.2953  -0.2680  -0.2496  -0.2296  -0.1895  -0.1651  -0.1466
    -0.1393  -0.1132  -0.1039  -0.0878  -0.0794  -0.0633  -0.0550  -0.0418
     0.0013   0.0258   0.0662   0.1199   0.1561   0.1678   0.2326   0.2475
     0.2558   0.3412   0.4412   0.4645   0.5685   0.5890   0.6072   0.6195
     0.6385   0.6614   0.6895   0.7032   0.7232   0.7328   0.7813   0.8160
     0.8439   0.9544   1.0040   1.0350   1.0544   1.0728   1.1054   1.1365
     1.1514   1.2479   1.2692   1.2770   1.3234   1.3428   1.3926   1.4548
     1.4734   1.4819   1.5043   1.5478   1.5610   1.5729   1.5788   1.5990
     1.6004   1.6104   1.6275   1.7039   1.7970   1.8235   1.8707   1.9529
     1.9665   2.0436   2.1273   2.1331   2.1388   2.1858   2.2442   2.2568
     2.2775   2.2868   2.3108   2.3283   2.3400   2.3488   2.3648   2.3897
     2.4029   2.4232   2.4908   2.5081   2.5437   2.5597   2.5699   2.6107
     2.6916   2.7486   2.7905   2.8055   2.8690   2.8807   2.8881   3.0221
     3.0318   3.3003   3.5533   3.5708   3.9139   4.0804   4.1003   4.1231
     4.4328   4.8094   4.8310   5.0223   5.0276   5.0775   5.6729   5.8718
     6.2132   6.2432   6.4597   6.5424   6.9344   7.0054   7.0224   7.0323
     7.0601

          k = 0.4000-0.2309 0.0000 ( 43046 PWs)   bands (ev):

    -5.7055  -5.0692  -4.4564  -4.0229  -3.9974  -3.9016  -3.6336  -3.4815
    -3.3791  -3.3362  -3.2968  -3.2760  -3.2077  -3.1042  -3.0649  -3.0507
    -3.0387  -2.9413  -2.9068  -2.8891  -2.8663  -2.8286  -2.8028  -2.7735
    -2.7360  -2.7019  -2.6936  -2.5797  -2.4365  -2.4321  -2.4320  -2.4259
    -2.4127  -2.3399  -2.1882  -2.1698  -2.1550  -2.1517  -2.1302  -2.0627
    -1.9577  -1.8541  -1.8432  -1.8361  -1.8180  -1.7836  -1.7423  -1.7228
    -1.6899  -1.6708  -1.6393  -1.5747  -1.4899  -1.4871  -1.4491  -1.4370
    -1.3405  -1.3117  -1.2807  -1.2796  -1.2401  -1.1132  -1.0555  -1.0282
    -1.0233  -1.0011  -0.9415  -0.9340  -0.8823  -0.8014  -0.7895  -0.7629
    -0.7329  -0.6827  -0.6633  -0.6612  -0.6538  -0.6263  -0.5866  -0.5736
    -0.5630  -0.5402  -0.5384  -0.5223  -0.5072  -0.5044  -0.4469  -0.3947
    -0.3939  -0.3757  -0.3682  -0.3582  -0.3566  -0.2333  -0.1820  -0.1789
    -0.1393  -0.1208  -0.1039  -0.0931  -0.0507  -0.0329   0.0249   0.0793
     0.0929   0.1117   0.1556   0.1977   0.2067   0.3408   0.3426   0.3610
     0.4285   0.4917   0.5018   0.5181   0.5273   0.5402   0.5539   0.5640
     0.6366   0.6601   0.6738   0.6791   0.6861   0.7026   0.7370   0.7450
     0.7624   0.8796   0.9033   0.9222   0.9267   0.9855   1.0861   1.1052
     1.1130   1.2074   1.2097   1.2746   1.3460   1.3810   1.4171   1.4228
     1.4486   1.4583   1.4710   1.5338   1.5396   1.5704   1.6053   1.6340
     1.6912   1.7178   1.7441   1.7470   1.7679   1.8184   1.8679   1.9444
     1.9911   2.0186   2.0375   2.0464   2.0508   2.1346   2.1547   2.1679
     2.2455   2.2470   2.2560   2.3026   2.3398   2.3439   2.3657   2.4394
     2.4588   2.4859   2.4967   2.5026   2.5125   2.5154   2.5219   2.7077
     2.7114   2.7273   2.7409   2.7448   2.9357   2.9724   3.1370   3.3369
     3.4447   3.5431   3.7929   3.8039   4.1315   4.1877   4.2224   4.5042
     4.7118   5.0072   5.0185   5.0405   5.2323   5.2838   5.3387   5.3896
     5.6590   5.6711   6.0637   6.2852   6.6410   6.8489   7.0152   7.3258
     7.5351

          k = 0.4000-0.0000 0.0000 ( 43046 PWs)   bands (ev):

    -5.8434  -4.6316  -4.6114  -4.5769  -3.6378  -3.5394  -3.5245  -3.5217
    -3.4857  -3.4726  -3.4596  -3.4541  -3.3503  -3.3428  -3.0663  -2.9601
    -2.9547  -2.9483  -2.8953  -2.8680  -2.7636  -2.7179  -2.7078  -2.6973
    -2.6931  -2.6586  -2.5851  -2.5503  -2.5440  -2.5353  -2.5096  -2.4606
    -2.4362  -2.4176  -2.3872  -2.3042  -2.2141  -2.0457  -1.9565  -1.9478
    -1.9311  -1.9047  -1.8989  -1.8922  -1.8624  -1.8291  -1.7653  -1.6647
    -1.6547  -1.6139  -1.5612  -1.5301  -1.4862  -1.4727  -1.4461  -1.3841
    -1.3530  -1.2284  -1.2144  -1.1779  -1.1359  -1.1024  -1.0807  -1.0722
    -1.0214  -0.9994  -0.9916  -0.8547  -0.8432  -0.8122  -0.7999  -0.7639
    -0.7467  -0.7170  -0.7046  -0.6947  -0.6467  -0.5620  -0.5414  -0.5271
    -0.5081  -0.4983  -0.4884  -0.4738  -0.4380  -0.4256  -0.4008  -0.3652
    -0.3437  -0.2968  -0.2681  -0.2493  -0.2288  -0.1902  -0.1656  -0.1463
    -0.1400  -0.1133  -0.1039  -0.0879  -0.0791  -0.0639  -0.0551  -0.0418
     0.0016   0.0255   0.0647   0.1199   0.1564   0.1681   0.2322   0.2475
     0.2556   0.3419   0.4413   0.4643   0.5680   0.5888   0.6075   0.6195
     0.6385   0.6613   0.6900   0.7034   0.7234   0.7329   0.7809   0.8166
     0.8453   0.9538   1.0038   1.0354   1.0541   1.0728   1.1050   1.1367
     1.1513   1.2475   1.2692   1.2769   1.3231   1.3427   1.3921   1.4549
     1.4732   1.4819   1.5044   1.5480   1.5613   1.5732   1.5788   1.5992
     1.6006   1.6104   1.6278   1.7028   1.7976   1.8235   1.8702   1.9529
     1.9666   2.0436   2.1274   2.1331   2.1389   2.1865   2.2444   2.2570
     2.2774   2.2868   2.3106   2.3284   2.3397   2.3484   2.3646   2.3894
     2.4033   2.4232   2.4905   2.5075   2.5440   2.5597   2.5700   2.6106
     2.6908   2.7493   2.7911   2.8064   2.8691   2.8808   2.8881   3.0219
     3.0317   3.3005   3.5532   3.5707   3.9139   4.0807   4.1007   4.1233
     4.4329   4.8092   4.8309   5.0226   5.0277   5.0775   5.6738   5.8715
     6.2133   6.2436   6.4586   6.5425   6.9342   7.0048   7.0224   7.0322
     7.0603

          k = 0.4000 0.2309 0.0000 ( 43046 PWs)   bands (ev):

    -5.7070  -5.0734  -4.4580  -4.0180  -3.9932  -3.9039  -3.6435  -3.4780
    -3.3890  -3.3415  -3.3030  -3.2681  -3.1985  -3.1094  -3.0671  -3.0556
    -3.0449  -2.9523  -2.9082  -2.8812  -2.8594  -2.8357  -2.8098  -2.7821
    -2.7219  -2.6997  -2.6956  -2.5795  -2.4343  -2.4294  -2.4221  -2.4146
    -2.4039  -2.3537  -2.1876  -2.1667  -2.1507  -2.1448  -2.1249  -2.0563
    -1.9395  -1.8562  -1.8412  -1.8335  -1.8111  -1.7752  -1.7588  -1.6993
    -1.6961  -1.6657  -1.6323  -1.5952  -1.4841  -1.4751  -1.4420  -1.4351
    -1.3308  -1.2831  -1.2634  -1.2536  -1.1987  -1.1123  -1.0579  -1.0436
    -1.0344  -1.0210  -0.9525  -0.9273  -0.9178  -0.8292  -0.8115  -0.7903
    -0.7812  -0.6842  -0.6606  -0.6544  -0.6428  -0.6276  -0.5910  -0.5603
    -0.5469  -0.5346  -0.5273  -0.5257  -0.5219  -0.4982  -0.4646  -0.3937
    -0.3810  -0.3650  -0.3548  -0.3416  -0.3246  -0.2486  -0.2090  -0.1779
    -0.1582  -0.1242  -0.1000  -0.0792  -0.0722  -0.0687   0.0147   0.0784
     0.1023   0.1296   0.1516   0.1910   0.2086   0.3284   0.3419   0.3711
     0.4300   0.4819   0.5109   0.5146   0.5383   0.5503   0.5673   0.5916
     0.6390   0.6479   0.6565   0.6826   0.6852   0.7026   0.7152   0.7361
     0.7701   0.8550   0.8865   0.9004   0.9268   0.9846   1.0610   1.0875
     1.1049   1.2063   1.2133   1.2998   1.3553   1.3695   1.4057   1.4244
     1.4297   1.4650   1.4849   1.5370   1.5509   1.5826   1.6124   1.6350
     1.7022   1.7260   1.7409   1.7512   1.7681   1.7891   1.8694   1.9401
     1.9808   2.0162   2.0322   2.0448   2.0497   2.1344   2.1577   2.1622
     2.2377   2.2407   2.2518   2.3083   2.3155   2.3377   2.3583   2.4292
     2.4683   2.4887   2.4950   2.5075   2.5189   2.5386   2.5422   2.7095
     2.7196   2.7494   2.7546   2.7771   2.9323   2.9711   3.1476   3.3625
     3.4115   3.5416   3.7944   3.8014   4.1226   4.1907   4.2180   4.5381
     4.7271   5.0106   5.0167   5.0571   5.2150   5.2768   5.3437   5.4115
     5.6566   5.6726   6.0473   6.3140   6.6266   6.8390   7.0119   7.3223
     7.5366

          k = 0.4000-0.6928 0.0000 ( 43014 PWs)   bands (ev):

    -5.3139  -5.3053  -4.7007  -4.1259  -4.0660  -3.5954  -3.5384  -3.3959
    -3.3666  -3.2810  -3.2490  -3.1538  -3.1444  -3.0845  -3.0357  -3.0241
    -2.9980  -2.9810  -2.9734  -2.9614  -2.9014  -2.8175  -2.8107  -2.7897
    -2.7652  -2.6991  -2.6248  -2.5650  -2.5559  -2.4891  -2.4149  -2.4042
    -2.3889  -2.3862  -2.3285  -2.2780  -2.2476  -2.1648  -2.0933  -1.9826
    -1.9645  -1.9156  -1.8378  -1.8195  -1.7767  -1.7533  -1.6626  -1.6005
    -1.5821  -1.5642  -1.5332  -1.4826  -1.4724  -1.4484  -1.3703  -1.3608
    -1.3379  -1.3334  -1.3261  -1.3118  -1.2666  -1.2531  -1.2061  -1.1371
    -1.1029  -1.0610  -1.0249  -0.9501  -0.9053  -0.8959  -0.8793  -0.8383
    -0.8260  -0.8163  -0.7518  -0.7128  -0.6996  -0.6873  -0.6607  -0.6373
    -0.5875  -0.5672  -0.5188  -0.4776  -0.4667  -0.4595  -0.4059  -0.3532
    -0.3054  -0.2687  -0.2581  -0.2508  -0.2149  -0.2112  -0.2072  -0.1949
    -0.1676  -0.1440  -0.1268  -0.1167  -0.0766  -0.0639  -0.0485  -0.0442
    -0.0369  -0.0135   0.0057   0.0371   0.0527   0.1322   0.2549   0.2992
     0.3652   0.3699   0.4664   0.4818   0.4965   0.5209   0.5416   0.5648
     0.5848   0.5959   0.6369   0.6890   0.7127   0.7261   0.7705   0.7900
     0.8403   0.8615   0.8992   0.9840   1.0581   1.1149   1.1262   1.1380
     1.1604   1.2230   1.2387   1.2588   1.2769   1.2847   1.3161   1.3279
     1.3615   1.4261   1.4518   1.4902   1.5073   1.5255   1.5293   1.5501
     1.5612   1.6591   1.7185   1.7730   1.8182   1.8852   1.9442   1.9662
     1.9816   2.0514   2.0956   2.1048   2.1374   2.2016   2.2550   2.2729
     2.2926   2.3196   2.3250   2.3385   2.3792   2.4061   2.4698   2.4826
     2.4906   2.5028   2.5317   2.5393   2.5479   2.6043   2.7211   2.7326
     2.7494   2.7572   2.7783   2.8218   2.8612   2.9449   3.0681   3.6565
     3.9069   3.9094   4.1083   4.1684   4.2869   4.2997   4.3014   4.5936
     4.9094   4.9256   5.1431   5.3705   5.3952   5.4893   5.5214   5.5911
     5.7547   5.8240   5.9024   6.1413   6.3143   6.3593   6.6326   6.9624
     7.0002

          k = 0.4000-0.4619 0.0000 ( 43014 PWs)   bands (ev):

    -5.3133  -5.3017  -4.7042  -4.1238  -4.0641  -3.6019  -3.5258  -3.3998
    -3.3660  -3.2762  -3.2538  -3.1583  -3.1368  -3.0628  -3.0341  -3.0203
    -3.0024  -2.9853  -2.9700  -2.9628  -2.9171  -2.8171  -2.8111  -2.7827
    -2.7649  -2.6923  -2.6284  -2.5682  -2.5607  -2.4957  -2.4124  -2.4087
    -2.3909  -2.3887  -2.3236  -2.2844  -2.2477  -2.1743  -2.1106  -1.9798
    -1.9525  -1.9390  -1.8494  -1.8099  -1.7747  -1.7423  -1.6448  -1.5947
    -1.5791  -1.5618  -1.5379  -1.5112  -1.4843  -1.4620  -1.3707  -1.3673
    -1.3478  -1.3384  -1.3327  -1.3188  -1.2787  -1.2550  -1.2328  -1.1176
    -1.0847  -1.0545  -1.0108  -0.9444  -0.9183  -0.8884  -0.8724  -0.8376
    -0.8027  -0.7876  -0.7364  -0.7139  -0.7046  -0.6845  -0.6764  -0.6436
    -0.5935  -0.5797  -0.5121  -0.4921  -0.4869  -0.4540  -0.3960  -0.3236
    -0.2997  -0.2915  -0.2691  -0.2640  -0.2078  -0.2071  -0.1900  -0.1730
    -0.1419  -0.1381  -0.1239  -0.1100  -0.0887  -0.0641  -0.0484  -0.0454
    -0.0392  -0.0273   0.0200   0.0428   0.0585   0.0934   0.2671   0.3279
     0.3611   0.3701   0.4680   0.4721   0.4876   0.5080   0.5601   0.5682
     0.5765   0.5867   0.6436   0.6793   0.7092   0.7320   0.7759   0.7874
     0.8397   0.8703   0.9221   1.0154   1.0709   1.1103   1.1185   1.1364
     1.1510   1.2015   1.2357   1.2603   1.2758   1.2857   1.3098   1.3246
     1.3652   1.4264   1.4427   1.4903   1.5018   1.5268   1.5320   1.5536
     1.5732   1.6897   1.7026   1.7822   1.8229   1.8822   1.9330   1.9617
     1.9806   2.0501   2.0950   2.0995   2.1461   2.2041   2.2620   2.2755
     2.3115   2.3209   2.3309   2.3481   2.3603   2.3941   2.4692   2.4831
     2.4895   2.5283   2.5349   2.5398   2.5439   2.6072   2.7142   2.7227
     2.7434   2.7460   2.7495   2.8162   2.8385   2.9428   3.0751   3.6642
     3.9074   3.9115   4.1203   4.1575   4.2895   4.2945   4.3332   4.5684
     4.9058   4.9170   5.1441   5.3645   5.3975   5.4983   5.5129   5.5652
     5.6965   5.8178   5.9182   6.1421   6.3392   6.3652   6.6270   6.9925
     7.0162

     the Fermi energy is     2.5214 ev

!    total energy              =  -27755.48796768 Ry
     total all-electron energy =  -1326642.253384 Ry
     estimated scf accuracy    <          6.2E-09 Ry
     smearing contrib. (-TS)   =       0.00239065 Ry
     internal energy E=F+TS    =  -27755.49035832 Ry

     The total energy is F=E-TS. E is the sum of the following terms:
     one-electron contribution =  -20636.25465265 Ry
     hartree contribution      =   10625.37515454 Ry
     xc contribution           =    -890.64009976 Ry
     ewald contribution        =    8619.99648202 Ry
     one-center paw contrib.   =  -25473.96724248 Ry

     convergence has been achieved in  22 iterations

     negative rho (up, down):  3.189E-03 0.000E+00

     Forces acting on atoms (cartesian axes, Ry/au):

     atom    1 type  1   force =    -0.00081514    0.00041974   -0.00309305
     atom    2 type  1   force =    -0.00004585    0.00038120   -0.00366583
     atom    3 type  1   force =    -0.00119032    0.00072472   -0.00646912
     atom    4 type  1   force =    -0.00047046    0.00025913   -0.00379912
     atom    5 type  1   force =    -0.00035186   -0.00018145   -0.00368329
     atom    6 type  1   force =    -0.00065512    0.00000045   -0.00336138
     atom    7 type  1   force =    -0.00078400    0.00046600   -0.00308150
     atom    8 type  1   force =    -0.00033738    0.00017213   -0.00345111
     atom    9 type  1   force =    -0.00033921    0.00052248   -0.00333182
     atom   10 type  1   force =     0.00014604    0.00026084    0.00834220
     atom   11 type  1   force =     0.00329698   -0.00188069    0.00007243
     atom   12 type  1   force =     0.00009668   -0.00152256    0.00155640
     atom   13 type  1   force =    -0.00016847   -0.00016157    0.00841946
     atom   14 type  1   force =     0.00116876   -0.00059077    0.00427486
     atom   15 type  1   force =     0.00208635   -0.00110555    0.00986391
     atom   16 type  1   force =     0.00076804   -0.00041362    0.00426318
     atom   17 type  1   force =     0.00113596   -0.00066565    0.00429592
     atom   18 type  1   force =     0.00138534    0.00068684    0.00161478
     atom   19 type  1   force =    -0.00001732   -0.00051440   -0.00023924
     atom   20 type  1   force =     0.00014940   -0.00010661    0.00016465
     atom   21 type  1   force =    -0.00117957   -0.00021372   -0.00027528
     atom   22 type  1   force =     0.00042550    0.00025814   -0.00024523
     atom   23 type  1   force =     0.00059573   -0.00001272   -0.00051591
     atom   24 type  1   force =    -0.00024005    0.00013678   -0.00072637
     atom   25 type  1   force =     0.00024788   -0.00014890   -0.00073612
     atom   26 type  1   force =     0.00029982   -0.00053492   -0.00051570
     atom   27 type  1   force =    -0.00041993    0.00110260   -0.00028686
     atom   28 type  1   force =    -0.00037016   -0.00014805   -0.00101884
     atom   29 type  1   force =    -0.00001731    0.00082504   -0.00094914
     atom   30 type  1   force =     0.00085020   -0.00053358   -0.00068769
     atom   31 type  1   force =    -0.00006240   -0.00002732    0.00304426
     atom   32 type  1   force =    -0.00075351   -0.00045862   -0.00090701
     atom   33 type  1   force =     0.00003398    0.00025438   -0.00106458
     atom   34 type  1   force =    -0.00010137    0.00035575   -0.00102105
     atom   35 type  1   force =     0.00130893   -0.00079939   -0.00066007
     atom   36 type  1   force =    -0.00020648   -0.00020737   -0.00106551
     atom   37 type  2   force =    -0.00546970    0.00340124   -0.00106125
     The non-local contrib.  to forces
     atom    1 type  1   force =    -0.00022045   -0.00070937   -0.01854322
     atom    2 type  1   force =    -0.00000566   -0.00023718   -0.01820657
     atom    3 type  1   force =     0.00112779   -0.00069346   -0.01630473
     atom    4 type  1   force =     0.00031299   -0.00018645   -0.01907327
     atom    5 type  1   force =     0.00020253    0.00013433   -0.01820603
     atom    6 type  1   force =    -0.00049715    0.00012910   -0.01885172
     atom    7 type  1   force =     0.00051876    0.00056745   -0.01856781
     atom    8 type  1   force =     0.00011723   -0.00006697   -0.01908380
     atom    9 type  1   force =    -0.00036612    0.00039233   -0.01887407
     atom   10 type  1   force =     0.00128723   -0.00091722    0.00133276
     atom   11 type  1   force =    -0.00045007    0.00031141    0.00020192
     atom   12 type  1   force =     0.00362056    0.00044745    0.00010623
     atom   13 type  1   force =     0.00147787   -0.00059096    0.00137817
     atom   14 type  1   force =     0.00116998    0.00006710    0.00002630
     atom   15 type  1   force =     0.00111551   -0.00060278    0.00247597
     atom   16 type  1   force =     0.00195734   -0.00106628   -0.00019365
     atom   17 type  1   force =     0.00055203   -0.00097461    0.00002915
     atom   18 type  1   force =     0.00146395   -0.00331330    0.00014012
     atom   19 type  1   force =    -0.01072326   -0.00796217   -0.00467246
     atom   20 type  1   force =     0.00745739   -0.00436287    0.00310773
     atom   21 type  1   force =    -0.00122476    0.00008795    0.00368658
     atom   22 type  1   force =     0.00148539    0.01345361   -0.00500247
     atom   23 type  1   force =     0.00287399    0.00102959    0.00102705
     atom   24 type  1   force =    -0.00169090    0.00096034    0.00130013
     atom   25 type  1   force =     0.00113724   -0.00061834    0.00414142
     atom   26 type  1   force =     0.00052318   -0.00301645    0.00099574
     atom   27 type  1   force =    -0.00070190    0.00103218    0.00371222
     atom   28 type  1   force =     0.00448957    0.00448784    0.02050029
     atom   29 type  1   force =    -0.00725115    0.01211517    0.02276588
     atom   30 type  1   force =    -0.00021259    0.00003207    0.01698665
     atom   31 type  1   force =    -0.01239847    0.00762901   -0.12759938
     atom   32 type  1   force =    -0.01386417   -0.00007440    0.02264788
     atom   33 type  1   force =     0.00213042    0.00177130    0.01871476
     atom   34 type  1   force =    -0.00166207   -0.00590456    0.02032609
     atom   35 type  1   force =    -0.00009135   -0.00002430    0.01689461
     atom   36 type  1   force =    -0.00057866   -0.00283579    0.01868935
     atom   37 type  2   force =    -0.00830000    0.00517823   -0.04060529
     The ionic contribution  to forces
     atom    1 type  1   force =    -0.00048742    0.00953666  -93.34243461
     atom    2 type  1   force =    -0.00285368    0.00504441  -93.35013722
     atom    3 type  1   force =     0.00338971   -0.00228857  -93.35014029
     atom    4 type  1   force =    -0.00530255    0.00346461  -93.32936456
     atom    5 type  1   force =    -0.00606999    0.00011539  -93.35012824
     atom    6 type  1   force =     0.01159728   -0.00166796  -93.34060920
     atom    7 type  1   force =    -0.00886366   -0.00454156  -93.34180883
     atom    8 type  1   force =     0.00131791   -0.00076260  -93.35523326
     atom    9 type  1   force =     0.00761003   -0.00908319  -93.33998392
     atom   10 type  1   force =    -0.03942465    0.05979335  -31.44564471
     atom   11 type  1   force =    -0.01076181    0.00594371  -31.47879698
     atom   12 type  1   force =     0.11083179    0.03445456  -31.43754006
     atom   13 type  1   force =    -0.07326541    0.00780663  -31.44330839
     atom   14 type  1   force =     0.03351550   -0.00685644  -31.51897531
     atom   15 type  1   force =     0.06656232   -0.03386255  -31.40647190
     atom   16 type  1   force =    -0.00621852    0.00303994  -31.52807792
     atom   17 type  1   force =     0.02468317   -0.02518110  -31.51834372
     atom   18 type  1   force =     0.02524721   -0.11698146  -31.43313815
     atom   19 type  1   force =     0.04068868    0.00296503   31.50848365
     atom   20 type  1   force =    -0.07709566    0.04367758   31.15072093
     atom   21 type  1   force =     0.01097727   -0.06630830   30.77314769
     atom   22 type  1   force =     0.01690343   -0.03186480   31.53036938
     atom   23 type  1   force =    -0.02646632   -0.01189913   30.85145975
     atom   24 type  1   force =     0.03629439   -0.01923119   30.99230805
     atom   25 type  1   force =    -0.03987753    0.01985821   30.79235826
     atom   26 type  1   force =    -0.00146153    0.02824078   30.85224580
     atom   27 type  1   force =     0.06414432    0.02092158   30.77304542
     atom   28 type  1   force =    -0.12711090   -0.21664988   92.39169687
     atom   29 type  1   force =     0.09520321   -0.24907044   92.17745336
     atom   30 type  1   force =     0.02213751   -0.01422853   92.58268850
     atom   31 type  1   force =    -0.49624830    0.30811695   92.27260295
     atom   32 type  1   force =     0.26040987    0.04112380   92.17971823
     atom   33 type  1   force =    -0.16999375    0.08829548   92.56913487
     atom   34 type  1   force =     0.11908731    0.21391980   92.40480067
     atom   35 type  1   force =     0.03838234   -0.02331382   92.62611727
     atom   36 type  1   force =    -0.15802845    0.10000564   92.57463787
     atom   37 type  2   force =     0.26054685   -0.16253261   12.30714774
     The local contribution  to forces
     atom    1 type  1   force =    -0.00013296   -0.00837549   93.34073784
     atom    2 type  1   force =     0.00277523   -0.00443539   93.34749840
     atom    3 type  1   force =    -0.00577817    0.00374604   93.34238804
     atom    4 type  1   force =     0.00451188   -0.00301956   93.32752064
     atom    5 type  1   force =     0.00550078   -0.00039759   93.34747129
     atom    6 type  1   force =    -0.01174200    0.00153346   93.33897493
     atom    7 type  1   force =     0.00751679    0.00445086   93.34015014
     atom    8 type  1   force =    -0.00176933    0.00100552   93.35371877
     atom    9 type  1   force =    -0.00757352    0.00921047   93.33840324
     atom   10 type  1   force =     0.03816667   -0.05844431   31.45181683
     atom   11 type  1   force =     0.01465396   -0.00822456   31.47766465
     atom   12 type  1   force =    -0.11400222   -0.03633069   31.43825118
     atom   13 type  1   force =     0.07140316   -0.00735169   31.44952677
     atom   14 type  1   force =    -0.03343043    0.00621368   31.52210779
     atom   15 type  1   force =    -0.06541874    0.03327453   31.41318528
     atom   16 type  1   force =     0.00507570   -0.00240867   31.53132216
     atom   17 type  1   force =    -0.02406498    0.02541464   31.52149309
     atom   18 type  1   force =    -0.02523485    0.12061389   31.43389606
     atom   19 type  1   force =    -0.02960637    0.00441293  -31.50191146
     atom   20 type  1   force =     0.06949575   -0.03926080  -31.15097742
     atom   21 type  1   force =    -0.01090916    0.06568395  -30.77523935
     atom   22 type  1   force =    -0.01772253    0.01839226  -31.52349384
     atom   23 type  1   force =     0.02422527    0.01079631  -30.85117460
     atom   24 type  1   force =    -0.03481707    0.01840178  -30.99256990
     atom   25 type  1   force =     0.03884231   -0.01931524  -30.79539895
     atom   26 type  1   force =     0.00131728   -0.02576039  -30.85192772
     atom   27 type  1   force =    -0.06356825   -0.02072014  -30.77518062
     atom   28 type  1   force =     0.12239910    0.21190272  -92.39687256
     atom   29 type  1   force =    -0.08817238    0.23780028  -92.18509542
     atom   30 type  1   force =    -0.02101003    0.01361767  -92.58402591
     atom   31 type  1   force =     0.50363210   -0.31269187  -92.14400773
     atom   32 type  1   force =    -0.24743076   -0.04135237  -92.18718576
     atom   33 type  1   force =     0.16810411   -0.08948911  -92.57241619
     atom   34 type  1   force =    -0.11737760   -0.20774100  -92.40978527
     atom   35 type  1   force =    -0.03685839    0.02246820  -92.62715022
     atom   36 type  1   force =     0.15823375   -0.09772350  -92.57788627
     atom   37 type  2   force =    -0.25771689    0.16075607  -12.26761525
     The core correction contribution to forces
     atom    1 type  1   force =     0.00002351   -0.00001449    0.01720553
     atom    2 type  1   force =     0.00003813    0.00001033    0.01723269
     atom    3 type  1   force =     0.00007292   -0.00004316    0.01764296
     atom    4 type  1   force =    -0.00000762    0.00000588    0.01718357
     atom    5 type  1   force =     0.00001112   -0.00003860    0.01723222
     atom    6 type  1   force =     0.00000574    0.00000668    0.01718625
     atom    7 type  1   force =     0.00002594   -0.00001330    0.01720374
     atom    8 type  1   force =     0.00001005   -0.00000523    0.01719923
     atom    9 type  1   force =    -0.00000453   -0.00000966    0.01718492
     atom   10 type  1   force =     0.00010145   -0.00014888    0.00090742
     atom   11 type  1   force =    -0.00015006    0.00008669    0.00105520
     atom   12 type  1   force =    -0.00033243   -0.00008106    0.00079696
     atom   13 type  1   force =     0.00018439   -0.00002361    0.00089735
     atom   14 type  1   force =    -0.00006532   -0.00001266    0.00118376
     atom   15 type  1   force =    -0.00016202    0.00008162    0.00075064
     atom   16 type  1   force =    -0.00005106    0.00002728    0.00128416
     atom   17 type  1   force =    -0.00002397    0.00005983    0.00118412
     atom   18 type  1   force =    -0.00009604    0.00034311    0.00077808
     atom   19 type  1   force =    -0.00036291    0.00009236   -0.00210859
     atom   20 type  1   force =     0.00025831   -0.00014173   -0.00265004
     atom   21 type  1   force =    -0.00000241    0.00034020   -0.00183194
     atom   22 type  1   force =    -0.00025394    0.00025974   -0.00208421
     atom   23 type  1   force =    -0.00004483    0.00007050   -0.00177667
     atom   24 type  1   force =    -0.00000531   -0.00000013   -0.00172344
     atom   25 type  1   force =     0.00015968   -0.00008654   -0.00179421
     atom   26 type  1   force =    -0.00008634    0.00000019   -0.00178169
     atom   27 type  1   force =    -0.00029972   -0.00016323   -0.00182526
     atom   28 type  1   force =    -0.00014368    0.00010681   -0.01638472
     atom   29 type  1   force =     0.00018784   -0.00003006   -0.01610857
     atom   30 type  1   force =    -0.00005324    0.00003326   -0.01636137
     atom   31 type  1   force =     0.00494131   -0.00306972    0.00199304
     atom   32 type  1   force =     0.00012802   -0.00013501   -0.01612107
     atom   33 type  1   force =    -0.00019166   -0.00030949   -0.01654222
     atom   34 type  1   force =    -0.00014791    0.00007739   -0.01640451
     atom   35 type  1   force =    -0.00012422    0.00007096   -0.01656227
     atom   36 type  1   force =     0.00016722    0.00032887   -0.01655328
     atom   37 type  2   force =     0.00000000    0.00000000    0.00000000
     The Hubbard contrib.    to forces
     atom    1 type  1   force =     0.00000000    0.00000000    0.00000000
     atom    2 type  1   force =     0.00000000    0.00000000    0.00000000
     atom    3 type  1   force =     0.00000000    0.00000000    0.00000000
     atom    4 type  1   force =     0.00000000    0.00000000    0.00000000
     atom    5 type  1   force =     0.00000000    0.00000000    0.00000000
     atom    6 type  1   force =     0.00000000    0.00000000    0.00000000
     atom    7 type  1   force =     0.00000000    0.00000000    0.00000000
     atom    8 type  1   force =     0.00000000    0.00000000    0.00000000
     atom    9 type  1   force =     0.00000000    0.00000000    0.00000000
     atom   10 type  1   force =     0.00000000    0.00000000    0.00000000
     atom   11 type  1   force =     0.00000000    0.00000000    0.00000000
     atom   12 type  1   force =     0.00000000    0.00000000    0.00000000
     atom   13 type  1   force =     0.00000000    0.00000000    0.00000000
     atom   14 type  1   force =     0.00000000    0.00000000    0.00000000
     atom   15 type  1   force =     0.00000000    0.00000000    0.00000000
     atom   16 type  1   force =     0.00000000    0.00000000    0.00000000
     atom   17 type  1   force =     0.00000000    0.00000000    0.00000000
     atom   18 type  1   force =     0.00000000    0.00000000    0.00000000
     atom   19 type  1   force =     0.00000000    0.00000000    0.00000000
     atom   20 type  1   force =     0.00000000    0.00000000    0.00000000
     atom   21 type  1   force =     0.00000000    0.00000000    0.00000000
     atom   22 type  1   force =     0.00000000    0.00000000    0.00000000
     atom   23 type  1   force =     0.00000000    0.00000000    0.00000000
     atom   24 type  1   force =     0.00000000    0.00000000    0.00000000
     atom   25 type  1   force =     0.00000000    0.00000000    0.00000000
     atom   26 type  1   force =     0.00000000    0.00000000    0.00000000
     atom   27 type  1   force =     0.00000000    0.00000000    0.00000000
     atom   28 type  1   force =     0.00000000    0.00000000    0.00000000
     atom   29 type  1   force =     0.00000000    0.00000000    0.00000000
     atom   30 type  1   force =     0.00000000    0.00000000    0.00000000
     atom   31 type  1   force =     0.00000000    0.00000000    0.00000000
     atom   32 type  1   force =     0.00000000    0.00000000    0.00000000
     atom   33 type  1   force =     0.00000000    0.00000000    0.00000000
     atom   34 type  1   force =     0.00000000    0.00000000    0.00000000
     atom   35 type  1   force =     0.00000000    0.00000000    0.00000000
     atom   36 type  1   force =     0.00000000    0.00000000    0.00000000
     atom   37 type  2   force =     0.00000000    0.00000000    0.00000000
     The SCF correction term to forces
     atom    1 type  1   force =     0.00000000   -0.00000000   -0.00000000
     atom    2 type  1   force =     0.00000000   -0.00000000   -0.00000000
     atom    3 type  1   force =    -0.00000000    0.00000000   -0.00000000
     atom    4 type  1   force =     0.00000000   -0.00000000   -0.00000000
     atom    5 type  1   force =     0.00000000    0.00000000   -0.00000000
     atom    6 type  1   force =    -0.00000000   -0.00000000   -0.00000000
     atom    7 type  1   force =     0.00000000    0.00000000   -0.00000000
     atom    8 type  1   force =    -0.00000000    0.00000000   -0.00000000
     atom    9 type  1   force =    -0.00000000    0.00000000   -0.00000000
     atom   10 type  1   force =     0.00000000   -0.00000000   -0.00000000
     atom   11 type  1   force =     0.00000000    0.00000000   -0.00000000
     atom   12 type  1   force =    -0.00000000   -0.00000000   -0.00000000
     atom   13 type  1   force =     0.00000000   -0.00000000   -0.00000000
     atom   14 type  1   force =    -0.00000000   -0.00000000   -0.00000000
     atom   15 type  1   force =    -0.00000000    0.00000000   -0.00000000
     atom   16 type  1   force =     0.00000000   -0.00000000   -0.00000000
     atom   17 type  1   force =    -0.00000000    0.00000000   -0.00000000
     atom   18 type  1   force =     0.00000000    0.00000000   -0.00000000
     atom   19 type  1   force =    -0.00001333   -0.00002262   -0.00004051
     atom   20 type  1   force =     0.00003373   -0.00001885   -0.00004668
     atom   21 type  1   force =    -0.00002040   -0.00001758   -0.00004839
     atom   22 type  1   force =     0.00001328    0.00001726   -0.00004422
     atom   23 type  1   force =     0.00000774   -0.00001006   -0.00006158
     atom   24 type  1   force =    -0.00002102    0.00000592   -0.00005133
     atom   25 type  1   force =    -0.00001370    0.00001295   -0.00005277
     atom   26 type  1   force =     0.00000736    0.00000087   -0.00005796
     atom   27 type  1   force =     0.00000576    0.00003214   -0.00004876
     atom   28 type  1   force =    -0.00000413    0.00000439    0.00003113
     atom   29 type  1   force =     0.00001529    0.00001003    0.00002547
     atom   30 type  1   force =    -0.00001133    0.00001188    0.00001431
     atom   31 type  1   force =     0.00001108   -0.00001175    0.00004525
     atom   32 type  1   force =     0.00000364   -0.00002071    0.00002357
     atom   33 type  1   force =    -0.00001502   -0.00001386    0.00003407
     atom   34 type  1   force =    -0.00000097    0.00000405    0.00003184
     atom   35 type  1   force =     0.00000067   -0.00000051    0.00003040
     atom   36 type  1   force =    -0.00000021    0.00001734    0.00003669
     atom   37 type  2   force =     0.00000045   -0.00000052    0.00000142

     Total force =     0.008385     Total SCF correction =     0.000199

     Writing all to output data dir ./pwscf.save/

     init_run     :     10.61s CPU     10.91s WALL (       1 calls)
     electrons    :    515.76s CPU    538.00s WALL (       1 calls)
     forces       :      6.56s CPU      7.16s WALL (       1 calls)

     Called by init_run:
     wfcinit      :      6.11s CPU      6.27s WALL (       1 calls)
     potinit      :      3.10s CPU      3.18s WALL (       1 calls)
     hinit0       :      0.81s CPU      0.82s WALL (       1 calls)

     Called by electrons:
     c_bands      :    392.53s CPU    406.13s WALL (      23 calls)
     sum_band     :     63.55s CPU     68.55s WALL (      23 calls)
     v_of_rho     :     27.22s CPU     29.17s WALL (      23 calls)
     newd         :      8.51s CPU      9.60s WALL (      23 calls)
     PAW_pot      :     12.25s CPU     12.43s WALL (      23 calls)
     mix_rho      :     13.10s CPU     13.32s WALL (      23 calls)
     vdW_kernel   :      1.73s CPU      1.75s WALL (       1 calls)

     Called by c_bands:
     init_us_2    :      3.12s CPU      3.16s WALL (     624 calls)
     init_us_2:cp :      3.12s CPU      3.16s WALL (     624 calls)
     cegterg      :    381.88s CPU    395.11s WALL (     299 calls)

     Called by *egterg:
     cdiaghg      :     85.81s CPU     86.76s WALL (    1403 calls)
     h_psi        :    182.67s CPU    190.88s WALL (    1429 calls)
     s_psi        :     17.41s CPU     18.39s WALL (    1429 calls)
     g_psi        :      0.57s CPU      0.59s WALL (    1117 calls)

     Called by h_psi:
     h_psi:calbec :     28.48s CPU     29.73s WALL (    1429 calls)
     vloc_psi     :    134.88s CPU    141.24s WALL (    1429 calls)
     add_vuspsi   :     17.93s CPU     18.50s WALL (    1429 calls)

     General routines
     calbec       :     42.52s CPU     44.03s WALL (    1780 calls)
     fft          :     28.82s CPU     30.89s WALL (    1509 calls)
     ffts         :      7.73s CPU      7.91s WALL (    5777 calls)
     fftw         :    154.97s CPU    163.13s WALL (  395935 calls)
     interpolate  :      1.32s CPU      1.39s WALL (      23 calls)

     Parallel routines

     PWSCF        :   8m54.89s CPU   9m23.06s WALL


   This run was terminated on:  10:39:49  25Feb2025            

=------------------------------------------------------------------------------=
   JOB DONE.
=------------------------------------------------------------------------------=
