
     Program PWSCF v.7.1 starts on 14Dec2025 at 10:43:24 
        Git branch: heads/qe-7.1
        Last git commit: 48ba0178f8fede6d020eb786884699a9f063f55d-dirty
        Last git commit date: Fri Jan 27 14:22:33 2023 +0000
        Last git commit subject: Merge branch 'fix_hubbard' into 'develop'

     This program is part of the open-source Quantum ESPRESSO suite
     for quantum simulation of materials; please cite
         "P. Giannozzi et al., J. Phys.:Condens. Matter 21 395502 (2009);
         "P. Giannozzi et al., J. Phys.:Condens. Matter 29 465901 (2017);
         "P. Giannozzi et al., J. Chem. Phys. 152 154105 (2020);
          URL http://www.quantum-espresso.org", 
     in publications or presentations arising from this work. More details at
     http://www.quantum-espresso.org/quote

     Parallel version (MPI), running on    96 processors

     MPI processes distributed on     2 nodes
     200736 MiB available memory on the printing compute node when the environment starts

     Reading input from espresso.pwi
Warning: card &CELL ignored
Warning: card / ignored
Warning: card &FCP ignored
Warning: card / ignored
Warning: card &RISM ignored
Warning: card / ignored

     Current dimensions of program PWSCF are:
     Max number of different atomic species (ntypx) = 10
     Max number of k-points (npk) =  40000
     Max angular momentum in pseudopotentials (lmaxx) =  4
     file Co.pbe-n-kjpaw_psl.1.0.0.UPF: wavefunction(s)  4S 3D renormalized
     file C.pbe-n-kjpaw_psl.1.0.0.UPF: wavefunction(s)  2S 2P renormalized
     file O.pbe-nl-kjpaw_psl.1.0.0.UPF: wavefunction(s)  2S 2P renormalized
     file H.pbe-kjpaw_psl.1.0.0.UPF: wavefunction(s)  1S renormalized

     **************************************************************************
     Initializing libbeef V0.1.2 with the BEEF-vdW functional.
     Citation: Wellendorff et al., PRB 85, 235149 (2012).
     **************************************************************************


     IMPORTANT: XC functional enforced from input :
     Exchange-correlation= BEEF-VDW
                           (   1   4  43  14   2   0   0)
     Any further DFT definition will be discarded
     Please, verify this is what you really want


     R & G space division:  proc/nbgrp/npool/nimage =      96
     Subspace diagonalization in iterative solution of the eigenvalue problem:
     one sub-group per band group will be used
     custom distributed-memory algorithm (size of sub-group:  2*  2 procs)


     Parallelization info
     --------------------
     sticks:   dense  smooth     PW     G-vecs:    dense   smooth      PW
     Min          43      28      7                 7829     4248     595
     Max          44      29      8                 7845     4281     630
     Sum        4153    2773    757               752179   409445   59217

     Using Slab Decomposition



     bravais-lattice index     =            0
     lattice parameter (alat)  =      14.1729  a.u.
     unit-cell volume          =    8574.3059 (a.u.)^3
     number of atoms/cell      =           39
     number of atomic types    =            4
     number of electrons       =       335.00
     number of Kohn-Sham states=          202
     kinetic-energy cutoff     =      50.0000  Ry
     charge density cutoff     =     300.0000  Ry
     scf convergence threshold =      1.0E-08
     mixing beta               =       0.7000
     number of iterations used =            8  local-TF  mixing
     Exchange-correlation= BEEF-VDW
                           (   1   4  43  14   2   0   0)

     celldm(1)=  14.172946  celldm(2)=   0.000000  celldm(3)=   0.000000
     celldm(4)=   0.000000  celldm(5)=   0.000000  celldm(6)=   0.000000

     crystal axes: (cart. coord. in units of alat)
               a(1) = (   1.000000   0.000000   0.000000 )  
               a(2) = (   0.500000   0.866025   0.000000 )  
               a(3) = (   0.000000   0.000000   3.477667 )  

     reciprocal axes: (cart. coord. in units 2 pi/alat)
               b(1) = (  1.000000 -0.577350  0.000000 )  
               b(2) = (  0.000000  1.154701  0.000000 )  
               b(3) = (  0.000000  0.000000  0.287549 )  


     PseudoPot. # 1 for Co read from file:
     /users/kbadger1/espresso/pseudo/pslibrary.1.0.0/pbe/PSEUDOPOTENTIALS/Co.pbe-n-kjpaw_psl.1.0.0.UPF
     MD5 check sum: 88af6ec42553d4236c267fdfcb472151
     Pseudo is Projector augmented-wave + core cor, Zval =  9.0
     Generated using 'atomic' code by A. Dal Corso  v.7.0
     Shape of augmentation charge: PSQ
     Using radial grid of 1193 points,  6 beta functions with: 
                l(1) =   0
                l(2) =   0
                l(3) =   1
                l(4) =   1
                l(5) =   2
                l(6) =   2
     Q(r) pseudized with 0 coefficients 


     PseudoPot. # 2 for C  read from file:
     /users/kbadger1/espresso/pseudo/pslibrary.1.0.0/pbe/PSEUDOPOTENTIALS/C.pbe-n-kjpaw_psl.1.0.0.UPF
     MD5 check sum: 6408e75cdba28732cea38a4db8498ce4
     Pseudo is Projector augmented-wave + core cor, Zval =  4.0
     Generated using 'atomic' code by A. Dal Corso  v.7.0
     Shape of augmentation charge: PSQ
     Using radial grid of 1073 points,  4 beta functions with: 
                l(1) =   0
                l(2) =   0
                l(3) =   1
                l(4) =   1
     Q(r) pseudized with 0 coefficients 


     PseudoPot. # 3 for O  read from file:
     /users/kbadger1/espresso/pseudo/pslibrary.1.0.0/pbe/PSEUDOPOTENTIALS/O.pbe-nl-kjpaw_psl.1.0.0.UPF
     MD5 check sum: f0439fab3598ca4e468f064226030408
     Pseudo is Projector augmented-wave + core cor, Zval =  6.0
     Generated using 'atomic' code by A. Dal Corso  v.7.0
     Shape of augmentation charge: PSQ
     Using radial grid of 1095 points,  4 beta functions with: 
                l(1) =   0
                l(2) =   0
                l(3) =   1
                l(4) =   1
     Q(r) pseudized with 0 coefficients 


     PseudoPot. # 4 for H  read from file:
     /users/kbadger1/espresso/pseudo/pslibrary.1.0.0/pbe/PSEUDOPOTENTIALS/H.pbe-kjpaw_psl.1.0.0.UPF
     MD5 check sum: fe4c6fa958fa6d3815bf5d2419cbf1df
     Pseudo is Projector augmented-wave, Zval =  1.0
     Generated using 'atomic' code by A. Dal Corso  v.7.0
     Shape of augmentation charge: PSQ
     Using radial grid of  929 points,  2 beta functions with: 
                l(1) =   0
                l(2) =   0
     Q(r) pseudized with 0 coefficients 


     atomic species   valence    mass     pseudopotential
        Co             9.00    58.93319     Co( 1.00)
        C              4.00    12.00000     C ( 1.00)
        O              6.00    15.99491     O ( 1.00)
        H              1.00     1.00783     H ( 1.00)

     Starting magnetic structure 
     atomic species   magnetization
        Co           1.000
        C            1.000
        O            0.000
        H            0.000

     No symmetry found



   Cartesian axes

     site n.     atom                  positions (alat units)
         1           Co  tau(   1) = (   0.0000000   0.1924501   1.3333333  )
         2           Co  tau(   2) = (   0.3333333   0.1924501   1.3333333  )
         3           Co  tau(   3) = (   0.6666667   0.1924501   1.3333333  )
         4           Co  tau(   4) = (   0.1666667   0.4811252   1.3333333  )
         5           Co  tau(   5) = (   0.5000000   0.4811252   1.3333333  )
         6           Co  tau(   6) = (   0.8333333   0.4811252   1.3333333  )
         7           Co  tau(   7) = (   0.3333333   0.7698004   1.3333333  )
         8           Co  tau(   8) = (   0.6666667   0.7698004   1.3333333  )
         9           Co  tau(   9) = (   1.0000000   0.7698004   1.3333333  )
        10           Co  tau(  10) = (   0.0000000   0.0000000   1.6036667  )
        11           Co  tau(  11) = (   0.3333333   0.0000000   1.6036667  )
        12           Co  tau(  12) = (   0.6666667   0.0000000   1.6036667  )
        13           Co  tau(  13) = (   0.1666667   0.2886751   1.6036667  )
        14           Co  tau(  14) = (   0.5000000   0.2886751   1.6036667  )
        15           Co  tau(  15) = (   0.8333333   0.2886751   1.6036667  )
        16           Co  tau(  16) = (   0.3333333   0.5773503   1.6036667  )
        17           Co  tau(  17) = (   0.6666667   0.5773503   1.6036667  )
        18           Co  tau(  18) = (   1.0000000   0.5773503   1.6036667  )
        19           Co  tau(  19) = (   0.0000000   0.1924501   1.8740000  )
        20           Co  tau(  20) = (   0.3333333   0.1924501   1.8740000  )
        21           Co  tau(  21) = (   0.6666667   0.1924501   1.8740000  )
        22           Co  tau(  22) = (   0.1666667   0.4811252   1.8740000  )
        23           Co  tau(  23) = (   0.5000000   0.4811252   1.8740000  )
        24           Co  tau(  24) = (   0.8333333   0.4811252   1.8740000  )
        25           Co  tau(  25) = (   0.3333333   0.7698004   1.8740000  )
        26           Co  tau(  26) = (   0.6666667   0.7698004   1.8740000  )
        27           Co  tau(  27) = (   1.0000000   0.7698004   1.8740000  )
        28           Co  tau(  28) = (   0.0000000   0.0000000   2.1443333  )
        29           Co  tau(  29) = (   0.3333333   0.0000000   2.1443333  )
        30           Co  tau(  30) = (   0.6666667   0.0000000   2.1443333  )
        31           Co  tau(  31) = (   0.1666667   0.2886751   2.1443333  )
        32           Co  tau(  32) = (   0.5000000   0.2886751   2.1443333  )
        33           Co  tau(  33) = (   0.8333333   0.2886751   2.1443333  )
        34           Co  tau(  34) = (   0.3333333   0.5773503   2.1443333  )
        35           Co  tau(  35) = (   0.6666667   0.5773503   2.1443333  )
        36           Co  tau(  36) = (   1.0000000   0.5773503   2.1443333  )
        37           C   tau(  37) = (   0.3796952   0.1691405   2.3311508  )
        38           O   tau(  38) = (   0.3418447   0.1333432   2.4822509  )
        39           H   tau(  39) = (   0.5390198   0.3257393   2.3396094  )

     number of k points=    13  Marzari-Vanderbilt smearing, width (Ry)=  0.0010
                       cart. coord. in units 2pi/alat
        k(    1) = (   0.0000000   0.0000000   0.0000000), wk =   0.0400000
        k(    2) = (   0.0000000   0.2309401   0.0000000), wk =   0.0800000
        k(    3) = (   0.0000000   0.4618802   0.0000000), wk =   0.0800000
        k(    4) = (   0.2000000  -0.1154701   0.0000000), wk =   0.0800000
        k(    5) = (   0.2000000   0.1154701   0.0000000), wk =   0.0800000
        k(    6) = (   0.2000000   0.3464102   0.0000000), wk =   0.0800000
        k(    7) = (   0.2000000  -0.5773503   0.0000000), wk =   0.0800000
        k(    8) = (   0.2000000  -0.3464102   0.0000000), wk =   0.0800000
        k(    9) = (   0.4000000  -0.2309401   0.0000000), wk =   0.0800000
        k(   10) = (   0.4000000   0.0000000   0.0000000), wk =   0.0800000
        k(   11) = (   0.4000000   0.2309401   0.0000000), wk =   0.0800000
        k(   12) = (   0.4000000  -0.6928203   0.0000000), wk =   0.0800000
        k(   13) = (   0.4000000  -0.4618802   0.0000000), wk =   0.0800000

     Dense  grid:   752179 G-vectors     FFT dimensions: (  80,  80, 288)

     Smooth grid:   409445 G-vectors     FFT dimensions: (  64,  64, 225)

     Estimated max dynamical RAM per process >      99.02 MB

     Estimated total dynamical RAM >       9.28 GB
     Generating pointlists ...
     new r_m :   0.0836 (alat units)  1.1842 (a.u.) for type    1
     new r_m :   0.0659 (alat units)  0.9344 (a.u.) for type    2
     new r_m :   0.0659 (alat units)  0.9344 (a.u.) for type    3
     new r_m :   0.0836 (alat units)  1.1842 (a.u.) for type    4

     Initial potential from superposition of free atoms

     starting charge     334.9897, renormalised to     335.0000

     negative rho (up, down):  3.054E-03 4.633E-04


     %%%%%%%%%%%%%%%%%%%%%%%%%%%%%%%%%%%%%%%%%%%%%%%%%%%%%%%%%%%%%%%%%%%%%%%%
     %                                                                      %
     % You are using vdW-DF, which was implemented by the Thonhauser group. %
     % Please cite the following two papers that made this development      %
     % possible and the two reviews that describe the various versions:     %
     %                                                                      %
     %   T. Thonhauser et al., PRL 115, 136402 (2015).                      %
     %   T. Thonhauser et al., PRB 76, 125112 (2007).                       %
     %   K. Berland et al., Rep. Prog. Phys. 78, 066501 (2015).             %
     %   D.C. Langreth et al., J. Phys.: Condens. Matter 21, 084203 (2009). %
     %                                                                      %
     % If you are calculating stress with vdW-DF, please also cite:         %
     %                                                                      %
     %   R. Sabatini et al., J. Phys.: Condens. Matter 24, 424209 (2012).   %
     %   C.M. Frostenson et al., Electr. Struct. 4, 014001 (2022).          %
     %                                                                      %
     %%%%%%%%%%%%%%%%%%%%%%%%%%%%%%%%%%%%%%%%%%%%%%%%%%%%%%%%%%%%%%%%%%%%%%%%

     %%%%%%%%%%%%%%%%%%%%%%%%%%%%%%%%%%%%%%%%%%%%%%%%%%%%%%%%%%%%%%%%%%%%%%%%
     %                                                                      %
     %  vdW-DF NEWS:                                                        %
     %                                                                      %
     %  * vdW-DF3 is now available. DOI: 10.1021/acs.jctc.0c00471           %
     %    use with input_dft = 'vdW-DF3-opt1' or 'vdW-DF3-opt2'             %
     %                                                                      %
     %  * Unscreened and range-separated hybrid vdW-DF-cx functionals       %
     %    DOI: 10.1063/1.4986522 and 10.1088/1361-648X/ac2ad2               %
     %    use with input_dft = 'vdW-DF-cx0'    and 'vdW-DF-ahcx'            %
     %  * Unscreened and range-separated hybrid vdW-DF2-b86r functionals    %
     %    DOI: 10.1063/1.4986522 and DOI: 10.1103/PhysRevX.12.041003        %
     %    use with input_dft = 'vdW-DF2-br0' and 'vdW-DF2-ahbr'             %
     %                                                                      %
     %%%%%%%%%%%%%%%%%%%%%%%%%%%%%%%%%%%%%%%%%%%%%%%%%%%%%%%%%%%%%%%%%%%%%%%%


     Starting wfcs are  333 randomized atomic wfcs
     Checking if some PAW data can be deallocated... 

     total cpu time spent up to now is       16.4 secs

     per-process dynamical memory:   230.9 Mb

     Self-consistent Calculation

     iteration #  1     ecut=    50.00 Ry     beta= 0.70
     Davidson diagonalization with overlap
     ethr =  1.00E-02,  avg # of iterations =  2.0

     negative rho (up, down):  3.130E-05 7.621E-08

     total cpu time spent up to now is       34.3 secs

     total energy              =   -6053.04354530 Ry
     estimated scf accuracy    <      39.38872968 Ry

     total magnetization       =    69.00 Bohr mag/cell
     absolute magnetization    =    81.24 Bohr mag/cell

     iteration #  2     ecut=    50.00 Ry     beta= 0.70
     Davidson diagonalization with overlap
     ethr =  1.00E-02,  avg # of iterations =  1.0

     negative rho (up, down):  4.547E-06 1.185E-08

     total cpu time spent up to now is       53.5 secs

     total energy              =   -6052.51598913 Ry
     estimated scf accuracy    <      24.94898897 Ry

     total magnetization       =    68.69 Bohr mag/cell
     absolute magnetization    =    76.61 Bohr mag/cell

     iteration #  3     ecut=    50.00 Ry     beta= 0.70
     Davidson diagonalization with overlap
     ethr =  7.45E-03,  avg # of iterations =  1.0

     negative rho (up, down):  1.502E-08 0.000E+00

     total cpu time spent up to now is       71.7 secs

     total energy              =   -6055.09772236 Ry
     estimated scf accuracy    <      84.45219606 Ry

     total magnetization       =    66.29 Bohr mag/cell
     absolute magnetization    =    73.55 Bohr mag/cell

     iteration #  4     ecut=    50.00 Ry     beta= 0.70
     Davidson diagonalization with overlap
     ethr =  7.45E-03,  avg # of iterations =  1.0

     total cpu time spent up to now is       85.5 secs

     total energy              =   -6056.36206853 Ry
     estimated scf accuracy    <       5.18808466 Ry

     total magnetization       =    60.31 Bohr mag/cell
     absolute magnetization    =    70.10 Bohr mag/cell

     iteration #  5     ecut=    50.00 Ry     beta= 0.70
     Davidson diagonalization with overlap
     ethr =  1.55E-03,  avg # of iterations =  1.2

     total cpu time spent up to now is      104.1 secs

     total energy              =   -6056.38212785 Ry
     estimated scf accuracy    <       2.39618068 Ry

     total magnetization       =    59.79 Bohr mag/cell
     absolute magnetization    =    69.25 Bohr mag/cell

     iteration #  6     ecut=    50.00 Ry     beta= 0.70
     Davidson diagonalization with overlap
     ethr =  7.15E-04,  avg # of iterations =  1.6

     total cpu time spent up to now is      118.8 secs

     total energy              =   -6056.48841876 Ry
     estimated scf accuracy    <       0.56618215 Ry

     total magnetization       =    59.61 Bohr mag/cell
     absolute magnetization    =    68.79 Bohr mag/cell

     iteration #  7     ecut=    50.00 Ry     beta= 0.70
     Davidson diagonalization with overlap
     ethr =  1.69E-04,  avg # of iterations =  6.6

     total cpu time spent up to now is      144.0 secs

     total energy              =   -6056.53510046 Ry
     estimated scf accuracy    <       0.89030581 Ry

     total magnetization       =    59.82 Bohr mag/cell
     absolute magnetization    =    68.57 Bohr mag/cell

     iteration #  8     ecut=    50.00 Ry     beta= 0.70
     Davidson diagonalization with overlap
     ethr =  1.69E-04,  avg # of iterations =  1.9

     total cpu time spent up to now is      162.7 secs

     total energy              =   -6056.55076120 Ry
     estimated scf accuracy    <       0.13952005 Ry

     total magnetization       =    59.96 Bohr mag/cell
     absolute magnetization    =    68.52 Bohr mag/cell

     iteration #  9     ecut=    50.00 Ry     beta= 0.70
     Davidson diagonalization with overlap
     c_bands:  2 eigenvalues not converged
     c_bands:  1 eigenvalues not converged
     ethr =  4.16E-05,  avg # of iterations =  8.7

     total cpu time spent up to now is      191.3 secs

     total energy              =   -6056.55447236 Ry
     estimated scf accuracy    <       0.15997809 Ry

     total magnetization       =    60.12 Bohr mag/cell
     absolute magnetization    =    68.37 Bohr mag/cell

     iteration # 10     ecut=    50.00 Ry     beta= 0.70
     Davidson diagonalization with overlap
     ethr =  4.16E-05,  avg # of iterations =  2.7

     total cpu time spent up to now is      206.6 secs

     total energy              =   -6056.56028085 Ry
     estimated scf accuracy    <       0.19856641 Ry

     total magnetization       =    60.14 Bohr mag/cell
     absolute magnetization    =    68.23 Bohr mag/cell

     iteration # 11     ecut=    50.00 Ry     beta= 0.70
     Davidson diagonalization with overlap
     ethr =  4.16E-05,  avg # of iterations =  2.0

     total cpu time spent up to now is      225.0 secs

     total energy              =   -6056.55453594 Ry
     estimated scf accuracy    <       0.12947830 Ry

     total magnetization       =    60.18 Bohr mag/cell
     absolute magnetization    =    68.14 Bohr mag/cell

     iteration # 12     ecut=    50.00 Ry     beta= 0.70
     Davidson diagonalization with overlap
     ethr =  3.87E-05,  avg # of iterations =  1.9

     total cpu time spent up to now is      240.9 secs

     total energy              =   -6056.55808435 Ry
     estimated scf accuracy    <       0.08101219 Ry

     total magnetization       =    60.15 Bohr mag/cell
     absolute magnetization    =    67.96 Bohr mag/cell

     iteration # 13     ecut=    50.00 Ry     beta= 0.70
     Davidson diagonalization with overlap
     ethr =  2.42E-05,  avg # of iterations =  1.5

     total cpu time spent up to now is      258.9 secs

     total energy              =   -6056.55745198 Ry
     estimated scf accuracy    <       0.09333347 Ry

     total magnetization       =    60.21 Bohr mag/cell
     absolute magnetization    =    67.94 Bohr mag/cell

     iteration # 14     ecut=    50.00 Ry     beta= 0.70
     Davidson diagonalization with overlap
     ethr =  2.42E-05,  avg # of iterations =  1.6

     total cpu time spent up to now is      272.9 secs

     total energy              =   -6056.55150131 Ry
     estimated scf accuracy    <       0.09583757 Ry

     total magnetization       =    60.16 Bohr mag/cell
     absolute magnetization    =    67.95 Bohr mag/cell

     iteration # 15     ecut=    50.00 Ry     beta= 0.70
     Davidson diagonalization with overlap
     ethr =  2.42E-05,  avg # of iterations =  1.7

     negative rho (up, down):  6.486E-03 5.192E-03

     total cpu time spent up to now is      292.0 secs

     total energy              =   -6056.54907507 Ry
     estimated scf accuracy    <       0.10183620 Ry

     total magnetization       =    60.23 Bohr mag/cell
     absolute magnetization    =    67.96 Bohr mag/cell

     iteration # 16     ecut=    50.00 Ry     beta= 0.70
     Davidson diagonalization with overlap
     ethr =  2.42E-05,  avg # of iterations =  1.7

     negative rho (up, down):  1.855E-02 1.685E-02

     total cpu time spent up to now is      311.9 secs

     total energy              =   -6056.54826680 Ry
     estimated scf accuracy    <       0.03252949 Ry

     total magnetization       =    60.17 Bohr mag/cell
     absolute magnetization    =    67.81 Bohr mag/cell

     iteration # 17     ecut=    50.00 Ry     beta= 0.70
     Davidson diagonalization with overlap
     c_bands:  1 eigenvalues not converged
     c_bands:  2 eigenvalues not converged
     c_bands:  2 eigenvalues not converged
     c_bands:  2 eigenvalues not converged
     c_bands:  2 eigenvalues not converged
     c_bands:  3 eigenvalues not converged
     ethr =  9.71E-06,  avg # of iterations =  8.6

     negative rho (up, down):  3.568E-02 3.374E-02

     total cpu time spent up to now is      332.9 secs

     total energy              =   -6056.54739601 Ry
     estimated scf accuracy    <       0.03654303 Ry

     total magnetization       =    60.18 Bohr mag/cell
     absolute magnetization    =    67.77 Bohr mag/cell

     iteration # 18     ecut=    50.00 Ry     beta= 0.70
     Davidson diagonalization with overlap
     ethr =  9.71E-06,  avg # of iterations =  2.9

     negative rho (up, down):  2.699E-02 2.519E-02

     total cpu time spent up to now is      353.3 secs

     total energy              =   -6056.54830469 Ry
     estimated scf accuracy    <       0.04600227 Ry

     total magnetization       =    60.23 Bohr mag/cell
     absolute magnetization    =    67.78 Bohr mag/cell

     iteration # 19     ecut=    50.00 Ry     beta= 0.70
     Davidson diagonalization with overlap
     ethr =  9.71E-06,  avg # of iterations =  1.2

     negative rho (up, down):  1.688E-02 1.530E-02

     total cpu time spent up to now is      372.3 secs

     total energy              =   -6056.54671017 Ry
     estimated scf accuracy    <       0.01004837 Ry

     total magnetization       =    60.23 Bohr mag/cell
     absolute magnetization    =    67.78 Bohr mag/cell

     iteration # 20     ecut=    50.00 Ry     beta= 0.70
     Davidson diagonalization with overlap
     c_bands:  1 eigenvalues not converged
     c_bands:  1 eigenvalues not converged
     c_bands:  1 eigenvalues not converged
     c_bands:  2 eigenvalues not converged
     c_bands:  2 eigenvalues not converged
     c_bands:  1 eigenvalues not converged
     ethr =  3.00E-06,  avg # of iterations =  9.2

     negative rho (up, down):  1.694E-02 1.565E-02

     total cpu time spent up to now is      393.8 secs

     total energy              =   -6056.54587894 Ry
     estimated scf accuracy    <       0.01420496 Ry

     total magnetization       =    60.34 Bohr mag/cell
     absolute magnetization    =    67.85 Bohr mag/cell

     iteration # 21     ecut=    50.00 Ry     beta= 0.70
     Davidson diagonalization with overlap
     ethr =  3.00E-06,  avg # of iterations =  1.9

     negative rho (up, down):  2.285E-02 2.148E-02

     total cpu time spent up to now is      413.0 secs

     total energy              =   -6056.54604077 Ry
     estimated scf accuracy    <       0.01079835 Ry

     total magnetization       =    60.39 Bohr mag/cell
     absolute magnetization    =    67.89 Bohr mag/cell

     iteration # 22     ecut=    50.00 Ry     beta= 0.70
     Davidson diagonalization with overlap
     ethr =  3.00E-06,  avg # of iterations =  1.5

     negative rho (up, down):  1.165E-02 1.093E-02

     total cpu time spent up to now is      432.8 secs

     total energy              =   -6056.54582585 Ry
     estimated scf accuracy    <       0.00333842 Ry

     total magnetization       =    60.36 Bohr mag/cell
     absolute magnetization    =    67.87 Bohr mag/cell

     iteration # 23     ecut=    50.00 Ry     beta= 0.70
     Davidson diagonalization with overlap
     ethr =  9.97E-07,  avg # of iterations =  2.8

     negative rho (up, down):  1.543E-02 1.443E-02

     total cpu time spent up to now is      448.2 secs

     total energy              =   -6056.54585060 Ry
     estimated scf accuracy    <       0.00356341 Ry

     total magnetization       =    60.38 Bohr mag/cell
     absolute magnetization    =    67.89 Bohr mag/cell

     iteration # 24     ecut=    50.00 Ry     beta= 0.70
     Davidson diagonalization with overlap
     ethr =  9.97E-07,  avg # of iterations =  1.5

     negative rho (up, down):  9.960E-03 9.250E-03

     total cpu time spent up to now is      466.7 secs

     total energy              =   -6056.54606028 Ry
     estimated scf accuracy    <       0.00256987 Ry

     total magnetization       =    60.36 Bohr mag/cell
     absolute magnetization    =    67.88 Bohr mag/cell

     iteration # 25     ecut=    50.00 Ry     beta= 0.70
     Davidson diagonalization with overlap
     ethr =  7.67E-07,  avg # of iterations =  1.6

     negative rho (up, down):  9.082E-03 8.396E-03

     total cpu time spent up to now is      482.2 secs

     total energy              =   -6056.54613622 Ry
     estimated scf accuracy    <       0.00132455 Ry

     total magnetization       =    60.38 Bohr mag/cell
     absolute magnetization    =    67.90 Bohr mag/cell

     iteration # 26     ecut=    50.00 Ry     beta= 0.70
     Davidson diagonalization with overlap
     ethr =  3.95E-07,  avg # of iterations =  1.3

     negative rho (up, down):  4.567E-03 3.721E-03

     total cpu time spent up to now is      500.5 secs

     total energy              =   -6056.54621818 Ry
     estimated scf accuracy    <       0.00034530 Ry

     total magnetization       =    60.40 Bohr mag/cell
     absolute magnetization    =    67.91 Bohr mag/cell

     iteration # 27     ecut=    50.00 Ry     beta= 0.70
     Davidson diagonalization with overlap
     c_bands:  1 eigenvalues not converged
     ethr =  1.03E-07,  avg # of iterations =  5.0

     negative rho (up, down):  4.603E-03 3.772E-03

     total cpu time spent up to now is      523.5 secs

     total energy              =   -6056.54622722 Ry
     estimated scf accuracy    <       0.00048807 Ry

     total magnetization       =    60.39 Bohr mag/cell
     absolute magnetization    =    67.90 Bohr mag/cell

     iteration # 28     ecut=    50.00 Ry     beta= 0.70
     Davidson diagonalization with overlap
     ethr =  1.03E-07,  avg # of iterations =  1.2

     negative rho (up, down):  3.861E-03 2.860E-03

     total cpu time spent up to now is      537.1 secs

     total energy              =   -6056.54626511 Ry
     estimated scf accuracy    <       0.00016025 Ry

     total magnetization       =    60.39 Bohr mag/cell
     absolute magnetization    =    67.90 Bohr mag/cell

     iteration # 29     ecut=    50.00 Ry     beta= 0.70
     Davidson diagonalization with overlap
     ethr =  4.78E-08,  avg # of iterations =  2.5

     negative rho (up, down):  4.024E-03 3.053E-03

     total cpu time spent up to now is      557.7 secs

     total energy              =   -6056.54627130 Ry
     estimated scf accuracy    <       0.00037893 Ry

     total magnetization       =    60.39 Bohr mag/cell
     absolute magnetization    =    67.90 Bohr mag/cell

     iteration # 30     ecut=    50.00 Ry     beta= 0.70
     Davidson diagonalization with overlap
     ethr =  4.78E-08,  avg # of iterations =  1.1

     negative rho (up, down):  3.924E-03 2.907E-03

     total cpu time spent up to now is      571.1 secs

     total energy              =   -6056.54627997 Ry
     estimated scf accuracy    <       0.00011252 Ry

     total magnetization       =    60.39 Bohr mag/cell
     absolute magnetization    =    67.90 Bohr mag/cell

     iteration # 31     ecut=    50.00 Ry     beta= 0.70
     Davidson diagonalization with overlap
     ethr =  3.36E-08,  avg # of iterations =  1.3

     negative rho (up, down):  3.351E-03 2.287E-03

     total cpu time spent up to now is      589.2 secs

     total energy              =   -6056.54627395 Ry
     estimated scf accuracy    <       0.00011835 Ry

     total magnetization       =    60.39 Bohr mag/cell
     absolute magnetization    =    67.90 Bohr mag/cell

     iteration # 32     ecut=    50.00 Ry     beta= 0.70
     Davidson diagonalization with overlap
     ethr =  3.36E-08,  avg # of iterations =  1.7

     negative rho (up, down):  3.743E-03 2.794E-03

     total cpu time spent up to now is      604.9 secs

     total energy              =   -6056.54628086 Ry
     estimated scf accuracy    <       0.00007212 Ry

     total magnetization       =    60.39 Bohr mag/cell
     absolute magnetization    =    67.89 Bohr mag/cell

     iteration # 33     ecut=    50.00 Ry     beta= 0.70
     Davidson diagonalization with overlap
     c_bands:  1 eigenvalues not converged
     ethr =  2.15E-08,  avg # of iterations =  3.0

     negative rho (up, down):  3.507E-03 2.517E-03

     total cpu time spent up to now is      625.4 secs

     total energy              =   -6056.54627312 Ry
     estimated scf accuracy    <       0.00026570 Ry

     total magnetization       =    60.39 Bohr mag/cell
     absolute magnetization    =    67.89 Bohr mag/cell

     iteration # 34     ecut=    50.00 Ry     beta= 0.70
     Davidson diagonalization with overlap
     ethr =  2.15E-08,  avg # of iterations =  2.0

     negative rho (up, down):  3.481E-03 2.545E-03

     total cpu time spent up to now is      644.3 secs

     total energy              =   -6056.54628471 Ry
     estimated scf accuracy    <       0.00006234 Ry

     total magnetization       =    60.38 Bohr mag/cell
     absolute magnetization    =    67.89 Bohr mag/cell

     iteration # 35     ecut=    50.00 Ry     beta= 0.70
     Davidson diagonalization with overlap
     ethr =  1.86E-08,  avg # of iterations =  1.5

     negative rho (up, down):  3.425E-03 2.534E-03

     total cpu time spent up to now is      658.5 secs

     total energy              =   -6056.54628701 Ry
     estimated scf accuracy    <       0.00002450 Ry

     total magnetization       =    60.38 Bohr mag/cell
     absolute magnetization    =    67.89 Bohr mag/cell

     iteration # 36     ecut=    50.00 Ry     beta= 0.70
     Davidson diagonalization with overlap
     c_bands:  1 eigenvalues not converged
     ethr =  7.31E-09,  avg # of iterations =  2.8

     negative rho (up, down):  3.173E-03 2.209E-03

     total cpu time spent up to now is      679.5 secs

     total energy              =   -6056.54628065 Ry
     estimated scf accuracy    <       0.00001856 Ry

     total magnetization       =    60.38 Bohr mag/cell
     absolute magnetization    =    67.88 Bohr mag/cell

     iteration # 37     ecut=    50.00 Ry     beta= 0.70
     Davidson diagonalization with overlap
     ethr =  5.54E-09,  avg # of iterations =  1.4

     negative rho (up, down):  3.184E-03 2.236E-03

     total cpu time spent up to now is      693.5 secs

     total energy              =   -6056.54628121 Ry
     estimated scf accuracy    <       0.00001391 Ry

     total magnetization       =    60.38 Bohr mag/cell
     absolute magnetization    =    67.88 Bohr mag/cell

     iteration # 38     ecut=    50.00 Ry     beta= 0.70
     Davidson diagonalization with overlap
     ethr =  4.15E-09,  avg # of iterations =  1.7

     negative rho (up, down):  2.806E-03 1.742E-03

     total cpu time spent up to now is      712.7 secs

     total energy              =   -6056.54627522 Ry
     estimated scf accuracy    <       0.00001036 Ry

     total magnetization       =    60.38 Bohr mag/cell
     absolute magnetization    =    67.88 Bohr mag/cell

     iteration # 39     ecut=    50.00 Ry     beta= 0.70
     Davidson diagonalization with overlap
     ethr =  3.09E-09,  avg # of iterations =  2.4

     negative rho (up, down):  2.816E-03 1.790E-03

     total cpu time spent up to now is      733.6 secs

     total energy              =   -6056.54627509 Ry
     estimated scf accuracy    <       0.00001714 Ry

     total magnetization       =    60.38 Bohr mag/cell
     absolute magnetization    =    67.88 Bohr mag/cell

     iteration # 40     ecut=    50.00 Ry     beta= 0.70
     Davidson diagonalization with overlap
     ethr =  3.09E-09,  avg # of iterations =  1.5

     negative rho (up, down):  2.556E-03 1.501E-03

     total cpu time spent up to now is      747.7 secs

     total energy              =   -6056.54627450 Ry
     estimated scf accuracy    <       0.00000904 Ry

     total magnetization       =    60.38 Bohr mag/cell
     absolute magnetization    =    67.88 Bohr mag/cell

     iteration # 41     ecut=    50.00 Ry     beta= 0.70
     Davidson diagonalization with overlap
     ethr =  2.70E-09,  avg # of iterations =  1.3

     negative rho (up, down):  2.351E-03 1.266E-03

     total cpu time spent up to now is      765.9 secs

     total energy              =   -6056.54627507 Ry
     estimated scf accuracy    <       0.00000505 Ry

     total magnetization       =    60.38 Bohr mag/cell
     absolute magnetization    =    67.88 Bohr mag/cell

     iteration # 42     ecut=    50.00 Ry     beta= 0.70
     Davidson diagonalization with overlap
     c_bands:  1 eigenvalues not converged
     ethr =  1.51E-09,  avg # of iterations =  2.8

     negative rho (up, down):  2.369E-03 1.284E-03

     total cpu time spent up to now is      781.6 secs

     total energy              =   -6056.54627518 Ry
     estimated scf accuracy    <       0.00000219 Ry

     total magnetization       =    60.38 Bohr mag/cell
     absolute magnetization    =    67.88 Bohr mag/cell

     iteration # 43     ecut=    50.00 Ry     beta= 0.70
     Davidson diagonalization with overlap
     ethr =  6.54E-10,  avg # of iterations =  4.5

     negative rho (up, down):  2.327E-03 1.244E-03

     total cpu time spent up to now is      804.5 secs

     total energy              =   -6056.54627520 Ry
     estimated scf accuracy    <       0.00000540 Ry

     total magnetization       =    60.38 Bohr mag/cell
     absolute magnetization    =    67.88 Bohr mag/cell

     iteration # 44     ecut=    50.00 Ry     beta= 0.70
     Davidson diagonalization with overlap
     ethr =  6.54E-10,  avg # of iterations =  1.7

     negative rho (up, down):  2.292E-03 1.208E-03

     total cpu time spent up to now is      823.1 secs

     total energy              =   -6056.54627531 Ry
     estimated scf accuracy    <       0.00000186 Ry

     total magnetization       =    60.38 Bohr mag/cell
     absolute magnetization    =    67.88 Bohr mag/cell

     iteration # 45     ecut=    50.00 Ry     beta= 0.70
     Davidson diagonalization with overlap
     ethr =  5.56E-10,  avg # of iterations =  1.4

     negative rho (up, down):  2.281E-03 1.197E-03

     total cpu time spent up to now is      837.2 secs

     total energy              =   -6056.54627535 Ry
     estimated scf accuracy    <       0.00000088 Ry

     total magnetization       =    60.38 Bohr mag/cell
     absolute magnetization    =    67.88 Bohr mag/cell

     iteration # 46     ecut=    50.00 Ry     beta= 0.70
     Davidson diagonalization with overlap
     ethr =  2.63E-10,  avg # of iterations =  2.8

     negative rho (up, down):  2.263E-03 1.179E-03

     total cpu time spent up to now is      857.4 secs

     total energy              =   -6056.54627538 Ry
     estimated scf accuracy    <       0.00000048 Ry

     total magnetization       =    60.38 Bohr mag/cell
     absolute magnetization    =    67.88 Bohr mag/cell

     iteration # 47     ecut=    50.00 Ry     beta= 0.70
     Davidson diagonalization with overlap
     ethr =  1.44E-10,  avg # of iterations =  3.2

     negative rho (up, down):  2.236E-03 1.152E-03

     total cpu time spent up to now is      873.0 secs

     total energy              =   -6056.54627534 Ry
     estimated scf accuracy    <       0.00000026 Ry

     total magnetization       =    60.38 Bohr mag/cell
     absolute magnetization    =    67.88 Bohr mag/cell

     iteration # 48     ecut=    50.00 Ry     beta= 0.70
     Davidson diagonalization with overlap
     c_bands:  1 eigenvalues not converged
     ethr =  7.87E-11,  avg # of iterations =  4.1

     negative rho (up, down):  2.229E-03 1.145E-03

     total cpu time spent up to now is      894.4 secs

     total energy              =   -6056.54627532 Ry
     estimated scf accuracy    <       0.00000045 Ry

     total magnetization       =    60.38 Bohr mag/cell
     absolute magnetization    =    67.88 Bohr mag/cell

     iteration # 49     ecut=    50.00 Ry     beta= 0.70
     Davidson diagonalization with overlap
     ethr =  7.87E-11,  avg # of iterations =  1.8

     negative rho (up, down):  2.227E-03 1.143E-03

     total cpu time spent up to now is      913.5 secs

     total energy              =   -6056.54627534 Ry
     estimated scf accuracy    <       0.00000013 Ry

     total magnetization       =    60.38 Bohr mag/cell
     absolute magnetization    =    67.88 Bohr mag/cell

     iteration # 50     ecut=    50.00 Ry     beta= 0.70
     Davidson diagonalization with overlap
     ethr =  3.76E-11,  avg # of iterations =  2.7

     negative rho (up, down):  2.229E-03 1.146E-03

     total cpu time spent up to now is      928.9 secs

     total energy              =   -6056.54627535 Ry
     estimated scf accuracy    <       0.00000010 Ry

     total magnetization       =    60.38 Bohr mag/cell
     absolute magnetization    =    67.88 Bohr mag/cell

     iteration # 51     ecut=    50.00 Ry     beta= 0.70
     Davidson diagonalization with overlap
     ethr =  3.06E-11,  avg # of iterations =  1.9

     negative rho (up, down):  2.228E-03 1.145E-03

     total cpu time spent up to now is      947.8 secs

     total energy              =   -6056.54627535 Ry
     estimated scf accuracy    <       0.00000001 Ry

     total magnetization       =    60.38 Bohr mag/cell
     absolute magnetization    =    67.88 Bohr mag/cell

     iteration # 52     ecut=    50.00 Ry     beta= 0.70
     Davidson diagonalization with overlap
     c_bands:  1 eigenvalues not converged
     ethr =  3.18E-12,  avg # of iterations =  9.4

     negative rho (up, down):  2.230E-03 1.147E-03

     total cpu time spent up to now is      978.5 secs

     total energy              =   -6056.54627536 Ry
     estimated scf accuracy    <       0.00000002 Ry

     total magnetization       =    60.38 Bohr mag/cell
     absolute magnetization    =    67.88 Bohr mag/cell

     iteration # 53     ecut=    50.00 Ry     beta= 0.70
     Davidson diagonalization with overlap
     ethr =  3.18E-12,  avg # of iterations =  2.0

     negative rho (up, down):  2.230E-03 1.147E-03

     total cpu time spent up to now is      993.4 secs

     total energy              =   -6056.54627536 Ry
     estimated scf accuracy    <       0.00000002 Ry

     total magnetization       =    60.38 Bohr mag/cell
     absolute magnetization    =    67.88 Bohr mag/cell

     iteration # 54     ecut=    50.00 Ry     beta= 0.70
     Davidson diagonalization with overlap
     ethr =  3.18E-12,  avg # of iterations =  1.2

     negative rho (up, down):  2.242E-03 1.159E-03

     Magnetic moment per site  (integrated on atomic sphere of radius R)
     atom   1 (R=0.084)  charge=  5.3154  magn=  1.5742
     atom   2 (R=0.084)  charge=  5.3184  magn=  1.5567
     atom   3 (R=0.084)  charge=  5.3174  magn=  1.5659
     atom   4 (R=0.084)  charge=  5.3180  magn=  1.5721
     atom   5 (R=0.084)  charge=  5.3171  magn=  1.5698
     atom   6 (R=0.084)  charge=  5.3178  magn=  1.5755
     atom   7 (R=0.084)  charge=  5.3151  magn=  1.5793
     atom   8 (R=0.084)  charge=  5.3153  magn=  1.5743
     atom   9 (R=0.084)  charge=  5.3180  magn=  1.5714
     atom  10 (R=0.084)  charge=  5.3081  magn=  1.5082
     atom  11 (R=0.084)  charge=  5.3104  magn=  1.5139
     atom  12 (R=0.084)  charge=  5.3097  magn=  1.5218
     atom  13 (R=0.084)  charge=  5.3100  magn=  1.5184
     atom  14 (R=0.084)  charge=  5.3115  magn=  1.5022
     atom  15 (R=0.084)  charge=  5.3101  magn=  1.5212
     atom  16 (R=0.084)  charge=  5.3099  magn=  1.5172
     atom  17 (R=0.084)  charge=  5.3103  magn=  1.5218
     atom  18 (R=0.084)  charge=  5.3108  magn=  1.5128
     atom  19 (R=0.084)  charge=  5.3084  magn=  1.5047
     atom  20 (R=0.084)  charge=  5.3085  magn=  1.5086
     atom  21 (R=0.084)  charge=  5.3093  magn=  1.4988
     atom  22 (R=0.084)  charge=  5.3099  magn=  1.5148
     atom  23 (R=0.084)  charge=  5.3086  magn=  1.4971
     atom  24 (R=0.084)  charge=  5.3095  magn=  1.5291
     atom  25 (R=0.084)  charge=  5.3083  magn=  1.5149
     atom  26 (R=0.084)  charge=  5.3079  magn=  1.5031
     atom  27 (R=0.084)  charge=  5.3102  magn=  1.5074
     atom  28 (R=0.084)  charge=  5.3146  magn=  1.5943
     atom  29 (R=0.084)  charge=  5.3258  magn=  1.2372
     atom  30 (R=0.084)  charge=  5.3191  magn=  1.5905
     atom  31 (R=0.084)  charge=  5.3223  magn=  1.4949
     atom  32 (R=0.084)  charge=  5.3184  magn=  0.7035
     atom  33 (R=0.084)  charge=  5.3165  magn=  1.5814
     atom  34 (R=0.084)  charge=  5.3170  magn=  1.5999
     atom  35 (R=0.084)  charge=  5.3164  magn=  1.5676
     atom  36 (R=0.084)  charge=  5.3169  magn=  1.5838
     atom  37 (R=0.066)  charge=  1.0582  magn= -0.0193
     atom  38 (R=0.066)  charge=  2.9567  magn= -0.0315
     atom  39 (R=0.084)  charge=  0.7085  magn= -0.0138

     total cpu time spent up to now is     1011.5 secs

     End of self-consistent calculation

 ------ SPIN UP ------------


          k = 0.0000 0.0000 0.0000 ( 51087 PWs)   bands (ev):

   -21.9383  -9.5945  -7.6081  -6.3853  -6.2842  -5.8162  -5.4552  -4.8013
    -4.7771  -4.7744  -4.7709  -4.7501  -4.7437  -4.7105  -4.4019  -4.2421
    -4.2410  -4.2381  -4.2075  -4.1978  -4.1714  -3.7257  -3.7244  -3.7177
    -3.7106  -3.6985  -3.6616  -3.6031  -3.5913  -3.5897  -3.5804  -3.5779
    -3.5226  -3.5150  -3.5007  -3.2581  -3.2075  -3.2039  -3.1997  -3.1971
    -3.1420  -3.1380  -3.1318  -3.1307  -3.1218  -3.1196  -3.1142  -3.0676
    -2.9718  -2.9702  -2.9023  -2.9009  -2.8964  -2.8906  -2.8871  -2.8739
    -2.8686  -2.8642  -2.8638  -2.8241  -2.7651  -2.7582  -2.7507  -2.7449
    -2.6654  -2.6457  -2.2486  -2.2256  -2.2204  -2.2179  -2.2122  -2.1207
    -2.0945  -2.0924  -2.0689  -2.0638  -2.0554  -2.0456  -2.0409  -2.0343
    -1.9953  -1.9895  -1.9723  -1.9429  -1.9339  -1.9317  -1.9173  -1.9124
    -1.9047  -1.9036  -1.8943  -1.8927  -1.8922  -1.8676  -1.8667  -1.8601
    -1.8567  -1.8528  -1.8508  -1.8486  -1.8459  -1.8443  -1.8403  -1.8389
    -1.8237  -1.8155  -1.7881  -1.7637  -1.7534  -1.6880  -1.6830  -1.5821
    -1.4906  -1.4031  -1.3991  -1.3966  -1.3923  -1.3830  -1.3693  -1.3594
    -1.3562  -1.3479  -1.3261  -1.3030  -1.2998  -1.2487  -1.1806  -1.1768
    -1.1498  -1.1397  -1.0586  -1.0036  -0.9821  -0.9657  -0.9604  -0.9320
    -0.9141  -0.9101  -0.9038  -0.9002  -0.8918  -0.8477  -0.7880  -0.7678
    -0.6840  -0.6606  -0.6589  -0.6535  -0.6297  -0.6184  -0.5961  -0.5931
    -0.5913  -0.5886  -0.5857  -0.5823  -0.5753  -0.5668  -0.5646  -0.5581
    -0.5508  -0.5460  -0.5359  -0.5245  -0.5150  -0.5134  -0.5032  -0.4959
    -0.4859  -0.4758  -0.4691  -0.4648  -0.4581  -0.4480  -0.4447  -0.4391
    -0.4331  -0.4293  -0.4090  -0.3850  -0.3655  -0.3604  -0.3570  -0.3496
    -0.3441  -0.3361  -0.3212  -0.3057  -0.2993  -0.2698  -0.2634  -0.2616
    -0.2558  -0.2470  -0.1966  -0.1932  -0.1858  -0.1753  -0.1363  -0.1138
     0.4537   0.9224

          k = 0.0000 0.2309 0.0000 ( 51134 PWs)   bands (ev):

   -21.9383  -9.5875  -7.4645  -6.3565  -6.2279  -5.7961  -5.5398  -5.4001
    -5.0140  -5.0056  -4.6464  -4.5162  -4.4330  -4.4275  -4.3641  -4.3134
    -4.2647  -4.2289  -4.1629  -4.1067  -4.0956  -3.8422  -3.7343  -3.7194
    -3.6491  -3.6255  -3.6072  -3.5995  -3.5949  -3.5881  -3.5712  -3.5474
    -3.5182  -3.4806  -3.4529  -3.4458  -3.4376  -3.2737  -3.2373  -3.2199
    -3.2045  -3.1634  -3.1580  -3.1498  -3.1156  -3.0746  -3.0314  -3.0194
    -2.9964  -2.9861  -2.9836  -2.9519  -2.9106  -2.8557  -2.8469  -2.8207
    -2.7841  -2.7631  -2.7536  -2.7467  -2.7204  -2.7009  -2.6857  -2.6735
    -2.6315  -2.5980  -2.3471  -2.3338  -2.3118  -2.3004  -2.2744  -2.1945
    -2.1881  -2.1808  -2.1676  -2.1601  -2.1534  -2.1376  -2.1067  -2.0662
    -2.0539  -2.0413  -2.0222  -1.9843  -1.9830  -1.9791  -1.9723  -1.9511
    -1.9474  -1.9423  -1.9356  -1.9306  -1.9162  -1.9024  -1.8571  -1.8463
    -1.8324  -1.8008  -1.7850  -1.7549  -1.7495  -1.7429  -1.7335  -1.7245
    -1.7171  -1.7057  -1.6984  -1.6943  -1.6815  -1.6703  -1.6486  -1.6411
    -1.6272  -1.6187  -1.6014  -1.5415  -1.5202  -1.4651  -1.4220  -1.4199
    -1.4081  -1.4002  -1.3905  -1.3892  -1.3709  -1.3620  -1.2768  -1.2465
    -1.2210  -1.1979  -1.1350  -1.1244  -1.1040  -1.0675  -1.0419  -1.0261
    -0.9771  -0.9536  -0.9349  -0.9235  -0.8940  -0.8833  -0.8554  -0.8517
    -0.8347  -0.8048  -0.7888  -0.7614  -0.7559  -0.7458  -0.7381  -0.7244
    -0.7000  -0.6651  -0.6585  -0.6542  -0.6286  -0.6139  -0.5941  -0.5884
    -0.5799  -0.5736  -0.5663  -0.5578  -0.5406  -0.5318  -0.5164  -0.5095
    -0.4618  -0.4450  -0.4347  -0.4095  -0.3962  -0.3754  -0.3526  -0.3389
    -0.3283  -0.3150  -0.3090  -0.3070  -0.2865  -0.2798  -0.2744  -0.2318
    -0.1969  -0.1869  -0.1832  -0.1631  -0.1556  -0.1344  -0.1142  -0.0992
    -0.0371   0.0104   0.1657   0.1949   0.2692   0.3557   0.4450   0.4742
     0.5042   0.8032

          k = 0.0000 0.4619 0.0000 ( 51204 PWs)   bands (ev):

   -21.9383  -9.5762  -7.0454  -6.4469  -6.2628  -6.0415  -5.6334  -5.4145
    -5.1546  -5.1317  -5.0268  -4.3279  -4.2665  -4.2597  -4.2203  -4.1891
    -4.0761  -4.0710  -4.0289  -3.9421  -3.9376  -3.9295  -3.8304  -3.7615
    -3.7559  -3.7455  -3.7409  -3.6875  -3.6438  -3.6339  -3.6076  -3.4885
    -3.4695  -3.4588  -3.4442  -3.4242  -3.4058  -3.3279  -3.3169  -3.3059
    -3.2991  -3.2904  -3.2013  -3.1768  -3.0822  -3.0645  -2.9880  -2.9790
    -2.9539  -2.9348  -2.9114  -2.9092  -2.8908  -2.8737  -2.8326  -2.8097
    -2.7957  -2.7588  -2.7327  -2.7026  -2.6002  -2.5911  -2.5698  -2.5415
    -2.5101  -2.4823  -2.4623  -2.4460  -2.4216  -2.3698  -2.3148  -2.3123
    -2.3088  -2.2983  -2.2851  -2.2695  -2.2618  -2.2477  -2.2428  -2.1948
    -2.1757  -2.1484  -2.1376  -2.1164  -2.0921  -2.0711  -2.0487  -1.9906
    -1.9816  -1.9773  -1.9509  -1.9375  -1.9124  -1.8794  -1.8744  -1.8635
    -1.8533  -1.8309  -1.8261  -1.8068  -1.7992  -1.7834  -1.7760  -1.7584
    -1.7440  -1.7191  -1.6799  -1.6665  -1.6092  -1.6013  -1.5756  -1.5646
    -1.5500  -1.5300  -1.5167  -1.4730  -1.4617  -1.4462  -1.4373  -1.4323
    -1.4264  -1.4209  -1.4115  -1.4073  -1.4021  -1.3880  -1.3754  -1.3591
    -1.3374  -1.3248  -1.2729  -1.2289  -1.2120  -1.1940  -1.1826  -1.1514
    -1.1388  -1.0904  -1.0692  -1.0551  -1.0435  -1.0115  -0.9794  -0.9442
    -0.9308  -0.8956  -0.8801  -0.8707  -0.8416  -0.8151  -0.7876  -0.7634
    -0.7311  -0.6824  -0.6753  -0.6557  -0.6542  -0.6505  -0.6359  -0.6317
    -0.6100  -0.6036  -0.5167  -0.5022  -0.4979  -0.4889  -0.4748  -0.4670
    -0.4489  -0.4356  -0.4313  -0.4213  -0.3865  -0.3680  -0.3212  -0.3096
    -0.2966  -0.2827  -0.2558  -0.2165  -0.2061  -0.1783  -0.1654  -0.1310
    -0.0907  -0.0846  -0.0795  -0.0634  -0.0601  -0.0569  -0.0424   0.0080
     0.0486   0.1009   0.4374   0.7323   0.9775   1.1319   1.1754   1.3400
     1.4722   1.5523

          k = 0.2000-0.1155 0.0000 ( 51134 PWs)   bands (ev):

   -21.9383  -9.5883  -7.4633  -6.3344  -6.2413  -5.8159  -5.5294  -5.4011
    -5.0151  -5.0042  -4.6488  -4.5097  -4.4323  -4.4284  -4.3635  -4.3079
    -4.2604  -4.2423  -4.1563  -4.1066  -4.1017  -3.8380  -3.7318  -3.7223
    -3.6523  -3.6273  -3.6069  -3.5984  -3.5952  -3.5797  -3.5698  -3.5544
    -3.5082  -3.4810  -3.4545  -3.4445  -3.4371  -3.2633  -3.2424  -3.2164
    -3.2056  -3.1617  -3.1595  -3.1529  -3.1228  -3.0613  -3.0311  -3.0233
    -2.9950  -2.9899  -2.9789  -2.9540  -2.9194  -2.8583  -2.8446  -2.8207
    -2.7856  -2.7753  -2.7550  -2.7478  -2.7238  -2.7040  -2.6853  -2.6727
    -2.6286  -2.5951  -2.3429  -2.3356  -2.3146  -2.3090  -2.2750  -2.1957
    -2.1871  -2.1790  -2.1672  -2.1576  -2.1523  -2.1401  -2.1206  -2.0669
    -2.0517  -2.0416  -2.0205  -1.9862  -1.9843  -1.9807  -1.9622  -1.9559
    -1.9454  -1.9382  -1.9333  -1.9292  -1.9189  -1.8975  -1.8748  -1.8457
    -1.8292  -1.8155  -1.7611  -1.7571  -1.7450  -1.7417  -1.7333  -1.7296
    -1.7133  -1.7059  -1.6963  -1.6941  -1.6783  -1.6736  -1.6501  -1.6450
    -1.6252  -1.6170  -1.5967  -1.5308  -1.5175  -1.4570  -1.4255  -1.4211
    -1.4129  -1.4038  -1.3930  -1.3853  -1.3708  -1.3545  -1.3137  -1.2290
    -1.2198  -1.2034  -1.1326  -1.1246  -1.1090  -1.0624  -1.0374  -1.0258
    -1.0020  -0.9409  -0.9295  -0.9110  -0.8861  -0.8825  -0.8501  -0.8405
    -0.8260  -0.8118  -0.7999  -0.7651  -0.7548  -0.7424  -0.7363  -0.7293
    -0.7011  -0.6661  -0.6599  -0.6546  -0.6451  -0.6185  -0.5982  -0.5899
    -0.5798  -0.5711  -0.5674  -0.5565  -0.5353  -0.5285  -0.5196  -0.5004
    -0.4701  -0.4599  -0.4408  -0.4084  -0.3924  -0.3732  -0.3573  -0.3373
    -0.3308  -0.3142  -0.3117  -0.3065  -0.2861  -0.2813  -0.2734  -0.2371
    -0.1967  -0.1922  -0.1846  -0.1629  -0.1568  -0.1413  -0.1141  -0.1009
    -0.0326   0.0239   0.1777   0.1957   0.2892   0.3792   0.4542   0.4727
     0.4929   0.8030

          k = 0.2000 0.1155 0.0000 ( 51134 PWs)   bands (ev):

   -21.9383  -9.5871  -7.4653  -6.3719  -6.2200  -5.7829  -5.5041  -5.4452
    -5.0129  -5.0004  -4.6463  -4.5177  -4.4323  -4.4265  -4.3666  -4.3129
    -4.2641  -4.2291  -4.1659  -4.1057  -4.0934  -3.8440  -3.7301  -3.7196
    -3.6464  -3.6314  -3.6043  -3.6007  -3.5950  -3.5905  -3.5687  -3.5522
    -3.5118  -3.4808  -3.4577  -3.4428  -3.4344  -3.3046  -3.2292  -3.2182
    -3.1992  -3.1635  -3.1568  -3.1491  -3.1262  -3.0450  -3.0323  -3.0224
    -2.9899  -2.9819  -2.9771  -2.9494  -2.9418  -2.8607  -2.8485  -2.8136
    -2.7870  -2.7652  -2.7526  -2.7349  -2.7232  -2.6993  -2.6847  -2.6750
    -2.6366  -2.5941  -2.3454  -2.3404  -2.3075  -2.2991  -2.2751  -2.1941
    -2.1901  -2.1817  -2.1664  -2.1626  -2.1517  -2.1351  -2.1062  -2.0640
    -2.0579  -2.0404  -2.0143  -1.9845  -1.9803  -1.9779  -1.9717  -1.9521
    -1.9468  -1.9431  -1.9364  -1.9304  -1.9137  -1.8960  -1.8636  -1.8488
    -1.8367  -1.8029  -1.7716  -1.7536  -1.7497  -1.7382  -1.7324  -1.7286
    -1.7172  -1.7090  -1.7013  -1.6938  -1.6911  -1.6688  -1.6474  -1.6419
    -1.6295  -1.6156  -1.5960  -1.5404  -1.5160  -1.4789  -1.4223  -1.4155
    -1.4077  -1.4027  -1.3915  -1.3872  -1.3703  -1.3642  -1.2603  -1.2419
    -1.2292  -1.1971  -1.1348  -1.1279  -1.0978  -1.0745  -1.0428  -1.0389
    -0.9780  -0.9502  -0.9385  -0.9130  -0.9038  -0.8860  -0.8539  -0.8491
    -0.8312  -0.8043  -0.7914  -0.7592  -0.7556  -0.7482  -0.7462  -0.7230
    -0.7016  -0.6637  -0.6547  -0.6528  -0.6314  -0.6005  -0.5985  -0.5887
    -0.5773  -0.5735  -0.5670  -0.5589  -0.5417  -0.5282  -0.5238  -0.5191
    -0.4586  -0.4398  -0.4292  -0.4137  -0.3915  -0.3860  -0.3503  -0.3379
    -0.3329  -0.3179  -0.3102  -0.3021  -0.2852  -0.2795  -0.2728  -0.2278
    -0.1946  -0.1872  -0.1834  -0.1602  -0.1575  -0.1149  -0.1090  -0.0983
    -0.0396  -0.0050   0.1724   0.1958   0.2348   0.3574   0.4447   0.4676
     0.5044   0.7861

          k = 0.2000 0.3464 0.0000 ( 51202 PWs)   bands (ev):

   -21.9383  -9.5776  -7.1856  -6.3725  -6.1289  -5.8757  -5.7829  -5.6145
    -5.4318  -4.7295  -4.6697  -4.4407  -4.4369  -4.3782  -4.2206  -4.2156
    -4.1206  -4.1171  -4.1037  -3.9861  -3.9603  -3.8451  -3.8344  -3.7719
    -3.7285  -3.6394  -3.6356  -3.6132  -3.5872  -3.5829  -3.5692  -3.5555
    -3.5331  -3.5157  -3.4812  -3.4551  -3.4215  -3.3934  -3.3658  -3.3040
    -3.2507  -3.1868  -3.1573  -3.1300  -3.1158  -3.1008  -3.0402  -2.9978
    -2.9640  -2.9341  -2.9254  -2.9187  -2.8858  -2.8651  -2.8427  -2.8356
    -2.8114  -2.7477  -2.7094  -2.6461  -2.6317  -2.6272  -2.6078  -2.5721
    -2.5683  -2.5198  -2.4538  -2.3765  -2.3652  -2.3358  -2.3190  -2.2942
    -2.2758  -2.2672  -2.2628  -2.2386  -2.2257  -2.2131  -2.2094  -2.1899
    -2.1694  -2.1534  -2.1160  -2.0683  -2.0175  -2.0100  -1.9961  -1.9761
    -1.9552  -1.9476  -1.9275  -1.9042  -1.8957  -1.8645  -1.8545  -1.8481
    -1.8373  -1.8345  -1.8230  -1.8054  -1.8011  -1.7869  -1.7758  -1.7629
    -1.7369  -1.7158  -1.6936  -1.6732  -1.6672  -1.6562  -1.6214  -1.6170
    -1.6013  -1.5883  -1.5726  -1.5495  -1.5174  -1.5049  -1.4810  -1.4620
    -1.4507  -1.4437  -1.4316  -1.4085  -1.4016  -1.3950  -1.3721  -1.3435
    -1.2903  -1.2854  -1.2742  -1.2107  -1.1509  -1.1412  -1.1243  -1.0581
    -1.0158  -1.0053  -0.9972  -0.9907  -0.9746  -0.9675  -0.9527  -0.9487
    -0.9237  -0.9035  -0.8832  -0.8434  -0.8290  -0.8223  -0.7983  -0.7913
    -0.7705  -0.7541  -0.7302  -0.7246  -0.7186  -0.7040  -0.6107  -0.5591
    -0.5514  -0.5257  -0.5172  -0.5115  -0.4972  -0.4867  -0.4693  -0.4619
    -0.4433  -0.4062  -0.3839  -0.3667  -0.3543  -0.3388  -0.2999  -0.2956
    -0.2831  -0.2813  -0.2716  -0.2516  -0.2405  -0.2355  -0.2278  -0.2036
    -0.1929  -0.1228  -0.1065  -0.1042  -0.0635  -0.0575  -0.0095   0.0599
     0.2781   0.2859   0.3455   0.4733   0.6059   0.6678   1.0145   1.1687
     1.2686   1.3879

          k = 0.2000-0.5774 0.0000 ( 51262 PWs)   bands (ev):

   -21.9383  -9.5730  -6.6808  -6.6226  -6.3057  -6.0554  -5.8848  -5.5320
    -5.2556  -5.1774  -4.7438  -4.4214  -4.1827  -4.1382  -4.0497  -4.0084
    -3.9993  -3.9797  -3.9735  -3.9469  -3.8995  -3.8908  -3.8871  -3.8798
    -3.8127  -3.7616  -3.7406  -3.7324  -3.7105  -3.6984  -3.5882  -3.5604
    -3.5543  -3.5370  -3.5272  -3.4668  -3.3954  -3.3581  -3.3062  -3.2652
    -3.2573  -3.2340  -3.1712  -3.1572  -3.1341  -3.1015  -3.0485  -3.0392
    -3.0050  -2.9712  -2.9210  -2.8701  -2.8392  -2.8199  -2.8089  -2.7597
    -2.7375  -2.6812  -2.6729  -2.6592  -2.6532  -2.6270  -2.6096  -2.5595
    -2.5101  -2.4630  -2.4531  -2.4431  -2.4389  -2.3811  -2.3643  -2.3218
    -2.3068  -2.2720  -2.2638  -2.2584  -2.2501  -2.2353  -2.2055  -2.1901
    -2.1779  -2.1650  -2.1517  -2.1358  -2.1291  -2.0900  -2.0600  -2.0431
    -2.0331  -2.0213  -1.9606  -1.9407  -1.9116  -1.8923  -1.8754  -1.8685
    -1.8493  -1.8397  -1.8324  -1.8198  -1.8131  -1.7901  -1.7773  -1.7660
    -1.7150  -1.6958  -1.6851  -1.6775  -1.6654  -1.6572  -1.6520  -1.6453
    -1.6305  -1.6277  -1.6065  -1.5779  -1.5556  -1.5356  -1.5223  -1.5035
    -1.4471  -1.4396  -1.4074  -1.3827  -1.3762  -1.3605  -1.3514  -1.3159
    -1.2846  -1.2719  -1.2536  -1.1928  -1.1708  -1.1448  -1.1329  -1.1099
    -1.0935  -1.0825  -1.0655  -1.0497  -1.0291  -1.0139  -0.9882  -0.9747
    -0.9308  -0.9219  -0.9106  -0.9008  -0.8746  -0.8528  -0.8162  -0.8063
    -0.7969  -0.7775  -0.7606  -0.7505  -0.7453  -0.7152  -0.6851  -0.5746
    -0.5246  -0.5157  -0.5059  -0.4980  -0.4856  -0.4799  -0.4673  -0.4472
    -0.4247  -0.4224  -0.4097  -0.3926  -0.3452  -0.3018  -0.2789  -0.2723
    -0.2547  -0.2504  -0.2329  -0.2128  -0.1911  -0.1764  -0.1720  -0.1547
    -0.1438  -0.0926  -0.0802  -0.0740  -0.0612  -0.0444  -0.0252   0.0279
     0.1983   0.3208   0.5920   0.8528   1.0726   1.2259   1.3345   1.6059
     1.7292   1.7682

          k = 0.2000-0.3464 0.0000 ( 51202 PWs)   bands (ev):

   -21.9383  -9.5796  -7.1788  -6.3436  -6.1301  -5.9011  -5.8156  -5.6230
    -5.3978  -4.7407  -4.6631  -4.4410  -4.4256  -4.3845  -4.2178  -4.2163
    -4.1232  -4.1157  -4.0943  -3.9857  -3.9687  -3.8433  -3.8305  -3.7781
    -3.7361  -3.6517  -3.6359  -3.6079  -3.5889  -3.5812  -3.5733  -3.5429
    -3.5327  -3.5185  -3.4687  -3.4312  -3.4225  -3.3841  -3.3638  -3.2724
    -3.2472  -3.2150  -3.1578  -3.1433  -3.1128  -3.1006  -3.0491  -2.9908
    -2.9553  -2.9479  -2.9263  -2.9077  -2.8990  -2.8638  -2.8427  -2.8237
    -2.8044  -2.7883  -2.6944  -2.6824  -2.6346  -2.6251  -2.5914  -2.5762
    -2.5665  -2.5433  -2.4461  -2.3791  -2.3615  -2.3342  -2.3189  -2.2901
    -2.2748  -2.2686  -2.2649  -2.2399  -2.2210  -2.2178  -2.2013  -2.1898
    -2.1779  -2.1601  -2.1146  -2.0868  -2.0175  -2.0101  -1.9879  -1.9715
    -1.9603  -1.9435  -1.9338  -1.9037  -1.8892  -1.8703  -1.8613  -1.8550
    -1.8414  -1.8301  -1.8256  -1.8090  -1.7971  -1.7920  -1.7729  -1.7572
    -1.7457  -1.7314  -1.7086  -1.6824  -1.6691  -1.6566  -1.6209  -1.6166
    -1.6083  -1.5778  -1.5733  -1.5401  -1.5125  -1.4940  -1.4858  -1.4598
    -1.4415  -1.4386  -1.4313  -1.4123  -1.4065  -1.3812  -1.3718  -1.3245
    -1.2976  -1.2666  -1.2572  -1.2157  -1.1596  -1.1326  -1.1287  -1.0378
    -1.0219  -1.0055  -0.9906  -0.9850  -0.9746  -0.9686  -0.9501  -0.9340
    -0.9225  -0.9091  -0.8843  -0.8448  -0.8377  -0.8270  -0.8046  -0.7863
    -0.7747  -0.7607  -0.7377  -0.7217  -0.7153  -0.7013  -0.6061  -0.5641
    -0.5537  -0.5324  -0.5218  -0.5100  -0.4973  -0.4832  -0.4719  -0.4631
    -0.4397  -0.4091  -0.3695  -0.3652  -0.3564  -0.3462  -0.3111  -0.2972
    -0.2833  -0.2809  -0.2747  -0.2498  -0.2417  -0.2338  -0.2262  -0.2070
    -0.2026  -0.1277  -0.1042  -0.1029  -0.0605  -0.0530  -0.0340   0.0743
     0.2461   0.2838   0.3275   0.5217   0.5732   0.6935   1.1167   1.1697
     1.3165   1.3506

          k = 0.4000-0.2309 0.0000 ( 51204 PWs)   bands (ev):

   -21.9383  -9.5784  -7.0390  -6.3965  -6.3001  -6.0539  -5.6692  -5.3847
    -5.1597  -5.1329  -5.0177  -4.3211  -4.2608  -4.2550  -4.2389  -4.1854
    -4.0764  -4.0716  -4.0259  -3.9431  -3.9357  -3.9317  -3.8293  -3.7629
    -3.7577  -3.7454  -3.7416  -3.6879  -3.6407  -3.6321  -3.5822  -3.4917
    -3.4700  -3.4569  -3.4409  -3.4218  -3.4107  -3.3353  -3.3100  -3.3028
    -3.2966  -3.2891  -3.2086  -3.1476  -3.0891  -3.0660  -2.9923  -2.9861
    -2.9552  -2.9411  -2.9145  -2.9060  -2.8941  -2.8634  -2.8533  -2.8104
    -2.7949  -2.7554  -2.7370  -2.7283  -2.6027  -2.5934  -2.5676  -2.5481
    -2.5192  -2.4838  -2.4595  -2.4477  -2.4244  -2.3719  -2.3160  -2.3136
    -2.3058  -2.3007  -2.2907  -2.2703  -2.2610  -2.2488  -2.2305  -2.2098
    -2.1802  -2.1445  -2.1378  -2.1174  -2.0868  -2.0739  -2.0325  -1.9912
    -1.9801  -1.9770  -1.9508  -1.9334  -1.9208  -1.8826  -1.8721  -1.8606
    -1.8560  -1.8378  -1.8306  -1.8065  -1.7888  -1.7829  -1.7734  -1.7604
    -1.7427  -1.7191  -1.6800  -1.6736  -1.6077  -1.5970  -1.5852  -1.5780
    -1.5482  -1.5302  -1.5082  -1.4760  -1.4612  -1.4393  -1.4361  -1.4301
    -1.4284  -1.4233  -1.4127  -1.4036  -1.3991  -1.3771  -1.3717  -1.3642
    -1.3596  -1.3223  -1.2575  -1.2366  -1.2112  -1.1903  -1.1800  -1.1620
    -1.1271  -1.0819  -1.0642  -1.0560  -1.0417  -1.0073  -0.9716  -0.9281
    -0.9126  -0.8919  -0.8823  -0.8621  -0.8447  -0.8273  -0.8046  -0.7559
    -0.7126  -0.6894  -0.6752  -0.6720  -0.6572  -0.6513  -0.6421  -0.6323
    -0.6189  -0.6061  -0.5169  -0.5050  -0.4945  -0.4877  -0.4795  -0.4688
    -0.4576  -0.4468  -0.4241  -0.4172  -0.3872  -0.3753  -0.3280  -0.3091
    -0.3020  -0.2775  -0.2681  -0.2196  -0.2045  -0.1796  -0.1677  -0.1309
    -0.0984  -0.0869  -0.0841  -0.0652  -0.0608  -0.0563  -0.0443   0.0150
     0.0482   0.1029   0.4642   0.7252   0.9919   1.1560   1.1793   1.3914
     1.5067   1.5523

          k = 0.4000 0.0000 0.0000 ( 51202 PWs)   bands (ev):

   -21.9383  -9.5790  -7.1816  -6.3569  -6.1316  -5.8862  -5.8018  -5.6159
    -5.4155  -4.7405  -4.6646  -4.4393  -4.4261  -4.3819  -4.2212  -4.2155
    -4.1236  -4.1163  -4.0943  -3.9856  -3.9664  -3.8437  -3.8317  -3.7743
    -3.7303  -3.6536  -3.6363  -3.6134  -3.5864  -3.5792  -3.5691  -3.5452
    -3.5350  -3.5175  -3.4698  -3.4371  -3.4220  -3.3924  -3.3666  -3.2992
    -3.2446  -3.1946  -3.1584  -3.1354  -3.1185  -3.0991  -3.0344  -2.9981
    -2.9594  -2.9441  -2.9258  -2.9128  -2.8960  -2.8639  -2.8498  -2.8318
    -2.8077  -2.7611  -2.7027  -2.6665  -2.6371  -2.6255  -2.6095  -2.5767
    -2.5614  -2.5335  -2.4517  -2.3795  -2.3670  -2.3379  -2.3173  -2.2923
    -2.2776  -2.2666  -2.2617  -2.2404  -2.2232  -2.2115  -2.1996  -2.1933
    -2.1873  -2.1510  -2.1105  -2.0682  -2.0184  -2.0120  -1.9862  -1.9755
    -1.9633  -1.9408  -1.9304  -1.9047  -1.8929  -1.8676  -1.8559  -1.8522
    -1.8412  -1.8317  -1.8152  -1.8091  -1.7994  -1.7911  -1.7722  -1.7639
    -1.7439  -1.7331  -1.7027  -1.6771  -1.6674  -1.6506  -1.6169  -1.6156
    -1.6027  -1.5851  -1.5747  -1.5410  -1.5104  -1.5048  -1.4859  -1.4577
    -1.4495  -1.4387  -1.4323  -1.4112  -1.4044  -1.3818  -1.3697  -1.3367
    -1.2946  -1.2780  -1.2622  -1.2119  -1.1605  -1.1376  -1.1211  -1.0546
    -1.0190  -1.0038  -0.9988  -0.9825  -0.9761  -0.9689  -0.9478  -0.9391
    -0.9220  -0.9047  -0.8828  -0.8459  -0.8401  -0.8247  -0.7982  -0.7943
    -0.7771  -0.7583  -0.7301  -0.7213  -0.7154  -0.7033  -0.6110  -0.5580
    -0.5526  -0.5286  -0.5180  -0.5098  -0.4987  -0.4870  -0.4690  -0.4636
    -0.4393  -0.4086  -0.3788  -0.3695  -0.3546  -0.3427  -0.3063  -0.2982
    -0.2856  -0.2791  -0.2753  -0.2514  -0.2400  -0.2361  -0.2304  -0.2022
    -0.1943  -0.1234  -0.1073  -0.1029  -0.0604  -0.0509  -0.0260   0.0587
     0.2609   0.2852   0.3332   0.4946   0.5986   0.6885   1.0751   1.1607
     1.2929   1.3929

          k = 0.4000 0.2309 0.0000 ( 51204 PWs)   bands (ev):

   -21.9383  -9.5752  -7.0502  -6.4739  -6.2473  -6.0308  -5.5794  -5.4636
    -5.1557  -5.1205  -5.0349  -4.3261  -4.2734  -4.2588  -4.2182  -4.1919
    -4.0760  -4.0690  -4.0276  -3.9404  -3.9358  -3.9299  -3.8282  -3.7594
    -3.7545  -3.7459  -3.7394  -3.6845  -3.6388  -3.6342  -3.6159  -3.4959
    -3.4728  -3.4622  -3.4516  -3.4222  -3.4099  -3.3504  -3.3125  -3.3076
    -3.2965  -3.2896  -3.2230  -3.1292  -3.0827  -3.0445  -2.9878  -2.9722
    -2.9521  -2.9499  -2.9121  -2.9094  -2.9002  -2.8823  -2.8203  -2.8080
    -2.8014  -2.7614  -2.7379  -2.6846  -2.5932  -2.5843  -2.5759  -2.5503
    -2.5170  -2.4714  -2.4597  -2.4528  -2.4355  -2.3674  -2.3224  -2.3111
    -2.3078  -2.3027  -2.2859  -2.2701  -2.2558  -2.2530  -2.2320  -2.1868
    -2.1685  -2.1531  -2.1390  -2.1167  -2.0849  -2.0739  -2.0367  -1.9989
    -1.9823  -1.9774  -1.9488  -1.9368  -1.9050  -1.8781  -1.8702  -1.8645
    -1.8542  -1.8328  -1.8276  -1.8030  -1.7966  -1.7838  -1.7822  -1.7596
    -1.7385  -1.7218  -1.6791  -1.6667  -1.6186  -1.6025  -1.5737  -1.5610
    -1.5475  -1.5355  -1.5113  -1.4662  -1.4582  -1.4531  -1.4436  -1.4345
    -1.4261  -1.4215  -1.4106  -1.4058  -1.3995  -1.3944  -1.3779  -1.3551
    -1.3363  -1.3132  -1.2849  -1.2275  -1.2058  -1.1988  -1.1862  -1.1426
    -1.1376  -1.0981  -1.0750  -1.0552  -1.0476  -1.0010  -0.9936  -0.9538
    -0.9311  -0.8952  -0.8791  -0.8739  -0.8437  -0.8126  -0.7831  -0.7657
    -0.7313  -0.6859  -0.6754  -0.6593  -0.6519  -0.6440  -0.6379  -0.6251
    -0.6118  -0.6066  -0.5099  -0.5044  -0.5015  -0.4855  -0.4728  -0.4625
    -0.4510  -0.4389  -0.4262  -0.4140  -0.3971  -0.3673  -0.3192  -0.3048
    -0.2989  -0.2854  -0.2534  -0.2158  -0.2046  -0.1747  -0.1662  -0.1292
    -0.0900  -0.0837  -0.0785  -0.0615  -0.0584  -0.0566  -0.0349   0.0069
     0.0475   0.0963   0.4064   0.8260   0.9341   1.0918   1.1792   1.2415
     1.4948   1.5553

          k = 0.4000-0.6928 0.0000 ( 51262 PWs)   bands (ev):

   -21.9383  -9.5725  -6.7001  -6.6218  -6.2777  -6.0645  -5.9026  -5.4738
    -5.2963  -5.1799  -4.7415  -4.4204  -4.1873  -4.1402  -4.0464  -4.0039
    -3.9994  -3.9804  -3.9713  -3.9437  -3.9002  -3.8910  -3.8874  -3.8787
    -3.8099  -3.7656  -3.7405  -3.7321  -3.7087  -3.7024  -3.5821  -3.5593
    -3.5552  -3.5433  -3.5266  -3.4691  -3.4110  -3.3682  -3.3124  -3.2618
    -3.2577  -3.2196  -3.1745  -3.1614  -3.1326  -3.0598  -3.0497  -3.0397
    -3.0105  -2.9720  -2.9481  -2.8757  -2.8427  -2.8207  -2.7916  -2.7587
    -2.7230  -2.6820  -2.6688  -2.6642  -2.6548  -2.6330  -2.5873  -2.5771
    -2.5206  -2.4642  -2.4544  -2.4436  -2.4288  -2.3861  -2.3750  -2.3202
    -2.3086  -2.2721  -2.2680  -2.2554  -2.2420  -2.2343  -2.2003  -2.1850
    -2.1765  -2.1664  -2.1532  -2.1336  -2.1266  -2.0858  -2.0689  -2.0461
    -2.0275  -2.0190  -1.9584  -1.9404  -1.9031  -1.8976  -1.8850  -1.8719
    -1.8443  -1.8434  -1.8227  -1.8189  -1.8106  -1.7830  -1.7734  -1.7651
    -1.7118  -1.6934  -1.6850  -1.6805  -1.6629  -1.6596  -1.6565  -1.6433
    -1.6348  -1.6286  -1.6061  -1.5912  -1.5572  -1.5339  -1.5179  -1.5101
    -1.4446  -1.4375  -1.4104  -1.3855  -1.3703  -1.3603  -1.3459  -1.3239
    -1.2835  -1.2755  -1.2575  -1.2069  -1.1630  -1.1433  -1.1334  -1.1070
    -1.0952  -1.0754  -1.0666  -1.0567  -1.0339  -1.0149  -0.9792  -0.9640
    -0.9321  -0.9234  -0.9147  -0.8906  -0.8796  -0.8564  -0.8213  -0.8158
    -0.7929  -0.7805  -0.7676  -0.7498  -0.7336  -0.7152  -0.6873  -0.5788
    -0.5222  -0.5151  -0.5075  -0.4933  -0.4882  -0.4785  -0.4635  -0.4426
    -0.4292  -0.4149  -0.4128  -0.4025  -0.3411  -0.2872  -0.2800  -0.2739
    -0.2646  -0.2499  -0.2309  -0.2071  -0.1861  -0.1767  -0.1680  -0.1542
    -0.1507  -0.1025  -0.0814  -0.0733  -0.0602  -0.0437  -0.0268   0.0248
     0.1988   0.3234   0.6245   0.8566   1.0273   1.2233   1.3061   1.6392
     1.7175   1.7627

          k = 0.4000-0.4619 0.0000 ( 51262 PWs)   bands (ev):

   -21.9383  -9.5744  -6.6467  -6.6309  -6.3381  -6.0422  -5.8723  -5.5816
    -5.2211  -5.1715  -4.7537  -4.4211  -4.1814  -4.1375  -4.0348  -4.0156
    -4.0003  -3.9762  -3.9747  -3.9515  -3.8999  -3.8912  -3.8873  -3.8765
    -3.8087  -3.7613  -3.7431  -3.7335  -3.7110  -3.6998  -3.6037  -3.5611
    -3.5494  -3.5289  -3.5178  -3.4482  -3.4039  -3.3682  -3.2869  -3.2632
    -3.2541  -3.2391  -3.1755  -3.1606  -3.1320  -3.0933  -3.0485  -3.0409
    -3.0057  -2.9745  -2.9287  -2.8701  -2.8409  -2.8254  -2.8074  -2.7628
    -2.7478  -2.6838  -2.6699  -2.6566  -2.6469  -2.6331  -2.6141  -2.5750
    -2.5123  -2.4668  -2.4524  -2.4435  -2.4374  -2.3811  -2.3698  -2.3212
    -2.3088  -2.2730  -2.2669  -2.2612  -2.2515  -2.2256  -2.2031  -2.1946
    -2.1803  -2.1713  -2.1503  -2.1304  -2.1277  -2.1016  -2.0546  -2.0308
    -2.0244  -2.0039  -1.9635  -1.9444  -1.9195  -1.8977  -1.8815  -1.8698
    -1.8497  -1.8357  -1.8289  -1.8279  -1.8091  -1.8012  -1.7826  -1.7725
    -1.7190  -1.6938  -1.6837  -1.6750  -1.6621  -1.6603  -1.6511  -1.6440
    -1.6357  -1.6254  -1.6081  -1.5693  -1.5642  -1.5330  -1.5220  -1.4911
    -1.4363  -1.4335  -1.4007  -1.3885  -1.3740  -1.3678  -1.3475  -1.3100
    -1.2875  -1.2724  -1.2461  -1.2068  -1.1767  -1.1405  -1.1266  -1.1130
    -1.0878  -1.0841  -1.0697  -1.0455  -1.0247  -1.0037  -0.9897  -0.9810
    -0.9347  -0.9112  -0.9038  -0.8988  -0.8892  -0.8504  -0.8163  -0.8011
    -0.7931  -0.7796  -0.7617  -0.7569  -0.7466  -0.7209  -0.6800  -0.5719
    -0.5239  -0.5173  -0.5111  -0.5003  -0.4886  -0.4837  -0.4627  -0.4551
    -0.4251  -0.4115  -0.4069  -0.3934  -0.3531  -0.3025  -0.2827  -0.2762
    -0.2596  -0.2502  -0.2319  -0.2187  -0.1889  -0.1767  -0.1711  -0.1543
    -0.1438  -0.0855  -0.0822  -0.0738  -0.0604  -0.0441  -0.0270   0.0264
     0.2019   0.3105   0.5522   0.8542   1.1751   1.2239   1.3894   1.5565
     1.7300   1.7734

 ------ SPIN DOWN ----------


          k = 0.0000 0.0000 0.0000 ( 51087 PWs)   bands (ev):

   -22.0066  -9.6742  -7.7438  -6.4623  -6.3205  -5.8179  -5.4804  -4.6111
    -4.5826  -4.5803  -4.5774  -4.5545  -4.5436  -4.4489  -3.7137  -3.7074
    -3.7038  -3.6814  -3.6724  -3.6648  -3.5430  -2.9954  -2.7705  -2.7658
    -2.7564  -2.7473  -2.6718  -2.6042  -2.3092  -2.3034  -2.2950  -2.2875
    -2.2767  -2.2525  -2.0996  -2.0928  -2.0313  -2.0118  -1.9982  -1.9948
    -1.9168  -1.9107  -1.8624  -1.8585  -1.8217  -1.7962  -1.7765  -1.7481
    -1.7314  -1.6900  -1.5337  -1.5177  -1.4975  -1.4844  -1.4670  -1.4649
    -1.4561  -1.4543  -1.4252  -1.4207  -1.3972  -1.3796  -1.3763  -1.3752
    -1.2886  -1.2693  -0.8875  -0.8390  -0.8188  -0.8008  -0.7973  -0.7024
    -0.6312  -0.5880  -0.5058  -0.4957  -0.4829  -0.4734  -0.4640  -0.4555
    -0.4330  -0.4141  -0.3894  -0.3813  -0.3791  -0.3786  -0.3407  -0.3214
    -0.3141  -0.2858  -0.2732  -0.2722  -0.2472  -0.2339  -0.2258  -0.2210
    -0.2159  -0.2075  -0.1984  -0.1979  -0.1915  -0.1884  -0.1247  -0.0998
    -0.0939  -0.0618  -0.0476  -0.0390   0.0208   0.0235   0.0349   0.0361
     0.0399   0.0425   0.0472   0.0566   0.1174   0.1191   0.1700   0.1964
     0.2043   0.2126   0.2223   0.2374   0.3007   0.4248   0.4373   0.4676
     0.4913   0.5148   0.5255   0.5273   0.5881   0.7383   0.8056   0.8424
     0.8594   0.9105   0.9873   1.0271   1.0454   1.0827   1.0912   1.0929
     1.1745   1.2331   1.2439   1.2453   1.2598   1.2684   1.2725   1.2959
     1.3106   1.3253   1.3394   1.3513   1.3632   1.3677   1.3767   1.4070
     1.4131   1.4169   1.4199   1.4246   1.4581   1.4762   1.4843   1.4966
     1.5047   1.5228   1.5294   1.5339   1.5428   1.5498   1.5510   1.5844
     1.5875   1.6091   1.6133   1.6201   1.6305   1.6369   1.6418   1.6744
     1.6767   1.6835   1.6865   1.6906   1.6960   1.7016   1.7090   1.7118
     1.7192   1.7640   1.7646   1.9038   1.9135   1.9172   1.9193   1.9216
     1.9247   1.9604

          k = 0.0000 0.2309 0.0000 ( 51134 PWs)   bands (ev):

   -22.0066  -9.6672  -7.5995  -6.4098  -6.2819  -5.8154  -5.5616  -5.4277
    -4.9514  -4.9430  -4.4360  -4.3179  -4.0333  -4.0262  -3.9270  -3.8828
    -3.7420  -3.4906  -3.3645  -3.3441  -3.2602  -3.0471  -2.9102  -2.7502
    -2.7267  -2.7001  -2.6287  -2.5851  -2.4194  -2.3371  -2.3266  -2.3193
    -2.2893  -2.2685  -2.2399  -2.2361  -2.1994  -2.1812  -2.0602  -2.0496
    -1.9732  -1.9672  -1.9469  -1.8302  -1.8010  -1.7753  -1.7532  -1.6778
    -1.6410  -1.6181  -1.5653  -1.5407  -1.5177  -1.4943  -1.4725  -1.4703
    -1.4618  -1.4406  -1.3853  -1.3477  -1.3327  -1.3137  -1.2921  -1.2623
    -1.2134  -1.1325  -0.9579  -0.9027  -0.8603  -0.8560  -0.8129  -0.7420
    -0.7218  -0.7040  -0.6490  -0.6143  -0.5806  -0.5291  -0.5052  -0.4950
    -0.4553  -0.4477  -0.4398  -0.4296  -0.4139  -0.3954  -0.3884  -0.3597
    -0.3078  -0.2861  -0.2702  -0.2671  -0.2577  -0.2368  -0.2087  -0.1996
    -0.1875  -0.1766  -0.1753  -0.1676  -0.1665  -0.1621  -0.1475  -0.1201
    -0.0953  -0.0798  -0.0678  -0.0623  -0.0545  -0.0260  -0.0190   0.0078
     0.0380   0.0462   0.0778   0.0960   0.1229   0.1444   0.1534   0.1847
     0.2745   0.3121   0.3406   0.3826   0.4100   0.4296   0.4459   0.4612
     0.4763   0.4820   0.5032   0.5081   0.6142   0.7423   0.7951   0.8246
     0.8315   0.8471   0.8629   0.8755   0.9176   0.9312   0.9921   1.0138
     1.0438   1.0794   1.0948   1.1321   1.1513   1.1673   1.1924   1.2107
     1.2543   1.2749   1.2971   1.3123   1.3206   1.3359   1.3707   1.3813
     1.4034   1.4251   1.4508   1.4710   1.4892   1.5057   1.5178   1.5447
     1.5626   1.5742   1.5824   1.5839   1.6028   1.6435   1.6610   1.6672
     1.6749   1.6876   1.7058   1.7322   1.7358   1.7483   1.7564   1.7674
     1.7788   1.8225   1.8253   1.8452   1.8503   1.8568   1.8674   1.8834
     1.8979   1.9065   1.9165   1.9258   2.0020   2.0174   2.0260   2.0728
     2.0976   2.1396

          k = 0.0000 0.4619 0.0000 ( 51204 PWs)   bands (ev):

   -22.0066  -9.6561  -7.1745  -6.5334  -6.3218  -6.0808  -5.6774  -5.4471
    -5.1687  -5.1371  -5.0196  -4.1027  -4.0479  -3.9504  -3.4940  -3.4155
    -3.4055  -3.3056  -3.1576  -3.1088  -3.0143  -2.9636  -2.9032  -2.8107
    -2.8100  -2.7374  -2.7031  -2.6812  -2.6404  -2.5656  -2.5536  -2.5221
    -2.4744  -2.4483  -2.2784  -2.2673  -2.2005  -2.1902  -2.0904  -2.0762
    -2.0705  -2.0604  -2.0163  -1.8031  -1.7803  -1.7620  -1.7247  -1.6883
    -1.5632  -1.5464  -1.5352  -1.5193  -1.5140  -1.4898  -1.4801  -1.4750
    -1.4321  -1.3770  -1.3661  -1.3433  -1.3260  -1.3087  -1.1738  -1.1561
    -1.0551  -1.0093  -0.9888  -0.9136  -0.8888  -0.8493  -0.8271  -0.8191
    -0.7961  -0.7789  -0.7567  -0.7197  -0.6926  -0.6497  -0.6394  -0.6087
    -0.5718  -0.5573  -0.5272  -0.5190  -0.4890  -0.4657  -0.4244  -0.3871
    -0.3580  -0.3322  -0.3062  -0.2877  -0.2544  -0.2247  -0.2153  -0.1944
    -0.1636  -0.1589  -0.1470  -0.1231  -0.1154  -0.1080  -0.0951  -0.0834
    -0.0549  -0.0332  -0.0221  -0.0087  -0.0037   0.0005   0.0219   0.0274
     0.0497   0.0724   0.0975   0.1635   0.1969   0.1994   0.2158   0.2505
     0.2577   0.2698   0.2769   0.3248   0.3453   0.3622   0.3795   0.4006
     0.4309   0.4474   0.4591   0.4750   0.5090   0.5641   0.6407   0.6557
     0.6870   0.7381   0.7677   0.8473   0.8687   0.8967   0.9239   0.9384
     0.9579   0.9842   1.0046   1.0205   1.0398   1.1398   1.1462   1.2156
     1.2313   1.2565   1.2901   1.3035   1.3424   1.3557   1.3732   1.3928
     1.4212   1.4312   1.4472   1.5063   1.5366   1.5465   1.5664   1.5815
     1.5928   1.5969   1.6326   1.6404   1.6627   1.6735   1.6831   1.7152
     1.7215   1.7642   1.8084   1.8149   1.8292   1.8433   1.8561   1.8712
     1.8831   1.9031   1.9148   1.9242   1.9436   1.9479   1.9547   1.9587
     2.0025   2.0123   2.0748   2.1693   2.1983   2.2658   2.5558   2.6349
     2.6901   2.7231

          k = 0.2000-0.1155 0.0000 ( 51134 PWs)   bands (ev):

   -22.0066  -9.6680  -7.5984  -6.3875  -6.2953  -5.8386  -5.5503  -5.4228
    -4.9545  -4.9431  -4.4431  -4.2985  -4.0335  -4.0271  -3.9200  -3.9040
    -3.7377  -3.4882  -3.3656  -3.3519  -3.2536  -3.0549  -2.8977  -2.7595
    -2.7270  -2.6920  -2.6279  -2.5938  -2.4077  -2.3392  -2.3252  -2.3221
    -2.2837  -2.2803  -2.2382  -2.2329  -2.2011  -2.1807  -2.0623  -2.0490
    -1.9715  -1.9661  -1.9402  -1.8489  -1.8079  -1.7740  -1.7621  -1.6699
    -1.6441  -1.6207  -1.5674  -1.5384  -1.5154  -1.4993  -1.4730  -1.4695
    -1.4619  -1.4527  -1.3730  -1.3493  -1.3346  -1.3152  -1.2861  -1.2446
    -1.2219  -1.1332  -0.9544  -0.9037  -0.8611  -0.8532  -0.8041  -0.7476
    -0.7212  -0.6857  -0.6434  -0.6166  -0.5838  -0.5275  -0.5119  -0.5005
    -0.4531  -0.4417  -0.4407  -0.4331  -0.4207  -0.3989  -0.3792  -0.3493
    -0.3185  -0.2881  -0.2691  -0.2678  -0.2515  -0.2304  -0.2166  -0.1952
    -0.1883  -0.1828  -0.1738  -0.1686  -0.1659  -0.1626  -0.1429  -0.1216
    -0.1011  -0.0815  -0.0740  -0.0640  -0.0388  -0.0206  -0.0065   0.0063
     0.0284   0.0498   0.0669   0.0919   0.1281   0.1435   0.1522   0.1849
     0.2773   0.3078   0.3391   0.3865   0.4056   0.4188   0.4561   0.4639
     0.4771   0.4838   0.4981   0.5075   0.6283   0.7174   0.8059   0.8281
     0.8323   0.8474   0.8630   0.8709   0.9192   0.9366   0.9911   1.0095
     1.0420   1.0521   1.0968   1.1232   1.1474   1.1656   1.1899   1.2357
     1.2508   1.2792   1.2963   1.3180   1.3249   1.3337   1.3703   1.3816
     1.4098   1.4242   1.4556   1.4672   1.4898   1.5001   1.5114   1.5246
     1.5643   1.5747   1.5800   1.5860   1.6094   1.6541   1.6639   1.6711
     1.6770   1.6862   1.7086   1.7293   1.7332   1.7498   1.7571   1.7619
     1.7821   1.8212   1.8262   1.8425   1.8503   1.8569   1.8702   1.8847
     1.9026   1.9072   1.9186   1.9315   2.0032   2.0178   2.0243   2.0743
     2.0986   2.1291

          k = 0.2000 0.1155 0.0000 ( 51134 PWs)   bands (ev):

   -22.0066  -9.6669  -7.6002  -6.4256  -6.2731  -5.8003  -5.5280  -5.4721
    -4.9458  -4.9438  -4.4353  -4.3216  -4.0320  -4.0269  -3.9262  -3.8816
    -3.7414  -3.4907  -3.3591  -3.3457  -3.2652  -3.0543  -2.9019  -2.7736
    -2.7158  -2.6723  -2.6516  -2.5785  -2.4214  -2.3332  -2.3265  -2.3198
    -2.2918  -2.2661  -2.2383  -2.2299  -2.1995  -2.1883  -2.0609  -2.0553
    -1.9729  -1.9682  -1.9210  -1.8356  -1.8029  -1.7766  -1.7681  -1.6586
    -1.6455  -1.6280  -1.5609  -1.5473  -1.5212  -1.4893  -1.4758  -1.4698
    -1.4643  -1.4147  -1.3853  -1.3624  -1.3360  -1.3198  -1.2925  -1.2596
    -1.2238  -1.1185  -0.9615  -0.9029  -0.8586  -0.8407  -0.7965  -0.7709
    -0.7325  -0.6945  -0.6437  -0.6128  -0.5795  -0.5295  -0.5160  -0.4826
    -0.4643  -0.4475  -0.4399  -0.4303  -0.4205  -0.4038  -0.3899  -0.3539
    -0.3008  -0.2844  -0.2691  -0.2678  -0.2596  -0.2328  -0.2071  -0.1970
    -0.1870  -0.1793  -0.1747  -0.1686  -0.1667  -0.1658  -0.1346  -0.1207
    -0.0920  -0.0832  -0.0684  -0.0652  -0.0529  -0.0246  -0.0134  -0.0019
     0.0391   0.0462   0.0957   0.1002   0.1142   0.1385   0.1540   0.1861
     0.2570   0.3152   0.3445   0.3788   0.3981   0.4238   0.4455   0.4590
     0.4713   0.4897   0.5031   0.5070   0.6476   0.7302   0.7990   0.8157
     0.8323   0.8410   0.8678   0.8798   0.9051   0.9346   0.9690   1.0024
     1.0218   1.0928   1.1066   1.1323   1.1496   1.1768   1.1928   1.2064
     1.2496   1.2842   1.3098   1.3175   1.3226   1.3374   1.3717   1.3793
     1.4029   1.4267   1.4529   1.4808   1.4868   1.5057   1.5202   1.5372
     1.5561   1.5709   1.5812   1.5863   1.6007   1.6449   1.6543   1.6649
     1.6770   1.6862   1.7119   1.7331   1.7370   1.7486   1.7565   1.7656
     1.7798   1.8232   1.8266   1.8430   1.8488   1.8575   1.8624   1.8814
     1.8975   1.9117   1.9166   1.9186   2.0014   2.0150   2.0264   2.0646
     2.1015   2.1441

          k = 0.2000 0.3464 0.0000 ( 51202 PWs)   bands (ev):

   -22.0066  -9.6575  -7.3171  -6.4165  -6.1796  -5.9546  -5.8546  -5.6386
    -5.4624  -4.6861  -4.5867  -4.2309  -4.2167  -4.1004  -3.4095  -3.3938
    -3.3776  -3.3740  -3.2917  -3.1875  -3.1053  -3.0824  -3.0593  -2.8538
    -2.7103  -2.6372  -2.6300  -2.6025  -2.5441  -2.5195  -2.4929  -2.4346
    -2.4196  -2.4051  -2.3879  -2.3691  -2.2628  -2.2120  -2.0553  -2.0311
    -2.0029  -1.9831  -1.9213  -1.9044  -1.8853  -1.7468  -1.7006  -1.6801
    -1.6152  -1.5614  -1.5176  -1.5116  -1.5059  -1.4953  -1.4694  -1.4587
    -1.4373  -1.4197  -1.3760  -1.3466  -1.2950  -1.2598  -1.1891  -1.1337
    -1.0705  -1.0370  -0.9795  -0.9261  -0.8760  -0.8358  -0.8143  -0.7769
    -0.7692  -0.7497  -0.7194  -0.6991  -0.6474  -0.6407  -0.6294  -0.6028
    -0.5838  -0.5613  -0.5411  -0.5328  -0.5010  -0.4413  -0.3798  -0.3647
    -0.3569  -0.3403  -0.3236  -0.2934  -0.2747  -0.2576  -0.2369  -0.2243
    -0.2044  -0.1866  -0.1725  -0.1637  -0.1515  -0.1311  -0.1129  -0.0929
    -0.0788  -0.0655  -0.0529  -0.0394  -0.0282  -0.0183  -0.0051   0.0077
     0.0451   0.0686   0.1019   0.1190   0.2048   0.2239   0.2418   0.2611
     0.2976   0.3030   0.3300   0.3472   0.4011   0.4190   0.4294   0.4335
     0.4432   0.4580   0.5090   0.5377   0.5808   0.6245   0.7031   0.7408
     0.7911   0.8265   0.8478   0.8792   0.8876   0.8951   0.9023   0.9391
     0.9516   0.9666   0.9726   0.9938   1.0265   1.0758   1.1314   1.1445
     1.1730   1.1872   1.2195   1.2331   1.2460   1.2887   1.2998   1.3352
     1.3902   1.4488   1.4978   1.5360   1.5584   1.5693   1.5900   1.6002
[...]
     atom    8 type  1   force =     0.00010810   -0.00198037   -0.10457044
     atom    9 type  1   force =    -0.00125492    0.00366990   -0.10536019
     atom   10 type  1   force =     0.00116175   -0.00069380   -0.01557502
     atom   11 type  1   force =     0.00036584   -0.00095642   -0.00904973
     atom   12 type  1   force =    -0.00096076    0.00097207   -0.01098748
     atom   13 type  1   force =     0.00015377    0.00188652   -0.00820387
     atom   14 type  1   force =    -0.00025928    0.00019362   -0.00702018
     atom   15 type  1   force =    -0.00084410    0.00026288   -0.00986233
     atom   16 type  1   force =     0.00074509   -0.00204592   -0.01188444
     atom   17 type  1   force =     0.00061827    0.00003952   -0.00874153
     atom   18 type  1   force =    -0.00072086   -0.00036173   -0.01272202
     atom   19 type  1   force =    -0.00228720   -0.00031694    0.01215001
     atom   20 type  1   force =    -0.01303353   -0.00398213   -0.00287764
     atom   21 type  1   force =     0.01612853   -0.00915943   -0.00335466
     atom   22 type  1   force =     0.00083231   -0.00082556    0.01221264
     atom   23 type  1   force =     0.00064244    0.01788940   -0.00248822
     atom   24 type  1   force =    -0.00189505   -0.00153332    0.01536988
     atom   25 type  1   force =     0.00063839   -0.00034296    0.01903582
     atom   26 type  1   force =    -0.00357419   -0.00273803    0.00777913
     atom   27 type  1   force =     0.00345362    0.00056993    0.00934794
     atom   28 type  1   force =     0.00340763    0.00138109    0.11517696
     atom   29 type  1   force =     0.00578966    0.04544188    0.12472165
     atom   30 type  1   force =    -0.01800320    0.01528415    0.13767191
     atom   31 type  1   force =     0.03716289   -0.02332037    0.13961877
     atom   32 type  1   force =    -0.06500272   -0.06156130    0.10168108
     atom   33 type  1   force =    -0.00334853    0.00147242    0.12379620
     atom   34 type  1   force =     0.00638399   -0.00415372    0.12500893
     atom   35 type  1   force =    -0.00074651   -0.00142475    0.12592434
     atom   36 type  1   force =    -0.00147081   -0.00092372    0.10417932
     atom   37 type  2   force =    -0.03482059    0.02250505    0.37731767
     atom   38 type  3   force =     0.65762550    0.63260290   -2.55648061
     atom   39 type  4   force =    -0.00825646   -0.00809486   -0.02747508
     The ionic contribution  to forces
     atom    1 type  1   force =    -0.00673667    0.00063198 -111.13536432
     atom    2 type  1   force =    -0.00333563    0.00128317 -111.15557305
     atom    3 type  1   force =     0.01007220    0.00013853 -111.14198378
     atom    4 type  1   force =    -0.00446207    0.00599640 -111.13508085
     atom    5 type  1   force =     0.00240164    0.00863344 -111.13923527
     atom    6 type  1   force =     0.00206045   -0.00038626 -111.13036175
     atom    7 type  1   force =     0.00121889   -0.00086652 -111.12951347
     atom    8 type  1   force =    -0.00557005   -0.00616146 -111.13812074
     atom    9 type  1   force =     0.00435122   -0.00926926 -111.14059217
     atom   10 type  1   force =    -0.04109223   -0.01960846  -40.06973727
     atom   11 type  1   force =    -0.01608760   -0.06399204  -40.18494704
     atom   12 type  1   force =     0.05716477   -0.03758932  -40.10014392
     atom   13 type  1   force =    -0.06611363    0.03735485  -40.14704341
     atom   14 type  1   force =     0.04315128    0.04260925  -40.19509878
     atom   15 type  1   force =     0.02297748    0.01221222  -40.06351308
     atom   16 type  1   force =    -0.00758988    0.04853297  -40.07105196
     atom   17 type  1   force =     0.00763094    0.00134562  -40.06978629
     atom   18 type  1   force =    -0.00004034   -0.02086748  -40.05572836
     atom   19 type  1   force =    -0.32410956    0.03105297   31.52955058
     atom   20 type  1   force =    -0.19370721    0.07911917   30.42190544
     atom   21 type  1   force =     0.51366571   -0.00051244   31.21227145
     atom   22 type  1   force =    -0.20893582    0.28487260   31.54624261
     atom   23 type  1   force =     0.11687094    0.42957571   31.34214102
     atom   24 type  1   force =     0.09222010   -0.01406804   31.73163618
     atom   25 type  1   force =     0.05009906   -0.03717237   31.76960272
     atom   26 type  1   force =    -0.26984724   -0.30755028   31.39988017
     atom   27 type  1   force =     0.22090635   -0.46344600   31.28100236
     atom   28 type  1   force =    -1.42853196   -0.63880663  104.01476439
     atom   29 type  1   force =    -1.10576411   -4.69119239   98.73314611
     atom   30 type  1   force =     2.22263543   -1.41588274  103.38542658
     atom   31 type  1   force =    -3.46217183    2.07956071  101.46980104
     atom   32 type  1   force =     3.00144601    2.98506642   97.67428735
     atom   33 type  1   force =     0.80817185    0.29134327  104.24896223
     atom   34 type  1   force =    -0.30408106    1.58205887  104.11309573
     atom   35 type  1   force =     0.25283020    0.15055226  104.10774183
     atom   36 type  1   force =     0.06474531   -0.64333726  104.38833081
     atom   37 type  2   force =     1.39791216    1.59253111   51.69345480
     atom   38 type  3   force =    -2.49800490   -2.31789105   89.79379431
     atom   39 type  4   force =     1.05364981    1.02412846   15.34583781
     The local contribution  to forces
     atom    1 type  1   force =     0.00691569   -0.00135708  111.24284372
     atom    2 type  1   force =     0.00693576    0.00088571  111.26281463
     atom    3 type  1   force =    -0.01403339    0.00354944  111.24848943
     atom    4 type  1   force =     0.00315048   -0.00352418  111.24268617
     atom    5 type  1   force =    -0.00291690   -0.01491268  111.24619220
     atom    6 type  1   force =     0.00017059    0.00149672  111.23471342
     atom    7 type  1   force =    -0.00203901    0.00062157  111.23677701
     atom    8 type  1   force =     0.00649480    0.00787441  111.24614368
     atom    9 type  1   force =    -0.00395563    0.00571486  111.24752994
     atom   10 type  1   force =     0.04091682    0.01964073   40.06479584
     atom   11 type  1   force =     0.01396295    0.06431567   40.17440866
     atom   12 type  1   force =    -0.05523946    0.03619277   40.09478230
     atom   13 type  1   force =     0.06549532   -0.03952982   40.13890004
     atom   14 type  1   force =    -0.04311754   -0.04174957   40.18052982
     atom   15 type  1   force =    -0.02229507   -0.01311424   40.05386486
     atom   16 type  1   force =     0.00806685   -0.04602528   40.06453206
     atom   17 type  1   force =    -0.00805422   -0.00097834   40.05978427
     atom   18 type  1   force =     0.00084438    0.02164283   40.04774247
     atom   19 type  1   force =     0.32471167   -0.03052975  -31.51891411
     atom   20 type  1   force =     0.20561663   -0.07443280  -30.40951477
     atom   21 type  1   force =    -0.52811320    0.00842167  -31.19310225
     atom   22 type  1   force =     0.20776610   -0.28327960  -31.53849118
     atom   23 type  1   force =    -0.11807927   -0.44791601  -31.32369955
     atom   24 type  1   force =    -0.08941836    0.01608525  -31.72427555
     atom   25 type  1   force =    -0.05190116    0.03709818  -31.76302293
     atom   26 type  1   force =     0.27093550    0.30859395  -31.39073604
     atom   27 type  1   force =    -0.22168491    0.46224152  -31.27342226
     atom   28 type  1   force =     1.42187401    0.63612589 -104.13801463
     atom   29 type  1   force =     1.09171343    4.61698582  -98.87143392
     atom   30 type  1   force =    -2.19397748    1.38857780 -103.53320435
     atom   31 type  1   force =     3.40923180   -2.05196608 -101.61509126
     atom   32 type  1   force =    -2.93039280   -2.91378513  -97.74255432
     atom   33 type  1   force =    -0.79884550   -0.29312400 -104.38236362
     atom   34 type  1   force =     0.29346426   -1.56797922 -104.24663808
     atom   35 type  1   force =    -0.25072430   -0.14592604 -104.24210346
     atom   36 type  1   force =    -0.06284439    0.64339396 -104.50219423
     atom   37 type  2   force =    -1.37008502   -1.61691331  -52.07404657
     atom   38 type  3   force =     1.85081697    1.70224785  -87.25287265
     atom   39 type  4   force =    -1.02716125   -0.99846240  -15.33162242
     The core correction contribution to forces
     atom    1 type  1   force =     0.00008915    0.00012304    0.01006028
     atom    2 type  1   force =     0.00041084    0.00018181    0.00986559
     atom    3 type  1   force =    -0.00015037    0.00020571    0.01014857
     atom    4 type  1   force =    -0.00004585    0.00005854    0.00981537
     atom    5 type  1   force =    -0.00019914   -0.00034921    0.01020387
     atom    6 type  1   force =     0.00013599    0.00014788    0.00971075
     atom    7 type  1   force =     0.00001687    0.00010419    0.01030287
     atom    8 type  1   force =    -0.00002294   -0.00000391    0.01011036
     atom    9 type  1   force =     0.00010769   -0.00010033    0.00979661
     atom   10 type  1   force =    -0.00020146   -0.00023058   -0.00187194
     atom   11 type  1   force =    -0.00010555   -0.00030547   -0.00187860
     atom   12 type  1   force =     0.00023666   -0.00047298   -0.00178923
     atom   13 type  1   force =    -0.00025398   -0.00006308   -0.00171610
     atom   14 type  1   force =     0.00020479    0.00009803   -0.00156817
     atom   15 type  1   force =     0.00021666    0.00002821   -0.00187077
     atom   16 type  1   force =    -0.00015253    0.00038205   -0.00184135
     atom   17 type  1   force =     0.00009083    0.00012018   -0.00168166
     atom   18 type  1   force =     0.00009839    0.00011392   -0.00168190
     atom   19 type  1   force =    -0.00000765   -0.00018968    0.00204942
     atom   20 type  1   force =    -0.00050591   -0.00021914    0.00055560
     atom   21 type  1   force =     0.00072197   -0.00044722   -0.00002325
     atom   22 type  1   force =    -0.00019859    0.00068178    0.00133953
     atom   23 type  1   force =     0.00007063    0.00080892    0.00042981
     atom   24 type  1   force =     0.00027161    0.00022716    0.00193084
     atom   25 type  1   force =     0.00041407    0.00013567    0.00217028
     atom   26 type  1   force =    -0.00013147    0.00051289    0.00193131
     atom   27 type  1   force =     0.00040939   -0.00027831    0.00107479
     atom   28 type  1   force =     0.00129113    0.00028349   -0.00938403
     atom   29 type  1   force =     0.00303981    0.00968052   -0.00331402
     atom   30 type  1   force =    -0.00445761    0.00426221   -0.00735942
     atom   31 type  1   force =     0.00763608   -0.00334667   -0.00576400
     atom   32 type  1   force =    -0.01183400   -0.01247919    0.01032853
     atom   33 type  1   force =    -0.00428851    0.00057542   -0.00747220
     atom   34 type  1   force =     0.00246814   -0.00383519   -0.00775020
     atom   35 type  1   force =    -0.00215661   -0.00424137   -0.00750957
     atom   36 type  1   force =    -0.00050469    0.00043894   -0.01044391
     atom   37 type  2   force =    -0.00021676   -0.00152965   -0.00084246
     atom   38 type  3   force =    -0.00499421   -0.00483825    0.01904307
     atom   39 type  4   force =     0.00000000    0.00000000    0.00000000
     The Hubbard contrib.    to forces
     atom    1 type  1   force =     0.00000000    0.00000000    0.00000000
     atom    2 type  1   force =     0.00000000    0.00000000    0.00000000
     atom    3 type  1   force =     0.00000000    0.00000000    0.00000000
     atom    4 type  1   force =     0.00000000    0.00000000    0.00000000
     atom    5 type  1   force =     0.00000000    0.00000000    0.00000000
     atom    6 type  1   force =     0.00000000    0.00000000    0.00000000
     atom    7 type  1   force =     0.00000000    0.00000000    0.00000000
     atom    8 type  1   force =     0.00000000    0.00000000    0.00000000
     atom    9 type  1   force =     0.00000000    0.00000000    0.00000000
     atom   10 type  1   force =     0.00000000    0.00000000    0.00000000
     atom   11 type  1   force =     0.00000000    0.00000000    0.00000000
     atom   12 type  1   force =     0.00000000    0.00000000    0.00000000
     atom   13 type  1   force =     0.00000000    0.00000000    0.00000000
     atom   14 type  1   force =     0.00000000    0.00000000    0.00000000
     atom   15 type  1   force =     0.00000000    0.00000000    0.00000000
     atom   16 type  1   force =     0.00000000    0.00000000    0.00000000
     atom   17 type  1   force =     0.00000000    0.00000000    0.00000000
     atom   18 type  1   force =     0.00000000    0.00000000    0.00000000
     atom   19 type  1   force =     0.00000000    0.00000000    0.00000000
     atom   20 type  1   force =     0.00000000    0.00000000    0.00000000
     atom   21 type  1   force =     0.00000000    0.00000000    0.00000000
     atom   22 type  1   force =     0.00000000    0.00000000    0.00000000
     atom   23 type  1   force =     0.00000000    0.00000000    0.00000000
     atom   24 type  1   force =     0.00000000    0.00000000    0.00000000
     atom   25 type  1   force =     0.00000000    0.00000000    0.00000000
     atom   26 type  1   force =     0.00000000    0.00000000    0.00000000
     atom   27 type  1   force =     0.00000000    0.00000000    0.00000000
     atom   28 type  1   force =     0.00000000    0.00000000    0.00000000
     atom   29 type  1   force =     0.00000000    0.00000000    0.00000000
     atom   30 type  1   force =     0.00000000    0.00000000    0.00000000
     atom   31 type  1   force =     0.00000000    0.00000000    0.00000000
     atom   32 type  1   force =     0.00000000    0.00000000    0.00000000
     atom   33 type  1   force =     0.00000000    0.00000000    0.00000000
     atom   34 type  1   force =     0.00000000    0.00000000    0.00000000
     atom   35 type  1   force =     0.00000000    0.00000000    0.00000000
     atom   36 type  1   force =     0.00000000    0.00000000    0.00000000
     atom   37 type  2   force =     0.00000000    0.00000000    0.00000000
     atom   38 type  3   force =     0.00000000    0.00000000    0.00000000
     atom   39 type  4   force =     0.00000000    0.00000000    0.00000000
     The SCF correction term to forces
     atom    1 type  1   force =     0.00000000    0.00000000   -0.00000000
     atom    2 type  1   force =     0.00000000    0.00000000   -0.00000000
     atom    3 type  1   force =    -0.00000000   -0.00000000   -0.00000000
     atom    4 type  1   force =     0.00000000    0.00000000   -0.00000000
     atom    5 type  1   force =    -0.00000000   -0.00000000   -0.00000000
     atom    6 type  1   force =     0.00000000    0.00000000   -0.00000000
     atom    7 type  1   force =    -0.00000000   -0.00000000   -0.00000000
     atom    8 type  1   force =     0.00000000    0.00000000   -0.00000000
     atom    9 type  1   force =     0.00000000    0.00000000   -0.00000000
     atom   10 type  1   force =    -0.00000000    0.00000000    0.00000000
     atom   11 type  1   force =     0.00000000    0.00000000   -0.00000000
     atom   12 type  1   force =    -0.00000000   -0.00000000   -0.00000000
     atom   13 type  1   force =     0.00000000    0.00000000   -0.00000000
     atom   14 type  1   force =    -0.00000000   -0.00000000   -0.00000000
     atom   15 type  1   force =    -0.00000000   -0.00000000    0.00000000
     atom   16 type  1   force =    -0.00000000   -0.00000000   -0.00000000
     atom   17 type  1   force =    -0.00000000   -0.00000000   -0.00000000
     atom   18 type  1   force =     0.00000000    0.00000000   -0.00000000
     atom   19 type  1   force =     0.00000000    0.00000000    0.00000000
     atom   20 type  1   force =     0.00000000   -0.00000000    0.00000000
     atom   21 type  1   force =    -0.00000000   -0.00000000    0.00000000
     atom   22 type  1   force =    -0.00000000   -0.00000000    0.00000000
     atom   23 type  1   force =    -0.00000000   -0.00000000    0.00000000
     atom   24 type  1   force =     0.00000000    0.00000000    0.00000000
     atom   25 type  1   force =    -0.00000000    0.00000000   -0.00000000
     atom   26 type  1   force =     0.00000000    0.00000000    0.00000000
     atom   27 type  1   force =    -0.00000000    0.00000000    0.00000000
     atom   28 type  1   force =     0.00000000    0.00000000    0.00000000
     atom   29 type  1   force =     0.00000000    0.00000000    0.00000000
     atom   30 type  1   force =    -0.00000000    0.00000000    0.00000000
     atom   31 type  1   force =     0.00000000   -0.00000000    0.00000000
     atom   32 type  1   force =    -0.00000000   -0.00000000    0.00000000
     atom   33 type  1   force =    -0.00000000    0.00000000    0.00000000
     atom   34 type  1   force =    -0.00000000   -0.00000000    0.00000000
     atom   35 type  1   force =     0.00000000    0.00000000    0.00000000
     atom   36 type  1   force =    -0.00000000    0.00000000    0.00000000
     atom   37 type  2   force =    -0.00000187   -0.00000777   -0.00001493
     atom   38 type  3   force =     0.00000215   -0.00000199   -0.00000777
     atom   39 type  4   force =    -0.00000187   -0.00000192   -0.00000056

     Total force =     0.032962     Total SCF correction =     0.000019

     Writing all to output data dir ./pwscf.save/

     init_run     :     15.62s CPU     16.09s WALL (       1 calls)
     electrons    :    982.87s CPU    995.47s WALL (       1 calls)
     forces       :      3.34s CPU      3.45s WALL (       1 calls)

     Called by init_run:
     wfcinit      :     12.57s CPU     12.92s WALL (       1 calls)
     potinit      :      1.97s CPU      2.05s WALL (       1 calls)
     hinit0       :      0.84s CPU      0.85s WALL (       1 calls)

     Called by electrons:
     c_bands      :    829.30s CPU    839.39s WALL (      54 calls)
     sum_band     :    113.14s CPU    114.59s WALL (      54 calls)
     v_of_rho     :      9.07s CPU      9.49s WALL (      55 calls)
     newd         :      2.99s CPU      3.05s WALL (      55 calls)
     PAW_pot      :     13.71s CPU     13.87s WALL (      55 calls)
     mix_rho      :     15.73s CPU     16.03s WALL (      54 calls)
     vdW_kernel   :      1.07s CPU      1.08s WALL (       1 calls)

     Called by c_bands:
     init_us_2    :      9.62s CPU      9.79s WALL (    2860 calls)
     init_us_2:cp :      9.61s CPU      9.79s WALL (    2860 calls)
     cegterg      :    800.59s CPU    809.90s WALL (    1404 calls)

     Called by *egterg:
     cdiaghg      :    219.76s CPU    221.42s WALL (    5054 calls)
     h_psi        :    395.40s CPU    400.84s WALL (    5080 calls)
     s_psi        :     39.72s CPU     40.29s WALL (    5080 calls)
     g_psi        :      0.98s CPU      1.00s WALL (    3650 calls)

     Called by h_psi:
     h_psi:calbec :     60.71s CPU     61.59s WALL (    5080 calls)
     vloc_psi     :    291.49s CPU    295.50s WALL (    5080 calls)
     add_vuspsi   :     40.80s CPU     41.32s WALL (    5080 calls)

     General routines
     calbec       :     91.26s CPU     92.47s WALL (    6588 calls)
     fft          :      5.86s CPU      6.31s WALL (    4972 calls)
     ffts         :      9.23s CPU      9.40s WALL (   21817 calls)
     fftw         :    341.21s CPU    345.79s WALL ( 1458268 calls)
     interpolate  :      0.39s CPU      0.40s WALL (     110 calls)

     Parallel routines

     PWSCF        :  16m47.61s CPU  17m 5.81s WALL


   This run was terminated on:  11: 0:30  14Dec2025            

=------------------------------------------------------------------------------=
   JOB DONE.
=------------------------------------------------------------------------------=
