
     Program PWSCF v.7.1 starts on  4Feb2025 at 13:10:48 
        Git branch: heads/qe-7.1
        Last git commit: 48ba0178f8fede6d020eb786884699a9f063f55d-dirty
        Last git commit date: Fri Jan 27 14:22:33 2023 +0000
        Last git commit subject: Merge branch 'fix_hubbard' into 'develop'

     This program is part of the open-source Quantum ESPRESSO suite
     for quantum simulation of materials; please cite
         "P. Giannozzi et al., J. Phys.:Condens. Matter 21 395502 (2009);
         "P. Giannozzi et al., J. Phys.:Condens. Matter 29 465901 (2017);
         "P. Giannozzi et al., J. Chem. Phys. 152 154105 (2020);
          URL http://www.quantum-espresso.org", 
     in publications or presentations arising from this work. More details at
     http://www.quantum-espresso.org/quote

     Parallel version (MPI), running on    48 processors

     MPI processes distributed on     1 nodes
     241747 MiB available memory on the printing compute node when the environment starts

     Reading input from espresso.pwi
Warning: card &CELL ignored
Warning: card / ignored
Warning: card &FCP ignored
Warning: card / ignored
Warning: card &RISM ignored
Warning: card / ignored

     Current dimensions of program PWSCF are:
     Max number of different atomic species (ntypx) = 10
     Max number of k-points (npk) =  40000
     Max angular momentum in pseudopotentials (lmaxx) =  4
     file Pt.pbe-n-kjpaw_psl.1.0.0.UPF: wavefunction(s)  6S 5D renormalized
     file H.pbe-kjpaw_psl.1.0.0.UPF: wavefunction(s)  1S renormalized
     file C.pbe-n-kjpaw_psl.1.0.0.UPF: wavefunction(s)  2S 2P renormalized

     **************************************************************************
     Initializing libbeef V0.1.2 with the BEEF-vdW functional.
     Citation: Wellendorff et al., PRB 85, 235149 (2012).
     **************************************************************************


     IMPORTANT: XC functional enforced from input :
     Exchange-correlation= BEEF-VDW
                           (   1   4  43  14   2   0   0)
     Any further DFT definition will be discarded
     Please, verify this is what you really want


     R & G space division:  proc/nbgrp/npool/nimage =      48
     Subspace diagonalization in iterative solution of the eigenvalue problem:
     one sub-group per band group will be used
     custom distributed-memory algorithm (size of sub-group:  2*  2 procs)


     Parallelization info
     --------------------
     sticks:   dense  smooth     PW     G-vecs:    dense   smooth      PW
     Min         150      59     16                30552     7447    1068
     Max         151      60     17                30571     7456    1081
     Sum        7243    2839    769              1467143   357639   51591

     Using Slab Decomposition



     bravais-lattice index     =            0
     lattice parameter (alat)  =      16.0028  a.u.
     unit-cell volume          =   10463.1828 (a.u.)^3
     number of atoms/cell      =           38
     number of atomic types    =            3
     number of electrons       =       365.00
     number of Kohn-Sham states=          220
     kinetic-energy cutoff     =      40.0000  Ry
     charge density cutoff     =     410.0000  Ry
     scf convergence threshold =      1.0E-06
     mixing beta               =       0.7000
     number of iterations used =            8  local-TF  mixing
     Exchange-correlation= BEEF-VDW
                           (   1   4  43  14   2   0   0)

     celldm(1)=  16.002787  celldm(2)=   0.000000  celldm(3)=   0.000000
     celldm(4)=   0.000000  celldm(5)=   0.000000  celldm(6)=   0.000000

     crystal axes: (cart. coord. in units of alat)
               a(1) = (   1.000000   0.000000   0.000000 )  
               a(2) = (   0.500000   0.866025   0.000000 )  
               a(3) = (   0.000000   0.000000   2.948128 )  

     reciprocal axes: (cart. coord. in units 2 pi/alat)
               b(1) = (  1.000000 -0.577350  0.000000 )  
               b(2) = (  0.000000  1.154701  0.000000 )  
               b(3) = (  0.000000  0.000000  0.339198 )  


     PseudoPot. # 1 for Pt read from file:
     /users/kbadger1/espresso/pseudo/pslibrary.1.0.0/pbe/PSEUDOPOTENTIALS/Pt.pbe-n-kjpaw_psl.1.0.0.UPF
     MD5 check sum: 2e24a0b5bf98a4ed1a57fa81bca8c143
     Pseudo is Projector augmented-wave + core cor, Zval = 10.0
     Generated using 'atomic' code by A. Dal Corso  v.7.0
     Shape of augmentation charge: PSQ
     Using radial grid of 1277 points,  6 beta functions with: 
                l(1) =   0
                l(2) =   0
                l(3) =   1
                l(4) =   1
                l(5) =   2
                l(6) =   2
     Q(r) pseudized with 0 coefficients 


     PseudoPot. # 2 for H  read from file:
     /users/kbadger1/espresso/pseudo/pslibrary.1.0.0/pbe/PSEUDOPOTENTIALS/H.pbe-kjpaw_psl.1.0.0.UPF
     MD5 check sum: fe4c6fa958fa6d3815bf5d2419cbf1df
     Pseudo is Projector augmented-wave, Zval =  1.0
     Generated using 'atomic' code by A. Dal Corso  v.7.0
     Shape of augmentation charge: PSQ
     Using radial grid of  929 points,  2 beta functions with: 
                l(1) =   0
                l(2) =   0
     Q(r) pseudized with 0 coefficients 


     PseudoPot. # 3 for C  read from file:
     /users/kbadger1/espresso/pseudo/pslibrary.1.0.0/pbe/PSEUDOPOTENTIALS/C.pbe-n-kjpaw_psl.1.0.0.UPF
     MD5 check sum: 6408e75cdba28732cea38a4db8498ce4
     Pseudo is Projector augmented-wave + core cor, Zval =  4.0
     Generated using 'atomic' code by A. Dal Corso  v.7.0
     Shape of augmentation charge: PSQ
     Using radial grid of 1073 points,  4 beta functions with: 
                l(1) =   0
                l(2) =   0
                l(3) =   1
                l(4) =   1
     Q(r) pseudized with 0 coefficients 


     atomic species   valence    mass     pseudopotential
        Pt            10.00   195.08400     Pt( 1.00)
        H              1.00     1.00800     H ( 1.00)
        C              4.00    12.01100     C ( 1.00)

     No symmetry found



   Cartesian axes

     site n.     atom                  positions (alat units)
         1           Pt  tau(   1) = (   0.0000000   0.0000000   1.0037422  )
         2           Pt  tau(   2) = (   0.3340014   0.0000000   1.0037422  )
         3           Pt  tau(   3) = (   0.6680027   0.0000000   1.0037422  )
         4           Pt  tau(   4) = (   0.1670007   0.2892537   1.0037422  )
         5           Pt  tau(   5) = (   0.5010021   0.2892537   1.0037422  )
         6           Pt  tau(   6) = (   0.8350034   0.2892537   1.0037422  )
         7           Pt  tau(   7) = (   0.3340014   0.5785073   1.0037422  )
         8           Pt  tau(   8) = (   0.6680027   0.5785073   1.0037422  )
         9           Pt  tau(   9) = (   1.0020041   0.5785073   1.0037422  )
        10           Pt  tau(  10) = (   0.1670007   0.0964179   1.2764532  )
        11           Pt  tau(  11) = (   0.5010021   0.0964179   1.2764532  )
        12           Pt  tau(  12) = (   0.8350034   0.0964179   1.2764532  )
        13           Pt  tau(  13) = (   0.3340014   0.3856716   1.2764532  )
        14           Pt  tau(  14) = (   0.6680027   0.3856716   1.2764532  )
        15           Pt  tau(  15) = (   1.0020041   0.3856716   1.2764532  )
        16           Pt  tau(  16) = (   0.5010021   0.6749252   1.2764532  )
        17           Pt  tau(  17) = (   0.8350034   0.6749252   1.2764532  )
        18           Pt  tau(  18) = (   1.1690048   0.6749252   1.2764532  )
        19           Pt  tau(  19) = (   0.0020370   0.1960429   1.5486679  )
        20           Pt  tau(  20) = (   0.3341862   0.1959209   1.5483719  )
        21           Pt  tau(  21) = (   0.6681503   0.1961334   1.5453718  )
        22           Pt  tau(  22) = (   0.1682100   0.4872765   1.5459294  )
        23           Pt  tau(  23) = (   0.5009907   0.4854381   1.5455657  )
        24           Pt  tau(  24) = (   0.8353290   0.4854392   1.5454751  )
        25           Pt  tau(  25) = (   0.3369126   0.7757617   1.5500294  )
        26           Pt  tau(  26) = (   0.6682027   0.7748741   1.5496396  )
        27           Pt  tau(  27) = (   0.9996809   0.7756402   1.5496684  )
        28           Pt  tau(  28) = (  -0.0033734   0.0081181   1.8392159  )
        29           Pt  tau(  29) = (   0.3400206   0.0081241   1.8389724  )
        30           Pt  tau(  30) = (   0.6682778   0.0097955   1.8233319  )
        31           Pt  tau(  31) = (   0.1682954   0.3162715   1.8222491  )
        32           Pt  tau(  32) = (   0.5052594   0.2998934   1.8200538  )
        33           Pt  tau(  33) = (   0.8313499   0.2999084   1.8201367  )
        34           Pt  tau(  34) = (   0.3369808   0.5900996   1.8237098  )
        35           Pt  tau(  35) = (   0.6683251   0.5831022   1.8204501  )
        36           Pt  tau(  36) = (   0.9996053   0.5901287   1.8235647  )
        37           H   tau(  37) = (   0.1685135   0.2072474   2.0504525  )
        38           C   tau(  38) = (   0.1684416   0.1187229   1.9527550  )

     number of k points=    13  Marzari-Vanderbilt smearing, width (Ry)=  0.0200
                       cart. coord. in units 2pi/alat
        k(    1) = (   0.0000000   0.0000000   0.0000000), wk =   0.0800000
        k(    2) = (   0.0000000   0.2309401   0.0000000), wk =   0.1600000
        k(    3) = (   0.0000000   0.4618802   0.0000000), wk =   0.1600000
        k(    4) = (   0.2000000  -0.1154701   0.0000000), wk =   0.1600000
        k(    5) = (   0.2000000   0.1154701   0.0000000), wk =   0.1600000
        k(    6) = (   0.2000000   0.3464102   0.0000000), wk =   0.1600000
        k(    7) = (   0.2000000  -0.5773503   0.0000000), wk =   0.1600000
        k(    8) = (   0.2000000  -0.3464102   0.0000000), wk =   0.1600000
        k(    9) = (   0.4000000  -0.2309401   0.0000000), wk =   0.1600000
        k(   10) = (   0.4000000   0.0000000   0.0000000), wk =   0.1600000
        k(   11) = (   0.4000000   0.2309401   0.0000000), wk =   0.1600000
        k(   12) = (   0.4000000  -0.6928203   0.0000000), wk =   0.1600000
        k(   13) = (   0.4000000  -0.4618802   0.0000000), wk =   0.1600000

     Dense  grid:  1467143 G-vectors     FFT dimensions: ( 108, 108, 320)

     Smooth grid:   357639 G-vectors     FFT dimensions: (  72,  72, 192)

     Estimated max dynamical RAM per process >     214.57 MB

     Estimated total dynamical RAM >      10.06 GB

     Initial potential from superposition of free atoms

     starting charge     364.9938, renormalised to     365.0000

     negative rho (up, down):  3.548E-03 0.000E+00


     %%%%%%%%%%%%%%%%%%%%%%%%%%%%%%%%%%%%%%%%%%%%%%%%%%%%%%%%%%%%%%%%%%%%%%%%
     %                                                                      %
     % You are using vdW-DF, which was implemented by the Thonhauser group. %
     % Please cite the following two papers that made this development      %
     % possible and the two reviews that describe the various versions:     %
     %                                                                      %
     %   T. Thonhauser et al., PRL 115, 136402 (2015).                      %
     %   T. Thonhauser et al., PRB 76, 125112 (2007).                       %
     %   K. Berland et al., Rep. Prog. Phys. 78, 066501 (2015).             %
     %   D.C. Langreth et al., J. Phys.: Condens. Matter 21, 084203 (2009). %
     %                                                                      %
     % If you are calculating stress with vdW-DF, please also cite:         %
     %                                                                      %
     %   R. Sabatini et al., J. Phys.: Condens. Matter 24, 424209 (2012).   %
     %                                                                      %
     %%%%%%%%%%%%%%%%%%%%%%%%%%%%%%%%%%%%%%%%%%%%%%%%%%%%%%%%%%%%%%%%%%%%%%%%

     %%%%%%%%%%%%%%%%%%%%%%%%%%%%%%%%%%%%%%%%%%%%%%%%%%%%%%%%%%%%%%%%%%%%%%%%
     %                                                                      %
     %  vdW-DF NEWS:                                                        %
     %                                                                      %
     %  * vdW-DF3 is now available. DOI: 10.1021/acs.jctc.0c00471           %
     %    use with input_dft = 'vdW-DF3-opt1' or 'vdW-DF3-opt2'             %
     %                                                                      %
     %  * Unscreened and range-separated hybrid vdW-DF-cx functionals       %
     %    DOI: 10.1063/1.4986522 and 10.1088/1361-648X/ac2ad2               %
     %    use with input_dft = 'vdW-DF-cx0'    and 'vdW-DF-ahcx'            %
     %  * Unscreened and range-separated hybrid vdW-DF2-b86r functionals    %
     %    DOI: 10.1063/1.4986522 and DOI: 10.1103/PhysRevX.12.041003        %
     %    use with input_dft = 'vdW-DF2-br0' and 'vdW-DF2-ahbr'             %
     %                                                                      %
     %%%%%%%%%%%%%%%%%%%%%%%%%%%%%%%%%%%%%%%%%%%%%%%%%%%%%%%%%%%%%%%%%%%%%%%%


     Starting wfcs are  329 randomized atomic wfcs
     Checking if some PAW data can be deallocated... 

     total cpu time spent up to now is       20.7 secs

     per-process dynamical memory:   212.9 Mb

     Self-consistent Calculation

     iteration #  1     ecut=    40.00 Ry     beta= 0.70
     Davidson diagonalization with overlap
     ethr =  1.00E-02,  avg # of iterations =  2.0

     Threshold (ethr) on eigenvalues was too large:
     Diagonalizing with lowered threshold

     Davidson diagonalization with overlap
     ethr =  5.39E-04,  avg # of iterations =  4.3

     negative rho (up, down):  1.257E-02 0.000E+00

     total cpu time spent up to now is       65.6 secs

     total energy              =  -27774.10495629 Ry
     estimated scf accuracy    <       2.23579683 Ry

     iteration #  2     ecut=    40.00 Ry     beta= 0.70
     Davidson diagonalization with overlap
     ethr =  6.13E-04,  avg # of iterations =  2.0

     negative rho (up, down):  9.946E-03 0.000E+00

     total cpu time spent up to now is       86.4 secs

     total energy              =  -27774.31818449 Ry
     estimated scf accuracy    <       0.86094327 Ry

     iteration #  3     ecut=    40.00 Ry     beta= 0.70
     Davidson diagonalization with overlap
     ethr =  2.36E-04,  avg # of iterations =  2.8

     negative rho (up, down):  6.559E-03 0.000E+00

     total cpu time spent up to now is      110.4 secs

     total energy              =  -27774.38859097 Ry
     estimated scf accuracy    <       0.26056211 Ry

     iteration #  4     ecut=    40.00 Ry     beta= 0.70
     Davidson diagonalization with overlap
     c_bands:  1 eigenvalues not converged
     ethr =  7.14E-05,  avg # of iterations =  8.9

     negative rho (up, down):  3.619E-03 0.000E+00

     total cpu time spent up to now is      142.2 secs

     total energy              =  -27774.42209436 Ry
     estimated scf accuracy    <       0.08648819 Ry

     iteration #  5     ecut=    40.00 Ry     beta= 0.70
     Davidson diagonalization with overlap
     ethr =  2.37E-05,  avg # of iterations =  6.8

     negative rho (up, down):  1.738E-03 0.000E+00

     total cpu time spent up to now is      174.5 secs

     total energy              =  -27774.43733098 Ry
     estimated scf accuracy    <       0.05929182 Ry

     iteration #  6     ecut=    40.00 Ry     beta= 0.70
     Davidson diagonalization with overlap
     ethr =  1.62E-05,  avg # of iterations =  2.4

     negative rho (up, down):  6.114E-04 0.000E+00

     total cpu time spent up to now is      198.7 secs

     total energy              =  -27774.43962028 Ry
     estimated scf accuracy    <       0.00591638 Ry

     iteration #  7     ecut=    40.00 Ry     beta= 0.70
     Davidson diagonalization with overlap
     c_bands:  1 eigenvalues not converged
     c_bands:  1 eigenvalues not converged
     ethr =  1.62E-06,  avg # of iterations = 15.8

     negative rho (up, down):  3.107E-04 0.000E+00

     total cpu time spent up to now is      258.4 secs

     total energy              =  -27774.44178692 Ry
     estimated scf accuracy    <       0.00219085 Ry

     iteration #  8     ecut=    40.00 Ry     beta= 0.70
     Davidson diagonalization with overlap
     ethr =  6.00E-07,  avg # of iterations =  2.5

     negative rho (up, down):  2.246E-04 0.000E+00

     total cpu time spent up to now is      275.3 secs

     total energy              =  -27774.44206349 Ry
     estimated scf accuracy    <       0.00061744 Ry

     iteration #  9     ecut=    40.00 Ry     beta= 0.70
     Davidson diagonalization with overlap
     ethr =  1.69E-07,  avg # of iterations =  3.8

     negative rho (up, down):  2.022E-04 0.000E+00

     total cpu time spent up to now is      301.5 secs

     total energy              =  -27774.44215661 Ry
     estimated scf accuracy    <       0.00044026 Ry

     iteration # 10     ecut=    40.00 Ry     beta= 0.70
     Davidson diagonalization with overlap
     ethr =  1.21E-07,  avg # of iterations =  2.0

     negative rho (up, down):  2.314E-04 0.000E+00

     total cpu time spent up to now is      325.0 secs

     total energy              =  -27774.44219286 Ry
     estimated scf accuracy    <       0.00027378 Ry

     iteration # 11     ecut=    40.00 Ry     beta= 0.70
     Davidson diagonalization with overlap
     ethr =  7.50E-08,  avg # of iterations =  2.5

     negative rho (up, down):  4.101E-04 0.000E+00

     total cpu time spent up to now is      349.4 secs

     total energy              =  -27774.44224465 Ry
     estimated scf accuracy    <       0.00016628 Ry

     iteration # 12     ecut=    40.00 Ry     beta= 0.70
     Davidson diagonalization with overlap
     c_bands:  1 eigenvalues not converged
     c_bands:  1 eigenvalues not converged
     ethr =  4.56E-08,  avg # of iterations =  7.2

     negative rho (up, down):  6.306E-04 0.000E+00

     total cpu time spent up to now is      376.6 secs

     total energy              =  -27774.44228111 Ry
     estimated scf accuracy    <       0.00011102 Ry

     iteration # 13     ecut=    40.00 Ry     beta= 0.70
     Davidson diagonalization with overlap
     ethr =  3.04E-08,  avg # of iterations =  2.1

     negative rho (up, down):  1.643E-03 0.000E+00

     total cpu time spent up to now is      389.3 secs

     total energy              =  -27774.44232074 Ry
     estimated scf accuracy    <       0.00005785 Ry

     iteration # 14     ecut=    40.00 Ry     beta= 0.70
     Davidson diagonalization with overlap
     c_bands:  1 eigenvalues not converged
     ethr =  1.58E-08,  avg # of iterations =  6.5

     negative rho (up, down):  1.689E-03 0.000E+00

     total cpu time spent up to now is      416.3 secs

     total energy              =  -27774.44233829 Ry
     estimated scf accuracy    <       0.00002334 Ry

     iteration # 15     ecut=    40.00 Ry     beta= 0.70
     Davidson diagonalization with overlap
     ethr =  6.40E-09,  avg # of iterations =  2.0

     negative rho (up, down):  2.912E-03 0.000E+00

     total cpu time spent up to now is      441.0 secs

     total energy              =  -27774.44233945 Ry
     estimated scf accuracy    <       0.00001415 Ry

     iteration # 16     ecut=    40.00 Ry     beta= 0.70
     Davidson diagonalization with overlap
     ethr =  3.88E-09,  avg # of iterations =  2.4

     negative rho (up, down):  3.344E-03 0.000E+00

     total cpu time spent up to now is      464.7 secs

     total energy              =  -27774.44233914 Ry
     estimated scf accuracy    <       0.00000386 Ry

     iteration # 17     ecut=    40.00 Ry     beta= 0.70
     Davidson diagonalization with overlap
     ethr =  1.06E-09,  avg # of iterations =  3.9

     negative rho (up, down):  3.385E-03 0.000E+00

     total cpu time spent up to now is      496.7 secs

     End of self-consistent calculation

          k = 0.0000 0.0000 0.0000 ( 44645 PWs)   bands (ev):

   -10.4215  -6.4463  -5.3238  -4.9638  -4.1445  -4.1151  -4.0820  -4.0468
    -4.0286  -4.0198  -4.0094  -3.8985  -3.7625  -3.6149  -3.5018  -3.4975
    -3.4899  -3.4183  -3.3644  -3.3022  -3.0541  -3.0470  -3.0235  -2.9172
    -2.8650  -2.8593  -2.8176  -2.8127  -2.7991  -2.7186  -2.7102  -2.6994
    -2.6317  -2.6285  -2.5881  -2.5532  -2.5490  -2.5353  -2.5157  -2.4964
    -2.4799  -2.2339  -2.0775  -2.0631  -1.9806  -1.9510  -1.9387  -1.9128
    -1.9073  -1.8979  -1.8801  -1.8336  -1.7931  -1.7099  -1.7071  -1.6318
    -1.5805  -1.5596  -1.2574  -1.2345  -1.1800  -1.1653  -1.1467  -1.1141
    -1.0982  -1.0099  -0.9958  -0.9535  -0.9486  -0.9423  -0.9345  -0.9180
    -0.9014  -0.8970  -0.8958  -0.8571  -0.8482  -0.8400  -0.8318  -0.8088
    -0.7907  -0.7726  -0.7423  -0.7349  -0.7291  -0.7195  -0.5488  -0.5225
    -0.5134  -0.4912  -0.4724  -0.4632  -0.4490  -0.4480  -0.4215  -0.4138
    -0.4072  -0.3072  -0.3071  -0.2636  -0.2611  -0.2394  -0.1944  -0.1777
    -0.1661  -0.1184  -0.1057  -0.0821   0.0033   0.0146   0.0487   0.2954
     0.3052   0.3198   0.3887   0.4049   0.4319   0.4360   0.4558   0.4714
     0.5350   0.5504   0.6010   0.6053   0.6145   0.6364   0.6467   0.6814
     0.7189   0.7795   0.8416   0.8567   0.8762   0.9421   0.9439   0.9499
     1.1058   1.1526   1.1571   1.1635   1.1874   1.2043   1.2158   1.2381
     1.2885   1.2925   1.3357   1.3675   1.3898   1.4020   1.4298   1.4902
     1.5227   1.5762   1.5796   1.5887   1.6006   1.6092   1.6176   1.6260
     1.6280   1.6399   1.6505   1.6985   1.7188   1.7206   1.7254   1.7395
     1.8020   1.8117   1.8193   1.8216   1.8392   1.8714   1.8833   1.9094
     1.9615   1.9681   1.9757   1.9787   1.9892   2.0173   2.0445   2.0503
     2.0705   2.0890   2.1152   2.1251   2.1935   2.2357   2.3138   2.3586
     2.3678   2.3833   2.4088   2.4137   2.4267   2.8043   2.9516   3.1340
     3.2740   3.2849   3.3059   3.3400   4.2808   4.4096   5.3654   5.5897
     5.5982   5.6110   6.0371   6.0644   6.8191   7.2320   7.2387   7.2728
     7.2939   7.3560   7.3965   7.4207

          k = 0.0000 0.2309 0.0000 ( 44694 PWs)   bands (ev):

   -10.4180  -6.3033  -5.2702  -4.8880  -4.5111  -4.2020  -4.1594  -3.9487
    -3.9070  -3.8671  -3.8098  -3.8012  -3.6759  -3.6071  -3.5641  -3.4602
    -3.4286  -3.4062  -3.2766  -3.2187  -3.1079  -3.0064  -2.9672  -2.9612
    -2.8946  -2.8888  -2.8605  -2.8008  -2.7911  -2.7316  -2.7209  -2.7019
    -2.6820  -2.6678  -2.5994  -2.5931  -2.4860  -2.4717  -2.4025  -2.3750
    -2.3391  -2.2235  -2.1519  -2.1025  -2.0699  -2.0647  -2.0349  -2.0053
    -1.9432  -1.9284  -1.8006  -1.7976  -1.7728  -1.7048  -1.6649  -1.6248
    -1.6048  -1.5574  -1.4083  -1.3349  -1.3254  -1.3015  -1.2797  -1.2640
    -1.2104  -1.1590  -1.1348  -1.1326  -1.1020  -1.0566  -1.0199  -1.0034
    -0.9669  -0.9489  -0.9249  -0.8438  -0.8386  -0.8266  -0.7660  -0.7615
    -0.7424  -0.7176  -0.7086  -0.7059  -0.6799  -0.5889  -0.5861  -0.5516
    -0.5249  -0.5204  -0.4998  -0.4919  -0.4713  -0.4253  -0.4105  -0.4004
    -0.3726  -0.3646  -0.3269  -0.3140  -0.3123  -0.2534  -0.2416  -0.2061
    -0.2021  -0.1376  -0.0894  -0.0820  -0.0661  -0.0435  -0.0342  -0.0107
    -0.0094   0.1359   0.1456   0.1723   0.3003   0.3692   0.3907   0.4248
     0.4360   0.4494   0.4686   0.4952   0.6241   0.6645   0.7059   0.7124
     0.7556   0.7656   0.7869   0.7897   0.8493   0.8507   0.8802   0.9122
     0.9919   1.0310   1.0358   1.0652   1.1018   1.1550   1.1768   1.2227
     1.2318   1.2706   1.2730   1.3245   1.3684   1.3940   1.4133   1.4277
     1.4303   1.4968   1.5095   1.5581   1.5645   1.6009   1.6073   1.6335
     1.6473   1.7189   1.7286   1.7811   1.7925   1.8451   1.8943   1.9125
     1.9265   1.9471   1.9671   1.9782   1.9833   2.0422   2.0480   2.0544
     2.0914   2.0953   2.1450   2.1457   2.1977   2.2426   2.2697   2.2935
     2.3194   2.3325   2.3499   2.3726   2.3814   2.4086   2.4635   2.4983
     2.5496   2.5761   2.6450   2.6979   2.7126   2.8271   2.9668   3.0837
     3.3482   3.6663   3.9066   3.9960   4.3025   4.5033   5.1139   5.3378
     5.5767   5.9223   6.0911   6.2206   6.3583   6.4232   6.9904   7.0963
     7.1698   7.4059   7.5002   7.5162

          k = 0.0000 0.4619 0.0000 ( 44748 PWs)   bands (ev):

   -10.4122  -5.8960  -5.3395  -5.0753  -4.5471  -4.2249  -4.1950  -4.0432
    -3.7964  -3.6648  -3.6486  -3.5614  -3.5237  -3.4698  -3.4292  -3.3520
    -3.2699  -3.2397  -3.2249  -3.1242  -3.1212  -3.0868  -3.0615  -3.0344
    -2.9940  -2.9705  -2.9630  -2.9274  -2.8682  -2.8542  -2.6582  -2.6572
    -2.6235  -2.6056  -2.5310  -2.4999  -2.4914  -2.4286  -2.3710  -2.3668
    -2.3384  -2.2303  -2.2114  -2.1526  -2.0824  -2.0471  -2.0099  -1.9954
    -1.9191  -1.9144  -1.8990  -1.8573  -1.8543  -1.8292  -1.7230  -1.6926
    -1.6640  -1.5890  -1.5591  -1.5203  -1.5098  -1.4687  -1.4415  -1.4211
    -1.3298  -1.2877  -1.2286  -1.2240  -1.1759  -1.1511  -1.1174  -1.1078
    -1.0534  -0.9746  -0.9511  -0.9340  -0.9016  -0.8951  -0.8557  -0.8226
    -0.8168  -0.7747  -0.7632  -0.7615  -0.7348  -0.7060  -0.7047  -0.6785
    -0.6541  -0.5921  -0.5899  -0.5471  -0.5212  -0.5166  -0.4894  -0.4711
    -0.4148  -0.3630  -0.3300  -0.3237  -0.2836  -0.2617  -0.2576  -0.2202
    -0.1775  -0.1236  -0.1168  -0.0745  -0.0634  -0.0178   0.0161   0.0910
     0.1331   0.1406   0.2131   0.2333   0.2665   0.2772   0.3042   0.3335
     0.3541   0.3920   0.3976   0.4253   0.4529   0.4644   0.4894   0.5228
     0.5418   0.5942   0.6525   0.6537   0.7087   0.7447   0.8008   0.8076
     0.9327   0.9422   0.9772   1.0094   1.0362   1.0902   1.1470   1.1758
     1.2419   1.2457   1.2698   1.2782   1.3211   1.3334   1.3535   1.3735
     1.3842   1.4579   1.4676   1.5131   1.5472   1.5791   1.6179   1.6258
     1.6987   1.7263   1.8061   1.8094   1.8487   1.8964   1.9573   1.9614
     1.9900   1.9920   2.0393   2.0499   2.1043   2.1296   2.1351   2.1697
     2.2440   2.2734   2.2804   2.2919   2.3029   2.3344   2.3506   2.3782
     2.4917   2.5084   2.5512   2.5573   2.5609   2.6541   2.8043   2.9087
     2.9705   3.0724   3.2546   3.5620   3.5960   3.7315   3.8293   3.8866
     4.2316   4.3124   4.4321   4.5545   4.8635   4.8929   4.9932   5.1113
     5.1142   5.2666   5.3705   5.7171   5.8825   6.0399   6.2697   6.6943
     6.7477   7.1856   7.2445   7.4105

          k = 0.2000-0.1155 0.0000 ( 44694 PWs)   bands (ev):

   -10.4184  -6.3020  -5.2418  -4.8838  -4.5651  -4.1867  -4.1447  -3.9606
    -3.9282  -3.8523  -3.8280  -3.7821  -3.7108  -3.5951  -3.5845  -3.4371
    -3.4225  -3.3850  -3.3174  -3.2328  -3.0933  -3.0104  -2.9765  -2.9591
    -2.8975  -2.8845  -2.8522  -2.8119  -2.7915  -2.7472  -2.7178  -2.6958
    -2.6770  -2.6609  -2.6071  -2.5874  -2.4987  -2.4579  -2.3915  -2.3606
    -2.3431  -2.2187  -2.1332  -2.0977  -2.0793  -2.0495  -2.0274  -1.9954
    -1.9377  -1.9091  -1.8605  -1.7809  -1.7626  -1.7066  -1.6741  -1.6328
    -1.6049  -1.5372  -1.3834  -1.3258  -1.3070  -1.2977  -1.2533  -1.2301
    -1.1995  -1.1869  -1.1613  -1.1439  -1.0994  -1.0577  -1.0155  -0.9827
    -0.9747  -0.9488  -0.9183  -0.8903  -0.8661  -0.8361  -0.7602  -0.7472
    -0.7401  -0.7118  -0.7013  -0.6857  -0.6455  -0.5957  -0.5923  -0.5587
    -0.5348  -0.5139  -0.5051  -0.4994  -0.4638  -0.4514  -0.3980  -0.3812
    -0.3723  -0.3640  -0.3434  -0.3112  -0.2940  -0.2714  -0.2434  -0.2179
    -0.2020  -0.1324  -0.1089  -0.0905  -0.0726  -0.0480  -0.0270  -0.0096
    -0.0021   0.0810   0.1566   0.2385   0.3093   0.3652   0.3859   0.4040
     0.4269   0.4397   0.4762   0.5194   0.6033   0.6633   0.6996   0.7053
     0.7460   0.7674   0.7830   0.7904   0.8438   0.8525   0.8710   0.8967
     0.9995   1.0224   1.0369   1.0497   1.0646   1.1453   1.1765   1.2193
     1.2241   1.2413   1.2847   1.3211   1.3589   1.3922   1.4083   1.4305
     1.4432   1.4887   1.5143   1.5642   1.5816   1.6079   1.6162   1.6405
     1.6598   1.6934   1.7516   1.7731   1.7894   1.8391   1.8795   1.9122
     1.9199   1.9352   1.9629   1.9727   1.9866   2.0361   2.0538   2.0594
     2.0865   2.1027   2.1255   2.1326   2.2022   2.2251   2.2732   2.2979
     2.3274   2.3466   2.3604   2.3839   2.4072   2.4258   2.4769   2.5029
     2.5474   2.5909   2.6650   2.6987   2.7282   2.7945   2.9541   3.1315
     3.4000   3.6517   3.9128   3.9799   4.2788   4.4832   5.0684   5.4134
     5.5949   5.9142   6.0802   6.2362   6.3624   6.3964   7.0234   7.0557
     7.1501   7.3982   7.4869   7.5075

          k = 0.2000 0.1155 0.0000 ( 44694 PWs)   bands (ev):

   -10.4184  -6.3020  -5.2418  -4.8839  -4.5660  -4.1860  -4.1438  -3.9611
    -3.9280  -3.8527  -3.8286  -3.7822  -3.7111  -3.5934  -3.5832  -3.4366
    -3.4265  -3.3856  -3.3166  -3.2317  -3.0926  -3.0098  -2.9751  -2.9586
    -2.8981  -2.8874  -2.8534  -2.8124  -2.7925  -2.7467  -2.7191  -2.6968
    -2.6734  -2.6615  -2.6055  -2.5887  -2.4979  -2.4576  -2.3894  -2.3623
    -2.3430  -2.2187  -2.1333  -2.0991  -2.0778  -2.0481  -2.0270  -1.9952
    -1.9390  -1.9110  -1.8589  -1.7807  -1.7620  -1.7051  -1.6757  -1.6327
    -1.6046  -1.5382  -1.3818  -1.3247  -1.3064  -1.2976  -1.2527  -1.2281
    -1.2024  -1.1871  -1.1633  -1.1426  -1.0981  -1.0553  -1.0156  -0.9826
    -0.9723  -0.9492  -0.9173  -0.8923  -0.8698  -0.8362  -0.7609  -0.7478
    -0.7401  -0.7087  -0.7018  -0.6870  -0.6466  -0.5996  -0.5903  -0.5586
    -0.5327  -0.5136  -0.5029  -0.5007  -0.4641  -0.4491  -0.4016  -0.3848
    -0.3711  -0.3636  -0.3455  -0.3075  -0.2925  -0.2725  -0.2440  -0.2192
    -0.2024  -0.1338  -0.1095  -0.0913  -0.0711  -0.0460  -0.0225  -0.0132
    -0.0066   0.0814   0.1570   0.2429   0.3080   0.3648   0.3851   0.4050
     0.4263   0.4393   0.4765   0.5187   0.6011   0.6636   0.6992   0.7050
     0.7471   0.7670   0.7822   0.7899   0.8441   0.8528   0.8695   0.8958
     1.0038   1.0217   1.0370   1.0486   1.0651   1.1463   1.1739   1.2170
     1.2246   1.2412   1.2863   1.3227   1.3600   1.3920   1.4062   1.4304
     1.4432   1.4878   1.5169   1.5613   1.5830   1.6063   1.6166   1.6403
     1.6602   1.6934   1.7515   1.7728   1.7877   1.8402   1.8786   1.9127
     1.9193   1.9359   1.9628   1.9727   1.9856   2.0370   2.0542   2.0602
     2.0852   2.1027   2.1244   2.1311   2.2036   2.2253   2.2714   2.2987
     2.3298   2.3468   2.3605   2.3858   2.4092   2.4280   2.4781   2.5023
     2.5463   2.5902   2.6639   2.6988   2.7288   2.7944   2.9561   3.1331
     3.3995   3.6527   3.9113   3.9786   4.2781   4.4839   5.0673   5.4156
     5.5954   5.9142   6.0793   6.2348   6.3648   6.3959   7.0227   7.0545
     7.1486   7.3979   7.4863   7.5079

          k = 0.2000 0.3464 0.0000 ( 44714 PWs)   bands (ev):

   -10.4138  -6.0251  -5.1946  -4.8165  -4.7962  -4.6168  -3.9132  -3.8107
    -3.7261  -3.7102  -3.6906  -3.6655  -3.6301  -3.5678  -3.5492  -3.4827
    -3.3873  -3.2517  -3.1426  -3.1322  -3.1231  -3.0882  -3.0338  -2.9895
    -2.9273  -2.9186  -2.8799  -2.8227  -2.8000  -2.7895  -2.7482  -2.7091
    -2.6891  -2.6498  -2.6257  -2.5867  -2.5143  -2.4631  -2.4249  -2.2773
    -2.2399  -2.1683  -2.1445  -2.1182  -2.0981  -2.0616  -2.0424  -1.9924
    -1.9344  -1.9009  -1.8757  -1.8342  -1.7831  -1.7377  -1.6961  -1.6553
    -1.6375  -1.5962  -1.5606  -1.5163  -1.4401  -1.4219  -1.3707  -1.3639
    -1.3297  -1.2605  -1.2464  -1.2310  -1.1988  -1.1635  -1.0793  -1.0571
    -1.0191  -1.0095  -0.9917  -0.9700  -0.9102  -0.8818  -0.8326  -0.8097
    -0.7591  -0.7511  -0.7408  -0.6958  -0.6847  -0.6624  -0.6409  -0.6180
    -0.6051  -0.5870  -0.5605  -0.5208  -0.4699  -0.4597  -0.4328  -0.4202
    -0.4031  -0.3827  -0.3539  -0.3269  -0.3066  -0.2919  -0.2837  -0.2692
    -0.2475  -0.2346  -0.2075  -0.1450  -0.1178  -0.0700  -0.0215   0.0161
     0.0409   0.0631   0.1389   0.1884   0.2365   0.2766   0.2903   0.3530
     0.4045   0.4173   0.4382   0.4717   0.4926   0.5326   0.5602   0.5793
     0.6183   0.6341   0.6963   0.7644   0.7741   0.8057   0.8381   0.8700
     0.9325   0.9674   1.0011   1.0245   1.0462   1.0894   1.1188   1.1399
     1.1746   1.1961   1.2562   1.2702   1.3143   1.3534   1.3745   1.3879
     1.3968   1.4141   1.4311   1.4498   1.4756   1.5593   1.5921   1.6707
     1.6929   1.7536   1.8169   1.9083   1.9216   1.9453   1.9592   1.9932
     2.0472   2.0715   2.0949   2.1127   2.1395   2.1437   2.1604   2.1780
     2.1959   2.2121   2.2509   2.2800   2.3092   2.3202   2.3682   2.3842
     2.4244   2.4907   2.5477   2.5824   2.6073   2.6362   2.6688   2.7119
     2.7790   2.8350   3.0148   3.2466   3.3785   3.5623   3.6123   3.8582
     3.8963   3.9884   4.3703   4.5412   4.7089   4.7875   4.8729   5.0283
     5.1348   5.7532   5.9045   6.0896   6.1640   6.3757   6.5960   6.7774
     6.8424   6.8681   6.9628   7.2532

          k = 0.2000-0.5774 0.0000 ( 44692 PWs)   bands (ev):

   -10.4109  -5.5560  -5.4810  -5.0659  -4.8906  -4.3028  -4.1608  -3.8475
    -3.6874  -3.6190  -3.5769  -3.5043  -3.4293  -3.4226  -3.3810  -3.3006
    -3.2769  -3.2167  -3.1949  -3.1871  -3.1653  -3.1244  -3.0757  -3.0275
    -2.9945  -2.9758  -2.9465  -2.9379  -2.8819  -2.8521  -2.7399  -2.6957
    -2.6776  -2.6256  -2.5807  -2.5587  -2.5367  -2.4849  -2.3747  -2.3485
    -2.3121  -2.2285  -2.1549  -2.1320  -2.0911  -2.0394  -2.0293  -1.9478
    -1.8849  -1.8468  -1.8003  -1.7556  -1.7421  -1.7221  -1.7066  -1.6671
    -1.6479  -1.5859  -1.5811  -1.5528  -1.5324  -1.4915  -1.4713  -1.4663
    -1.4063  -1.3746  -1.3664  -1.2817  -1.2415  -1.2310  -1.1439  -1.1266
    -1.0821  -1.0741  -1.0534  -1.0324  -0.9969  -0.9894  -0.9192  -0.8841
    -0.8747  -0.8409  -0.8175  -0.7784  -0.7300  -0.6835  -0.6646  -0.6552
    -0.6358  -0.5489  -0.5417  -0.5181  -0.4909  -0.4504  -0.4416  -0.4012
    -0.3792  -0.3667  -0.3451  -0.3240  -0.3194  -0.3130  -0.2583  -0.2527
    -0.2213  -0.2148  -0.2077  -0.1849  -0.1608  -0.1504  -0.1227   0.0372
     0.0651   0.1192   0.1392   0.1980   0.2577   0.2659   0.2878   0.3312
     0.3363   0.3782   0.3827   0.4314   0.4534   0.4675   0.5013   0.5386
     0.6112   0.6358   0.6621   0.6705   0.7201   0.7722   0.8273   0.8480
     0.9124   0.9336   0.9866   0.9982   1.0206   1.0615   1.0714   1.0907
     1.1156   1.1596   1.1981   1.2122   1.2334   1.2785   1.3020   1.3521
     1.3746   1.3918   1.4467   1.5101   1.5890   1.6029   1.6686   1.7305
     1.7741   1.7800   1.8240   1.8523   1.9000   1.9153   1.9735   2.0373
     2.0609   2.0772   2.1147   2.1398   2.1540   2.1902   2.2022   2.2568
     2.2788   2.2897   2.2998   2.3486   2.3727   2.3873   2.4375   2.4623
     2.5028   2.5516   2.5651   2.5740   2.6359   2.6530   2.7075   2.8191
     3.1759   3.5198   3.6503   3.7579   3.8531   3.9737   4.0444   4.0717
     4.2429   4.4642   4.5512   4.7544   4.8559   4.8798   5.2252   5.2584
     5.4161   5.4675   5.5647   5.6468   5.7793   5.9226   6.1083   6.1765
     6.4139   6.7334   6.8478   6.9293

          k = 0.2000-0.3464 0.0000 ( 44714 PWs)   bands (ev):

   -10.4137  -6.0250  -5.1946  -4.8179  -4.7943  -4.6173  -3.9104  -3.8110
    -3.7248  -3.7120  -3.6906  -3.6660  -3.6334  -3.5680  -3.5496  -3.4814
    -3.3868  -3.2501  -3.1407  -3.1332  -3.1236  -3.0856  -3.0340  -2.9927
    -2.9265  -2.9201  -2.8805  -2.8203  -2.7981  -2.7928  -2.7502  -2.7131
    -2.6851  -2.6500  -2.6207  -2.5876  -2.5121  -2.4638  -2.4256  -2.2800
    -2.2409  -2.1668  -2.1441  -2.1189  -2.0986  -2.0606  -2.0442  -1.9936
    -1.9351  -1.9028  -1.8724  -1.8355  -1.7840  -1.7363  -1.6984  -1.6547
    -1.6356  -1.5981  -1.5605  -1.5151  -1.4373  -1.4241  -1.3728  -1.3642
    -1.3319  -1.2600  -1.2489  -1.2314  -1.1982  -1.1635  -1.0794  -1.0583
    -1.0188  -1.0097  -0.9917  -0.9677  -0.9086  -0.8838  -0.8354  -0.8106
    -0.7596  -0.7516  -0.7418  -0.6946  -0.6841  -0.6591  -0.6422  -0.6179
    -0.6045  -0.5861  -0.5597  -0.5189  -0.4683  -0.4595  -0.4318  -0.4188
    -0.4024  -0.3819  -0.3517  -0.3258  -0.3075  -0.2919  -0.2819  -0.2701
    -0.2511  -0.2355  -0.2040  -0.1488  -0.1174  -0.0696  -0.0205   0.0167
     0.0432   0.0647   0.1361   0.1889   0.2368   0.2752   0.2891   0.3533
     0.4064   0.4186   0.4369   0.4724   0.4920   0.5342   0.5594   0.5786
     0.6180   0.6321   0.6960   0.7659   0.7745   0.8068   0.8363   0.8708
     0.9326   0.9663   0.9992   1.0293   1.0481   1.0889   1.1175   1.1406
     1.1752   1.1970   1.2537   1.2695   1.3140   1.3519   1.3736   1.3874
     1.3943   1.4152   1.4337   1.4493   1.4789   1.5603   1.5916   1.6708
     1.6928   1.7545   1.8171   1.9080   1.9212   1.9451   1.9595   1.9930
     2.0460   2.0713   2.0951   2.1134   2.1383   2.1450   2.1625   2.1777
     2.1968   2.2116   2.2504   2.2811   2.3090   2.3206   2.3675   2.3840
     2.4254   2.4904   2.5446   2.5823   2.6043   2.6352   2.6666   2.7105
     2.7814   2.8352   3.0161   3.2466   3.3798   3.5620   3.6113   3.8582
     3.8951   3.9872   4.3707   4.5411   4.7085   4.7878   4.8731   5.0300
     5.1346   5.7519   5.9010   6.0900   6.1636   6.3767   6.5962   6.7787
     6.8408   6.8688   6.9647   7.2521

          k = 0.4000-0.2309 0.0000 ( 44748 PWs)   bands (ev):

   -10.4133  -5.8871  -5.2720  -5.0936  -4.5998  -4.2106  -4.1924  -4.0839
    -3.8331  -3.7339  -3.6389  -3.5484  -3.5466  -3.4526  -3.4175  -3.3541
    -3.2645  -3.2451  -3.2267  -3.1731  -3.1242  -3.0946  -3.0517  -3.0428
    -3.0140  -2.9877  -2.9529  -2.9349  -2.8736  -2.8456  -2.6523  -2.6431
    -2.6126  -2.6043  -2.5335  -2.4930  -2.4127  -2.3836  -2.3689  -2.3535
    -2.2951  -2.2388  -2.1688  -2.1077  -2.0808  -2.0437  -2.0191  -1.9893
    -1.9487  -1.9157  -1.8810  -1.8637  -1.8516  -1.8274  -1.7196  -1.6873
    -1.6656  -1.6195  -1.5599  -1.5077  -1.4654  -1.4552  -1.4357  -1.3927
    -1.3027  -1.2716  -1.2530  -1.2341  -1.1950  -1.1466  -1.1347  -1.1031
    -1.0364  -1.0001  -0.9715  -0.9408  -0.9026  -0.8965  -0.8411  -0.8231
    -0.7986  -0.7773  -0.7586  -0.7420  -0.7210  -0.7058  -0.6943  -0.6746
    -0.6506  -0.6174  -0.5604  -0.5526  -0.5319  -0.5034  -0.4789  -0.4448
    -0.4087  -0.3885  -0.3559  -0.3289  -0.3026  -0.2812  -0.2668  -0.2283
    -0.1960  -0.1674  -0.1119  -0.0798  -0.0599  -0.0328  -0.0050   0.0287
     0.0980   0.1598   0.2002   0.2336   0.2548   0.2833   0.3356   0.3465
     0.3772   0.3952   0.4341   0.4502   0.4625   0.4825   0.4901   0.4991
     0.5276   0.5946   0.6437   0.6506   0.6934   0.7258   0.7696   0.8390
     0.8609   0.9283   0.9526   1.0033   1.0391   1.0888   1.1268   1.1750
     1.2211   1.2446   1.2669   1.2840   1.3041   1.3222   1.3672   1.3768
     1.4066   1.4656   1.4927   1.5199   1.5528   1.5616   1.5760   1.6240
     1.7018   1.7360   1.7803   1.8191   1.8520   1.9066   1.9537   1.9626
     1.9763   1.9945   2.0074   2.0572   2.0973   2.1057   2.1284   2.1591
     2.2406   2.2694   2.2841   2.3029   2.3075   2.3365   2.3666   2.3968
     2.5040   2.5423   2.5595   2.5715   2.5859   2.6589   2.8032   2.8302
     2.9662   3.1458   3.2923   3.5737   3.5868   3.7230   3.8367   3.9463
     4.2311   4.2651   4.4617   4.6185   4.8616   4.9114   5.0015   5.0788
     5.0941   5.2921   5.3962   5.7640   5.8265   6.0690   6.2396   6.6523
     6.6959   7.1952   7.2425   7.3901

          k = 0.4000 0.0000 0.0000 ( 44714 PWs)   bands (ev):

   -10.4144  -6.0201  -5.1386  -4.8351  -4.8028  -4.6492  -3.9589  -3.7939
    -3.7302  -3.7195  -3.6976  -3.6687  -3.6216  -3.5756  -3.5397  -3.5345
    -3.3503  -3.2501  -3.1628  -3.1282  -3.1270  -3.0903  -3.0359  -3.0330
    -2.9307  -2.9141  -2.8679  -2.8110  -2.8013  -2.7612  -2.7488  -2.7062
    -2.6876  -2.6531  -2.6431  -2.5910  -2.5370  -2.4728  -2.3244  -2.2583
    -2.2112  -2.1884  -2.1563  -2.1116  -2.0887  -2.0632  -2.0258  -1.9583
    -1.9353  -1.9224  -1.8743  -1.8171  -1.7742  -1.7543  -1.6924  -1.6596
    -1.6467  -1.5938  -1.5750  -1.5192  -1.4261  -1.4004  -1.3601  -1.3066
    -1.2825  -1.2629  -1.2532  -1.2214  -1.1880  -1.1560  -1.0829  -1.0493
    -1.0358  -1.0218  -1.0123  -0.9893  -0.9002  -0.8688  -0.8434  -0.8252
    -0.7466  -0.7314  -0.7211  -0.7033  -0.6901  -0.6594  -0.6468  -0.6222
    -0.6029  -0.6001  -0.5875  -0.5393  -0.4907  -0.4825  -0.4308  -0.4244
    -0.4101  -0.3673  -0.3562  -0.3356  -0.3181  -0.2972  -0.2797  -0.2712
    -0.2582  -0.2253  -0.2120  -0.1275  -0.1114  -0.0634  -0.0144   0.0033
     0.0457   0.0586   0.1168   0.1788   0.2274   0.2783   0.3008   0.3575
     0.3784   0.4087   0.4191   0.4778   0.5130   0.5357   0.5570   0.5734
     0.6185   0.6769   0.7042   0.7415   0.7624   0.8020   0.8246   0.8865
     0.8980   0.9454   0.9697   1.0216   1.0374   1.0887   1.1113   1.1216
     1.1544   1.1846   1.2592   1.2923   1.3162   1.3507   1.3680   1.4016
     1.4057   1.4154   1.4415   1.4572   1.5086   1.5625   1.5843   1.6816
     1.6936   1.7303   1.7974   1.9117   1.9180   1.9475   1.9597   1.9799
     2.0306   2.0789   2.1014   2.1052   2.1239   2.1434   2.1504   2.1740
     2.1859   2.2146   2.2712   2.2814   2.3014   2.3377   2.3628   2.3844
     2.4203   2.5192   2.5662   2.5996   2.6291   2.6609   2.6741   2.7096
     2.7762   2.8260   2.9967   3.2836   3.3562   3.4718   3.6507   3.8912
     3.9050   4.0865   4.3440   4.5353   4.7373   4.8124   4.8629   4.9674
     5.1349   5.7504   5.9645   6.0899   6.1899   6.3733   6.5680   6.7325
     6.8291   6.8678   6.9780   7.2770

          k = 0.4000 0.2309 0.0000 ( 44748 PWs)   bands (ev):

   -10.4133  -5.8873  -5.2713  -5.0946  -4.5991  -4.2111  -4.1911  -4.0860
    -3.8337  -3.7322  -3.6388  -3.5497  -3.5461  -3.4518  -3.4164  -3.3559
    -3.2659  -3.2481  -3.2262  -3.1715  -3.1233  -3.0946  -3.0518  -3.0426
    -3.0137  -2.9893  -2.9522  -2.9355  -2.8732  -2.8452  -2.6525  -2.6426
    -2.6148  -2.6006  -2.5339  -2.4917  -2.4148  -2.3822  -2.3709  -2.3529
    -2.2947  -2.2377  -2.1688  -2.1066  -2.0822  -2.0429  -2.0149  -1.9870
    -1.9515  -1.9147  -1.8806  -1.8659  -1.8505  -1.8249  -1.7216  -1.6870
    -1.6659  -1.6186  -1.5598  -1.5074  -1.4640  -1.4553  -1.4339  -1.3912
    -1.3034  -1.2687  -1.2541  -1.2334  -1.1966  -1.1500  -1.1311  -1.1028
    -1.0382  -1.0009  -0.9718  -0.9412  -0.9047  -0.8980  -0.8391  -0.8213
    -0.7967  -0.7767  -0.7562  -0.7405  -0.7211  -0.7082  -0.6942  -0.6747
    -0.6527  -0.6153  -0.5571  -0.5532  -0.5330  -0.5037  -0.4811  -0.4439
    -0.4107  -0.3929  -0.3565  -0.3273  -0.3058  -0.2857  -0.2690  -0.2287
    -0.1985  -0.1652  -0.1135  -0.0775  -0.0585  -0.0329  -0.0064   0.0281
     0.0961   0.1619   0.1978   0.2332   0.2550   0.2839   0.3338   0.3485
     0.3792   0.3951   0.4329   0.4499   0.4649   0.4808   0.4917   0.4997
     0.5258   0.5947   0.6413   0.6516   0.6941   0.7265   0.7690   0.8382
     0.8618   0.9272   0.9516   1.0046   1.0378   1.0896   1.1271   1.1754
     1.2187   1.2447   1.2672   1.2842   1.3043   1.3227   1.3675   1.3777
     1.4041   1.4679   1.4912   1.5205   1.5532   1.5603   1.5754   1.6242
     1.7017   1.7331   1.7792   1.8180   1.8532   1.9068   1.9534   1.9628
     1.9774   1.9944   2.0074   2.0558   2.0960   2.1072   2.1273   2.1581
     2.2406   2.2693   2.2839   2.3044   2.3081   2.3379   2.3686   2.3982
     2.5051   2.5443   2.5618   2.5711   2.5869   2.6598   2.8025   2.8294
     2.9675   3.1473   3.2903   3.5734   3.5874   3.7218   3.8367   3.9452
     4.2309   4.2655   4.4645   4.6214   4.8615   4.9109   5.0008   5.0784
     5.0928   5.2942   5.3979   5.7635   5.8257   6.0731   6.2370   6.6527
     6.6946   7.1942   7.2425   7.3903

          k = 0.4000-0.6928 0.0000 ( 44692 PWs)   bands (ev):

   -10.4116  -5.5223  -5.4789  -5.1089  -4.8332  -4.3629  -4.1846  -3.8060
    -3.7268  -3.6690  -3.5674  -3.5038  -3.4373  -3.4163  -3.3738  -3.3224
    -3.2658  -3.2118  -3.2098  -3.1874  -3.1412  -3.1174  -3.1079  -3.0541
    -2.9907  -2.9850  -2.9716  -2.9457  -2.8714  -2.8428  -2.7325  -2.6879
    -2.6701  -2.6123  -2.5723  -2.5439  -2.5250  -2.4209  -2.3701  -2.3478
    -2.2946  -2.1861  -2.1651  -2.1252  -2.1039  -2.0363  -1.9937  -1.9686
    -1.9018  -1.8499  -1.8081  -1.7936  -1.7515  -1.7059  -1.6671  -1.6514
    -1.6286  -1.5926  -1.5684  -1.5447  -1.5090  -1.5018  -1.4828  -1.4471
    -1.4131  -1.3958  -1.3372  -1.2820  -1.2543  -1.2169  -1.1716  -1.1096
    -1.0986  -1.0767  -1.0405  -1.0280  -0.9996  -0.9510  -0.9124  -0.8893
    -0.8744  -0.8424  -0.8251  -0.7838  -0.7165  -0.6817  -0.6636  -0.6557
    -0.6338  -0.5878  -0.5519  -0.5012  -0.4711  -0.4559  -0.4408  -0.4075
    -0.3958  -0.3802  -0.3677  -0.3504  -0.3245  -0.2968  -0.2684  -0.2429
    -0.2373  -0.2203  -0.2090  -0.1956  -0.1674  -0.1528  -0.1093   0.0070
     0.0748   0.1014   0.1266   0.1830   0.2510   0.2771   0.2963   0.3320
     0.3445   0.3703   0.3976   0.4351   0.4414   0.4754   0.5186   0.5486
     0.5926   0.6497   0.6586   0.6781   0.7121   0.7441   0.8283   0.8577
     0.9106   0.9284   0.9781   1.0058   1.0350   1.0446   1.0786   1.0910
     1.1181   1.1437   1.1997   1.2194   1.2427   1.2703   1.2999   1.3176
     1.3675   1.3783   1.4287   1.4906   1.5825   1.6070   1.6675   1.7467
     1.7716   1.7909   1.8256   1.8508   1.9128   1.9254   1.9730   2.0169
     2.0463   2.0749   2.1162   2.1263   2.1429   2.2005   2.2199   2.2541
     2.2750   2.2843   2.3055   2.3453   2.3536   2.3856   2.4405   2.4588
     2.5073   2.5667   2.5809   2.6041   2.6411   2.6838   2.7117   2.8315
     3.1625   3.4288   3.7005   3.7599   3.8802   4.0020   4.0374   4.0533
     4.2577   4.4199   4.6061   4.7890   4.8650   4.9168   5.2178   5.2557
     5.4218   5.4887   5.5893   5.6517   5.7933   5.8847   6.0901   6.1352
     6.4517   6.7395   6.8106   6.8841

          k = 0.4000-0.4619 0.0000 ( 44692 PWs)   bands (ev):

   -10.4116  -5.5191  -5.4822  -5.1084  -4.8336  -4.3640  -4.1821  -3.8082
    -3.7256  -3.6690  -3.5677  -3.5026  -3.4361  -3.4192  -3.3736  -3.3217
    -3.2644  -3.2185  -3.1986  -3.1912  -3.1427  -3.1169  -3.1070  -3.0545
    -2.9913  -2.9850  -2.9730  -2.9445  -2.8726  -2.8409  -2.7340  -2.6862
    -2.6708  -2.6137  -2.5705  -2.5451  -2.5249  -2.4228  -2.3691  -2.3476
    -2.2960  -2.1861  -2.1658  -2.1248  -2.1026  -2.0361  -1.9932  -1.9691
    -1.9002  -1.8547  -1.8099  -1.7931  -1.7521  -1.7047  -1.6677  -1.6533
    -1.6298  -1.5910  -1.5668  -1.5452  -1.5084  -1.5009  -1.4834  -1.4476
    -1.4156  -1.3943  -1.3371  -1.2817  -1.2571  -1.2166  -1.1692  -1.1105
    -1.0989  -1.0769  -1.0403  -1.0281  -0.9982  -0.9519  -0.9125  -0.8903
    -0.8764  -0.8408  -0.8256  -0.7847  -0.7176  -0.6799  -0.6630  -0.6559
    -0.6345  -0.5852  -0.5534  -0.5009  -0.4712  -0.4565  -0.4395  -0.4091
    -0.3942  -0.3767  -0.3656  -0.3498  -0.3217  -0.2951  -0.2685  -0.2450
    -0.2338  -0.2188  -0.2090  -0.2002  -0.1691  -0.1526  -0.1102   0.0099
     0.0752   0.0997   0.1307   0.1788   0.2542   0.2775   0.2963   0.3344
     0.3456   0.3706   0.3925   0.4345   0.4410   0.4760   0.5176   0.5477
     0.5905   0.6484   0.6623   0.6784   0.7117   0.7436   0.8296   0.8591
     0.9116   0.9279   0.9809   1.0039   1.0344   1.0414   1.0760   1.0909
     1.1200   1.1445   1.1992   1.2189   1.2428   1.2696   1.2998   1.3183
     1.3673   1.3799   1.4315   1.4896   1.5842   1.6095   1.6675   1.7458
     1.7714   1.7904   1.8239   1.8518   1.9128   1.9250   1.9722   2.0160
     2.0467   2.0765   2.1151   2.1266   2.1448   2.2010   2.2185   2.2548
     2.2751   2.2843   2.3061   2.3441   2.3544   2.3852   2.4407   2.4583
     2.5064   2.5647   2.5788   2.6040   2.6408   2.6834   2.7114   2.8317
     3.1638   3.4274   3.7006   3.7597   3.8795   4.0023   4.0375   4.0553
     4.2579   4.4210   4.6057   4.7897   4.8628   4.9159   5.2154   5.2548
     5.4256   5.4870   5.5893   5.6447   5.7967   5.8848   6.0896   6.1354
     6.4524   6.7394   6.8111   6.8849

     the Fermi energy is     2.3557 ev

!    total energy              =  -27774.44233997 Ry
     total all-electron energy =  -1326718.971854 Ry
     estimated scf accuracy    <       0.00000067 Ry
     smearing contrib. (-TS)   =       0.00553707 Ry
     internal energy E=F+TS    =  -27774.44787703 Ry

     The total energy is F=E-TS. E is the sum of the following terms:
     one-electron contribution =  -22934.28014799 Ry
     hartree contribution      =   11773.29451981 Ry
     xc contribution           =    -895.68660273 Ry
     ewald contribution        =    9762.82180970 Ry
     one-center paw contrib.   =  -25480.59745583 Ry

     convergence has been achieved in  17 iterations

     negative rho (up, down):  3.385E-03 0.000E+00

     Forces acting on atoms (cartesian axes, Ry/au):

     atom    1 type  1   force =     0.00265242    0.00077039   -0.00590927
     atom    2 type  1   force =     0.00022300    0.00152231   -0.00451632
     atom    3 type  1   force =    -0.00159250    0.00169443   -0.00554014
     atom    4 type  1   force =     0.00207687   -0.00159176   -0.00460718
     atom    5 type  1   force =     0.00046536   -0.00015235   -0.00379746
     atom    6 type  1   force =    -0.00240578    0.00049938   -0.00434479
     atom    7 type  1   force =     0.00246402   -0.00365542   -0.00641573
     atom    8 type  1   force =    -0.00040336   -0.00310912   -0.00443474
     atom    9 type  1   force =    -0.00310134   -0.00216575   -0.00557361
     atom   10 type  1   force =     0.00302872    0.00273411    0.00892121
     atom   11 type  1   force =     0.00063122    0.00145676    0.00441103
     atom   12 type  1   force =    -0.00231297    0.00250319    0.00584630
     atom   13 type  1   force =     0.00162872    0.00070519    0.00154466
     atom   14 type  1   force =     0.00000352    0.00148512    0.00029794
     atom   15 type  1   force =    -0.00186514    0.00252922    0.00248903
     atom   16 type  1   force =     0.00037195   -0.00191027    0.00508474
     atom   17 type  1   force =     0.00110900   -0.00101030    0.00457984
     atom   18 type  1   force =    -0.00310202    0.00141821   -0.00233376
     atom   19 type  1   force =    -0.00057265    0.00058398   -0.00156947
     atom   20 type  1   force =     0.00055157    0.00064355   -0.00154395
     atom   21 type  1   force =     0.00001323    0.00042278    0.00021846
     atom   22 type  1   force =     0.00000328    0.00477228   -0.00639421
     atom   23 type  1   force =     0.00014281    0.00079424    0.00046518
     atom   24 type  1   force =    -0.00015113    0.00076784    0.00047274
     atom   25 type  1   force =     0.00026360    0.00084085    0.00016148
     atom   26 type  1   force =    -0.00005378    0.00056268    0.00084283
     atom   27 type  1   force =    -0.00028114    0.00083947    0.00012838
     atom   28 type  1   force =     0.00268243    0.00320566    0.00197448
     atom   29 type  1   force =    -0.00260631    0.00318057    0.00197902
     atom   30 type  1   force =     0.00004751    0.00113196   -0.00032668
     atom   31 type  1   force =     0.00002130   -0.00014895   -0.01439764
     atom   32 type  1   force =    -0.00006213    0.00115084    0.00050466
     atom   33 type  1   force =     0.00000466    0.00114468    0.00048055
     atom   34 type  1   force =     0.00003016    0.00130103   -0.00007876
     atom   35 type  1   force =    -0.00002523    0.00171169    0.00124342
     atom   36 type  1   force =    -0.00000759    0.00125722   -0.00005351
     atom   37 type  2   force =     0.00001001   -0.04055492    0.02689742
     atom   38 type  3   force =     0.00011768    0.01266922    0.00329385
     The non-local contrib.  to forces
     atom    1 type  1   force =     0.00244242    0.00139874   -0.01789189
     atom    2 type  1   force =     0.00040581    0.00193002   -0.01854290
     atom    3 type  1   force =    -0.00091670    0.00268455   -0.01743761
     atom    4 type  1   force =     0.00187015    0.00001493   -0.01782909
     atom    5 type  1   force =     0.00046221    0.00020814   -0.01809284
     atom    6 type  1   force =    -0.00194888    0.00045746   -0.01718618
     atom    7 type  1   force =    -0.00001895   -0.00177322   -0.01682588
     atom    8 type  1   force =    -0.00053771   -0.00134589   -0.01605368
     atom    9 type  1   force =    -0.00041083   -0.00097872   -0.01650867
     atom   10 type  1   force =     0.00178306    0.00285318    0.00124935
     atom   11 type  1   force =    -0.00012852    0.00380739    0.00040272
     atom   12 type  1   force =    -0.00033441    0.00427951    0.00083900
     atom   13 type  1   force =     0.00172706   -0.00095972   -0.00029043
     atom   14 type  1   force =     0.00014542    0.00148003   -0.00199424
     atom   15 type  1   force =    -0.00206111   -0.00041471    0.00016353
     atom   16 type  1   force =     0.00279565    0.00021211    0.00121426
     atom   17 type  1   force =    -0.00228597    0.00030144    0.00123958
     atom   18 type  1   force =    -0.00207081    0.00250366    0.00327312
     atom   19 type  1   force =     0.00022134    0.00380642    0.00915611
     atom   20 type  1   force =    -0.00038894    0.00399186    0.00964160
     atom   21 type  1   force =     0.00010802    0.00372885    0.00591420
     atom   22 type  1   force =     0.00002329    0.00151381    0.00231572
     atom   23 type  1   force =     0.00178711   -0.00097844    0.00595895
     atom   24 type  1   force =    -0.00187244   -0.00114708    0.00631045
     atom   25 type  1   force =    -0.00672740   -0.00270124   -0.00548747
     atom   26 type  1   force =    -0.00023397    0.00000378    0.01232850
     atom   27 type  1   force =     0.00686303   -0.00274051   -0.00476252
     atom   28 type  1   force =     0.04506756    0.01574729   -0.04065919
     atom   29 type  1   force =    -0.04526391    0.01568326   -0.04076634
     atom   30 type  1   force =     0.00002407    0.00036265    0.01242907
     atom   31 type  1   force =     0.00001214   -0.08600684    0.04346508
     atom   32 type  1   force =    -0.01814149   -0.00635576    0.01925586
     atom   33 type  1   force =     0.01784774   -0.00629046    0.01924890
     atom   34 type  1   force =    -0.00404295   -0.00531411    0.01532897
     atom   35 type  1   force =    -0.00009738    0.01610881    0.01965980
     atom   36 type  1   force =     0.00399347   -0.00540263    0.01530835
     atom   37 type  2   force =    -0.00004080   -0.04955073   -0.05389848
     atom   38 type  3   force =    -0.00043821    0.18326676   -0.13110860
     The ionic contribution  to forces
     atom    1 type  1   force =     0.13932176    0.07497832  -96.93283896
     atom    2 type  1   force =     0.01470463    0.13817128  -96.87108376
     atom    3 type  1   force =    -0.13360478    0.20943698  -96.88716253
     atom    4 type  1   force =     0.13173689   -0.06610881  -96.88919214
     atom    5 type  1   force =     0.00539537   -0.00194319  -96.84117683
     atom    6 type  1   force =    -0.13017018    0.07628699  -96.85274658
     atom    7 type  1   force =     0.12120737   -0.21144060  -96.89927421
     atom    8 type  1   force =     0.00536327   -0.14277240  -96.84300107
     atom    9 type  1   force =    -0.14194463   -0.06913931  -96.84923380
     atom   10 type  1   force =     0.14142864    0.03863688  -33.49336207
     atom   11 type  1   force =    -0.06038802    0.06548796  -33.57377088
     atom   12 type  1   force =    -0.06131503    0.12307796  -33.49792969
     atom   13 type  1   force =     0.09805918   -0.12896254  -33.62837945
     atom   14 type  1   force =    -0.01442232    0.02808811  -33.72373783
     atom   15 type  1   force =    -0.08781057    0.00338892  -33.57483086
     atom   16 type  1   force =     0.12964516   -0.06969837  -33.44944763
     atom   17 type  1   force =    -0.02105759    0.00715358  -33.47161549
     atom   18 type  1   force =    -0.12917131    0.08533764  -33.32970595
     atom   19 type  1   force =     0.01492581   -0.16067145   30.64205297
     atom   20 type  1   force =     0.00215299   -0.18241623   30.53913041
     atom   21 type  1   force =    -0.01947323   -0.10200668   29.81348332
     atom   22 type  1   force =    -0.01020764    0.25083172   29.75021907
     atom   23 type  1   force =    -0.00756437    0.10463342   29.85405492
     atom   24 type  1   force =     0.01412797    0.13102185   29.82921065
     atom   25 type  1   force =    -0.05317199   -0.00546222   30.90356523
     atom   26 type  1   force =     0.02845442    0.08504567   31.04614406
     atom   27 type  1   force =     0.02862422   -0.00094386   30.77984891
     atom   28 type  1   force =    -2.80777494   -1.86734363   93.75605574
     atom   29 type  1   force =     2.81319636   -1.86707774   93.69641292
     atom   30 type  1   force =    -0.00847780    0.00459639   94.13566129
     atom   31 type  1   force =     0.00394015    2.72476371   90.54921710
     atom   32 type  1   force =     0.36619321    0.18997432   93.53300977
     atom   33 type  1   force =    -0.37554639    0.19748293   93.55649009
     atom   34 type  1   force =     0.07565695    0.07183562   94.28609398
     atom   35 type  1   force =     0.00201482   -0.24809570   93.59401329
     atom   36 type  1   force =    -0.07956337    0.07963556   94.25387076
     atom   37 type  2   force =     0.00183588    1.09102911   12.83359399
     atom   38 type  3   force =     0.00367911   -0.65681220   46.25636125
     The local contribution  to forces
     atom    1 type  1   force =    -0.13869869   -0.07532193   96.92784954
     atom    2 type  1   force =    -0.01476973   -0.13805698   96.86838274
     atom    3 type  1   force =     0.13253139   -0.21018159   96.88227079
     atom    4 type  1   force =    -0.13105601    0.06423988   96.88554479
     atom    5 type  1   force =    -0.00567829    0.00119688   96.83881146
     atom    6 type  1   force =     0.12958045   -0.07643201   96.84880674
     atom    7 type  1   force =    -0.11864260    0.20907395   96.89259584
     atom    8 type  1   force =    -0.00526162    0.14095321   96.83778999
     atom    9 type  1   force =     0.13913106    0.06790793   96.84319113
     atom   10 type  1   force =    -0.13958076   -0.03864119   33.50079278
     atom   11 type  1   force =     0.06098705   -0.06786089   33.57729232
     atom   12 type  1   force =     0.05902799   -0.12471302   33.50259780
     atom   13 type  1   force =    -0.09804696    0.13031572   33.62952166
     atom   14 type  1   force =     0.01418380   -0.02820140   33.72518758
     atom   15 type  1   force =     0.08798962   -0.00025757   33.57666374
     atom   16 type  1   force =    -0.13201450    0.06754050   33.45309956
     atom   17 type  1   force =     0.02478293   -0.00818592   33.47479014
     atom   18 type  1   force =     0.12764435   -0.08591473   33.32439143
     atom   19 type  1   force =    -0.01520880    0.15714906  -30.64976017
     atom   20 type  1   force =    -0.00156263    0.17864548  -30.54741404
     atom   21 type  1   force =     0.01923669    0.09840351  -29.81785115
     atom   22 type  1   force =     0.01014151   -0.24673889  -29.75759616
     atom   23 type  1   force =     0.00564955   -0.10272514  -29.85813073
     atom   24 type  1   force =    -0.01208471   -0.12876275  -29.83360398
     atom   25 type  1   force =     0.05998277    0.00925916  -30.89613056
     atom   26 type  1   force =    -0.02807169   -0.08371644  -31.05456133
     atom   27 type  1   force =    -0.03573558    0.00481556  -30.77326467
     atom   28 type  1   force =     2.75025478    1.84552590  -93.70828259
     atom   29 type  1   force =    -2.75529006    1.84532114  -93.64869531
     atom   30 type  1   force =     0.00842785   -0.00328857  -94.13240555
     atom   31 type  1   force =    -0.00385270   -2.62593334  -90.60731189
     atom   32 type  1   force =    -0.35029607   -0.18382476  -93.53568284
     atom   33 type  1   force =     0.35979643   -0.19134099  -93.55917338
     atom   34 type  1   force =    -0.07114566   -0.06517158  -94.28567556
     atom   35 type  1   force =    -0.00192988    0.23600834  -93.59653101
     atom   36 type  1   force =     0.07512746   -0.07283498  -94.25350679
     atom   37 type  2   force =    -0.00177354   -1.08205505  -12.75281816
     atom   38 type  3   force =    -0.00339609    0.48918778  -46.12507226
     The core correction contribution to forces
     atom    1 type  1   force =    -0.00044703   -0.00026397    0.01746667
     atom    2 type  1   force =     0.00001293   -0.00045021    0.01733175
     atom    3 type  1   force =     0.00032797   -0.00040646    0.01744935
     atom    4 type  1   force =    -0.00038078    0.00023511    0.01731795
     atom    5 type  1   force =     0.00003944    0.00011451    0.01720401
     atom    6 type  1   force =     0.00030916   -0.00004092    0.01720509
     atom    7 type  1   force =    -0.00029792    0.00059181    0.01762017
     atom    8 type  1   force =     0.00004036    0.00032935    0.01725473
     atom    9 type  1   force =     0.00035568    0.00024580    0.01748447
     atom   10 type  1   force =    -0.00039580   -0.00015411    0.00058533
     atom   11 type  1   force =     0.00014231   -0.00020409    0.00088162
     atom   12 type  1   force =     0.00014253   -0.00037585    0.00068630
     atom   13 type  1   force =    -0.00021121    0.00019621    0.00101251
     atom   14 type  1   force =     0.00000973   -0.00007928    0.00136717
     atom   15 type  1   force =     0.00022820   -0.00011916    0.00085974
     atom   16 type  1   force =    -0.00019738    0.00022472    0.00053504
     atom   17 type  1   force =    -0.00007099    0.00006727    0.00057876
     atom   18 type  1   force =     0.00040236   -0.00030386   -0.00004173
     atom   19 type  1   force =    -0.00047013    0.00021252   -0.00327247
     atom   20 type  1   force =     0.00046326    0.00023571   -0.00323737
     atom   21 type  1   force =     0.00001224    0.00006027   -0.00163533
     atom   22 type  1   force =     0.00001494   -0.00085673   -0.00165403
     atom   23 type  1   force =     0.00022035   -0.00022187   -0.00168048
     atom   24 type  1   force =    -0.00021634   -0.00023292   -0.00170726
     atom   25 type  1   force =     0.00011598   -0.00008598   -0.00208757
     atom   26 type  1   force =    -0.00003041   -0.00062092   -0.00333388
     atom   27 type  1   force =    -0.00010947   -0.00008676   -0.00206963
     atom   28 type  1   force =     0.01497392    0.00919072   -0.00520360
     atom   29 type  1   force =    -0.01499009    0.00920873   -0.00512035
     atom   30 type  1   force =    -0.00000633   -0.00048376   -0.01600581
     atom   31 type  1   force =     0.00000378   -0.01290310   -0.00000450
     atom   32 type  1   force =     0.00216762    0.00114428   -0.01608161
     atom   33 type  1   force =    -0.00214905    0.00115123   -0.01609785
     atom   34 type  1   force =    -0.00045648    0.00003472   -0.01576416
     atom   35 type  1   force =     0.00001309   -0.00220582   -0.01589246
     atom   36 type  1   force =     0.00045076    0.00003909   -0.01574063
     atom   37 type  2   force =     0.00000000    0.00000000    0.00000000
     atom   38 type  3   force =     0.00030207   -0.00311502    0.00309142
     The Hubbard contrib.    to forces
     atom    1 type  1   force =     0.00000000    0.00000000    0.00000000
     atom    2 type  1   force =     0.00000000    0.00000000    0.00000000
     atom    3 type  1   force =     0.00000000    0.00000000    0.00000000
     atom    4 type  1   force =     0.00000000    0.00000000    0.00000000
     atom    5 type  1   force =     0.00000000    0.00000000    0.00000000
     atom    6 type  1   force =     0.00000000    0.00000000    0.00000000
     atom    7 type  1   force =     0.00000000    0.00000000    0.00000000
     atom    8 type  1   force =     0.00000000    0.00000000    0.00000000
     atom    9 type  1   force =     0.00000000    0.00000000    0.00000000
     atom   10 type  1   force =     0.00000000    0.00000000    0.00000000
     atom   11 type  1   force =     0.00000000    0.00000000    0.00000000
     atom   12 type  1   force =     0.00000000    0.00000000    0.00000000
     atom   13 type  1   force =     0.00000000    0.00000000    0.00000000
     atom   14 type  1   force =     0.00000000    0.00000000    0.00000000
     atom   15 type  1   force =     0.00000000    0.00000000    0.00000000
     atom   16 type  1   force =     0.00000000    0.00000000    0.00000000
     atom   17 type  1   force =     0.00000000    0.00000000    0.00000000
     atom   18 type  1   force =     0.00000000    0.00000000    0.00000000
     atom   19 type  1   force =     0.00000000    0.00000000    0.00000000
     atom   20 type  1   force =     0.00000000    0.00000000    0.00000000
     atom   21 type  1   force =     0.00000000    0.00000000    0.00000000
     atom   22 type  1   force =     0.00000000    0.00000000    0.00000000
     atom   23 type  1   force =     0.00000000    0.00000000    0.00000000
     atom   24 type  1   force =     0.00000000    0.00000000    0.00000000
     atom   25 type  1   force =     0.00000000    0.00000000    0.00000000
     atom   26 type  1   force =     0.00000000    0.00000000    0.00000000
     atom   27 type  1   force =     0.00000000    0.00000000    0.00000000
     atom   28 type  1   force =     0.00000000    0.00000000    0.00000000
     atom   29 type  1   force =     0.00000000    0.00000000    0.00000000
     atom   30 type  1   force =     0.00000000    0.00000000    0.00000000
     atom   31 type  1   force =     0.00000000    0.00000000    0.00000000
     atom   32 type  1   force =     0.00000000    0.00000000    0.00000000
     atom   33 type  1   force =     0.00000000    0.00000000    0.00000000
     atom   34 type  1   force =     0.00000000    0.00000000    0.00000000
     atom   35 type  1   force =     0.00000000    0.00000000    0.00000000
     atom   36 type  1   force =     0.00000000    0.00000000    0.00000000
     atom   37 type  2   force =     0.00000000    0.00000000    0.00000000
     atom   38 type  3   force =     0.00000000    0.00000000    0.00000000
     The SCF correction term to forces
     atom    1 type  1   force =     0.00000000   -0.00000000   -0.00000000
     atom    2 type  1   force =    -0.00000000   -0.00000000   -0.00000000
     atom    3 type  1   force =     0.00000000    0.00000000   -0.00000000
     atom    4 type  1   force =    -0.00000000    0.00000000   -0.00000000
     atom    5 type  1   force =     0.00000000    0.00000000   -0.00000000
     atom    6 type  1   force =    -0.00000000    0.00000000   -0.00000000
     atom    7 type  1   force =     0.00000000   -0.00000000   -0.00000000
     atom    8 type  1   force =     0.00000000   -0.00000000   -0.00000000
     atom    9 type  1   force =    -0.00000000   -0.00000000   -0.00000000
     atom   10 type  1   force =    -0.00000000    0.00000000   -0.00000000
     atom   11 type  1   force =     0.00000000    0.00000000   -0.00000000
     atom   12 type  1   force =     0.00000000    0.00000000   -0.00000000
     atom   13 type  1   force =     0.00000000    0.00000000   -0.00000000
     atom   14 type  1   force =     0.00000000    0.00000000   -0.00000000
     atom   15 type  1   force =    -0.00000000   -0.00000000   -0.00000000
     atom   16 type  1   force =     0.00000000   -0.00000000   -0.00000000
     atom   17 type  1   force =    -0.00000000   -0.00000000   -0.00000000
     atom   18 type  1   force =     0.00000000   -0.00000000   -0.00000000
     atom   19 type  1   force =    -0.00003279    0.00008643    0.00021656
     atom   20 type  1   force =    -0.00010503    0.00018573    0.00029790
     atom   21 type  1   force =     0.00013759    0.00023584    0.00026988
     atom   22 type  1   force =     0.00003927    0.00002139    0.00028366
     atom   23 type  1   force =     0.00005827    0.00008529    0.00022498
     atom   24 type  1   force =    -0.00009753   -0.00011224    0.00022534
     atom   25 type  1   force =     0.00007232   -0.00016985    0.00026432
     atom   26 type  1   force =    -0.00016405   -0.00015041    0.00022794
     atom   27 type  1   force =     0.00008475   -0.00020593    0.00033876
     atom   28 type  1   force =     0.00016920    0.00008440    0.00002658
     atom   29 type  1   force =    -0.00025052    0.00004421    0.00011056
     atom   30 type  1   force =     0.00008782   -0.00005574   -0.00004321
     atom   31 type  1   force =    -0.00007397   -0.00007036    0.00019903
     atom   32 type  1   force =     0.00002269    0.00021178   -0.00003407
     atom   33 type  1   force =     0.00006401    0.00014097   -0.00002476
     atom   34 type  1   force =     0.00002637   -0.00008461   -0.00009953
     atom   35 type  1   force =    -0.00001779   -0.00010492   -0.00004374
     atom   36 type  1   force =    -0.00000783   -0.00018081   -0.00002273
     atom   37 type  2   force =    -0.00000344    0.00002078   -0.00001747
     atom   38 type  3   force =    -0.00002111    0.00014091   -0.00001549

     Total force =     0.053626     Total SCF correction =     0.001121

     Writing all to output data dir ./pwscf.save/

     init_run     :     20.01s CPU     20.41s WALL (       1 calls)
     electrons    :    453.00s CPU    476.29s WALL (       1 calls)
     forces       :      3.92s CPU      4.39s WALL (       1 calls)

     Called by init_run:
     wfcinit      :      5.76s CPU      5.93s WALL (       1 calls)
     potinit      :     12.60s CPU     12.77s WALL (       1 calls)
     hinit0       :      1.03s CPU      1.04s WALL (       1 calls)

     Called by electrons:
     c_bands      :    393.87s CPU    412.57s WALL (      18 calls)
     sum_band     :     30.84s CPU     31.99s WALL (      18 calls)
     v_of_rho     :     17.57s CPU     19.72s WALL (      18 calls)
     newd         :      6.84s CPU      7.62s WALL (      18 calls)
     PAW_pot      :      3.98s CPU      4.09s WALL (      18 calls)
     mix_rho      :     11.24s CPU     11.56s WALL (      18 calls)
     vdW_kernel   :      4.41s CPU      4.45s WALL (       1 calls)

     Called by c_bands:
     init_us_2    :      2.58s CPU      2.72s WALL (     494 calls)
     init_us_2:cp :      2.57s CPU      2.72s WALL (     494 calls)
     cegterg      :    385.22s CPU    403.52s WALL (     234 calls)

     Called by *egterg:
     cdiaghg      :     75.61s CPU     83.00s WALL (    1260 calls)
     h_psi        :    199.74s CPU    207.51s WALL (    1286 calls)
     s_psi        :     13.80s CPU     14.47s WALL (    1286 calls)
     g_psi        :      0.42s CPU      0.43s WALL (    1039 calls)

     Called by h_psi:
     h_psi:calbec :     25.94s CPU     27.83s WALL (    1286 calls)
     vloc_psi     :    158.37s CPU    163.64s WALL (    1286 calls)
     add_vuspsi   :     14.35s CPU     14.96s WALL (    1286 calls)

     General routines
     calbec       :     33.19s CPU     35.19s WALL (    1572 calls)
     fft          :     14.38s CPU     16.39s WALL (    1194 calls)
     ffts         :      5.24s CPU      5.28s WALL (    4608 calls)
     fftw         :    155.91s CPU    160.54s WALL (  302906 calls)
     interpolate  :      0.59s CPU      0.65s WALL (      18 calls)

     Parallel routines

     PWSCF        :   7m58.75s CPU   8m25.81s WALL


   This run was terminated on:  13:19:13   4Feb2025            

=------------------------------------------------------------------------------=
   JOB DONE.
=------------------------------------------------------------------------------=
