
     Program PWSCF v.7.1 starts on 26Feb2025 at 15:38: 7 
        Git branch: heads/qe-7.1
        Last git commit: 48ba0178f8fede6d020eb786884699a9f063f55d-dirty
        Last git commit date: Fri Jan 27 14:22:33 2023 +0000
        Last git commit subject: Merge branch 'fix_hubbard' into 'develop'

     This program is part of the open-source Quantum ESPRESSO suite
     for quantum simulation of materials; please cite
         "P. Giannozzi et al., J. Phys.:Condens. Matter 21 395502 (2009);
         "P. Giannozzi et al., J. Phys.:Condens. Matter 29 465901 (2017);
         "P. Giannozzi et al., J. Chem. Phys. 152 154105 (2020);
          URL http://www.quantum-espresso.org", 
     in publications or presentations arising from this work. More details at
     http://www.quantum-espresso.org/quote

     Parallel version (MPI), running on    48 processors

     MPI processes distributed on     1 nodes
     108910 MiB available memory on the printing compute node when the environment starts

     Reading input from espresso.pwi
Warning: card &CELL ignored
Warning: card / ignored
Warning: card &FCP ignored
Warning: card / ignored
Warning: card &RISM ignored
Warning: card / ignored

     Current dimensions of program PWSCF are:
     Max number of different atomic species (ntypx) = 10
     Max number of k-points (npk) =  40000
     Max angular momentum in pseudopotentials (lmaxx) =  4
     file Pt.pbe-n-kjpaw_psl.1.0.0.UPF: wavefunction(s)  6S 5D renormalized
     file O.pbe-nl-kjpaw_psl.1.0.0.UPF: wavefunction(s)  2S 2P renormalized
     file H.pbe-kjpaw_psl.1.0.0.UPF: wavefunction(s)  1S renormalized

     **************************************************************************
     Initializing libbeef V0.1.2 with the BEEF-vdW functional.
     Citation: Wellendorff et al., PRB 85, 235149 (2012).
     **************************************************************************


     IMPORTANT: XC functional enforced from input :
     Exchange-correlation= BEEF-VDW
                           (   1   4  43  14   2   0   0)
     Any further DFT definition will be discarded
     Please, verify this is what you really want


     R & G space division:  proc/nbgrp/npool/nimage =      48
     Subspace diagonalization in iterative solution of the eigenvalue problem:
     one sub-group per band group will be used
     custom distributed-memory algorithm (size of sub-group:  2*  2 procs)


     Parallelization info
     --------------------
     sticks:   dense  smooth     PW     G-vecs:    dense   smooth      PW
     Min         151      59     16                29407     7165    1028
     Max         152      60     17                29420     7176    1042
     Sum        7267    2839    769              1411785   344073   49691

     Using Slab Decomposition



     bravais-lattice index     =            0
     lattice parameter (alat)  =      16.0349  a.u.
     unit-cell volume          =   10068.6169 (a.u.)^3
     number of atoms/cell      =           39
     number of atomic types    =            3
     number of electrons       =       368.00
     number of Kohn-Sham states=          221
     kinetic-energy cutoff     =      40.0000  Ry
     charge density cutoff     =     410.0000  Ry
     scf convergence threshold =      1.0E-06
     mixing beta               =       0.7000
     number of iterations used =            8  local-TF  mixing
     Exchange-correlation= BEEF-VDW
                           (   1   4  43  14   2   0   0)

     celldm(1)=  16.034858  celldm(2)=   0.000000  celldm(3)=   0.000000
     celldm(4)=   0.000000  celldm(5)=   0.000000  celldm(6)=   0.000000

     crystal axes: (cart. coord. in units of alat)
               a(1) = (   1.000000   0.000000   0.000000 )  
               a(2) = (   0.500000   0.866025   0.000000 )  
               a(3) = (   0.000000   0.000000   2.819966 )  

     reciprocal axes: (cart. coord. in units 2 pi/alat)
               b(1) = (  1.000000 -0.577350  0.000000 )  
               b(2) = (  0.000000  1.154701  0.000000 )  
               b(3) = (  0.000000  0.000000  0.354614 )  


     PseudoPot. # 1 for Pt read from file:
     /users/kbadger1/espresso/pseudo/pslibrary.1.0.0/pbe/PSEUDOPOTENTIALS/Pt.pbe-n-kjpaw_psl.1.0.0.UPF
     MD5 check sum: 2e24a0b5bf98a4ed1a57fa81bca8c143
     Pseudo is Projector augmented-wave + core cor, Zval = 10.0
     Generated using 'atomic' code by A. Dal Corso  v.7.0
     Shape of augmentation charge: PSQ
     Using radial grid of 1277 points,  6 beta functions with: 
                l(1) =   0
                l(2) =   0
                l(3) =   1
                l(4) =   1
                l(5) =   2
                l(6) =   2
     Q(r) pseudized with 0 coefficients 


     PseudoPot. # 2 for O  read from file:
     /users/kbadger1/espresso/pseudo/pslibrary.1.0.0/pbe/PSEUDOPOTENTIALS/O.pbe-nl-kjpaw_psl.1.0.0.UPF
     MD5 check sum: f0439fab3598ca4e468f064226030408
     Pseudo is Projector augmented-wave + core cor, Zval =  6.0
     Generated using 'atomic' code by A. Dal Corso  v.7.0
     Shape of augmentation charge: PSQ
     Using radial grid of 1095 points,  4 beta functions with: 
                l(1) =   0
                l(2) =   0
                l(3) =   1
                l(4) =   1
     Q(r) pseudized with 0 coefficients 


     PseudoPot. # 3 for H  read from file:
     /users/kbadger1/espresso/pseudo/pslibrary.1.0.0/pbe/PSEUDOPOTENTIALS/H.pbe-kjpaw_psl.1.0.0.UPF
     MD5 check sum: fe4c6fa958fa6d3815bf5d2419cbf1df
     Pseudo is Projector augmented-wave, Zval =  1.0
     Generated using 'atomic' code by A. Dal Corso  v.7.0
     Shape of augmentation charge: PSQ
     Using radial grid of  929 points,  2 beta functions with: 
                l(1) =   0
                l(2) =   0
     Q(r) pseudized with 0 coefficients 


     atomic species   valence    mass     pseudopotential
        Pt            10.00   195.08400     Pt( 1.00)
        O              6.00    15.99900     O ( 1.00)
        H              1.00     1.00800     H ( 1.00)

     No symmetry found



   Cartesian axes

     site n.     atom                  positions (alat units)
         1           Pt  tau(   1) = (   0.0000000   0.0000000   1.0017346  )
         2           Pt  tau(   2) = (   0.3333333   0.0000000   1.0017346  )
         3           Pt  tau(   3) = (   0.6666667   0.0000000   1.0017346  )
         4           Pt  tau(   4) = (   0.1666667   0.2886751   1.0017346  )
         5           Pt  tau(   5) = (   0.5000000   0.2886751   1.0017346  )
         6           Pt  tau(   6) = (   0.8333333   0.2886751   1.0017346  )
         7           Pt  tau(   7) = (   0.3333333   0.5773503   1.0017346  )
         8           Pt  tau(   8) = (   0.6666667   0.5773503   1.0017346  )
         9           Pt  tau(   9) = (   1.0000000   0.5773503   1.0017346  )
        10           Pt  tau(  10) = (   0.1666667   0.0962250   1.2739001  )
        11           Pt  tau(  11) = (   0.5000000   0.0962250   1.2739001  )
        12           Pt  tau(  12) = (   0.8333333   0.0962250   1.2739001  )
        13           Pt  tau(  13) = (   0.3333333   0.3849002   1.2739001  )
        14           Pt  tau(  14) = (   0.6666667   0.3849002   1.2739001  )
        15           Pt  tau(  15) = (   1.0000000   0.3849002   1.2739001  )
        16           Pt  tau(  16) = (   0.5000000   0.6735753   1.2739001  )
        17           Pt  tau(  17) = (   0.8333333   0.6735753   1.2739001  )
        18           Pt  tau(  18) = (   1.1666667   0.6735753   1.2739001  )
        19           Pt  tau(  19) = (  -0.0015944   0.1938713   1.5418017  )
        20           Pt  tau(  20) = (   0.3316711   0.1945616   1.5428476  )
        21           Pt  tau(  21) = (   0.6649792   0.1939445   1.5425283  )
        22           Pt  tau(  22) = (   0.1644525   0.4832344   1.5429891  )
        23           Pt  tau(  23) = (   0.4978738   0.4816656   1.5445605  )
        24           Pt  tau(  24) = (   0.8314143   0.4831689   1.5426960  )
        25           Pt  tau(  25) = (   0.3321721   0.7710411   1.5415893  )
        26           Pt  tau(  26) = (   0.6643003   0.7713291   1.5418366  )
        27           Pt  tau(  27) = (   0.9979489   0.7713057   1.5422261  )
        28           Pt  tau(  28) = (  -0.0046287   0.0043804   1.8172567  )
        29           Pt  tau(  29) = (   0.3279165   0.0026753   1.8146080  )
        30           Pt  tau(  30) = (   0.6632154   0.0019500   1.8143955  )
        31           Pt  tau(  31) = (   0.1609058   0.2931721   1.8160874  )
        32           Pt  tau(  32) = (   0.4945527   0.2950507   1.8174570  )
        33           Pt  tau(  33) = (   0.8305328   0.2933070   1.8149292  )
        34           Pt  tau(  34) = (   0.3280109   0.5831901   1.8175356  )
        35           Pt  tau(  35) = (   0.6629691   0.5829361   1.8172342  )
        36           Pt  tau(  36) = (   0.9953085   0.5816909   1.8180289  )
        37           O   tau(  37) = (   0.5215430   0.2398770   2.1046085  )
        38           H   tau(  38) = (   0.6053278   0.3118091   2.1340487  )
        39           H   tau(  39) = (   0.5749833   0.1405423   2.0817419  )

     number of k points=    13  Marzari-Vanderbilt smearing, width (Ry)=  0.0200
                       cart. coord. in units 2pi/alat
        k(    1) = (   0.0000000   0.0000000   0.0000000), wk =   0.0800000
        k(    2) = (   0.0000000   0.2309401   0.0000000), wk =   0.1600000
        k(    3) = (   0.0000000   0.4618802   0.0000000), wk =   0.1600000
        k(    4) = (   0.2000000  -0.1154701   0.0000000), wk =   0.1600000
        k(    5) = (   0.2000000   0.1154701   0.0000000), wk =   0.1600000
        k(    6) = (   0.2000000   0.3464102   0.0000000), wk =   0.1600000
        k(    7) = (   0.2000000  -0.5773503   0.0000000), wk =   0.1600000
        k(    8) = (   0.2000000  -0.3464102   0.0000000), wk =   0.1600000
        k(    9) = (   0.4000000  -0.2309401   0.0000000), wk =   0.1600000
        k(   10) = (   0.4000000  -0.0000000   0.0000000), wk =   0.1600000
        k(   11) = (   0.4000000   0.2309401   0.0000000), wk =   0.1600000
        k(   12) = (   0.4000000  -0.6928203   0.0000000), wk =   0.1600000
        k(   13) = (   0.4000000  -0.4618802   0.0000000), wk =   0.1600000

     Dense  grid:  1411785 G-vectors     FFT dimensions: ( 108, 108, 300)

     Smooth grid:   344073 G-vectors     FFT dimensions: (  72,  72, 192)

     Estimated max dynamical RAM per process >     207.10 MB

     Estimated total dynamical RAM >       9.71 GB

     Initial potential from superposition of free atoms

     starting charge     367.9939, renormalised to     368.0000

     negative rho (up, down):  3.082E-03 0.000E+00


     %%%%%%%%%%%%%%%%%%%%%%%%%%%%%%%%%%%%%%%%%%%%%%%%%%%%%%%%%%%%%%%%%%%%%%%%
     %                                                                      %
     % You are using vdW-DF, which was implemented by the Thonhauser group. %
     % Please cite the following two papers that made this development      %
     % possible and the two reviews that describe the various versions:     %
     %                                                                      %
     %   T. Thonhauser et al., PRL 115, 136402 (2015).                      %
     %   T. Thonhauser et al., PRB 76, 125112 (2007).                       %
     %   K. Berland et al., Rep. Prog. Phys. 78, 066501 (2015).             %
     %   D.C. Langreth et al., J. Phys.: Condens. Matter 21, 084203 (2009). %
     %                                                                      %
     % If you are calculating stress with vdW-DF, please also cite:         %
     %                                                                      %
     %   R. Sabatini et al., J. Phys.: Condens. Matter 24, 424209 (2012).   %
     %                                                                      %
     %%%%%%%%%%%%%%%%%%%%%%%%%%%%%%%%%%%%%%%%%%%%%%%%%%%%%%%%%%%%%%%%%%%%%%%%

     %%%%%%%%%%%%%%%%%%%%%%%%%%%%%%%%%%%%%%%%%%%%%%%%%%%%%%%%%%%%%%%%%%%%%%%%
     %                                                                      %
     %  vdW-DF NEWS:                                                        %
     %                                                                      %
     %  * vdW-DF3 is now available. DOI: 10.1021/acs.jctc.0c00471           %
     %    use with input_dft = 'vdW-DF3-opt1' or 'vdW-DF3-opt2'             %
     %                                                                      %
     %  * Unscreened and range-separated hybrid vdW-DF-cx functionals       %
     %    DOI: 10.1063/1.4986522 and 10.1088/1361-648X/ac2ad2               %
     %    use with input_dft = 'vdW-DF-cx0'    and 'vdW-DF-ahcx'            %
     %  * Unscreened and range-separated hybrid vdW-DF2-b86r functionals    %
     %    DOI: 10.1063/1.4986522 and DOI: 10.1103/PhysRevX.12.041003        %
     %    use with input_dft = 'vdW-DF2-br0' and 'vdW-DF2-ahbr'             %
     %                                                                      %
     %%%%%%%%%%%%%%%%%%%%%%%%%%%%%%%%%%%%%%%%%%%%%%%%%%%%%%%%%%%%%%%%%%%%%%%%


     Starting wfcs are  330 randomized atomic wfcs
     Checking if some PAW data can be deallocated... 

     total cpu time spent up to now is       22.6 secs

     per-process dynamical memory:   212.1 Mb

     Self-consistent Calculation

     iteration #  1     ecut=    40.00 Ry     beta= 0.70
     Davidson diagonalization with overlap
     ethr =  1.00E-02,  avg # of iterations =  2.2

     Threshold (ethr) on eigenvalues was too large:
     Diagonalizing with lowered threshold

     Davidson diagonalization with overlap
     ethr =  4.96E-04,  avg # of iterations =  4.6

     negative rho (up, down):  7.797E-03 0.000E+00

     total cpu time spent up to now is       65.8 secs

     total energy              =  -27798.95243426 Ry
     estimated scf accuracy    <       1.99356603 Ry

     iteration #  2     ecut=    40.00 Ry     beta= 0.70
     Davidson diagonalization with overlap
     ethr =  5.42E-04,  avg # of iterations =  3.0

     negative rho (up, down):  5.872E-03 0.000E+00

     total cpu time spent up to now is       89.9 secs

     total energy              =  -27799.11204655 Ry
     estimated scf accuracy    <       0.90603587 Ry

     iteration #  3     ecut=    40.00 Ry     beta= 0.70
     Davidson diagonalization with overlap
     ethr =  2.46E-04,  avg # of iterations =  3.4

     negative rho (up, down):  2.103E-03 0.000E+00

     total cpu time spent up to now is      114.0 secs

     total energy              =  -27799.16820098 Ry
     estimated scf accuracy    <       0.13013873 Ry

     iteration #  4     ecut=    40.00 Ry     beta= 0.70
     Davidson diagonalization with overlap
     c_bands:  1 eigenvalues not converged
     c_bands:  1 eigenvalues not converged
     ethr =  3.54E-05,  avg # of iterations = 12.3

     negative rho (up, down):  3.758E-04 0.000E+00

     total cpu time spent up to now is      156.1 secs

     total energy              =  -27799.21475018 Ry
     estimated scf accuracy    <       0.06174553 Ry

     iteration #  5     ecut=    40.00 Ry     beta= 0.70
     Davidson diagonalization with overlap
     c_bands:  1 eigenvalues not converged
     ethr =  1.68E-05,  avg # of iterations =  3.7

     negative rho (up, down):  1.288E-04 0.000E+00

     total cpu time spent up to now is      182.2 secs

     total energy              =  -27799.21910932 Ry
     estimated scf accuracy    <       0.01341980 Ry

     iteration #  6     ecut=    40.00 Ry     beta= 0.70
     Davidson diagonalization with overlap
     c_bands:  1 eigenvalues not converged
     c_bands:  1 eigenvalues not converged
     ethr =  3.65E-06,  avg # of iterations = 10.7

     negative rho (up, down):  5.117E-05 0.000E+00

     total cpu time spent up to now is      231.1 secs

     total energy              =  -27799.22151390 Ry
     estimated scf accuracy    <       0.00326231 Ry

     iteration #  7     ecut=    40.00 Ry     beta= 0.70
     Davidson diagonalization with overlap
     ethr =  8.86E-07,  avg # of iterations =  5.9

     negative rho (up, down):  4.417E-05 0.000E+00

     total cpu time spent up to now is      263.2 secs

     total energy              =  -27799.22219638 Ry
     estimated scf accuracy    <       0.00084732 Ry

     iteration #  8     ecut=    40.00 Ry     beta= 0.70
     Davidson diagonalization with overlap
     ethr =  2.30E-07,  avg # of iterations =  4.0

     negative rho (up, down):  4.521E-05 0.000E+00

     total cpu time spent up to now is      291.1 secs

     total energy              =  -27799.22242374 Ry
     estimated scf accuracy    <       0.00054233 Ry

     iteration #  9     ecut=    40.00 Ry     beta= 0.70
     Davidson diagonalization with overlap
     ethr =  1.47E-07,  avg # of iterations =  3.2

     negative rho (up, down):  6.615E-05 0.000E+00

     total cpu time spent up to now is      307.2 secs

     total energy              =  -27799.22250225 Ry
     estimated scf accuracy    <       0.00032589 Ry

     iteration # 10     ecut=    40.00 Ry     beta= 0.70
     Davidson diagonalization with overlap
     ethr =  8.86E-08,  avg # of iterations =  6.5

     negative rho (up, down):  1.541E-04 0.000E+00

     total cpu time spent up to now is      334.2 secs

     total energy              =  -27799.22259221 Ry
     estimated scf accuracy    <       0.00021574 Ry

     iteration # 11     ecut=    40.00 Ry     beta= 0.70
     Davidson diagonalization with overlap
     ethr =  5.86E-08,  avg # of iterations =  4.2

     negative rho (up, down):  4.273E-04 0.000E+00

     total cpu time spent up to now is      358.6 secs

     total energy              =  -27799.22266595 Ry
     estimated scf accuracy    <       0.00016184 Ry

     iteration # 12     ecut=    40.00 Ry     beta= 0.70
     Davidson diagonalization with overlap
     ethr =  4.40E-08,  avg # of iterations =  2.5

     negative rho (up, down):  2.043E-03 0.000E+00

     total cpu time spent up to now is      384.7 secs

     total energy              =  -27799.22273828 Ry
     estimated scf accuracy    <       0.00008724 Ry

     iteration # 13     ecut=    40.00 Ry     beta= 0.70
     Davidson diagonalization with overlap
     ethr =  2.37E-08,  avg # of iterations =  4.5

     negative rho (up, down):  2.452E-03 0.000E+00

     total cpu time spent up to now is      409.9 secs

     total energy              =  -27799.22274373 Ry
     estimated scf accuracy    <       0.00002853 Ry

     iteration # 14     ecut=    40.00 Ry     beta= 0.70
     Davidson diagonalization with overlap
     ethr =  7.75E-09,  avg # of iterations =  2.5

     negative rho (up, down):  3.067E-03 0.000E+00

     total cpu time spent up to now is      424.7 secs

     total energy              =  -27799.22274217 Ry
     estimated scf accuracy    <       0.00001681 Ry

     iteration # 15     ecut=    40.00 Ry     beta= 0.70
     Davidson diagonalization with overlap
     ethr =  4.57E-09,  avg # of iterations =  2.0

     negative rho (up, down):  3.122E-03 0.000E+00

     total cpu time spent up to now is      448.6 secs

     total energy              =  -27799.22274267 Ry
     estimated scf accuracy    <       0.00000641 Ry

     iteration # 16     ecut=    40.00 Ry     beta= 0.70
     Davidson diagonalization with overlap
     ethr =  1.74E-09,  avg # of iterations =  3.7

     negative rho (up, down):  2.992E-03 0.000E+00

     total cpu time spent up to now is      475.2 secs

     total energy              =  -27799.22274437 Ry
     estimated scf accuracy    <       0.00000296 Ry

     iteration # 17     ecut=    40.00 Ry     beta= 0.70
     Davidson diagonalization with overlap
     ethr =  8.05E-10,  avg # of iterations =  2.9

     negative rho (up, down):  2.956E-03 0.000E+00

     total cpu time spent up to now is      500.8 secs

     End of self-consistent calculation

          k = 0.0000 0.0000 0.0000 ( 42913 PWs)   bands (ev):

   -18.7407  -6.3599  -6.0907  -4.7881  -3.7140  -3.6846  -3.6788  -3.6700
    -3.6689  -3.6629  -3.6602  -3.6540  -3.1431  -3.1134  -3.1124  -3.1104
    -3.1092  -3.1041  -2.8353  -2.6480  -2.6437  -2.6406  -2.6359  -2.6304
    -2.6204  -2.4454  -2.4225  -2.4210  -2.4200  -2.4174  -2.4000  -2.2023
    -2.1962  -2.1900  -2.1890  -2.1869  -2.1847  -2.1757  -2.1740  -2.1716
    -2.1690  -2.1509  -2.1440  -1.6093  -1.5756  -1.5715  -1.5501  -1.5426
    -1.4946  -1.4922  -1.4899  -1.4871  -1.4857  -1.3831  -1.3476  -1.3172
    -1.2497  -1.1405  -0.7551  -0.7499  -0.7445  -0.7428  -0.7352  -0.7162
    -0.6767  -0.5826  -0.5820  -0.5625  -0.5593  -0.5450  -0.5358  -0.5276
    -0.5231  -0.5198  -0.5176  -0.5162  -0.5100  -0.4794  -0.4747  -0.4649
    -0.3478  -0.3356  -0.3335  -0.3292  -0.3064  -0.2735  -0.1871  -0.1856
    -0.1633  -0.1537  -0.1502  -0.1418  -0.0786  -0.0751   0.0145   0.0191
     0.0702   0.0723   0.0939   0.0958   0.1239   0.1378   0.1400   0.1589
     0.2722   0.2876   0.2942   0.2966   0.3069   0.3251   0.4256   0.7755
     0.7841   0.7922   0.7972   0.8006   0.8023   0.8426   0.8564   0.8647
     0.8700   0.8790   0.8869   0.9434   0.9514   1.0885   1.1066   1.1078
     1.1125   1.1250   1.1489   1.2340   1.2429   1.2583   1.2758   1.2776
     1.2946   1.5129   1.5154   1.5277   1.5287   1.5336   1.5354   1.5958
     1.6165   1.7760   1.7806   1.7879   1.7983   1.8016   1.8205   1.9466
     1.9504   1.9609   1.9660   1.9711   1.9746   1.9842   1.9972   2.0040
     2.0076   2.0150   2.0779   2.1302   2.1361   2.1427   2.1459   2.1495
     2.1619   2.1664   2.1771   2.2256   2.2343   2.2550   2.2642   2.2678
     2.2695   2.2806   2.2843   2.3536   2.3559   2.3687   2.3760   2.3804
     2.3829   2.4457   2.4656   2.4770   2.4786   2.4899   2.4939   2.6257
     2.6816   2.7157   2.7953   2.7968   2.8004   2.8062   2.8143   2.8192
     3.5742   3.6594   3.6789   3.6809   3.6974   3.7036   3.9434   5.9357
     5.9821   5.9949   6.0241   6.0365   6.2012   7.0119   7.5443   7.5571
     7.6039   7.6157   7.6258   7.6350   7.7203

          k = 0.0000 0.2309 0.0000 ( 42996 PWs)   bands (ev):

   -18.7408  -6.3592  -5.9444  -4.6433  -4.1826  -3.7950  -3.7832  -3.5652
    -3.5247  -3.4723  -3.4462  -3.4320  -3.2376  -3.2063  -3.0652  -3.0492
    -3.0376  -3.0310  -2.8240  -2.7462  -2.6216  -2.6122  -2.5880  -2.5825
    -2.5250  -2.5181  -2.4586  -2.4533  -2.4462  -2.4324  -2.3650  -2.3476
    -2.3408  -2.2342  -2.2166  -2.2126  -2.1693  -2.1629  -2.0097  -1.9909
    -1.9772  -1.9666  -1.9451  -1.7258  -1.7005  -1.6739  -1.6257  -1.6102
    -1.5797  -1.5729  -1.4439  -1.3961  -1.3619  -1.3215  -1.3165  -1.2691
    -1.2455  -1.1798  -1.0325  -0.9429  -0.9346  -0.8764  -0.8476  -0.8289
    -0.7827  -0.7339  -0.7235  -0.7135  -0.7023  -0.6862  -0.6499  -0.5882
    -0.5763  -0.5613  -0.5419  -0.4773  -0.4387  -0.4327  -0.4019  -0.3944
    -0.3757  -0.3131  -0.3012  -0.2798  -0.2714  -0.2639  -0.1691  -0.1672
    -0.1584  -0.1533  -0.1512  -0.0847  -0.0741  -0.0519  -0.0334   0.0086
     0.0191   0.0298   0.0642   0.0780   0.1053   0.1197   0.1279   0.2266
     0.2823   0.2936   0.3064   0.3082   0.3206   0.3286   0.3416   0.3722
     0.3901   0.4084   0.4155   0.4497   0.6144   0.7032   0.7668   0.8077
     0.8125   0.8264   0.8409   0.8539   0.8583   1.0124   1.0166   1.0343
     1.1386   1.1598   1.1745   1.1893   1.2167   1.2845   1.2908   1.3049
     1.3113   1.3874   1.4014   1.4065   1.4207   1.4354   1.6118   1.6312
     1.6513   1.6547   1.6610   1.6833   1.7019   1.7721   1.7993   1.8028
     1.8326   1.8497   1.8953   1.8979   1.9086   1.9147   2.0103   2.0195
     2.0459   2.0621   2.1470   2.1860   2.1938   2.1984   2.2029   2.2222
     2.2563   2.2860   2.3285   2.3367   2.3919   2.4030   2.4039   2.4428
     2.4488   2.4579   2.4601   2.4630   2.4870   2.5385   2.5599   2.6867
     2.6976   2.7022   2.7163   2.7245   2.7374   2.7606   2.7932   2.8073
     2.8218   2.9208   2.9258   2.9475   3.0948   3.1055   3.1133   3.1220
     3.2359   3.5441   3.6103   4.2505   4.2835   4.3357   4.4772   5.3033
     5.6990   5.7975   6.4283   6.4305   6.5360   6.6219   6.8731   7.0815
     7.3937   7.4128   7.5599   7.7887   7.7980

          k = 0.0000 0.4619 0.0000 ( 43046 PWs)   bands (ev):

   -18.7408  -6.3587  -5.5217  -4.8859  -4.2372  -3.8270  -3.8186  -3.6825
    -3.4465  -3.2966  -3.1710  -3.1355  -3.1079  -3.0934  -2.9632  -2.9149
    -2.8831  -2.8724  -2.8663  -2.7792  -2.7451  -2.7113  -2.7052  -2.6607
    -2.6412  -2.6001  -2.5700  -2.5223  -2.5174  -2.4906  -2.2527  -2.2486
    -2.2400  -2.2366  -2.2316  -2.2236  -2.0174  -2.0014  -1.9583  -1.9494
    -1.9426  -1.9301  -1.7677  -1.6722  -1.6532  -1.6433  -1.6300  -1.5835
    -1.5758  -1.5475  -1.5175  -1.5013  -1.4332  -1.4313  -1.3534  -1.3025
    -1.2779  -1.2520  -1.2261  -1.1458  -1.1136  -1.0804  -1.0696  -1.0225
    -0.9180  -0.8536  -0.8399  -0.8242  -0.8073  -0.7389  -0.7275  -0.7177
    -0.5997  -0.5848  -0.5784  -0.5631  -0.4691  -0.4624  -0.4605  -0.4525
    -0.4380  -0.3813  -0.3669  -0.3590  -0.3398  -0.3350  -0.3307  -0.3163
    -0.3092  -0.2674  -0.1986  -0.1950  -0.1737  -0.1701  -0.1488  -0.1307
    -0.0770  -0.0156   0.0367   0.0804   0.0878   0.1051   0.1270   0.1493
     0.1715   0.1859   0.2796   0.2894   0.3183   0.3691   0.3763   0.4080
     0.5461   0.5533   0.5688   0.6353   0.7068   0.7226   0.7364   0.7453
     0.7524   0.7603   0.7670   0.8429   0.8467   0.8800   0.8927   0.8951
     0.9188   0.9414   0.9479   0.9628   1.0122   1.1005   1.1202   1.1316
     1.1975   1.2558   1.2948   1.2998   1.4227   1.4308   1.4924   1.5387
     1.5901   1.6046   1.6359   1.6527   1.6739   1.6884   1.7401   1.7569
     1.7898   1.7981   1.8490   1.8945   1.9087   1.9477   1.9506   1.9685
     1.9748   2.0710   2.1541   2.1668   2.2225   2.2416   2.2538   2.2564
     2.3403   2.3540   2.3618   2.4530   2.4582   2.4667   2.5066   2.5293
     2.5630   2.5708   2.5740   2.6864   2.6973   2.7034   2.7127   2.7170
     2.7226   2.7365   2.7975   2.9170   2.9453   2.9510   2.9639   2.9780
     3.1534   3.1880   3.5509   3.5879   3.6611   3.8857   4.0040   4.0074
     4.3994   4.4092   4.5994   4.7326   5.2138   5.2182   5.2240   5.3273
     5.4819   5.5097   5.5990   5.7036   5.8814   5.8979   6.4357   6.5103
     7.0322   7.0725   7.3371   7.5016   7.5865

          k = 0.2000-0.1155 0.0000 ( 42996 PWs)   bands (ev):

   -18.7408  -6.3589  -5.9448  -4.6438  -4.1920  -3.7859  -3.7797  -3.5664
    -3.5259  -3.4897  -3.4333  -3.4270  -3.2414  -3.2054  -3.0617  -3.0489
    -3.0416  -3.0315  -2.8345  -2.7353  -2.6175  -2.6151  -2.5969  -2.5681
    -2.5241  -2.5170  -2.4623  -2.4539  -2.4508  -2.4457  -2.3701  -2.3380
    -2.3350  -2.2417  -2.2264  -2.2179  -2.1622  -2.1581  -2.0041  -1.9965
    -1.9725  -1.9666  -1.9313  -1.7061  -1.6973  -1.6669  -1.6362  -1.6171
    -1.5966  -1.5724  -1.4491  -1.3904  -1.3637  -1.3224  -1.3000  -1.2777
    -1.2498  -1.1668  -1.0240  -0.9432  -0.9311  -0.8531  -0.8419  -0.7988
    -0.7648  -0.7579  -0.7521  -0.7192  -0.7062  -0.6925  -0.6528  -0.5765
    -0.5506  -0.5442  -0.5288  -0.4919  -0.4874  -0.4769  -0.4012  -0.3818
    -0.3579  -0.3143  -0.3018  -0.2548  -0.2491  -0.2379  -0.1886  -0.1807
    -0.1594  -0.1547  -0.1524  -0.0892  -0.0742  -0.0626  -0.0490   0.0164
     0.0218   0.0368   0.0583   0.0747   0.0995   0.1102   0.1232   0.2281
     0.2801   0.2837   0.2964   0.3015   0.3196   0.3326   0.3362   0.3691
     0.3914   0.4080   0.4190   0.4302   0.6649   0.7139   0.7554   0.8093
     0.8131   0.8238   0.8297   0.8513   0.8595   1.0084   1.0162   1.0242
     1.1281   1.1681   1.1719   1.1883   1.2100   1.2825   1.2877   1.3028
     1.3095   1.3892   1.3951   1.4010   1.4347   1.4417   1.6036   1.6327
     1.6525   1.6542   1.6580   1.6823   1.6954   1.7676   1.7996   1.8035
     1.8300   1.8349   1.8930   1.9023   1.9091   1.9206   2.0195   2.0285
     2.0506   2.0683   2.1423   2.1824   2.1920   2.2017   2.2049   2.2175
     2.2609   2.2840   2.3325   2.3387   2.3888   2.3989   2.4007   2.4453
     2.4512   2.4557   2.4612   2.4623   2.4843   2.5242   2.5310   2.6752
     2.6811   2.7162   2.7238   2.7372   2.7450   2.7758   2.8167   2.8224
     2.8268   2.9195   2.9252   2.9477   3.0999   3.1065   3.1107   3.1238
     3.2184   3.5629   3.6421   4.2479   4.2651   4.3291   4.4768   5.2828
     5.7215   5.8069   6.4273   6.4286   6.5484   6.6244   6.8455   7.0763
     7.3847   7.4091   7.5691   7.7970   7.8042

          k = 0.2000 0.1155 0.0000 ( 42996 PWs)   bands (ev):

   -18.7408  -6.3591  -5.9445  -4.6434  -4.1845  -3.7952  -3.7805  -3.5657
    -3.5251  -3.4767  -3.4457  -3.4278  -3.2367  -3.2066  -3.0701  -3.0477
    -3.0409  -3.0287  -2.8167  -2.7518  -2.6212  -2.6113  -2.5932  -2.5836
    -2.5247  -2.5157  -2.4588  -2.4537  -2.4454  -2.4317  -2.3669  -2.3455
    -2.3385  -2.2339  -2.2200  -2.2126  -2.1684  -2.1603  -2.0109  -1.9908
    -1.9783  -1.9644  -1.9423  -1.7281  -1.6989  -1.6719  -1.6272  -1.6117
    -1.5810  -1.5726  -1.4444  -1.3965  -1.3608  -1.3209  -1.3118  -1.2703
    -1.2481  -1.1760  -1.0312  -0.9417  -0.9321  -0.8771  -0.8425  -0.8209
    -0.7760  -0.7427  -0.7292  -0.7154  -0.7039  -0.6897  -0.6512  -0.5850
    -0.5738  -0.5618  -0.5357  -0.4767  -0.4516  -0.4443  -0.4018  -0.3908
    -0.3700  -0.3135  -0.2944  -0.2760  -0.2705  -0.2487  -0.1784  -0.1686
    -0.1619  -0.1567  -0.1498  -0.0876  -0.0735  -0.0529  -0.0394   0.0157
     0.0203   0.0252   0.0608   0.0790   0.0987   0.1219   0.1308   0.2279
     0.2818   0.2900   0.2970   0.3097   0.3225   0.3296   0.3377   0.3674
     0.3879   0.4094   0.4149   0.4552   0.6278   0.7062   0.7630   0.8069
     0.8133   0.8239   0.8413   0.8530   0.8579   1.0121   1.0154   1.0327
     1.1359   1.1604   1.1721   1.1931   1.2153   1.2830   1.2933   1.3010
     1.3143   1.3885   1.3989   1.4060   1.4209   1.4408   1.6104   1.6295
     1.6514   1.6547   1.6601   1.6857   1.6944   1.7684   1.7972   1.8031
     1.8312   1.8467   1.8914   1.8993   1.9078   1.9193   2.0129   2.0242
     2.0463   2.0668   2.1468   2.1800   2.1946   2.1998   2.2070   2.2198
     2.2547   2.2931   2.3272   2.3392   2.3902   2.4020   2.4033   2.4403
     2.4485   2.4575   2.4616   2.4631   2.4864   2.5355   2.5487   2.6905
     2.6929   2.7002   2.7188   2.7232   2.7419   2.7627   2.7973   2.8154
     2.8218   2.9180   2.9279   2.9474   3.0993   3.1059   3.1129   3.1296
     3.2187   3.5476   3.6268   4.2424   4.2801   4.3408   4.4764   5.2899
     5.7115   5.8018   6.4274   6.4311   6.5427   6.6222   6.8577   7.0778
     7.3924   7.4137   7.5656   7.7868   7.8037

          k = 0.2000 0.3464 0.0000 ( 43046 PWs)   bands (ev):

   -18.7408  -6.3587  -5.6589  -4.4345  -4.4318  -4.3658  -3.3605  -3.3494
    -3.3397  -3.3299  -3.2919  -3.2868  -3.2819  -3.2672  -3.1678  -3.1633
    -2.8730  -2.7787  -2.7710  -2.7643  -2.7365  -2.6956  -2.6770  -2.5510
    -2.5208  -2.5123  -2.4944  -2.4911  -2.4341  -2.3713  -2.3680  -2.3332
    -2.3301  -2.2861  -2.2447  -2.2335  -2.1959  -2.1902  -2.1071  -1.8529
    -1.7882  -1.7515  -1.7377  -1.7236  -1.7116  -1.7008  -1.6926  -1.6343
    -1.6247  -1.4683  -1.4637  -1.4535  -1.4106  -1.3554  -1.3439  -1.2944
    -1.2788  -1.2356  -1.1880  -1.1460  -1.0207  -1.0177  -0.9890  -0.9324
    -0.9269  -0.8825  -0.8776  -0.8494  -0.8068  -0.8000  -0.6522  -0.6266
    -0.6161  -0.6091  -0.5580  -0.5506  -0.5034  -0.4977  -0.4815  -0.4667
    -0.3755  -0.3348  -0.3275  -0.3091  -0.3048  -0.3003  -0.2878  -0.2541
    -0.2346  -0.1666  -0.1571  -0.1307  -0.1105  -0.0778  -0.0668  -0.0155
     0.0287   0.0571   0.0610   0.0670   0.1033   0.1053   0.1141   0.1285
     0.1363   0.1516   0.1725   0.1972   0.2226   0.2355   0.3282   0.3714
     0.3800   0.4418   0.4510   0.4603   0.4800   0.6368   0.6401   0.7905
     0.7992   0.8342   0.8400   0.8530   0.8657   0.8693   0.9051   0.9182
     0.9465   0.9707   1.0020   1.0222   1.1641   1.2294   1.2349   1.2709
     1.2811   1.2983   1.3372   1.3556   1.4732   1.4757   1.4856   1.5361
     1.5389   1.6134   1.6616   1.6812   1.6950   1.7037   1.7629   1.7719
     1.7753   1.7845   1.7981   1.8177   1.8207   1.8284   1.8619   1.9561
     2.0287   2.0507   2.1666   2.1708   2.2068   2.3340   2.3414   2.3440
     2.3616   2.4577   2.4669   2.4889   2.4960   2.5094   2.5327   2.5408
     2.5665   2.5702   2.5960   2.6155   2.6336   2.6527   2.7253   2.7402
     2.7574   2.7747   2.7779   2.8288   2.9418   2.9935   2.9979   3.0698
     3.0883   3.0954   3.1451   3.2402   3.2530   3.6878   3.7699   3.7862
     4.2928   4.3057   4.3237   4.3818   4.9833   5.0288   5.1043   5.2274
     5.2720   5.3200   5.9358   6.4171   6.4441   6.5057   6.6648   6.9487
     7.1216   7.2000   7.2351   7.2521   7.3011

          k = 0.2000-0.5774 0.0000 ( 43014 PWs)   bands (ev):

   -18.7408  -6.3584  -5.1275  -5.1202  -4.5186  -3.8775  -3.8665  -3.3636
    -3.3467  -3.2164  -3.1859  -3.0873  -3.0724  -2.9727  -2.9607  -2.8722
    -2.8446  -2.8378  -2.8182  -2.8043  -2.7901  -2.7737  -2.7604  -2.6362
    -2.6260  -2.6237  -2.5942  -2.5738  -2.4910  -2.4004  -2.3782  -2.3231
    -2.2229  -2.2121  -2.2053  -2.1998  -2.1856  -2.0822  -2.0745  -1.9875
    -1.9748  -1.8083  -1.7903  -1.7482  -1.6487  -1.6373  -1.5951  -1.5787
    -1.4958  -1.4328  -1.4014  -1.3739  -1.3631  -1.3427  -1.3172  -1.2905
    -1.2539  -1.1724  -1.1696  -1.1458  -1.1389  -1.1345  -1.1252  -1.0752
    -1.0494  -1.0271  -0.9355  -0.9024  -0.8638  -0.8441  -0.7396  -0.7089
    -0.6900  -0.6784  -0.6477  -0.5993  -0.5945  -0.5227  -0.5137  -0.4934
    -0.4760  -0.4466  -0.4309  -0.3887  -0.3696  -0.3207  -0.2875  -0.2774
    -0.2596  -0.2292  -0.1356  -0.1089  -0.0831  -0.0629  -0.0508  -0.0064
    -0.0021   0.0063   0.0182   0.0345   0.0695   0.0912   0.1021   0.1095
     0.1418   0.1469   0.1499   0.1639   0.1786   0.1899   0.2610   0.2655
     0.2800   0.4706   0.4998   0.5639   0.5801   0.6779   0.6828   0.6992
     0.7132   0.7722   0.7784   0.7910   0.7989   0.8212   0.8916   0.9200
     0.9385   0.9823   1.0035   1.0372   1.0795   1.0978   1.1529   1.2714
     1.3283   1.3388   1.3523   1.3573   1.4440   1.4546   1.4640   1.4806
     1.4934   1.5181   1.5326   1.5416   1.6437   1.6507   1.6749   1.7193
     1.7282   1.7436   1.7526   1.7758   1.7994   1.9280   1.9920   2.0246
     2.0835   2.0994   2.1678   2.1751   2.2537   2.2991   2.3077   2.3249
     2.4128   2.4423   2.4870   2.5271   2.5302   2.5410   2.5551   2.5744
     2.5991   2.6300   2.6932   2.7022   2.7322   2.7397   2.7477   2.7521
     2.8062   2.8413   2.9463   2.9525   2.9560   2.9672   2.9781   3.0404
     3.1214   3.1544   3.2917   4.1116   4.1142   4.3069   4.3488   4.4164
     4.5054   4.5185   4.5482   4.9527   5.1189   5.1265   5.5775   5.5947
     5.6433   5.7198   5.7340   5.9063   6.0176   6.0370   6.0746   6.4514
     6.5552   6.5868   6.9540   7.2035   7.2290

          k = 0.2000-0.3464 0.0000 ( 43046 PWs)   bands (ev):

   -18.7408  -6.3585  -5.6597  -4.4378  -4.4314  -4.3668  -3.3710  -3.3511
    -3.3404  -3.3271  -3.2866  -3.2820  -3.2771  -3.2691  -3.1678  -3.1630
    -2.8610  -2.7817  -2.7766  -2.7694  -2.7402  -2.7100  -2.6773  -2.5411
    -2.5244  -2.5149  -2.4941  -2.4838  -2.4183  -2.3709  -2.3628  -2.3332
    -2.3285  -2.2824  -2.2557  -2.2364  -2.2041  -2.1915  -2.1224  -1.8528
    -1.7694  -1.7460  -1.7392  -1.7200  -1.7033  -1.6957  -1.6904  -1.6414
    -1.6236  -1.4988  -1.4590  -1.4524  -1.3823  -1.3695  -1.3373  -1.2919
    -1.2791  -1.2250  -1.1895  -1.1623  -1.0190  -1.0089  -0.9854  -0.9117
    -0.9017  -0.8803  -0.8717  -0.8460  -0.8055  -0.7957  -0.6534  -0.6464
    -0.6204  -0.6003  -0.5680  -0.5468  -0.5065  -0.4993  -0.4852  -0.4650
    -0.3527  -0.3330  -0.3229  -0.3196  -0.3011  -0.2950  -0.2845  -0.2570
    -0.2394  -0.1849  -0.1668  -0.1385  -0.1185  -0.0826  -0.0644  -0.0133
     0.0136   0.0436   0.0517   0.0634   0.1026   0.1083   0.1153   0.1329
     0.1437   0.1540   0.1631   0.1867   0.2238   0.2353   0.3269   0.3649
     0.3779   0.4339   0.4497   0.4553   0.4885   0.6383   0.6458   0.7741
     0.8007   0.8303   0.8318   0.8511   0.8686   0.8786   0.9081   0.9288
     0.9449   0.9692   1.0043   1.0421   1.1495   1.2219   1.2408   1.2710
     1.2836   1.2990   1.3268   1.3535   1.4644   1.4758   1.4849   1.5306
     1.5397   1.6074   1.6668   1.6828   1.6879   1.7024   1.7660   1.7729
     1.7788   1.7914   1.8017   1.8140   1.8235   1.8366   1.8601   1.9614
     2.0282   2.0480   2.1650   2.1722   2.2066   2.3357   2.3429   2.3455
     2.3690   2.4528   2.4701   2.4892   2.4960   2.5073   2.5313   2.5425
     2.5533   2.5622   2.5884   2.6113   2.6366   2.6588   2.7168   2.7259
     2.7621   2.7753   2.7798   2.8249   2.9626   3.0034   3.0192   3.0836
     3.0859   3.0962   3.1519   3.2337   3.2503   3.6814   3.7626   3.7826
     4.2999   4.3151   4.3378   4.3789   4.9804   5.0199   5.1034   5.2296
     5.2764   5.3239   5.9363   6.4177   6.4705   6.4898   6.6580   6.9544
     7.1109   7.1890   7.2405   7.2530   7.3046

          k = 0.4000-0.2309 0.0000 ( 43046 PWs)   bands (ev):

   -18.7408  -6.3581  -5.5232  -4.8900  -4.2391  -3.8212  -3.8150  -3.6862
    -3.4621  -3.2979  -3.1778  -3.1414  -3.0957  -3.0870  -2.9480  -2.9162
    -2.8902  -2.8758  -2.8694  -2.8040  -2.7424  -2.7068  -2.6992  -2.6612
    -2.6577  -2.5917  -2.5779  -2.5165  -2.5146  -2.4903  -2.2515  -2.2440
    -2.2392  -2.2312  -2.2261  -2.2192  -2.0193  -1.9985  -1.9478  -1.9438
    -1.9379  -1.9276  -1.7576  -1.6735  -1.6528  -1.6394  -1.6364  -1.6000
    -1.5768  -1.5304  -1.5067  -1.5042  -1.4491  -1.4354  -1.3425  -1.2917
    -1.2650  -1.2463  -1.2276  -1.1297  -1.0874  -1.0656  -1.0594  -1.0346
    -0.9146  -0.8531  -0.8350  -0.8339  -0.8062  -0.7481  -0.7193  -0.6770
    -0.6252  -0.6102  -0.5898  -0.5794  -0.4651  -0.4580  -0.4526  -0.4447
    -0.4405  -0.3730  -0.3684  -0.3540  -0.3433  -0.3320  -0.3265  -0.3212
    -0.3015  -0.2652  -0.2047  -0.1849  -0.1736  -0.1702  -0.1316  -0.1156
    -0.0887  -0.0419   0.0329   0.0490   0.0589   0.1109   0.1251   0.1342
     0.1381   0.1535   0.2821   0.2919   0.3044   0.3539   0.3721   0.4105
     0.5421   0.5481   0.5966   0.6323   0.7051   0.7124   0.7305   0.7519
     0.7572   0.7734   0.7817   0.8469   0.8699   0.8745   0.8825   0.9007
     0.9091   0.9137   0.9385   0.9925   1.0267   1.0819   1.1201   1.1260
     1.1947   1.2708   1.2800   1.2875   1.4203   1.4263   1.4989   1.5452
     1.5874   1.5975   1.6097   1.6351   1.6855   1.6946   1.7371   1.7440
     1.7994   1.8051   1.8488   1.9062   1.9212   1.9562   1.9590   1.9711
     1.9832   2.0340   2.1456   2.1798   2.2213   2.2374   2.2482   2.2558
     2.3350   2.3585   2.3635   2.4438   2.4549   2.4563   2.4930   2.5349
     2.5469   2.5645   2.5748   2.6855   2.6943   2.7115   2.7150   2.7342
     2.7370   2.7569   2.7792   2.9176   2.9652   2.9730   2.9767   2.9998
     3.1509   3.1851   3.5742   3.6121   3.6309   3.8709   4.0049   4.0081
     4.3984   4.4086   4.5819   4.7536   5.2157   5.2200   5.2587   5.3178
     5.4658   5.5069   5.6229   5.7130   5.8782   5.8967   6.4067   6.5448
     7.0188   7.0622   7.3669   7.4931   7.5896

          k = 0.4000-0.0000 0.0000 ( 43046 PWs)   bands (ev):

   -18.7408  -6.3583  -5.6599  -4.4389  -4.4311  -4.3673  -3.3713  -3.3544
    -3.3401  -3.3269  -3.2887  -3.2833  -3.2700  -3.2696  -3.1698  -3.1619
    -2.8634  -2.7817  -2.7761  -2.7704  -2.7402  -2.7093  -2.6797  -2.5384
    -2.5255  -2.5175  -2.4950  -2.4850  -2.4135  -2.3717  -2.3575  -2.3336
    -2.3299  -2.2825  -2.2524  -2.2396  -2.2006  -2.1917  -2.1267  -1.8514
    -1.7650  -1.7434  -1.7384  -1.7184  -1.7027  -1.6947  -1.6928  -1.6418
    -1.6251  -1.5030  -1.4568  -1.4550  -1.3782  -1.3696  -1.3375  -1.2905
    -1.2792  -1.2233  -1.1920  -1.1613  -1.0152  -1.0057  -0.9820  -0.9060
    -0.8953  -0.8823  -0.8705  -0.8423  -0.8045  -0.7979  -0.6531  -0.6465
    -0.6223  -0.6092  -0.5712  -0.5480  -0.5031  -0.4990  -0.4811  -0.4696
    -0.3422  -0.3330  -0.3219  -0.3175  -0.3001  -0.2948  -0.2871  -0.2616
    -0.2371  -0.1906  -0.1678  -0.1484  -0.1222  -0.0815  -0.0646  -0.0111
     0.0053   0.0379   0.0480   0.0648   0.1038   0.1056   0.1142   0.1307
     0.1430   0.1563   0.1654   0.1848   0.2260   0.2299   0.3279   0.3651
     0.3764   0.4352   0.4497   0.4537   0.4904   0.6390   0.6487   0.7684
     0.8014   0.8287   0.8327   0.8497   0.8683   0.8813   0.9130   0.9293
     0.9464   0.9704   1.0067   1.0482   1.1458   1.2198   1.2408   1.2713
     1.2849   1.2955   1.3283   1.3520   1.4619   1.4760   1.4875   1.5295
     1.5367   1.6050   1.6602   1.6796   1.6913   1.7032   1.7662   1.7730
     1.7833   1.7924   1.8005   1.8097   1.8256   1.8391   1.8544   1.9701
     2.0279   2.0426   2.1647   2.1702   2.2138   2.3372   2.3419   2.3457
     2.3782   2.4501   2.4673   2.4876   2.4972   2.5116   2.5286   2.5440
     2.5495   2.5600   2.5792   2.6088   2.6290   2.6658   2.7148   2.7283
     2.7555   2.7739   2.7812   2.8213   2.9697   3.0114   3.0239   3.0811
     3.0843   3.0979   3.1686   3.2298   3.2517   3.6783   3.7613   3.7749
     4.3053   4.3177   4.3330   4.3905   4.9791   5.0168   5.1087   5.2302
     5.2711   5.3220   5.9368   6.4170   6.4628   6.5208   6.6567   6.9614
     7.0994   7.1451   7.2365   7.2541   7.3090

          k = 0.4000 0.2309 0.0000 ( 43046 PWs)   bands (ev):

   -18.7408  -6.3585  -5.5220  -4.8868  -4.2377  -3.8272  -3.8167  -3.6832
    -3.4506  -3.2978  -3.1733  -3.1389  -3.1047  -3.0892  -2.9679  -2.9113
    -2.8799  -2.8758  -2.8648  -2.7873  -2.7419  -2.7120  -2.7061  -2.6600
    -2.6430  -2.6012  -2.5690  -2.5214  -2.5162  -2.4917  -2.2507  -2.2466
    -2.2381  -2.2368  -2.2285  -2.2234  -2.0169  -1.9996  -1.9560  -1.9490
    -1.9409  -1.9307  -1.7672  -1.6699  -1.6521  -1.6432  -1.6319  -1.5861
    -1.5748  -1.5417  -1.5166  -1.5015  -1.4361  -1.4324  -1.3511  -1.3027
    -1.2738  -1.2528  -1.2233  -1.1414  -1.1075  -1.0802  -1.0655  -1.0224
    -0.9176  -0.8431  -0.8421  -0.8266  -0.8114  -0.7435  -0.7236  -0.7176
    -0.6101  -0.5942  -0.5758  -0.5643  -0.4711  -0.4620  -0.4570  -0.4485
    -0.4376  -0.3821  -0.3630  -0.3560  -0.3414  -0.3354  -0.3316  -0.3141
    -0.3081  -0.2663  -0.2033  -0.1958  -0.1725  -0.1702  -0.1492  -0.1199
    -0.0800  -0.0219   0.0346   0.0714   0.0876   0.1030   0.1247   0.1485
     0.1601   0.1795   0.2836   0.2884   0.3111   0.3652   0.3739   0.4098
     0.5426   0.5535   0.5753   0.6356   0.7039   0.7194   0.7365   0.7480
     0.7534   0.7630   0.7685   0.8466   0.8542   0.8775   0.8934   0.8979
     0.9179   0.9312   0.9481   0.9699   1.0178   1.0972   1.1194   1.1340
     1.1961   1.2608   1.2926   1.2976   1.4209   1.4295   1.4920   1.5358
     1.5928   1.5987   1.6279   1.6488   1.6731   1.6926   1.7386   1.7521
     1.7897   1.7999   1.8477   1.8962   1.9147   1.9500   1.9566   1.9694
     1.9771   2.0584   2.1471   2.1759   2.2211   2.2374   2.2527   2.2583
     2.3403   2.3549   2.3645   2.4495   2.4600   2.4635   2.4991   2.5357
     2.5550   2.5667   2.5786   2.6842   2.6968   2.7038   2.7137   2.7199
     2.7256   2.7391   2.7967   2.9181   2.9466   2.9538   2.9689   2.9900
     3.1525   3.1870   3.5554   3.6045   3.6447   3.8823   4.0034   4.0097
     4.3963   4.4128   4.5918   4.7371   5.2144   5.2195   5.2328   5.3182
     5.4803   5.5146   5.6096   5.7072   5.8784   5.8988   6.4238   6.5159
     7.0299   7.0752   7.3530   7.5036   7.5942

          k = 0.4000-0.6928 0.0000 ( 43014 PWs)   bands (ev):

   -18.7408  -6.3583  -5.1258  -5.1228  -4.5179  -3.8776  -3.8677  -3.3641
    -3.3494  -3.2176  -3.1853  -3.0854  -3.0689  -2.9721  -2.9637  -2.8702
    -2.8455  -2.8389  -2.8244  -2.8010  -2.7991  -2.7787  -2.7511  -2.6343
    -2.6303  -2.6189  -2.5949  -2.5715  -2.4912  -2.4024  -2.3764  -2.3211
    -2.2247  -2.2110  -2.2040  -2.1995  -2.1821  -2.0810  -2.0730  -1.9870
    -1.9742  -1.8104  -1.7887  -1.7463  -1.6545  -1.6334  -1.5953  -1.5777
    -1.4996  -1.4357  -1.4022  -1.3746  -1.3647  -1.3336  -1.3087  -1.2872
    -1.2535  -1.1738  -1.1682  -1.1476  -1.1370  -1.1352  -1.1247  -1.0743
    -1.0548  -1.0227  -0.9303  -0.9033  -0.8652  -0.8390  -0.7400  -0.7040
    -0.6949  -0.6826  -0.6443  -0.6032  -0.5985  -0.5304  -0.5116  -0.4964
    -0.4755  -0.4456  -0.4263  -0.3827  -0.3734  -0.3221  -0.2837  -0.2761
    -0.2588  -0.2317  -0.1400  -0.1095  -0.0796  -0.0606  -0.0504  -0.0065
    -0.0037   0.0025   0.0191   0.0267   0.0681   0.0899   0.0980   0.1184
     0.1426   0.1441   0.1490   0.1588   0.1754   0.1920   0.2597   0.2651
     0.2707   0.4705   0.4948   0.5684   0.5767   0.6771   0.6850   0.6989
     0.7190   0.7729   0.7821   0.7886   0.8013   0.8246   0.8937   0.9151
     0.9399   0.9876   1.0049   1.0376   1.0758   1.0945   1.1521   1.2713
     1.3317   1.3344   1.3547   1.3607   1.4440   1.4500   1.4587   1.4787
     1.4916   1.5152   1.5316   1.5512   1.6495   1.6537   1.6773   1.7210
     1.7240   1.7418   1.7462   1.7746   1.8009   1.9272   1.9841   2.0227
     2.0870   2.0940   2.1704   2.1798   2.2574   2.3020   2.3101   2.3267
     2.4162   2.4352   2.4859   2.5214   2.5297   2.5407   2.5509   2.5694
     2.6038   2.6336   2.6936   2.7008   2.7271   2.7390   2.7477   2.7531
     2.8049   2.8348   2.9476   2.9524   2.9558   2.9712   2.9878   3.0401
     3.1314   3.1568   3.2921   4.1119   4.1138   4.3153   4.3349   4.4234
     4.5076   4.5204   4.5309   4.9615   5.1186   5.1302   5.5775   5.6011
     5.6266   5.7204   5.7344   5.9295   6.0015   6.0236   6.1009   6.4656
     6.5557   6.5773   6.9571   7.1964   7.2256

          k = 0.4000-0.4619 0.0000 ( 43014 PWs)   bands (ev):

   -18.7408  -6.3581  -5.1274  -5.1245  -4.5152  -3.8779  -3.8711  -3.3649
    -3.3551  -3.2170  -3.1830  -3.0801  -3.0662  -2.9716  -2.9659  -2.8962
    -2.8480  -2.8411  -2.8077  -2.7958  -2.7919  -2.7841  -2.7409  -2.6489
    -2.6292  -2.6238  -2.5881  -2.5849  -2.4856  -2.4019  -2.3704  -2.3161
    -2.2227  -2.2171  -2.2049  -2.2003  -2.1759  -2.0787  -2.0716  -1.9750
    -1.9677  -1.8172  -1.7852  -1.7396  -1.6700  -1.6372  -1.5949  -1.5837
    -1.5041  -1.4379  -1.4068  -1.3789  -1.3549  -1.3192  -1.2907  -1.2819
    -1.2587  -1.1700  -1.1607  -1.1423  -1.1342  -1.1318  -1.1276  -1.0676
    -1.0537  -1.0475  -0.9130  -0.8889  -0.8554  -0.8328  -0.7444  -0.7068
    -0.6965  -0.6719  -0.6467  -0.6212  -0.6132  -0.5355  -0.5068  -0.4963
    -0.4726  -0.4538  -0.4301  -0.3747  -0.3654  -0.3410  -0.2633  -0.2625
    -0.2588  -0.2318  -0.1624  -0.0965  -0.0891  -0.0471  -0.0427  -0.0110
    -0.0078   0.0004   0.0099   0.0294   0.0381   0.0796   0.0872   0.1299
     0.1371   0.1448   0.1517   0.1594   0.1653   0.2059   0.2454   0.2527
     0.2671   0.4590   0.4880   0.5681   0.5765   0.6768   0.6836   0.6932
     0.7391   0.7644   0.7833   0.7858   0.8126   0.8365   0.9017   0.9145
     0.9236   0.9993   1.0069   1.0449   1.0697   1.0876   1.1499   1.2687
     1.3284   1.3309   1.3596   1.3662   1.4412   1.4475   1.4572   1.4737
     1.4931   1.5083   1.5374   1.5524   1.6560   1.6571   1.6823   1.7192
     1.7243   1.7434   1.7475   1.7668   1.7989   1.9268   1.9648   2.0201
     2.0823   2.1008   2.1777   2.1860   2.2628   2.3002   2.3132   2.3344
     2.4105   2.4363   2.4873   2.5034   2.5268   2.5312   2.5473   2.5818
     2.5982   2.6434   2.6971   2.7005   2.7062   2.7405   2.7482   2.7535
     2.8024   2.8310   2.9500   2.9689   2.9707   2.9760   2.9932   3.0392
     3.1437   3.1634   3.2882   4.1119   4.1142   4.2847   4.3533   4.4347
     4.5037   4.5101   4.5275   4.9701   5.1225   5.1310   5.5805   5.5857
     5.6346   5.7201   5.7316   5.9737   5.9831   6.0459   6.1079   6.4671
     6.5461   6.5675   6.9658   7.1877   7.1998

     the Fermi energy is     2.7331 ev

!    total energy              =  -27799.22274431 Ry
     total all-electron energy =  -1326794.835052 Ry
     estimated scf accuracy    <       0.00000089 Ry
     smearing contrib. (-TS)   =       0.00150661 Ry
     internal energy E=F+TS    =  -27799.22425091 Ry

     The total energy is F=E-TS. E is the sum of the following terms:
     one-electron contribution =  -20677.47325960 Ry
     hartree contribution      =   10652.26299502 Ry
     xc contribution           =    -899.27771517 Ry
     ewald contribution        =    8609.38058495 Ry
     one-center paw contrib.   =  -25484.11685612 Ry

     convergence has been achieved in  17 iterations

     negative rho (up, down):  2.956E-03 0.000E+00

     Forces acting on atoms (cartesian axes, Ry/au):

     atom    1 type  1   force =     0.00013517    0.00004504   -0.00636201
     atom    2 type  1   force =    -0.00003716   -0.00020723   -0.00340984
     atom    3 type  1   force =     0.00068360   -0.00018478   -0.00356767
     atom    4 type  1   force =     0.00018479   -0.00039848   -0.00359669
     atom    5 type  1   force =     0.00037566   -0.00036095   -0.00419210
     atom    6 type  1   force =     0.00051248   -0.00060372   -0.00367782
     atom    7 type  1   force =     0.00047885   -0.00018870   -0.00340946
     atom    8 type  1   force =     0.00010189   -0.00003789   -0.00315633
     atom    9 type  1   force =     0.00043003   -0.00042178   -0.00357410
     atom   10 type  1   force =    -0.00011374    0.00046443    0.00229604
     atom   11 type  1   force =    -0.00076154    0.00124987    0.00278417
     atom   12 type  1   force =    -0.00026706    0.00035970    0.00193571
     atom   13 type  1   force =     0.00005100    0.00057217    0.00397962
     atom   14 type  1   force =    -0.00146621    0.00050003    0.00369057
     atom   15 type  1   force =    -0.00051723    0.00128574    0.00254527
     atom   16 type  1   force =    -0.00003525   -0.00154434    0.00436545
     atom   17 type  1   force =    -0.00046832    0.00012092    0.00184065
     atom   18 type  1   force =    -0.00112787   -0.00011596    0.00269987
     atom   19 type  1   force =     0.00002457   -0.00006143   -0.00010110
     atom   20 type  1   force =     0.00030594   -0.00003113    0.00037107
     atom   21 type  1   force =    -0.00019407    0.00015057    0.00011008
     atom   22 type  1   force =     0.00037502   -0.00024697    0.00010967
     atom   23 type  1   force =     0.00014704   -0.00037309   -0.00027606
     atom   24 type  1   force =    -0.00020239   -0.00008953    0.00000205
     atom   25 type  1   force =     0.00005640   -0.00007568   -0.00017084
     atom   26 type  1   force =     0.00023823   -0.00023115    0.00006325
     atom   27 type  1   force =     0.00002905    0.00020685    0.00006956
     atom   28 type  1   force =     0.00035001   -0.00037581   -0.00012383
     atom   29 type  1   force =     0.00040887   -0.00021355    0.00023769
     atom   30 type  1   force =     0.00026301   -0.00039145   -0.00038518
     atom   31 type  1   force =     0.00007789   -0.00032172    0.00017773
     atom   32 type  1   force =     0.00004971   -0.00078053   -0.00062691
     atom   33 type  1   force =     0.00015298   -0.00028923    0.00036484
     atom   34 type  1   force =     0.00013599   -0.00030939   -0.00008709
     atom   35 type  1   force =     0.00023436   -0.00032694    0.00007528
     atom   36 type  1   force =     0.00030726   -0.00033720   -0.00015205
     atom   37 type  2   force =    -0.00051943    0.00068090    0.00262215
     atom   38 type  3   force =     0.00125758    0.00155964    0.00172215
     atom   39 type  3   force =    -0.00165711    0.00132278    0.00480621
     The non-local contrib.  to forces
     atom    1 type  1   force =     0.00020043   -0.00033934   -0.01483267
     atom    2 type  1   force =     0.00014625   -0.00012200   -0.01807651
     atom    3 type  1   force =    -0.00036412   -0.00007343   -0.01791284
     atom    4 type  1   force =    -0.00019637    0.00038456   -0.01841342
     atom    5 type  1   force =    -0.00012114    0.00012223   -0.01839129
     atom    6 type  1   force =    -0.00002706    0.00044303   -0.01817470
     atom    7 type  1   force =    -0.00041606    0.00002129   -0.01837226
     atom    8 type  1   force =     0.00025759    0.00001779   -0.01850100
     atom    9 type  1   force =    -0.00006549   -0.00002962   -0.01881601
     atom   10 type  1   force =    -0.00074616    0.00038944   -0.00045279
     atom   11 type  1   force =    -0.00082341    0.00115662    0.00091856
     atom   12 type  1   force =    -0.00063812    0.00038132   -0.00078795
     atom   13 type  1   force =    -0.00041334    0.00058459    0.00193830
     atom   14 type  1   force =    -0.00138989    0.00023280    0.00168314
     atom   15 type  1   force =    -0.00074611    0.00084825    0.00004068
     atom   16 type  1   force =    -0.00087292    0.00075455   -0.00027720
     atom   17 type  1   force =    -0.00076369    0.00103250   -0.00034723
     atom   18 type  1   force =    -0.00080064    0.00082803   -0.00038637
     atom   19 type  1   force =    -0.00021029    0.00088639    0.00375129
     atom   20 type  1   force =    -0.00296287   -0.00185026   -0.00307406
     atom   21 type  1   force =     0.00093319   -0.00033890   -0.00099262
     atom   22 type  1   force =     0.00026998   -0.00027100    0.00173934
     atom   23 type  1   force =     0.00021627    0.00635857   -0.00655759
     atom   24 type  1   force =     0.00010689    0.00002188    0.00179193
     atom   25 type  1   force =    -0.00141145    0.00014186    0.00507813
     atom   26 type  1   force =     0.00129900   -0.00022675    0.00435626
     atom   27 type  1   force =    -0.00014671   -0.00015066    0.00170388
     atom   28 type  1   force =     0.00193134   -0.00133289    0.01377258
     atom   29 type  1   force =     0.00671252    0.00822311    0.01902714
     atom   30 type  1   force =    -0.00536995    0.01060770    0.00774653
     atom   31 type  1   force =     0.00787270   -0.00154613    0.01936003
     atom   32 type  1   force =     0.01056763   -0.01911721    0.06696410
     atom   33 type  1   force =    -0.00893671   -0.00220597    0.01460374
     atom   34 type  1   force =     0.00402082   -0.00662526    0.01585434
     atom   35 type  1   force =    -0.00235179   -0.00601477    0.01304669
     atom   36 type  1   force =     0.00129848   -0.00100095    0.01443916
     atom   37 type  2   force =     2.42304448   -0.33801054   -0.11614954
     atom   38 type  3   force =    -0.08133248   -0.07485480   -0.03024625
     atom   39 type  3   force =    -0.04807963    0.09766265    0.02266363
     The ionic contribution  to forces
     atom    1 type  1   force =     0.00164969   -0.00319102  -94.33081442
     atom    2 type  1   force =    -0.00053757   -0.00035749  -94.32747960
     atom    3 type  1   force =    -0.00120094   -0.00158882  -94.33067966
     atom    4 type  1   force =     0.00279920    0.00555088  -94.32175748
     atom    5 type  1   force =    -0.00171067    0.00753092  -94.32010272
     atom    6 type  1   force =    -0.00112136    0.00631892  -94.32514994
     atom    7 type  1   force =     0.00238468   -0.00624990  -94.31701309
     atom    8 type  1   force =    -0.00280744   -0.00427930  -94.31717210
     atom    9 type  1   force =     0.00032639   -0.00355644  -94.32174653
     atom   10 type  1   force =     0.02041447    0.02427618  -33.21250611
     atom   11 type  1   force =    -0.02368501    0.01736663  -33.22649023
     atom   12 type  1   force =    -0.01652586    0.02300343  -33.23676099
     atom   13 type  1   force =     0.00079236    0.05234929  -33.16146681
     atom   14 type  1   force =    -0.03434948    0.05902882  -33.17021161
     atom   15 type  1   force =     0.00197086    0.03588022  -33.17480841
     atom   16 type  1   force =     0.00155899   -0.09075488  -33.17523642
     atom   17 type  1   force =    -0.01735730   -0.02067746  -33.20416660
     atom   18 type  1   force =    -0.00788473   -0.03607964  -33.20193754
     atom   19 type  1   force =     0.05158430   -0.00168788   28.72238289
     atom   20 type  1   force =    -0.20201060   -0.06269081   28.63908260
     atom   21 type  1   force =     0.12118591   -0.02610796   28.50424693
     atom   22 type  1   force =    -0.05326711    0.02318262   28.94525103
     atom   23 type  1   force =    -0.00135715    0.29108883   28.94272403
     atom   24 type  1   force =     0.06939404    0.06950510   28.81691457
     atom   25 type  1   force =     0.07577852   -0.06553615   28.65700538
     atom   26 type  1   force =    -0.06030407   -0.03052523   28.74203386
     atom   27 type  1   force =    -0.02239252   -0.14752335   28.65923224
     atom   28 type  1   force =     0.22473582   -0.09918799   90.90030043
     atom   29 type  1   force =    -0.85453129   -0.78984644   89.49708766
     atom   30 type  1   force =     0.71079810   -1.17553515   88.82089506
     atom   31 type  1   force =    -0.76637021    0.07624611   90.26358295
     atom   32 type  1   force =    -0.63196680    0.81950859   85.95116883
     atom   33 type  1   force =     1.25221426    0.18449015   89.42102042
     atom   34 type  1   force =    -0.29725150    0.48604992   90.56575865
     atom   35 type  1   force =     0.26015037    0.85974644   90.31695354
     atom   36 type  1   force =     0.07416120   -0.23142620   91.02728060
     atom   37 type  2   force =    -4.11042166    0.54793365   61.64699173
     atom   38 type  3   force =     2.65387573    2.43812188   10.85427709
     atom   39 type  3   force =     1.58127839   -3.23037648    9.78130978
     The local contribution  to forces
     atom    1 type  1   force =    -0.00176617    0.00358811   94.32258689
     atom    2 type  1   force =     0.00030982    0.00013476   94.32531206
     atom    3 type  1   force =     0.00234885    0.00146337   94.32825110
     atom    4 type  1   force =    -0.00252374   -0.00642766   94.31973494
     atom    5 type  1   force =     0.00236566   -0.00803021   94.31745534
     atom    6 type  1   force =     0.00166242   -0.00740975   94.32290348
     atom    7 type  1   force =    -0.00138650    0.00619364   94.31516949
     atom    8 type  1   force =     0.00267686    0.00427422   94.31571654
     atom    9 type  1   force =     0.00008624    0.00321100   94.32030239
     atom   10 type  1   force =    -0.01983483   -0.02422205   33.21349792
     atom   11 type  1   force =     0.02383077   -0.01744367   33.22652784
     atom   12 type  1   force =     0.01686601   -0.02296118   33.23769498
     atom   13 type  1   force =    -0.00041272   -0.05205878   33.16194474
     atom   14 type  1   force =     0.03441804   -0.05850857   33.17059010
     atom   15 type  1   force =    -0.00193472   -0.03536935   33.17566037
     atom   16 type  1   force =    -0.00066102    0.08811868   33.17827698
     atom   17 type  1   force =     0.01756899    0.01966113   33.20446305
     atom   18 type  1   force =     0.00750422    0.03520369   33.20327199
     atom   19 type  1   force =    -0.05151187    0.00068650  -28.72519542
     atom   20 type  1   force =     0.20500386    0.06420920  -28.63443459
     atom   21 type  1   force =    -0.12208975    0.02649413  -28.50190947
     atom   22 type  1   force =     0.05335959   -0.02309671  -28.94577727
     atom   23 type  1   force =     0.00146150   -0.29700078  -28.93584421
     atom   24 type  1   force =    -0.06975928   -0.06965762  -28.81774644
     atom   25 type  1   force =    -0.07432600    0.06544614  -28.66117283
     atom   26 type  1   force =     0.05902492    0.03048917  -28.74535754
     atom   27 type  1   force =     0.02268554    0.14782696  -28.65989298
     atom   28 type  1   force =    -0.22625055    0.10021639  -90.89869473
     atom   29 type  1   force =     0.84841521    0.78214012  -89.50011226
     atom   30 type  1   force =    -0.70514989    1.16505422  -88.81451096
     atom   31 type  1   force =     0.75908244   -0.07520390  -90.26673986
     atom   32 type  1   force =     0.62049885   -0.80079137  -86.00877750
     atom   33 type  1   force =    -1.24354585   -0.18290268  -89.42000537
     atom   34 type  1   force =     0.29360154   -0.48014801  -90.56589156
     atom   35 type  1   force =    -0.25783065   -0.85423292  -90.31433951
     atom   36 type  1   force =    -0.07502518    0.23196765  -91.02620389
     atom   37 type  2   force =     1.70833995   -0.21207017  -61.52921967
     atom   38 type  3   force =    -2.57130418   -2.36171132  -10.82220191
     atom   39 type  3   force =    -1.53487001    3.13403814   -9.79907713
     The core correction contribution to forces
     atom    1 type  1   force =     0.00001772   -0.00005514    0.01725292
     atom    2 type  1   force =    -0.00000153   -0.00000309    0.01727252
     atom    3 type  1   force =    -0.00000718    0.00001614    0.01727044
     atom    4 type  1   force =    -0.00000947    0.00002287    0.01726315
     atom    5 type  1   force =    -0.00000910    0.00001508    0.01717838
     atom    6 type  1   force =    -0.00002151    0.00000954    0.01726670
     atom    7 type  1   force =    -0.00003637    0.00001074    0.01724644
     atom    8 type  1   force =     0.00001761    0.00000759    0.01728983
     atom    9 type  1   force =    -0.00001243    0.00000275    0.01720572
     atom   10 type  1   force =    -0.00021009   -0.00015736    0.00154057
     atom   11 type  1   force =     0.00005978   -0.00000613    0.00153554
     atom   12 type  1   force =     0.00016428   -0.00012712    0.00159341
     atom   13 type  1   force =     0.00004233   -0.00016513    0.00135063
     atom   14 type  1   force =     0.00007590   -0.00018286    0.00135640
     atom   15 type  1   force =     0.00002743   -0.00012457    0.00145942
     atom   16 type  1   force =    -0.00002913    0.00053835    0.00138716
     atom   17 type  1   force =     0.00002283    0.00003760    0.00159630
     atom   18 type  1   force =     0.00009661    0.00004244    0.00154209
     atom   19 type  1   force =     0.00005431   -0.00005581   -0.00203242
     atom   20 type  1   force =     0.00012299    0.00024914   -0.00209518
     atom   21 type  1   force =     0.00004784    0.00003282   -0.00223223
     atom   22 type  1   force =    -0.00004894    0.00001379   -0.00199939
     atom   23 type  1   force =    -0.00014138   -0.00060224   -0.00153691
     atom   24 type  1   force =     0.00009820    0.00000056   -0.00196646
     atom   25 type  1   force =     0.00011445   -0.00005080   -0.00208683
     atom   26 type  1   force =     0.00004972    0.00003724   -0.00198142
     atom   27 type  1   force =    -0.00003583   -0.00005734   -0.00195882
     atom   28 type  1   force =    -0.00009497   -0.00006445   -0.01636021
     atom   29 type  1   force =    -0.00030449   -0.00077480   -0.01652368
     atom   30 type  1   force =     0.00014612   -0.00061543   -0.01538316
     atom   31 type  1   force =    -0.00062716    0.00017807   -0.01678112
     atom   32 type  1   force =     0.00093014   -0.00032263   -0.01068916
     atom   33 type  1   force =     0.00057768    0.00027280   -0.01612407
     atom   34 type  1   force =    -0.00024842    0.00050708   -0.01660875
     atom   35 type  1   force =     0.00022737    0.00026152   -0.01640582
     atom   36 type  1   force =    -0.00006204    0.00005817   -0.01645211
     atom   37 type  2   force =    -0.02167371    0.00282271    0.00109090
     atom   38 type  3   force =     0.00000000    0.00000000    0.00000000
     atom   39 type  3   force =     0.00000000    0.00000000    0.00000000
     The Hubbard contrib.    to forces
     atom    1 type  1   force =     0.00000000    0.00000000    0.00000000
     atom    2 type  1   force =     0.00000000    0.00000000    0.00000000
     atom    3 type  1   force =     0.00000000    0.00000000    0.00000000
     atom    4 type  1   force =     0.00000000    0.00000000    0.00000000
     atom    5 type  1   force =     0.00000000    0.00000000    0.00000000
     atom    6 type  1   force =     0.00000000    0.00000000    0.00000000
     atom    7 type  1   force =     0.00000000    0.00000000    0.00000000
     atom    8 type  1   force =     0.00000000    0.00000000    0.00000000
     atom    9 type  1   force =     0.00000000    0.00000000    0.00000000
     atom   10 type  1   force =     0.00000000    0.00000000    0.00000000
     atom   11 type  1   force =     0.00000000    0.00000000    0.00000000
     atom   12 type  1   force =     0.00000000    0.00000000    0.00000000
     atom   13 type  1   force =     0.00000000    0.00000000    0.00000000
     atom   14 type  1   force =     0.00000000    0.00000000    0.00000000
     atom   15 type  1   force =     0.00000000    0.00000000    0.00000000
     atom   16 type  1   force =     0.00000000    0.00000000    0.00000000
     atom   17 type  1   force =     0.00000000    0.00000000    0.00000000
     atom   18 type  1   force =     0.00000000    0.00000000    0.00000000
     atom   19 type  1   force =     0.00000000    0.00000000    0.00000000
     atom   20 type  1   force =     0.00000000    0.00000000    0.00000000
     atom   21 type  1   force =     0.00000000    0.00000000    0.00000000
     atom   22 type  1   force =     0.00000000    0.00000000    0.00000000
     atom   23 type  1   force =     0.00000000    0.00000000    0.00000000
     atom   24 type  1   force =     0.00000000    0.00000000    0.00000000
     atom   25 type  1   force =     0.00000000    0.00000000    0.00000000
     atom   26 type  1   force =     0.00000000    0.00000000    0.00000000
     atom   27 type  1   force =     0.00000000    0.00000000    0.00000000
     atom   28 type  1   force =     0.00000000    0.00000000    0.00000000
     atom   29 type  1   force =     0.00000000    0.00000000    0.00000000
     atom   30 type  1   force =     0.00000000    0.00000000    0.00000000
     atom   31 type  1   force =     0.00000000    0.00000000    0.00000000
     atom   32 type  1   force =     0.00000000    0.00000000    0.00000000
     atom   33 type  1   force =     0.00000000    0.00000000    0.00000000
     atom   34 type  1   force =     0.00000000    0.00000000    0.00000000
     atom   35 type  1   force =     0.00000000    0.00000000    0.00000000
     atom   36 type  1   force =     0.00000000    0.00000000    0.00000000
     atom   37 type  2   force =     0.00000000    0.00000000    0.00000000
     atom   38 type  3   force =     0.00000000    0.00000000    0.00000000
     atom   39 type  3   force =     0.00000000    0.00000000    0.00000000
     The SCF correction term to forces
     atom    1 type  1   force =     0.00000000    0.00000000   -0.00000000
     atom    2 type  1   force =     0.00000000    0.00000000   -0.00000000
     atom    3 type  1   force =    -0.00000000   -0.00000000   -0.00000000
     atom    4 type  1   force =     0.00000000    0.00000000   -0.00000000
     atom    5 type  1   force =    -0.00000000   -0.00000000   -0.00000000
     atom    6 type  1   force =     0.00000000    0.00000000   -0.00000000
     atom    7 type  1   force =    -0.00000000   -0.00000000   -0.00000000
     atom    8 type  1   force =    -0.00000000   -0.00000000   -0.00000000
     atom    9 type  1   force =     0.00000000   -0.00000000   -0.00000000
     atom   10 type  1   force =     0.00000000    0.00000000    0.00000000
     atom   11 type  1   force =    -0.00000000    0.00000000    0.00000000
     atom   12 type  1   force =    -0.00000000    0.00000000    0.00000000
     atom   13 type  1   force =     0.00000000   -0.00000000    0.00000000
     atom   14 type  1   force =    -0.00000000   -0.00000000    0.00000000
     atom   15 type  1   force =     0.00000000    0.00000000    0.00000000
     atom   16 type  1   force =    -0.00000000   -0.00000000    0.00000000
     atom   17 type  1   force =     0.00000000    0.00000000    0.00000000
     atom   18 type  1   force =    -0.00000000   -0.00000000    0.00000000
     atom   19 type  1   force =     0.00011267    0.00010780    0.00110301
     atom   20 type  1   force =     0.00015712    0.00005004    0.00100275
     atom   21 type  1   force =    -0.00026670    0.00006892    0.00110792
     atom   22 type  1   force =     0.00006605   -0.00007722    0.00100640
     atom   23 type  1   force =    -0.00002766   -0.00021903    0.00104906
     atom   24 type  1   force =    -0.00003768    0.00003899    0.00111887
     atom   25 type  1   force =    -0.00009457   -0.00007829    0.00111575
     atom   26 type  1   force =     0.00017320   -0.00000714    0.00112253
     atom   27 type  1   force =    -0.00007689    0.00010967    0.00109569
     atom   28 type  1   force =     0.00003293   -0.00000843    0.00096855
     atom   29 type  1   force =     0.00012149    0.00004290    0.00086928
     atom   30 type  1   force =    -0.00015682    0.00009566    0.00097779
     atom   31 type  1   force =     0.00012466    0.00000257    0.00086618
     atom   32 type  1   force =     0.00002445   -0.00005948    0.00081726
     atom   33 type  1   force =    -0.00015186    0.00005490    0.00098056
     atom   34 type  1   force =     0.00001810   -0.00009469    0.00091067
     atom   35 type  1   force =     0.00004361   -0.00008877    0.00093083
     atom   36 type  1   force =    -0.00006065    0.00006257    0.00089463
     atom   37 type  2   force =     0.00019606    0.00000368    0.00001917
     atom   38 type  3   force =     0.00002308    0.00000231    0.00000366
     atom   39 type  3   force =     0.00001869   -0.00000309    0.00002037

     Total force =     0.006785     Total SCF correction =     0.004297
     SCF correction compared to forces is large: reduce conv_thr to get better values

     Writing all to output data dir ./pwscf.save/

     init_run     :     21.86s CPU     22.30s WALL (       1 calls)
     electrons    :    463.45s CPU    478.64s WALL (       1 calls)
     forces       :      3.81s CPU      4.39s WALL (       1 calls)

     Called by init_run:
     wfcinit      :     16.97s CPU     17.25s WALL (       1 calls)
     potinit      :      3.29s CPU      3.37s WALL (       1 calls)
     hinit0       :      1.00s CPU      1.02s WALL (       1 calls)

     Called by electrons:
     c_bands      :    388.13s CPU    398.89s WALL (      18 calls)
     sum_band     :     58.35s CPU     59.86s WALL (      18 calls)
     v_of_rho     :      8.24s CPU      9.85s WALL (      18 calls)
     newd         :      2.62s CPU      3.47s WALL (      18 calls)
     PAW_pot      :      3.95s CPU      4.07s WALL (      18 calls)
     mix_rho      :      4.30s CPU      4.41s WALL (      18 calls)
     vdW_kernel   :      1.76s CPU      1.78s WALL (       1 calls)

     Called by c_bands:
     init_us_2    :      2.72s CPU      2.77s WALL (     494 calls)
     init_us_2:cp :      2.72s CPU      2.77s WALL (     494 calls)
     cegterg      :    378.34s CPU    388.42s WALL (     234 calls)

     Called by *egterg:
     cdiaghg      :     79.50s CPU     80.26s WALL (    1284 calls)
     h_psi        :    193.10s CPU    200.44s WALL (    1310 calls)
     s_psi        :     14.92s CPU     15.12s WALL (    1310 calls)
     g_psi        :      0.42s CPU      0.44s WALL (    1063 calls)

     Called by h_psi:
     h_psi:calbec :     26.85s CPU     27.35s WALL (    1310 calls)
     vloc_psi     :    149.97s CPU    156.20s WALL (    1310 calls)
     add_vuspsi   :     15.21s CPU     15.81s WALL (    1310 calls)

     General routines
     calbec       :     38.27s CPU     38.93s WALL (    1596 calls)
     fft          :      4.58s CPU      6.31s WALL (    1194 calls)
     ffts         :      2.65s CPU      2.70s WALL (    4878 calls)
     fftw         :    172.10s CPU    177.35s WALL (  304146 calls)
     interpolate  :      0.59s CPU      0.65s WALL (      18 calls)

     Parallel routines

     PWSCF        :   8m10.91s CPU   8m30.14s WALL


   This run was terminated on:  15:46:37  26Feb2025            

=------------------------------------------------------------------------------=
   JOB DONE.
=------------------------------------------------------------------------------=
