
     Program PWSCF v.7.1 starts on 10Nov2025 at 21:20: 9 
        Git branch: heads/qe-7.1
        Last git commit: 48ba0178f8fede6d020eb786884699a9f063f55d-dirty
        Last git commit date: Fri Jan 27 14:22:33 2023 +0000
        Last git commit subject: Merge branch 'fix_hubbard' into 'develop'

     This program is part of the open-source Quantum ESPRESSO suite
     for quantum simulation of materials; please cite
         "P. Giannozzi et al., J. Phys.:Condens. Matter 21 395502 (2009);
         "P. Giannozzi et al., J. Phys.:Condens. Matter 29 465901 (2017);
         "P. Giannozzi et al., J. Chem. Phys. 152 154105 (2020);
          URL http://www.quantum-espresso.org", 
     in publications or presentations arising from this work. More details at
     http://www.quantum-espresso.org/quote

     Parallel version (MPI), running on    48 processors

     MPI processes distributed on     1 nodes
     88396 MiB available memory on the printing compute node when the environment starts

     Reading input from espresso.pwi
Warning: card &CELL ignored
Warning: card / ignored
Warning: card &FCP ignored
Warning: card / ignored
Warning: card &RISM ignored
Warning: card / ignored

     Current dimensions of program PWSCF are:
     Max number of different atomic species (ntypx) = 10
     Max number of k-points (npk) =  40000
     Max angular momentum in pseudopotentials (lmaxx) =  4
     file Pt.pbe-n-kjpaw_psl.1.0.0.UPF: wavefunction(s)  6S 5D renormalized
     file C.pbe-n-kjpaw_psl.1.0.0.UPF: wavefunction(s)  2S 2P renormalized
     file H.pbe-kjpaw_psl.1.0.0.UPF: wavefunction(s)  1S renormalized

     **************************************************************************
     Initializing libbeef V0.1.2 with the BEEF-vdW functional.
     Citation: Wellendorff et al., PRB 85, 235149 (2012).
     **************************************************************************


     IMPORTANT: XC functional enforced from input :
     Exchange-correlation= BEEF-VDW
                           (   1   4  43  14   2   0   0)
     Any further DFT definition will be discarded
     Please, verify this is what you really want


     R & G space division:  proc/nbgrp/npool/nimage =      48
     Subspace diagonalization in iterative solution of the eigenvalue problem:
     one sub-group per band group will be used
     custom distributed-memory algorithm (size of sub-group:  2*  2 procs)


     Parallelization info
     --------------------
     sticks:   dense  smooth     PW     G-vecs:    dense   smooth      PW
     Min         151      59     16                29407     7165    1028
     Max         152      60     17                29420     7176    1042
     Sum        7267    2839    769              1411785   344073   49691

     Using Slab Decomposition



     bravais-lattice index     =            0
     lattice parameter (alat)  =      16.0349  a.u.
     unit-cell volume          =   10068.6169 (a.u.)^3
     number of atoms/cell      =           38
     number of atomic types    =            3
     number of electrons       =       365.00
     number of Kohn-Sham states=          220
     kinetic-energy cutoff     =      40.0000  Ry
     charge density cutoff     =     410.0000  Ry
     scf convergence threshold =      1.0E-08
     mixing beta               =       0.7000
     number of iterations used =            8  local-TF  mixing
     Exchange-correlation= BEEF-VDW
                           (   1   4  43  14   2   0   0)

     celldm(1)=  16.034858  celldm(2)=   0.000000  celldm(3)=   0.000000
     celldm(4)=   0.000000  celldm(5)=   0.000000  celldm(6)=   0.000000

     crystal axes: (cart. coord. in units of alat)
               a(1) = (   1.000000   0.000000   0.000000 )  
               a(2) = (   0.500000   0.866025   0.000000 )  
               a(3) = (   0.000000   0.000000   2.819966 )  

     reciprocal axes: (cart. coord. in units 2 pi/alat)
               b(1) = (  1.000000 -0.577350  0.000000 )  
               b(2) = (  0.000000  1.154701  0.000000 )  
               b(3) = (  0.000000  0.000000  0.354614 )  


     PseudoPot. # 1 for Pt read from file:
     /users/kbadger1/espresso/pseudo/pslibrary.1.0.0/pbe/PSEUDOPOTENTIALS/Pt.pbe-n-kjpaw_psl.1.0.0.UPF
     MD5 check sum: 2e24a0b5bf98a4ed1a57fa81bca8c143
     Pseudo is Projector augmented-wave + core cor, Zval = 10.0
     Generated using 'atomic' code by A. Dal Corso  v.7.0
     Shape of augmentation charge: PSQ
     Using radial grid of 1277 points,  6 beta functions with: 
                l(1) =   0
                l(2) =   0
                l(3) =   1
                l(4) =   1
                l(5) =   2
                l(6) =   2
     Q(r) pseudized with 0 coefficients 


     PseudoPot. # 2 for C  read from file:
     /users/kbadger1/espresso/pseudo/pslibrary.1.0.0/pbe/PSEUDOPOTENTIALS/C.pbe-n-kjpaw_psl.1.0.0.UPF
     MD5 check sum: 6408e75cdba28732cea38a4db8498ce4
     Pseudo is Projector augmented-wave + core cor, Zval =  4.0
     Generated using 'atomic' code by A. Dal Corso  v.7.0
     Shape of augmentation charge: PSQ
     Using radial grid of 1073 points,  4 beta functions with: 
                l(1) =   0
                l(2) =   0
                l(3) =   1
                l(4) =   1
     Q(r) pseudized with 0 coefficients 


     PseudoPot. # 3 for H  read from file:
     /users/kbadger1/espresso/pseudo/pslibrary.1.0.0/pbe/PSEUDOPOTENTIALS/H.pbe-kjpaw_psl.1.0.0.UPF
     MD5 check sum: fe4c6fa958fa6d3815bf5d2419cbf1df
     Pseudo is Projector augmented-wave, Zval =  1.0
     Generated using 'atomic' code by A. Dal Corso  v.7.0
     Shape of augmentation charge: PSQ
     Using radial grid of  929 points,  2 beta functions with: 
                l(1) =   0
                l(2) =   0
     Q(r) pseudized with 0 coefficients 


     atomic species   valence    mass     pseudopotential
        Pt            10.00   195.08400     Pt( 1.00)
        C              4.00    12.01100     C ( 1.00)
        H              1.00     1.00800     H ( 1.00)

     No symmetry found



   Cartesian axes

     site n.     atom                  positions (alat units)
         1           Pt  tau(   1) = (   0.0000000   0.0000000   1.0017346  )
         2           Pt  tau(   2) = (   0.3333333   0.0000000   1.0017346  )
         3           Pt  tau(   3) = (   0.6666667   0.0000000   1.0017346  )
         4           Pt  tau(   4) = (   0.1666667   0.2886751   1.0017346  )
         5           Pt  tau(   5) = (   0.5000000   0.2886751   1.0017346  )
         6           Pt  tau(   6) = (   0.8333333   0.2886751   1.0017346  )
         7           Pt  tau(   7) = (   0.3333333   0.5773503   1.0017346  )
         8           Pt  tau(   8) = (   0.6666667   0.5773503   1.0017346  )
         9           Pt  tau(   9) = (   1.0000000   0.5773503   1.0017346  )
        10           Pt  tau(  10) = (   0.1666667   0.0962250   1.2739001  )
        11           Pt  tau(  11) = (   0.5000000   0.0962250   1.2739001  )
        12           Pt  tau(  12) = (   0.8333333   0.0962250   1.2739001  )
        13           Pt  tau(  13) = (   0.3333333   0.3849002   1.2739001  )
        14           Pt  tau(  14) = (   0.6666667   0.3849002   1.2739001  )
        15           Pt  tau(  15) = (   1.0000000   0.3849002   1.2739001  )
        16           Pt  tau(  16) = (   0.5000000   0.6735753   1.2739001  )
        17           Pt  tau(  17) = (   0.8333333   0.6735753   1.2739001  )
        18           Pt  tau(  18) = (   1.1666667   0.6735753   1.2739001  )
        19           Pt  tau(  19) = (   0.0011796   0.1950891   1.5473492  )
        20           Pt  tau(  20) = (   0.3321502   0.1950872   1.5473469  )
        21           Pt  tau(  21) = (   0.6666683   0.1957726   1.5421900  )
        22           Pt  tau(  22) = (   0.1666628   0.4831496   1.5482016  )
        23           Pt  tau(  23) = (   0.4994224   0.4846067   1.5418963  )
        24           Pt  tau(  24) = (   0.8339124   0.4846051   1.5418994  )
        25           Pt  tau(  25) = (   0.3349737   0.7749209   1.5467207  )
        26           Pt  tau(  26) = (   0.6666659   0.7744879   1.5468435  )
        27           Pt  tau(  27) = (   0.9983572   0.7749182   1.5467201  )
        28           Pt  tau(  28) = (  -0.0079720   0.0047151   1.8344005  )
        29           Pt  tau(  29) = (   0.3413007   0.0047145   1.8343978  )
        30           Pt  tau(  30) = (   0.6666652   0.0089489   1.8200936  )
        31           Pt  tau(  31) = (   0.1666643   0.3171036   1.8299725  )
        32           Pt  tau(  32) = (   0.5035825   0.2986622   1.8151400  )
        33           Pt  tau(  33) = (   0.8297469   0.2986612   1.8151401  )
        34           Pt  tau(  34) = (   0.3356074   0.5888059   1.8197536  )
        35           Pt  tau(  35) = (   0.6666635   0.5814393   1.8146121  )
        36           Pt  tau(  36) = (   0.9977232   0.5888046   1.8197538  )
        37           C   tau(  37) = (   0.1666652   0.1089819   1.9423477  )
        38           H   tau(  38) = (   0.1666677   0.2344828   2.0261288  )

     number of k points=    13  Marzari-Vanderbilt smearing, width (Ry)=  0.0010
                       cart. coord. in units 2pi/alat
        k(    1) = (   0.0000000   0.0000000   0.0000000), wk =   0.0800000
        k(    2) = (   0.0000000   0.2309401   0.0000000), wk =   0.1600000
        k(    3) = (   0.0000000   0.4618802   0.0000000), wk =   0.1600000
        k(    4) = (   0.2000000  -0.1154701   0.0000000), wk =   0.1600000
        k(    5) = (   0.2000000   0.1154701   0.0000000), wk =   0.1600000
        k(    6) = (   0.2000000   0.3464102   0.0000000), wk =   0.1600000
        k(    7) = (   0.2000000  -0.5773503   0.0000000), wk =   0.1600000
        k(    8) = (   0.2000000  -0.3464102   0.0000000), wk =   0.1600000
        k(    9) = (   0.4000000  -0.2309401   0.0000000), wk =   0.1600000
        k(   10) = (   0.4000000  -0.0000000   0.0000000), wk =   0.1600000
        k(   11) = (   0.4000000   0.2309401   0.0000000), wk =   0.1600000
        k(   12) = (   0.4000000  -0.6928203   0.0000000), wk =   0.1600000
        k(   13) = (   0.4000000  -0.4618802   0.0000000), wk =   0.1600000

     Dense  grid:  1411785 G-vectors     FFT dimensions: ( 108, 108, 300)

     Smooth grid:   344073 G-vectors     FFT dimensions: (  72,  72, 192)

     Estimated max dynamical RAM per process >     206.88 MB

     Estimated total dynamical RAM >       9.70 GB

     Initial potential from superposition of free atoms

     starting charge     364.9938, renormalised to     365.0000

     negative rho (up, down):  3.332E-03 0.000E+00


     %%%%%%%%%%%%%%%%%%%%%%%%%%%%%%%%%%%%%%%%%%%%%%%%%%%%%%%%%%%%%%%%%%%%%%%%
     %                                                                      %
     % You are using vdW-DF, which was implemented by the Thonhauser group. %
     % Please cite the following two papers that made this development      %
     % possible and the two reviews that describe the various versions:     %
     %                                                                      %
     %   T. Thonhauser et al., PRL 115, 136402 (2015).                      %
     %   T. Thonhauser et al., PRB 76, 125112 (2007).                       %
     %   K. Berland et al., Rep. Prog. Phys. 78, 066501 (2015).             %
     %   D.C. Langreth et al., J. Phys.: Condens. Matter 21, 084203 (2009). %
     %                                                                      %
     % If you are calculating stress with vdW-DF, please also cite:         %
     %                                                                      %
     %   R. Sabatini et al., J. Phys.: Condens. Matter 24, 424209 (2012).   %
     %                                                                      %
     %%%%%%%%%%%%%%%%%%%%%%%%%%%%%%%%%%%%%%%%%%%%%%%%%%%%%%%%%%%%%%%%%%%%%%%%

     %%%%%%%%%%%%%%%%%%%%%%%%%%%%%%%%%%%%%%%%%%%%%%%%%%%%%%%%%%%%%%%%%%%%%%%%
     %                                                                      %
     %  vdW-DF NEWS:                                                        %
     %                                                                      %
     %  * vdW-DF3 is now available. DOI: 10.1021/acs.jctc.0c00471           %
     %    use with input_dft = 'vdW-DF3-opt1' or 'vdW-DF3-opt2'             %
     %                                                                      %
     %  * Unscreened and range-separated hybrid vdW-DF-cx functionals       %
     %    DOI: 10.1063/1.4986522 and 10.1088/1361-648X/ac2ad2               %
     %    use with input_dft = 'vdW-DF-cx0'    and 'vdW-DF-ahcx'            %
     %  * Unscreened and range-separated hybrid vdW-DF2-b86r functionals    %
     %    DOI: 10.1063/1.4986522 and DOI: 10.1103/PhysRevX.12.041003        %
     %    use with input_dft = 'vdW-DF2-br0' and 'vdW-DF2-ahbr'             %
     %                                                                      %
     %%%%%%%%%%%%%%%%%%%%%%%%%%%%%%%%%%%%%%%%%%%%%%%%%%%%%%%%%%%%%%%%%%%%%%%%


     Starting wfcs are  329 randomized atomic wfcs
     Checking if some PAW data can be deallocated... 

     total cpu time spent up to now is       13.7 secs

     per-process dynamical memory:   211.8 Mb

     Self-consistent Calculation

     iteration #  1     ecut=    40.00 Ry     beta= 0.70
     Davidson diagonalization with overlap
     ethr =  1.00E-02,  avg # of iterations =  2.0

     Threshold (ethr) on eigenvalues was too large:
     Diagonalizing with lowered threshold

     Davidson diagonalization with overlap
     ethr =  5.09E-04,  avg # of iterations =  4.2

     negative rho (up, down):  1.336E-02 0.000E+00

     total cpu time spent up to now is       47.5 secs

     total energy              =  -27774.06778159 Ry
     estimated scf accuracy    <       2.10747849 Ry

     iteration #  2     ecut=    40.00 Ry     beta= 0.70
     Davidson diagonalization with overlap
     ethr =  5.77E-04,  avg # of iterations =  2.3

     negative rho (up, down):  1.058E-02 0.000E+00

     total cpu time spent up to now is       60.3 secs

     total energy              =  -27774.28072407 Ry
     estimated scf accuracy    <       0.77803119 Ry

     iteration #  3     ecut=    40.00 Ry     beta= 0.70
     Davidson diagonalization with overlap
     ethr =  2.13E-04,  avg # of iterations =  3.2

     negative rho (up, down):  6.463E-03 0.000E+00

     total cpu time spent up to now is       75.9 secs

     total energy              =  -27774.34450478 Ry
     estimated scf accuracy    <       0.14052205 Ry

     iteration #  4     ecut=    40.00 Ry     beta= 0.70
     Davidson diagonalization with overlap
     ethr =  3.85E-05,  avg # of iterations = 10.8

     negative rho (up, down):  2.703E-03 0.000E+00

     total cpu time spent up to now is      104.9 secs

     total energy              =  -27774.39169007 Ry
     estimated scf accuracy    <       0.07128454 Ry

     iteration #  5     ecut=    40.00 Ry     beta= 0.70
     Davidson diagonalization with overlap
     ethr =  1.95E-05,  avg # of iterations =  2.0

     negative rho (up, down):  1.440E-03 0.000E+00

     total cpu time spent up to now is      117.8 secs

     total energy              =  -27774.39594522 Ry
     estimated scf accuracy    <       0.02070007 Ry

     iteration #  6     ecut=    40.00 Ry     beta= 0.70
     Davidson diagonalization with overlap
     c_bands:  1 eigenvalues not converged
     c_bands:  1 eigenvalues not converged
     ethr =  5.67E-06,  avg # of iterations = 13.7

     negative rho (up, down):  5.028E-04 0.000E+00

     total cpu time spent up to now is      141.6 secs

     total energy              =  -27774.39729409 Ry
     estimated scf accuracy    <       0.00694573 Ry

     iteration #  7     ecut=    40.00 Ry     beta= 0.70
     Davidson diagonalization with overlap
     c_bands:  1 eigenvalues not converged
     c_bands:  1 eigenvalues not converged
     c_bands:  1 eigenvalues not converged
     ethr =  1.90E-06,  avg # of iterations =  9.8

     negative rho (up, down):  2.951E-04 0.000E+00

     total cpu time spent up to now is      164.7 secs

     total energy              =  -27774.39794810 Ry
     estimated scf accuracy    <       0.00298219 Ry

     iteration #  8     ecut=    40.00 Ry     beta= 0.70
     Davidson diagonalization with overlap
     ethr =  8.17E-07,  avg # of iterations =  2.6

     negative rho (up, down):  2.156E-04 0.000E+00

     total cpu time spent up to now is      179.1 secs

     total energy              =  -27774.39823964 Ry
     estimated scf accuracy    <       0.00046242 Ry

     iteration #  9     ecut=    40.00 Ry     beta= 0.70
     Davidson diagonalization with overlap
     ethr =  1.27E-07,  avg # of iterations =  5.2

     negative rho (up, down):  1.967E-04 0.000E+00

     total cpu time spent up to now is      209.0 secs

     total energy              =  -27774.39852004 Ry
     estimated scf accuracy    <       0.00047358 Ry

     iteration # 10     ecut=    40.00 Ry     beta= 0.70
     Davidson diagonalization with overlap
     ethr =  1.27E-07,  avg # of iterations =  2.2

     negative rho (up, down):  2.509E-04 0.000E+00

     total cpu time spent up to now is      224.7 secs

     total energy              =  -27774.39856806 Ry
     estimated scf accuracy    <       0.00016692 Ry

     iteration # 11     ecut=    40.00 Ry     beta= 0.70
     Davidson diagonalization with overlap
     ethr =  4.57E-08,  avg # of iterations =  1.9

     negative rho (up, down):  4.077E-04 0.000E+00

     total cpu time spent up to now is      238.3 secs

     total energy              =  -27774.39861514 Ry
     estimated scf accuracy    <       0.00012182 Ry

     iteration # 12     ecut=    40.00 Ry     beta= 0.70
     Davidson diagonalization with overlap
     ethr =  3.34E-08,  avg # of iterations =  2.5

     negative rho (up, down):  8.257E-04 0.000E+00

     total cpu time spent up to now is      253.2 secs

     total energy              =  -27774.39866043 Ry
     estimated scf accuracy    <       0.00007824 Ry

     iteration # 13     ecut=    40.00 Ry     beta= 0.70
     Davidson diagonalization with overlap
     ethr =  2.14E-08,  avg # of iterations =  5.1

     negative rho (up, down):  1.897E-03 0.000E+00

     total cpu time spent up to now is      267.8 secs

     total energy              =  -27774.39868919 Ry
     estimated scf accuracy    <       0.00003246 Ry

     iteration # 14     ecut=    40.00 Ry     beta= 0.70
     Davidson diagonalization with overlap
     ethr =  8.89E-09,  avg # of iterations =  3.6

     negative rho (up, down):  2.474E-03 0.000E+00

     total cpu time spent up to now is      285.5 secs

     total energy              =  -27774.39869643 Ry
     estimated scf accuracy    <       0.00000814 Ry

     iteration # 15     ecut=    40.00 Ry     beta= 0.70
     Davidson diagonalization with overlap
     ethr =  2.23E-09,  avg # of iterations =  4.2

     negative rho (up, down):  2.713E-03 0.000E+00

     total cpu time spent up to now is      305.5 secs

     total energy              =  -27774.39869986 Ry
     estimated scf accuracy    <       0.00000357 Ry

     iteration # 16     ecut=    40.00 Ry     beta= 0.70
     Davidson diagonalization with overlap
     ethr =  9.79E-10,  avg # of iterations =  2.3

     negative rho (up, down):  2.767E-03 0.000E+00

     total cpu time spent up to now is      322.8 secs

     total energy              =  -27774.39870060 Ry
     estimated scf accuracy    <       0.00000226 Ry

     iteration # 17     ecut=    40.00 Ry     beta= 0.70
     Davidson diagonalization with overlap
     ethr =  6.19E-10,  avg # of iterations =  2.0

     negative rho (up, down):  3.138E-03 0.000E+00

     total cpu time spent up to now is      336.0 secs

     total energy              =  -27774.39869874 Ry
     estimated scf accuracy    <       0.00000105 Ry

     iteration # 18     ecut=    40.00 Ry     beta= 0.70
     Davidson diagonalization with overlap
     ethr =  2.88E-10,  avg # of iterations =  2.2

     negative rho (up, down):  3.232E-03 0.000E+00

     total cpu time spent up to now is      353.2 secs

     total energy              =  -27774.39869837 Ry
     estimated scf accuracy    <       0.00000025 Ry

     iteration # 19     ecut=    40.00 Ry     beta= 0.70
     Davidson diagonalization with overlap
     ethr =  6.87E-11,  avg # of iterations =  4.4

     negative rho (up, down):  3.212E-03 0.000E+00

     total cpu time spent up to now is      378.1 secs

     total energy              =  -27774.39869859 Ry
     estimated scf accuracy    <       0.00000013 Ry

     iteration # 20     ecut=    40.00 Ry     beta= 0.70
     Davidson diagonalization with overlap
     ethr =  3.47E-11,  avg # of iterations =  1.5

     negative rho (up, down):  3.226E-03 0.000E+00

     total cpu time spent up to now is      390.3 secs

     total energy              =  -27774.39869852 Ry
     estimated scf accuracy    <       0.00000006 Ry

     iteration # 21     ecut=    40.00 Ry     beta= 0.70
     Davidson diagonalization with overlap
     ethr =  1.60E-11,  avg # of iterations =  1.8

     negative rho (up, down):  3.206E-03 0.000E+00

     total cpu time spent up to now is      405.5 secs

     total energy              =  -27774.39869863 Ry
     estimated scf accuracy    <       0.00000002 Ry

     iteration # 22     ecut=    40.00 Ry     beta= 0.70
     Davidson diagonalization with overlap
     ethr =  4.82E-12,  avg # of iterations =  2.8

     negative rho (up, down):  3.196E-03 0.000E+00

     total cpu time spent up to now is      421.9 secs

     total energy              =  -27774.39869868 Ry
     estimated scf accuracy    <       0.00000002 Ry

     iteration # 23     ecut=    40.00 Ry     beta= 0.70
     Davidson diagonalization with overlap
     ethr =  4.30E-12,  avg # of iterations =  1.4

     negative rho (up, down):  3.165E-03 0.000E+00

     total cpu time spent up to now is      436.7 secs

     End of self-consistent calculation

          k = 0.0000 0.0000 0.0000 ( 42913 PWs)   bands (ev):

   -10.1436  -6.0804  -5.0991  -4.7367  -3.8804  -3.7641  -3.7152  -3.6977
    -3.6793  -3.6576  -3.6494  -3.5724  -3.4827  -3.2300  -3.1564  -3.1505
    -3.1474  -3.0671  -3.0387  -2.9620  -2.7180  -2.7167  -2.6790  -2.5670
    -2.5091  -2.5006  -2.4794  -2.4740  -2.4472  -2.3834  -2.3690  -2.3689
    -2.3003  -2.2992  -2.2465  -2.2040  -2.2009  -2.1809  -2.1654  -2.1307
    -2.1271  -1.9651  -1.7697  -1.7396  -1.6774  -1.6308  -1.6153  -1.5898
    -1.5811  -1.5763  -1.5483  -1.5182  -1.4707  -1.3757  -1.3698  -1.3061
    -1.2799  -1.2109  -0.9437  -0.9107  -0.8485  -0.8309  -0.8021  -0.7692
    -0.7495  -0.6890  -0.6876  -0.6314  -0.6208  -0.6159  -0.6057  -0.5833
    -0.5711  -0.5694  -0.5353  -0.5227  -0.5153  -0.5001  -0.4905  -0.4835
    -0.4565  -0.4349  -0.4213  -0.3929  -0.3889  -0.3069  -0.2241  -0.2238
    -0.2101  -0.1712  -0.1532  -0.1476  -0.1400  -0.1225  -0.0937  -0.0917
    -0.0804   0.0146   0.0183   0.0538   0.0669   0.0713   0.0953   0.1164
     0.1576   0.1942   0.2027   0.2398   0.2891   0.3241   0.5171   0.5533
     0.5735   0.6147   0.6808   0.6907   0.7300   0.7360   0.7605   0.7995
     0.8522   0.8587   0.9077   0.9217   0.9305   0.9483   0.9519   0.9811
     1.0463   1.1139   1.1825   1.1830   1.1998   1.2526   1.2695   1.2771
     1.3790   1.3807   1.4513   1.4593   1.4750   1.4998   1.5202   1.5402
     1.5581   1.5937   1.6270   1.6913   1.7124   1.7280   1.7512   1.7927
     1.8337   1.8869   1.9025   1.9081   1.9137   1.9194   1.9246   1.9413
     1.9501   1.9513   1.9962   2.0114   2.0225   2.0367   2.0370   2.0448
     2.1078   2.1183   2.1305   2.1374   2.1424   2.1859   2.1875   2.2201
     2.2691   2.2722   2.2810   2.2935   2.2972   2.3193   2.3543   2.3707
     2.3864   2.4070   2.4333   2.4403   2.5438   2.5517   2.6718   2.6834
     2.6897   2.7247   2.7294   2.7486   2.7529   3.0514   3.2883   3.4507
     3.5873   3.6050   3.6305   3.9125   4.4521   4.7168   5.7070   5.8858
     5.9179   5.9416   6.2957   6.3123   7.0980   7.5169   7.5282   7.5564
     7.5737   7.6162   7.7113   7.7187

          k = 0.0000 0.2309 0.0000 ( 42996 PWs)   bands (ev):

   -10.1391  -5.9409  -5.1039  -4.6059  -4.1522  -3.9000  -3.7905  -3.6051
    -3.5861  -3.5593  -3.4600  -3.4367  -3.3682  -3.2599  -3.1942  -3.1175
    -3.0826  -3.0618  -2.9547  -2.8749  -2.7544  -2.6677  -2.6294  -2.6123
    -2.5499  -2.5471  -2.5206  -2.4434  -2.4409  -2.4054  -2.3820  -2.3435
    -2.3398  -2.3289  -2.2567  -2.2416  -2.1647  -2.1461  -2.0840  -2.0216
    -1.9893  -1.9358  -1.8178  -1.7924  -1.7551  -1.7217  -1.7067  -1.6849
    -1.6259  -1.6180  -1.4675  -1.4606  -1.4598  -1.3877  -1.3491  -1.2928
    -1.2892  -1.2234  -1.0620  -1.0008  -0.9882  -0.9707  -0.9596  -0.9119
    -0.8671  -0.8402  -0.8141  -0.7824  -0.7674  -0.7158  -0.6856  -0.6689
    -0.6407  -0.6208  -0.6066  -0.5204  -0.4950  -0.4892  -0.4487  -0.4324
    -0.4094  -0.3829  -0.3728  -0.3721  -0.3355  -0.2619  -0.2521  -0.2329
    -0.2007  -0.1958  -0.1798  -0.1750  -0.1491  -0.1137  -0.1119  -0.0837
    -0.0471  -0.0466  -0.0016   0.0009   0.0129   0.0710   0.0770   0.0969
     0.1225   0.2006   0.2260   0.2440   0.2596   0.2778   0.3073   0.3119
     0.3229   0.4237   0.4491   0.5149   0.5853   0.6808   0.6856   0.7286
     0.7566   0.7575   0.7738   0.7925   0.9258   0.9689   1.0142   1.0314
     1.0624   1.0669   1.0932   1.1156   1.1608   1.1652   1.1905   1.2477
     1.3250   1.3309   1.3491   1.3666   1.4048   1.4636   1.4762   1.5054
     1.5226   1.5748   1.5800   1.6360   1.6826   1.6990   1.7184   1.7374
     1.7482   1.7954   1.8345   1.8655   1.8823   1.9133   1.9215   1.9660
     1.9759   2.0469   2.0666   2.0929   2.0961   2.1486   2.1974   2.2170
     2.2426   2.2670   2.2711   2.2955   2.3439   2.3523   2.3657   2.3685
     2.3981   2.4089   2.4574   2.4594   2.5073   2.5573   2.5792   2.6093
     2.6378   2.6414   2.6568   2.6959   2.6977   2.7214   2.7786   2.7954
     2.8529   2.8701   2.9490   2.9971   3.0220   3.2360   3.2852   3.4293
     3.6278   3.9901   4.2302   4.3116   4.6341   4.8029   5.4116   5.6492
     5.8684   6.1879   6.3751   6.5128   6.6416   6.6889   7.2640   7.3693
     7.4785   7.6954   7.7813   7.8165

          k = 0.0000 0.4619 0.0000 ( 43046 PWs)   bands (ev):

   -10.1318  -5.5557  -5.1400  -4.7881  -4.2168  -3.9070  -3.8242  -3.6928
    -3.4444  -3.4299  -3.3059  -3.2125  -3.1744  -3.1016  -3.0828  -2.9922
    -2.9258  -2.9004  -2.8738  -2.8021  -2.7803  -2.7257  -2.7028  -2.7020
    -2.6479  -2.6289  -2.6160  -2.5929  -2.5156  -2.5085  -2.3337  -2.3256
    -2.2839  -2.2811  -2.2535  -2.1760  -2.1545  -2.1030  -2.0376  -2.0248
    -1.9916  -1.9262  -1.8723  -1.8150  -1.7698  -1.7215  -1.6877  -1.6603
    -1.5886  -1.5813  -1.5683  -1.5252  -1.5247  -1.5111  -1.4001  -1.3611
    -1.3370  -1.2515  -1.2408  -1.1908  -1.1720  -1.1281  -1.1254  -1.0431
    -1.0041  -0.9531  -0.9020  -0.8918  -0.8191  -0.8031  -0.8016  -0.7839
    -0.7301  -0.6432  -0.6254  -0.6224  -0.5770  -0.5722  -0.5197  -0.4984
    -0.4933  -0.4442  -0.4422  -0.4276  -0.3990  -0.3762  -0.3662  -0.3334
    -0.3214  -0.2628  -0.2619  -0.2185  -0.1956  -0.1890  -0.1641  -0.1481
    -0.0917  -0.0536  -0.0101  -0.0002   0.0384   0.0707   0.0735   0.0964
     0.1298   0.1805   0.2098   0.2430   0.2525   0.2902   0.3059   0.4061
     0.4346   0.4471   0.5232   0.5463   0.5671   0.6044   0.6238   0.6477
     0.6547   0.7038   0.7048   0.7504   0.7756   0.7758   0.8092   0.8401
     0.8583   0.9236   0.9568   0.9747   1.0284   1.0430   1.1073   1.1117
     1.2590   1.2611   1.2960   1.3298   1.3474   1.4133   1.4502   1.4780
     1.5436   1.5821   1.5903   1.5998   1.6253   1.6361   1.6673   1.6893
     1.7440   1.7869   1.7889   1.8235   1.8725   1.8959   1.9343   1.9400
     2.0157   2.0406   2.1039   2.1148   2.1568   2.1977   2.2660   2.2718
     2.3097   2.3136   2.3504   2.3950   2.4166   2.4421   2.4875   2.4905
     2.5489   2.5881   2.5987   2.6011   2.6088   2.6526   2.6785   2.7027
     2.7816   2.8349   2.8618   2.8658   2.8693   2.9566   3.1007   3.1883
     3.2845   3.4192   3.5397   3.8548   3.8747   4.0378   4.1230   4.2168
     4.5092   4.6184   4.7156   4.8376   5.1466   5.1804   5.3010   5.4033
     5.4680   5.5722   5.6529   5.9764   6.1712   6.3230   6.5695   6.9735
     7.0201   7.4767   7.5417   7.7264

          k = 0.2000-0.1155 0.0000 ( 42996 PWs)   bands (ev):

   -10.1398  -5.9379  -5.0630  -4.6228  -4.2207  -3.8649  -3.7820  -3.6595
    -3.5823  -3.5177  -3.4770  -3.4290  -3.3847  -3.2442  -3.2309  -3.0937
    -3.0822  -3.0327  -2.9874  -2.9060  -2.7390  -2.6755  -2.6318  -2.6154
    -2.5537  -2.5394  -2.5106  -2.4608  -2.4396  -2.4042  -2.3769  -2.3477
    -2.3302  -2.3160  -2.2623  -2.2444  -2.1770  -2.1330  -2.0585  -2.0294
    -1.9973  -1.9101  -1.8108  -1.7731  -1.7642  -1.7173  -1.6983  -1.6672
    -1.6348  -1.6024  -1.5320  -1.4602  -1.4227  -1.3781  -1.3462  -1.3038
    -1.2919  -1.2099  -1.0509  -1.0049  -0.9757  -0.9638  -0.9217  -0.8954
    -0.8748  -0.8524  -0.8200  -0.8012  -0.7545  -0.7133  -0.6818  -0.6506
    -0.6380  -0.6117  -0.5823  -0.5624  -0.5323  -0.5055  -0.4367  -0.4205
    -0.4120  -0.3757  -0.3684  -0.3440  -0.3198  -0.2794  -0.2567  -0.2384
    -0.2172  -0.1883  -0.1849  -0.1740  -0.1472  -0.1281  -0.0913  -0.0651
    -0.0540  -0.0439  -0.0191   0.0073   0.0189   0.0381   0.0709   0.0926
     0.1234   0.1816   0.2091   0.2405   0.2528   0.2752   0.3093   0.3146
     0.3256   0.4071   0.4526   0.5765   0.5967   0.6619   0.6941   0.7118
     0.7349   0.7667   0.7832   0.8127   0.9107   0.9650   0.9958   1.0236
     1.0550   1.0705   1.0976   1.1071   1.1556   1.1737   1.1848   1.2075
     1.3110   1.3288   1.3492   1.3621   1.3703   1.4453   1.4729   1.5059
     1.5355   1.5435   1.5988   1.6278   1.6844   1.7058   1.7172   1.7442
     1.7587   1.7919   1.8389   1.8697   1.8977   1.9149   1.9331   1.9692
     1.9866   2.0406   2.0537   2.0973   2.1032   2.1526   2.2027   2.2137
     2.2415   2.2569   2.2725   2.2827   2.3343   2.3519   2.3603   2.3714
     2.3975   2.4051   2.4401   2.4523   2.5013   2.5377   2.5817   2.6053
     2.6424   2.6531   2.6693   2.7048   2.7170   2.7365   2.7908   2.8012
     2.8528   2.9052   2.9728   2.9965   3.0323   3.1651   3.2747   3.4946
     3.7274   3.9290   4.2402   4.3243   4.5679   4.7875   5.3836   5.7135
     5.8735   6.2088   6.3578   6.5394   6.6274   6.6928   7.2676   7.3401
     7.4566   7.6961   7.7602   7.8002

          k = 0.2000 0.1155 0.0000 ( 42996 PWs)   bands (ev):

   -10.1398  -5.9379  -5.0630  -4.6228  -4.2207  -3.8649  -3.7820  -3.6595
    -3.5823  -3.5177  -3.4770  -3.4290  -3.3847  -3.2442  -3.2309  -3.0937
    -3.0822  -3.0327  -2.9874  -2.9060  -2.7390  -2.6755  -2.6318  -2.6154
    -2.5537  -2.5394  -2.5106  -2.4609  -2.4396  -2.4043  -2.3769  -2.3477
    -2.3302  -2.3160  -2.2623  -2.2444  -2.1770  -2.1330  -2.0585  -2.0294
    -1.9973  -1.9101  -1.8108  -1.7731  -1.7642  -1.7173  -1.6984  -1.6672
    -1.6348  -1.6024  -1.5320  -1.4602  -1.4227  -1.3781  -1.3462  -1.3038
    -1.2919  -1.2099  -1.0509  -1.0049  -0.9758  -0.9638  -0.9217  -0.8954
    -0.8748  -0.8524  -0.8200  -0.8012  -0.7545  -0.7133  -0.6818  -0.6506
    -0.6380  -0.6117  -0.5823  -0.5624  -0.5323  -0.5055  -0.4368  -0.4205
    -0.4120  -0.3757  -0.3684  -0.3440  -0.3198  -0.2794  -0.2567  -0.2384
    -0.2172  -0.1884  -0.1849  -0.1740  -0.1472  -0.1281  -0.0913  -0.0651
    -0.0540  -0.0439  -0.0191   0.0073   0.0189   0.0381   0.0709   0.0926
     0.1234   0.1816   0.2091   0.2405   0.2528   0.2752   0.3093   0.3146
     0.3256   0.4070   0.4526   0.5765   0.5967   0.6619   0.6941   0.7118
     0.7349   0.7667   0.7832   0.8127   0.9107   0.9650   0.9958   1.0236
     1.0550   1.0705   1.0976   1.1071   1.1556   1.1737   1.1848   1.2075
     1.3110   1.3289   1.3492   1.3621   1.3703   1.4453   1.4729   1.5059
     1.5355   1.5435   1.5988   1.6278   1.6844   1.7058   1.7172   1.7442
     1.7587   1.7919   1.8389   1.8697   1.8977   1.9149   1.9331   1.9692
     1.9866   2.0406   2.0537   2.0973   2.1031   2.1526   2.2027   2.2137
     2.2415   2.2569   2.2725   2.2827   2.3343   2.3519   2.3603   2.3714
     2.3975   2.4051   2.4401   2.4523   2.5013   2.5377   2.5817   2.6053
     2.6424   2.6531   2.6693   2.7048   2.7170   2.7365   2.7908   2.8012
     2.8528   2.9052   2.9728   2.9965   3.0323   3.1651   3.2747   3.4946
     3.7274   3.9290   4.2402   4.3243   4.5679   4.7875   5.3836   5.7135
     5.8735   6.2088   6.3578   6.5394   6.6274   6.6928   7.2676   7.3401
     7.4567   7.6961   7.7602   7.8000

          k = 0.2000 0.3464 0.0000 ( 43046 PWs)   bands (ev):

   -10.1339  -5.6707  -5.0718  -4.4762  -4.4134  -4.3128  -3.6651  -3.4456
    -3.3780  -3.3602  -3.3296  -3.3121  -3.2795  -3.2247  -3.2023  -3.1415
    -3.0909  -2.9015  -2.8012  -2.7823  -2.7648  -2.7497  -2.6877  -2.6396
    -2.5915  -2.5838  -2.5237  -2.4829  -2.4570  -2.4482  -2.4129  -2.3739
    -2.3488  -2.3026  -2.2723  -2.2446  -2.1964  -2.1467  -2.1251  -1.9585
    -1.9158  -1.8418  -1.8223  -1.7847  -1.7659  -1.7324  -1.7150  -1.6581
    -1.6221  -1.5791  -1.5532  -1.5034  -1.4678  -1.4155  -1.3633  -1.3312
    -1.2989  -1.2786  -1.2277  -1.1556  -1.1100  -1.0922  -1.0495  -1.0130
    -0.9796  -0.9303  -0.9141  -0.8966  -0.8687  -0.8183  -0.7461  -0.7260
    -0.6974  -0.6778  -0.6608  -0.6326  -0.5812  -0.5479  -0.5004  -0.4806
    -0.4432  -0.4303  -0.4133  -0.3816  -0.3639  -0.3460  -0.3066  -0.2988
    -0.2732  -0.2595  -0.2291  -0.1964  -0.1609  -0.1413  -0.1277  -0.0943
    -0.0869  -0.0479  -0.0215  -0.0040   0.0126   0.0292   0.0457   0.0512
     0.0794   0.1034   0.1244   0.1613   0.2082   0.2490   0.2983   0.3354
     0.3551   0.3844   0.4246   0.4999   0.5584   0.5966   0.6078   0.6548
     0.7142   0.7392   0.7531   0.7770   0.8094   0.8421   0.8766   0.8992
     0.9146   0.9507   0.9925   1.0637   1.0826   1.1265   1.1501   1.1887
     1.2490   1.2867   1.3172   1.3335   1.3617   1.3749   1.4330   1.4499
     1.4941   1.5161   1.5678   1.5912   1.6418   1.6672   1.6826   1.7063
     1.7228   1.7291   1.7573   1.7729   1.8062   1.8809   1.9317   1.9872
     2.0109   2.0740   2.1327   2.2169   2.2248   2.2580   2.2711   2.3099
     2.3678   2.3929   2.4048   2.4339   2.4403   2.4561   2.4720   2.4920
     2.5150   2.5284   2.5886   2.5982   2.6171   2.6248   2.6827   2.6866
     2.7354   2.7949   2.8482   2.8806   2.9179   2.9453   2.9863   3.0090
     3.1017   3.1334   3.3651   3.5468   3.6790   3.8386   3.9070   4.1509
     4.1924   4.2873   4.6789   4.8640   5.0392   5.0992   5.1714   5.3088
     5.4094   6.0122   6.2065   6.3722   6.4512   6.6590   6.8426   7.0719
     7.1373   7.1921   7.2490   7.5385

          k = 0.2000-0.5774 0.0000 ( 43014 PWs)   bands (ev):

   -10.1302  -5.3001  -5.1206  -4.8728  -4.5372  -3.9394  -3.8463  -3.5740
    -3.3405  -3.2731  -3.2236  -3.1732  -3.0811  -3.0655  -3.0544  -2.9574
    -2.9366  -2.8596  -2.8443  -2.8331  -2.8051  -2.7733  -2.7391  -2.6946
    -2.6404  -2.6272  -2.6020  -2.5921  -2.5582  -2.5159  -2.3945  -2.3781
    -2.3491  -2.3008  -2.2527  -2.2308  -2.1906  -2.1712  -2.0639  -2.0362
    -2.0036  -1.8716  -1.8161  -1.8050  -1.7537  -1.7167  -1.7124  -1.6404
    -1.5688  -1.5108  -1.4793  -1.4285  -1.4084  -1.3833  -1.3678  -1.3343
    -1.3150  -1.2597  -1.2540  -1.2199  -1.2001  -1.1542  -1.1359  -1.1262
    -1.0726  -1.0447  -1.0151  -0.9444  -0.9042  -0.8774  -0.8303  -0.7951
    -0.7637  -0.7329  -0.7244  -0.6898  -0.6786  -0.6559  -0.5904  -0.5585
    -0.5446  -0.5062  -0.4974  -0.4743  -0.3977  -0.3638  -0.3385  -0.3328
    -0.3014  -0.2383  -0.2241  -0.1969  -0.1639  -0.1194  -0.1067  -0.0798
    -0.0593  -0.0495  -0.0252  -0.0020   0.0069   0.0118   0.0556   0.0879
     0.0930   0.1055   0.1260   0.1385   0.1667   0.1771   0.1996   0.3141
     0.3641   0.4221   0.4470   0.5221   0.5587   0.5770   0.5976   0.6456
     0.6546   0.6992   0.7078   0.7267   0.7677   0.7856   0.8129   0.8440
     0.9380   0.9589   0.9700   0.9915   1.0269   1.1053   1.1207   1.1673
     1.2207   1.2590   1.3015   1.3133   1.3463   1.3905   1.3975   1.4039
     1.4312   1.4893   1.5169   1.5251   1.5512   1.6057   1.6201   1.6701
     1.6984   1.7197   1.7866   1.8279   1.9083   1.9500   1.9735   2.0455
     2.0698   2.0922   2.1455   2.1656   2.2039   2.2320   2.2837   2.3472
     2.3824   2.3894   2.4391   2.4514   2.4698   2.5110   2.5157   2.5638
     2.5820   2.5965   2.6072   2.6587   2.6820   2.7285   2.7551   2.7751
     2.8095   2.8641   2.8787   2.8839   2.9387   2.9843   3.0104   3.1185
     3.4207   3.7916   3.9837   4.0431   4.1894   4.3076   4.3318   4.3800
     4.5331   4.7357   4.8281   5.0454   5.1433   5.1605   5.4993   5.5509
     5.7043   5.7573   5.8343   5.9411   6.1127   6.2240   6.3986   6.4522
     6.7024   7.0438   7.1315   7.2041

          k = 0.2000-0.3464 0.0000 ( 43046 PWs)   bands (ev):

   -10.1339  -5.6707  -5.0718  -4.4762  -4.4134  -4.3128  -3.6651  -3.4456
    -3.3780  -3.3602  -3.3296  -3.3122  -3.2795  -3.2247  -3.2023  -3.1415
    -3.0908  -2.9015  -2.8012  -2.7823  -2.7647  -2.7497  -2.6877  -2.6396
    -2.5915  -2.5838  -2.5237  -2.4829  -2.4570  -2.4482  -2.4129  -2.3739
    -2.3488  -2.3026  -2.2722  -2.2446  -2.1964  -2.1467  -2.1251  -1.9585
    -1.9158  -1.8418  -1.8223  -1.7847  -1.7659  -1.7324  -1.7150  -1.6581
    -1.6221  -1.5791  -1.5532  -1.5034  -1.4678  -1.4155  -1.3633  -1.3312
    -1.2989  -1.2786  -1.2277  -1.1556  -1.1100  -1.0922  -1.0495  -1.0130
    -0.9796  -0.9303  -0.9141  -0.8966  -0.8687  -0.8183  -0.7461  -0.7260
    -0.6974  -0.6778  -0.6608  -0.6326  -0.5812  -0.5479  -0.5004  -0.4806
    -0.4432  -0.4303  -0.4133  -0.3816  -0.3639  -0.3461  -0.3066  -0.2988
    -0.2733  -0.2595  -0.2291  -0.1964  -0.1609  -0.1413  -0.1277  -0.0943
    -0.0869  -0.0479  -0.0215  -0.0040   0.0126   0.0292   0.0457   0.0512
     0.0794   0.1034   0.1244   0.1613   0.2082   0.2490   0.2983   0.3354
     0.3551   0.3844   0.4246   0.4999   0.5584   0.5966   0.6078   0.6548
     0.7142   0.7392   0.7531   0.7770   0.8094   0.8421   0.8766   0.8992
     0.9146   0.9507   0.9925   1.0638   1.0826   1.1265   1.1502   1.1887
     1.2490   1.2867   1.3172   1.3335   1.3617   1.3749   1.4330   1.4499
     1.4941   1.5161   1.5678   1.5912   1.6418   1.6672   1.6826   1.7063
     1.7228   1.7291   1.7573   1.7729   1.8062   1.8809   1.9317   1.9872
     2.0109   2.0740   2.1327   2.2169   2.2248   2.2580   2.2711   2.3099
     2.3678   2.3929   2.4048   2.4339   2.4403   2.4561   2.4720   2.4920
     2.5150   2.5284   2.5886   2.5982   2.6171   2.6248   2.6827   2.6866
     2.7354   2.7950   2.8482   2.8806   2.9179   2.9453   2.9863   3.0090
     3.1017   3.1334   3.3651   3.5468   3.6790   3.8386   3.9070   4.1509
     4.1924   4.2873   4.6789   4.8640   5.0392   5.0992   5.1714   5.3088
     5.4094   6.0122   6.2065   6.3722   6.4513   6.6590   6.8426   7.0719
     7.1373   7.1921   7.2490   7.5413

          k = 0.4000-0.2309 0.0000 ( 43046 PWs)   bands (ev):

   -10.1335  -5.5310  -5.0278  -4.8719  -4.2875  -3.9070  -3.8107  -3.7517
    -3.4983  -3.4196  -3.3054  -3.2013  -3.1894  -3.1021  -3.0673  -3.0148
    -2.9249  -2.9011  -2.8675  -2.8388  -2.7980  -2.7571  -2.6984  -2.6931
    -2.6593  -2.6478  -2.6159  -2.5939  -2.5231  -2.4964  -2.3234  -2.3154
    -2.2762  -2.2553  -2.1997  -2.1678  -2.0899  -2.0466  -2.0332  -2.0249
    -1.9687  -1.9394  -1.8461  -1.7899  -1.7538  -1.7277  -1.6970  -1.6470
    -1.6159  -1.5838  -1.5491  -1.5286  -1.5222  -1.5000  -1.4040  -1.3567
    -1.3348  -1.2999  -1.2131  -1.1675  -1.1449  -1.1252  -1.1041  -1.0292
    -0.9813  -0.9442  -0.9196  -0.8840  -0.8413  -0.8306  -0.7965  -0.7680
    -0.7149  -0.6782  -0.6377  -0.6263  -0.5774  -0.5747  -0.5111  -0.4969
    -0.4683  -0.4496  -0.4272  -0.4214  -0.3897  -0.3791  -0.3564  -0.3377
    -0.3220  -0.2885  -0.2420  -0.2189  -0.2009  -0.1769  -0.1661  -0.1298
    -0.0839  -0.0574  -0.0257   0.0039   0.0161   0.0245   0.0733   0.0910
     0.1247   0.1582   0.1897   0.2346   0.2472   0.2815   0.2962   0.3481
     0.4001   0.4632   0.4953   0.5394   0.5773   0.6004   0.6367   0.6489
     0.6938   0.7052   0.7525   0.7631   0.7871   0.7928   0.8066   0.8119
     0.8435   0.9231   0.9603   0.9759   1.0079   1.0366   1.0698   1.1470
     1.1878   1.2510   1.2785   1.3171   1.3529   1.4057   1.4275   1.5007
     1.5296   1.5575   1.5868   1.6005   1.6175   1.6363   1.6736   1.6889
     1.7409   1.7929   1.8142   1.8284   1.8743   1.8853   1.9046   1.9341
     2.0302   2.0558   2.1015   2.1160   2.1648   2.2412   2.2643   2.2747
     2.2872   2.3149   2.3306   2.3911   2.4169   2.4270   2.4562   2.4774
     2.5453   2.5867   2.5926   2.6088   2.6208   2.6722   2.6956   2.6996
     2.7951   2.8517   2.8632   2.8819   2.8964   2.9574   3.0979   3.1245
     3.2769   3.4777   3.6112   3.8503   3.8856   4.0301   4.1142   4.2884
     4.4808   4.5560   4.7476   4.9122   5.1387   5.2103   5.2984   5.3680
     5.4383   5.6050   5.6643   6.0256   6.1274   6.3704   6.5483   6.9018
     7.0015   7.4773   7.5301   7.6587

          k = 0.4000-0.0000 0.0000 ( 43046 PWs)   bands (ev):

   -10.1349  -5.6582  -5.0187  -4.5028  -4.4375  -4.3387  -3.7092  -3.4118
    -3.3786  -3.3671  -3.3611  -3.3147  -3.2685  -3.2297  -3.1992  -3.1923
    -3.0426  -2.9105  -2.8224  -2.7878  -2.7729  -2.7462  -2.6812  -2.6789
    -2.5944  -2.5826  -2.5088  -2.4701  -2.4572  -2.4273  -2.4055  -2.3735
    -2.3380  -2.3071  -2.2934  -2.2490  -2.1972  -2.1472  -2.0577  -1.9390
    -1.8870  -1.8513  -1.8313  -1.7804  -1.7602  -1.7445  -1.6888  -1.6385
    -1.6243  -1.5605  -1.5502  -1.5043  -1.4576  -1.4219  -1.3575  -1.3269
    -1.3220  -1.2603  -1.2458  -1.1850  -1.1097  -1.0743  -1.0211  -0.9712
    -0.9487  -0.9296  -0.9104  -0.8781  -0.8502  -0.8261  -0.7293  -0.7217
    -0.7151  -0.6973  -0.6824  -0.6315  -0.5758  -0.5416  -0.5064  -0.4917
    -0.4374  -0.4110  -0.3978  -0.3884  -0.3758  -0.3368  -0.3200  -0.3069
    -0.2952  -0.2627  -0.2397  -0.2080  -0.1816  -0.1567  -0.1104  -0.1009
    -0.0879  -0.0515  -0.0294  -0.0153   0.0088   0.0266   0.0424   0.0522
     0.0776   0.0959   0.1123   0.1715   0.2126   0.2474   0.2993   0.3311
     0.3636   0.4011   0.4260   0.4808   0.5341   0.5844   0.6204   0.6587
     0.6886   0.7262   0.7467   0.7889   0.8168   0.8493   0.8747   0.8971
     0.9253   0.9833   1.0037   1.0265   1.0670   1.1207   1.1400   1.1842
     1.2473   1.2705   1.2989   1.3363   1.3557   1.3761   1.3956   1.4424
     1.4745   1.4992   1.5839   1.6104   1.6470   1.6660   1.6857   1.7181
     1.7234   1.7307   1.7580   1.7751   1.8268   1.8819   1.9367   1.9745
     2.0421   2.0737   2.1007   2.2138   2.2213   2.2614   2.2845   2.2978
     2.3566   2.3947   2.4100   2.4200   2.4421   2.4502   2.4611   2.4876
     2.5107   2.5291   2.5927   2.6053   2.6146   2.6292   2.6730   2.6901
     2.7324   2.8232   2.8671   2.8900   2.9351   2.9763   2.9974   3.0129
     3.1092   3.1217   3.3235   3.6060   3.6764   3.7131   3.9419   4.1954
     4.2068   4.3897   4.6189   4.8721   5.0596   5.1262   5.1782   5.2178
     5.4222   6.0510   6.2366   6.3664   6.4750   6.6495   6.8899   6.9500
     7.1311   7.1998   7.2643   7.5219

          k = 0.4000 0.2309 0.0000 ( 43046 PWs)   bands (ev):

   -10.1335  -5.5310  -5.0278  -4.8719  -4.2875  -3.9070  -3.8107  -3.7517
    -3.4983  -3.4196  -3.3054  -3.2013  -3.1894  -3.1021  -3.0673  -3.0148
    -2.9249  -2.9011  -2.8675  -2.8388  -2.7980  -2.7571  -2.6984  -2.6931
    -2.6594  -2.6478  -2.6159  -2.5939  -2.5231  -2.4964  -2.3234  -2.3154
    -2.2762  -2.2553  -2.1997  -2.1678  -2.0899  -2.0466  -2.0332  -2.0250
    -1.9687  -1.9394  -1.8461  -1.7899  -1.7538  -1.7277  -1.6970  -1.6470
    -1.6159  -1.5838  -1.5491  -1.5286  -1.5222  -1.4999  -1.4040  -1.3567
    -1.3348  -1.2999  -1.2131  -1.1675  -1.1449  -1.1252  -1.1041  -1.0292
    -0.9813  -0.9442  -0.9196  -0.8840  -0.8413  -0.8306  -0.7965  -0.7680
    -0.7149  -0.6782  -0.6377  -0.6263  -0.5774  -0.5747  -0.5111  -0.4968
    -0.4683  -0.4496  -0.4272  -0.4214  -0.3897  -0.3791  -0.3564  -0.3377
    -0.3220  -0.2885  -0.2420  -0.2189  -0.2009  -0.1769  -0.1661  -0.1298
    -0.0840  -0.0574  -0.0257   0.0039   0.0161   0.0245   0.0733   0.0910
     0.1247   0.1582   0.1897   0.2346   0.2472   0.2815   0.2962   0.3481
     0.4001   0.4632   0.4953   0.5394   0.5773   0.6004   0.6367   0.6489
     0.6938   0.7052   0.7525   0.7631   0.7871   0.7928   0.8066   0.8119
     0.8435   0.9231   0.9603   0.9760   1.0079   1.0366   1.0698   1.1470
     1.1878   1.2510   1.2785   1.3171   1.3529   1.4057   1.4275   1.5007
     1.5296   1.5575   1.5868   1.6005   1.6175   1.6363   1.6736   1.6889
     1.7409   1.7929   1.8142   1.8284   1.8743   1.8853   1.9046   1.9341
     2.0302   2.0558   2.1015   2.1160   2.1648   2.2412   2.2643   2.2747
     2.2872   2.3149   2.3306   2.3911   2.4169   2.4270   2.4562   2.4774
     2.5453   2.5867   2.5926   2.6088   2.6208   2.6722   2.6956   2.6996
     2.7951   2.8517   2.8632   2.8819   2.8964   2.9575   3.0979   3.1245
     3.2769   3.4777   3.6112   3.8503   3.8856   4.0300   4.1142   4.2884
     4.4808   4.5560   4.7476   4.9122   5.1387   5.2103   5.2984   5.3680
     5.4383   5.6050   5.6643   6.0256   6.1274   6.3704   6.5483   6.9018
     7.0015   7.4773   7.5301   7.6587

          k = 0.4000-0.6928 0.0000 ( 43014 PWs)   bands (ev):

   -10.1312  -5.2155  -5.1189  -4.9573  -4.4863  -4.0461  -3.8570  -3.5167
    -3.3656  -3.3353  -3.2243  -3.1593  -3.0902  -3.0683  -3.0325  -2.9660
    -2.9143  -2.8702  -2.8611  -2.8285  -2.8117  -2.7746  -2.7574  -2.7200
    -2.6435  -2.6302  -2.6262  -2.5988  -2.5456  -2.5032  -2.3822  -2.3574
    -2.3488  -2.2885  -2.2297  -2.2094  -2.1860  -2.1102  -2.0370  -2.0173
    -2.0138  -1.8587  -1.8287  -1.8076  -1.7517  -1.7131  -1.6934  -1.6443
    -1.5703  -1.5177  -1.4875  -1.4629  -1.4253  -1.3800  -1.3322  -1.3164
    -1.3008  -1.2623  -1.2420  -1.2181  -1.1638  -1.1602  -1.1341  -1.1121
    -1.0840  -1.0492  -1.0005  -0.9308  -0.9178  -0.8978  -0.8397  -0.7828
    -0.7641  -0.7374  -0.7199  -0.6960  -0.6719  -0.6347  -0.5911  -0.5739
    -0.5518  -0.5078  -0.4934  -0.4618  -0.4011  -0.3508  -0.3426  -0.3307
    -0.3039  -0.2640  -0.2122  -0.1762  -0.1648  -0.1380  -0.1146  -0.0881
    -0.0667  -0.0545  -0.0413  -0.0166  -0.0033   0.0246   0.0498   0.0851
     0.0873   0.1022   0.1208   0.1350   0.1537   0.1757   0.2149   0.3103
     0.3755   0.3956   0.4362   0.4965   0.5520   0.5697   0.5964   0.6491
     0.6661   0.6908   0.7249   0.7423   0.7564   0.7859   0.8227   0.8482
     0.9242   0.9690   0.9746   0.9852   1.0294   1.0823   1.1398   1.1585
     1.2091   1.2614   1.2981   1.3154   1.3552   1.3787   1.3928   1.4074
     1.4328   1.4918   1.5146   1.5334   1.5641   1.6114   1.6189   1.6442
     1.6864   1.7205   1.7604   1.8023   1.8984   1.9300   1.9792   2.0528
     2.0782   2.1076   2.1385   2.1712   2.2263   2.2416   2.2833   2.3300
     2.3583   2.3884   2.4391   2.4447   2.4626   2.5165   2.5442   2.5569
     2.5843   2.5935   2.6162   2.6538   2.6667   2.7120   2.7540   2.7792
     2.8070   2.8764   2.8888   2.9152   2.9449   2.9895   3.0429   3.1475
     3.4011   3.7230   4.0013   4.0492   4.2065   4.3062   4.3220   4.3785
     4.5516   4.7219   4.8880   5.0820   5.1449   5.1888   5.4728   5.5457
     5.6954   5.7763   5.8932   5.9424   6.1082   6.1839   6.3899   6.4300
     6.7298   7.0130   7.0858   7.1841

          k = 0.4000-0.4619 0.0000 ( 43014 PWs)   bands (ev):

   -10.1312  -5.2155  -5.1189  -4.9573  -4.4863  -4.0461  -3.8570  -3.5167
    -3.3656  -3.3353  -3.2243  -3.1593  -3.0902  -3.0683  -3.0325  -2.9660
    -2.9143  -2.8702  -2.8611  -2.8286  -2.8117  -2.7746  -2.7574  -2.7200
    -2.6435  -2.6302  -2.6262  -2.5988  -2.5456  -2.5032  -2.3822  -2.3574
    -2.3488  -2.2885  -2.2297  -2.2094  -2.1860  -2.1103  -2.0370  -2.0173
    -2.0138  -1.8587  -1.8287  -1.8076  -1.7517  -1.7131  -1.6934  -1.6443
    -1.5703  -1.5178  -1.4875  -1.4629  -1.4253  -1.3800  -1.3322  -1.3164
    -1.3008  -1.2623  -1.2420  -1.2181  -1.1638  -1.1602  -1.1341  -1.1121
    -1.0840  -1.0492  -1.0005  -0.9308  -0.9178  -0.8978  -0.8397  -0.7828
    -0.7641  -0.7374  -0.7199  -0.6960  -0.6718  -0.6347  -0.5911  -0.5739
    -0.5518  -0.5078  -0.4934  -0.4618  -0.4011  -0.3508  -0.3426  -0.3308
    -0.3039  -0.2640  -0.2122  -0.1762  -0.1648  -0.1380  -0.1146  -0.0881
    -0.0667  -0.0545  -0.0413  -0.0166  -0.0033   0.0246   0.0499   0.0851
     0.0873   0.1022   0.1208   0.1350   0.1537   0.1757   0.2149   0.3103
     0.3755   0.3956   0.4362   0.4965   0.5520   0.5696   0.5964   0.6491
     0.6661   0.6908   0.7249   0.7423   0.7564   0.7859   0.8227   0.8482
     0.9242   0.9690   0.9746   0.9852   1.0294   1.0823   1.1398   1.1585
     1.2092   1.2614   1.2981   1.3154   1.3552   1.3787   1.3928   1.4074
     1.4328   1.4918   1.5146   1.5334   1.5641   1.6114   1.6189   1.6442
     1.6864   1.7205   1.7604   1.8023   1.8984   1.9300   1.9792   2.0528
     2.0782   2.1076   2.1385   2.1712   2.2263   2.2416   2.2833   2.3300
     2.3583   2.3884   2.4391   2.4447   2.4626   2.5164   2.5442   2.5569
     2.5843   2.5935   2.6162   2.6538   2.6667   2.7120   2.7540   2.7792
     2.8070   2.8764   2.8888   2.9152   2.9449   2.9895   3.0429   3.1475
     3.4011   3.7230   4.0013   4.0492   4.2065   4.3062   4.3220   4.3785
     4.5516   4.7219   4.8881   5.0820   5.1449   5.1888   5.4729   5.5457
     5.6955   5.7763   5.8932   5.9424   6.1082   6.1839   6.3899   6.4300
     6.7298   7.0130   7.0857   7.1840

     the Fermi energy is     2.6568 ev

!    total energy              =  -27774.39869884 Ry
     total all-electron energy =  -1326718.928213 Ry
     estimated scf accuracy    <          8.3E-09 Ry
     smearing contrib. (-TS)   =      -0.00009460 Ry
     internal energy E=F+TS    =  -27774.39860424 Ry

     The total energy is F=E-TS. E is the sum of the following terms:
     one-electron contribution =  -20733.82729910 Ry
     hartree contribution      =   10677.26455002 Ry
     xc contribution           =    -895.54969471 Ry
     ewald contribution        =    8658.30015088 Ry
     one-center paw contrib.   =  -25480.58631133 Ry

     convergence has been achieved in  23 iterations

     negative rho (up, down):  3.165E-03 0.000E+00

     Forces acting on atoms (cartesian axes, Ry/au):

     atom    1 type  1   force =    -0.00019940   -0.00076769   -0.00369350
     atom    2 type  1   force =     0.00020073   -0.00077061   -0.00369506
     atom    3 type  1   force =    -0.00000123   -0.00283747   -0.00831240
     atom    4 type  1   force =    -0.00000190   -0.00073963   -0.00324366
     atom    5 type  1   force =     0.00054266   -0.00119017   -0.00630705
     atom    6 type  1   force =    -0.00054050   -0.00118760   -0.00630590
     atom    7 type  1   force =    -0.00107331    0.00041659   -0.00723868
     atom    8 type  1   force =     0.00000336   -0.00118814   -0.00621284
     atom    9 type  1   force =     0.00107043    0.00041616   -0.00723776
     atom   10 type  1   force =    -0.00000191    0.00185208    0.01480407
     atom   11 type  1   force =     0.00084903   -0.00152126    0.00498558
     atom   12 type  1   force =    -0.00084769   -0.00151933    0.00498527
     atom   13 type  1   force =    -0.00167501    0.00116145    0.00584445
     atom   14 type  1   force =     0.00000415    0.00130374   -0.00079781
     atom   15 type  1   force =     0.00167050    0.00116282    0.00584379
     atom   16 type  1   force =    -0.00172245    0.00201904    0.00398914
     atom   17 type  1   force =     0.00172413    0.00201411    0.00399085
     atom   18 type  1   force =    -0.00000245   -0.00084859    0.00661659
     atom   19 type  1   force =    -0.00066456   -0.00006673   -0.00154201
     atom   20 type  1   force =     0.00067097   -0.00005914   -0.00153723
     atom   21 type  1   force =    -0.00000831   -0.00010335    0.00002557
     atom   22 type  1   force =     0.00001081    0.00374880   -0.00457389
     atom   23 type  1   force =    -0.00007736    0.00045792    0.00040743
     atom   24 type  1   force =     0.00006617    0.00046443    0.00039675
     atom   25 type  1   force =     0.00012743    0.00053090   -0.00006227
     atom   26 type  1   force =    -0.00000050    0.00014564    0.00050771
     atom   27 type  1   force =    -0.00012422    0.00053857   -0.00006202
     atom   28 type  1   force =     0.00651681    0.00530018    0.00233293
     atom   29 type  1   force =    -0.00651474    0.00530096    0.00233559
     atom   30 type  1   force =    -0.00000294    0.00067507    0.00014512
     atom   31 type  1   force =     0.00000324    0.00685882   -0.02265563
     atom   32 type  1   force =     0.00021106    0.00071640    0.00031031
     atom   33 type  1   force =    -0.00021265    0.00071917    0.00031573
     atom   34 type  1   force =     0.00147647    0.00294721    0.00138580
     atom   35 type  1   force =     0.00000360    0.00104416    0.00121193
     atom   36 type  1   force =    -0.00148114    0.00295379    0.00138969
     atom   37 type  2   force =     0.00000188    0.02457678    0.02136184
     atom   38 type  3   force =    -0.00000115   -0.05452507    0.00029157
     The non-local contrib.  to forces
     atom    1 type  1   force =     0.00012261    0.00017818   -0.02000123
     atom    2 type  1   force =    -0.00012209    0.00017505   -0.02000140
     atom    3 type  1   force =    -0.00000075   -0.00075710   -0.01898082
     atom    4 type  1   force =    -0.00000249   -0.00009728   -0.01980422
     atom    5 type  1   force =     0.00038979    0.00027493   -0.02211608
     atom    6 type  1   force =    -0.00038731    0.00027695   -0.02211652
     atom    7 type  1   force =    -0.00183133    0.00073951   -0.02034593
     atom    8 type  1   force =     0.00000282   -0.00035467   -0.02136962
     atom    9 type  1   force =     0.00182841    0.00073866   -0.02034649
     atom   10 type  1   force =    -0.00000161    0.00163382    0.00347772
     atom   11 type  1   force =    -0.00126621    0.00281153    0.00025333
     atom   12 type  1   force =     0.00126674    0.00281426    0.00025442
     atom   13 type  1   force =     0.00086788   -0.00128194    0.00110400
     atom   14 type  1   force =     0.00000369    0.00159451   -0.00373671
     atom   15 type  1   force =    -0.00087238   -0.00128042    0.00110670
     atom   16 type  1   force =     0.00250577    0.00230821   -0.00022641
     atom   17 type  1   force =    -0.00250391    0.00230438   -0.00022383
     atom   18 type  1   force =    -0.00000298    0.00243624    0.00493868
     atom   19 type  1   force =    -0.00314819    0.00196752    0.00861263
     atom   20 type  1   force =     0.00315045    0.00197127    0.00861641
     atom   21 type  1   force =    -0.00000386    0.00402305    0.00744441
     atom   22 type  1   force =     0.00000561    0.01152497   -0.00683952
     atom   23 type  1   force =     0.00321358   -0.00098423    0.00806042
     atom   24 type  1   force =    -0.00321960   -0.00098126    0.00805116
     atom   25 type  1   force =    -0.00652093   -0.00408450   -0.00264421
     atom   26 type  1   force =    -0.00000004   -0.00274410    0.01141870
     atom   27 type  1   force =     0.00652367   -0.00408181   -0.00264408
     atom   28 type  1   force =     0.05842546    0.02238306   -0.02592338
     atom   29 type  1   force =    -0.05842332    0.02238270   -0.02592020
     atom   30 type  1   force =    -0.00000159    0.00056498    0.01435657
     atom   31 type  1   force =     0.00000202   -0.12854466    0.05542366
     atom   32 type  1   force =    -0.01951137   -0.00685459    0.02261570
     atom   33 type  1   force =     0.01951167   -0.00685065    0.02261419
     atom   34 type  1   force =    -0.00276866   -0.00494263    0.01692773
     atom   35 type  1   force =     0.00000557    0.01929880    0.02185800
     atom   36 type  1   force =     0.00276392   -0.00493886    0.01692845
     atom   37 type  2   force =     0.00000372    0.35051310   -0.11807527
     atom   38 type  3   force =    -0.00000092   -0.02778361   -0.03435526
     The ionic contribution  to forces
     atom    1 type  1   force =     0.00223229    0.00227839  -93.90847138
     atom    2 type  1   force =    -0.00223132    0.00228788  -93.90847169
     atom    3 type  1   force =    -0.00000104   -0.02430098  -93.91311323
     atom    4 type  1   force =     0.00000923    0.00051736  -93.90187905
     atom    5 type  1   force =    -0.02322463   -0.01113150  -93.94656558
     atom    6 type  1   force =     0.02321539   -0.01113448  -93.94658477
     atom    7 type  1   force =    -0.02261753    0.00912111  -93.90863167
     atom    8 type  1   force =    -0.00000665    0.02360764  -93.94820214
     atom    9 type  1   force =     0.02262418    0.00912676  -93.90865078
     atom   10 type  1   force =    -0.00002491    0.03382201  -32.42319312
     atom   11 type  1   force =    -0.11439266   -0.09544641  -32.51648775
     atom   12 type  1   force =     0.11441515   -0.09553475  -32.51664064
     atom   13 type  1   force =    -0.19616953   -0.01665670  -32.48340758
     atom   14 type  1   force =    -0.00003943    0.01727511  -32.75608434
     atom   15 type  1   force =     0.19619911   -0.01670577  -32.48364654
     atom   16 type  1   force =    -0.05772036    0.16961154  -32.50853419
     atom   17 type  1   force =     0.05762315    0.16959380  -32.50856732
     atom   18 type  1   force =     0.00008038   -0.01973906  -32.23642017
     atom   19 type  1   force =     0.16269813   -0.14770932   29.93889207
     atom   20 type  1   force =    -0.16218161   -0.14721564   29.93863538
     atom   21 type  1   force =    -0.00052613   -0.22194417   28.71408881
     atom   22 type  1   force =     0.00066742    0.31646162   29.50718702
     atom   23 type  1   force =    -0.16189395    0.15026406   28.62410939
     atom   24 type  1   force =     0.16123036    0.15059655   28.62455943
     atom   25 type  1   force =    -0.13367758   -0.09280060   29.53192268
     atom   26 type  1   force =    -0.00007825    0.19218627   29.93582846
     atom   27 type  1   force =     0.13378683   -0.09219286   29.53186812
     atom   28 type  1   force =    -2.57606147   -1.63873929   90.71875250
     atom   29 type  1   force =     2.57624581   -1.63860952   90.71827739
     atom   30 type  1   force =    -0.00025939    0.05826589   91.34078442
     atom   31 type  1   force =     0.00025915    2.61239800   89.19189664
     atom   32 type  1   force =     0.36637919    0.15506736   90.51745931
     atom   33 type  1   force =    -0.36667132    0.15523560   90.51787875
     atom   34 type  1   force =     0.16723288    0.10685174   91.27693125
     atom   35 type  1   force =     0.00007070   -0.21557647   90.50835186
     atom   36 type  1   force =    -0.16731882    0.10723659   91.27734555
     atom   37 type  2   force =     0.00008137   -0.74216573   44.96708774
     atom   38 type  3   force =     0.00004586    0.78579795   12.34169516
     The local contribution  to forces
     atom    1 type  1   force =    -0.00250729   -0.00323615   93.90766838
     atom    2 type  1   force =     0.00250437   -0.00323408   93.90766308
     atom    3 type  1   force =     0.00000339    0.02221828   93.90656167
     atom    4 type  1   force =    -0.00000029   -0.00117368   93.90133599
     atom    5 type  1   force =     0.02335539    0.00954843   93.94549026
     atom    6 type  1   force =    -0.02335472    0.00954389   93.94551272
     atom    7 type  1   force =     0.02343113   -0.00957666   93.90449086
     atom    8 type  1   force =    -0.00000405   -0.02439702   93.94642614
     atom    9 type  1   force =    -0.02342656   -0.00957867   93.90451016
     atom   10 type  1   force =     0.00002453   -0.03356839   32.43439150
     atom   11 type  1   force =     0.11613154    0.09101349   32.52084085
     atom   12 type  1   force =    -0.11615311    0.09109241   32.52098900
     atom   13 type  1   force =     0.19306820    0.01902598   32.48784161
     atom   14 type  1   force =     0.00003049   -0.01749827   32.75779873
     atom   15 type  1   force =    -0.19308828    0.01906653   32.48807405
     atom   16 type  1   force =     0.05338670   -0.16940948   32.51228501
     atom   17 type  1   force =    -0.05329958   -0.16938480   32.51231770
     atom   18 type  1   force =    -0.00007008    0.01626861   32.23886330
     atom   19 type  1   force =    -0.15951038    0.14548439  -29.94587357
     atom   20 type  1   force =     0.15900782    0.14500342  -29.94561543
     atom   21 type  1   force =     0.00051202    0.21739523  -28.72001289
     atom   22 type  1   force =    -0.00064928   -0.32298814  -29.50468696
     atom   23 type  1   force =     0.15818236   -0.14851374  -28.63026688
     atom   24 type  1   force =    -0.15753683   -0.14883885  -28.63071303
     atom   25 type  1   force =     0.14000334    0.09723097  -29.52784876
     atom   26 type  1   force =     0.00007528   -0.18867233  -29.94380180
     atom   27 type  1   force =    -0.14010952    0.09664126  -29.52778755
     atom   28 type  1   force =     2.50846010    1.61279462  -90.68626138
     atom   29 type  1   force =    -2.50864264    1.61266538  -90.68579042
     atom   30 type  1   force =     0.00025566   -0.05772577  -91.33917995
     atom   31 type  1   force =    -0.00025746   -2.45941296  -89.27790332
     atom   32 type  1   force =    -0.34875636   -0.14859464  -90.52345975
     atom   33 type  1   force =     0.34904544   -0.14876403  -90.52386006
     atom   34 type  1   force =    -0.16250612   -0.09904610  -91.27681832
     atom   35 type  1   force =    -0.00007307    0.19963912  -90.51270451
     atom   36 type  1   force =     0.16259236   -0.09942474  -91.27722164
     atom   37 type  2   force =    -0.00008255    0.42272599  -44.83032456
     atom   38 type  3   force =    -0.00004617   -0.81254166  -12.30706671
     The core correction contribution to forces
     atom    1 type  1   force =    -0.00004769    0.00000858    0.01708414
     atom    2 type  1   force =     0.00004770    0.00000855    0.01708420
     atom    3 type  1   force =    -0.00000000    0.00001216    0.01720578
     atom    4 type  1   force =    -0.00000002    0.00000078    0.01707355
     atom    5 type  1   force =     0.00002675    0.00011466    0.01686614
     atom    6 type  1   force =    -0.00002674    0.00011469    0.01686614
     atom    7 type  1   force =    -0.00004327    0.00013108    0.01723088
     atom    8 type  1   force =     0.00000003   -0.00005027    0.01691498
     atom    9 type  1   force =     0.00004321    0.00013109    0.01723089
     atom   10 type  1   force =     0.00000021   -0.00004054    0.00014578
     atom   11 type  1   force =     0.00039630    0.00010748    0.00041340
     atom   12 type  1   force =    -0.00039654    0.00010753    0.00041371
     atom   13 type  1   force =     0.00057962    0.00008009    0.00033722
     atom   14 type  1   force =    -0.00000015   -0.00008108    0.00125823
     atom   15 type  1   force =    -0.00057943    0.00008027    0.00033751
     atom   16 type  1   force =     0.00009634   -0.00050562    0.00049258
     atom   17 type  1   force =    -0.00009611   -0.00050529    0.00049237
     atom   18 type  1   force =    -0.00000016    0.00019544   -0.00072709
     atom   19 type  1   force =    -0.00072263    0.00018842   -0.00308307
     atom   20 type  1   force =     0.00072108    0.00018677   -0.00308394
     atom   21 type  1   force =     0.00000155    0.00042210   -0.00141391
     atom   22 type  1   force =    -0.00000213   -0.00123658   -0.00014580
     atom   23 type  1   force =     0.00042395   -0.00032280   -0.00141390
     atom   24 type  1   force =    -0.00042186   -0.00032380   -0.00141271
     atom   25 type  1   force =     0.00030607    0.00018129   -0.00141074
     atom   26 type  1   force =     0.00000029   -0.00063702   -0.00284838
     atom   27 type  1   force =    -0.00030653    0.00017943   -0.00141098
     atom   28 type  1   force =     0.01569048    0.00886200   -0.00418266
     atom   29 type  1   force =    -0.01569086    0.00886197   -0.00418238
     atom   30 type  1   force =     0.00000059   -0.00043123   -0.01577797
     atom   31 type  1   force =    -0.00000020   -0.01758457    0.00798356
     atom   32 type  1   force =     0.00210640    0.00109487   -0.01626807
     atom   33 type  1   force =    -0.00210596    0.00109428   -0.01626915
     atom   34 type  1   force =    -0.00048471    0.00008258   -0.01561066
     atom   35 type  1   force =    -0.00000057   -0.00232718   -0.01624471
     atom   36 type  1   force =     0.00048530    0.00008168   -0.01561157
     atom   37 type  2   force =    -0.00000036   -0.00649770    0.00266780
     atom   38 type  3   force =     0.00000000    0.00000000    0.00000000
     The Hubbard contrib.    to forces
     atom    1 type  1   force =     0.00000000    0.00000000    0.00000000
     atom    2 type  1   force =     0.00000000    0.00000000    0.00000000
     atom    3 type  1   force =     0.00000000    0.00000000    0.00000000
     atom    4 type  1   force =     0.00000000    0.00000000    0.00000000
     atom    5 type  1   force =     0.00000000    0.00000000    0.00000000
     atom    6 type  1   force =     0.00000000    0.00000000    0.00000000
     atom    7 type  1   force =     0.00000000    0.00000000    0.00000000
     atom    8 type  1   force =     0.00000000    0.00000000    0.00000000
     atom    9 type  1   force =     0.00000000    0.00000000    0.00000000
     atom   10 type  1   force =     0.00000000    0.00000000    0.00000000
     atom   11 type  1   force =     0.00000000    0.00000000    0.00000000
     atom   12 type  1   force =     0.00000000    0.00000000    0.00000000
     atom   13 type  1   force =     0.00000000    0.00000000    0.00000000
     atom   14 type  1   force =     0.00000000    0.00000000    0.00000000
     atom   15 type  1   force =     0.00000000    0.00000000    0.00000000
     atom   16 type  1   force =     0.00000000    0.00000000    0.00000000
     atom   17 type  1   force =     0.00000000    0.00000000    0.00000000
     atom   18 type  1   force =     0.00000000    0.00000000    0.00000000
     atom   19 type  1   force =     0.00000000    0.00000000    0.00000000
     atom   20 type  1   force =     0.00000000    0.00000000    0.00000000
     atom   21 type  1   force =     0.00000000    0.00000000    0.00000000
     atom   22 type  1   force =     0.00000000    0.00000000    0.00000000
     atom   23 type  1   force =     0.00000000    0.00000000    0.00000000
     atom   24 type  1   force =     0.00000000    0.00000000    0.00000000
     atom   25 type  1   force =     0.00000000    0.00000000    0.00000000
     atom   26 type  1   force =     0.00000000    0.00000000    0.00000000
     atom   27 type  1   force =     0.00000000    0.00000000    0.00000000
     atom   28 type  1   force =     0.00000000    0.00000000    0.00000000
     atom   29 type  1   force =     0.00000000    0.00000000    0.00000000
     atom   30 type  1   force =     0.00000000    0.00000000    0.00000000
     atom   31 type  1   force =     0.00000000    0.00000000    0.00000000
     atom   32 type  1   force =     0.00000000    0.00000000    0.00000000
     atom   33 type  1   force =     0.00000000    0.00000000    0.00000000
     atom   34 type  1   force =     0.00000000    0.00000000    0.00000000
     atom   35 type  1   force =     0.00000000    0.00000000    0.00000000
     atom   36 type  1   force =     0.00000000    0.00000000    0.00000000
     atom   37 type  2   force =     0.00000000    0.00000000    0.00000000
     atom   38 type  3   force =     0.00000000    0.00000000    0.00000000
     The SCF correction term to forces
     atom    1 type  1   force =     0.00000000    0.00000000    0.00000000
     atom    2 type  1   force =     0.00000000   -0.00000000    0.00000000
     atom    3 type  1   force =    -0.00000000   -0.00000000   -0.00000000
     atom    4 type  1   force =    -0.00000000    0.00000000    0.00000000
     atom    5 type  1   force =    -0.00000000    0.00000000   -0.00000000
     atom    6 type  1   force =     0.00000000    0.00000000   -0.00000000
     atom    7 type  1   force =    -0.00000000   -0.00000000   -0.00000000
     atom    8 type  1   force =     0.00000000    0.00000000   -0.00000000
     atom    9 type  1   force =     0.00000000   -0.00000000   -0.00000000
     atom   10 type  1   force =    -0.00000000    0.00000000   -0.00000000
     atom   11 type  1   force =    -0.00000000   -0.00000000   -0.00000000
     atom   12 type  1   force =     0.00000000   -0.00000000   -0.00000000
     atom   13 type  1   force =    -0.00000000   -0.00000000   -0.00000000
     atom   14 type  1   force =     0.00000000    0.00000000   -0.00000000
     atom   15 type  1   force =     0.00000000    0.00000000   -0.00000000
     atom   16 type  1   force =     0.00000000    0.00000000   -0.00000000
     atom   17 type  1   force =     0.00000000    0.00000000   -0.00000000
     atom   18 type  1   force =    -0.00000000   -0.00000000   -0.00000000
     atom   19 type  1   force =     0.00001851    0.00000007   -0.00010960
     atom   20 type  1   force =    -0.00002676   -0.00000716   -0.00010918
     atom   21 type  1   force =     0.00000812   -0.00000175   -0.00010039
     atom   22 type  1   force =    -0.00001081   -0.00001525   -0.00010817
     atom   23 type  1   force =    -0.00000330    0.00001243   -0.00010114
     atom   24 type  1   force =     0.00001410    0.00000960   -0.00010764
     atom   25 type  1   force =     0.00001653    0.00000153   -0.00010078
     atom   26 type  1   force =     0.00000223    0.00001063   -0.00010881
     atom   27 type  1   force =    -0.00001865   -0.00000964   -0.00010707
     atom   28 type  1   force =     0.00000225   -0.00000240   -0.00007170
     atom   29 type  1   force =    -0.00000372   -0.00000176   -0.00006834
     atom   30 type  1   force =     0.00000180   -0.00000099   -0.00005749
     atom   31 type  1   force =    -0.00000026    0.00000082   -0.00007570
     atom   32 type  1   force =    -0.00000679    0.00000121   -0.00005642
     atom   33 type  1   force =     0.00000753    0.00000177   -0.00006753
     atom   34 type  1   force =     0.00000309   -0.00000057   -0.00006372
     atom   35 type  1   force =     0.00000096    0.00000769   -0.00006824
     atom   36 type  1   force =    -0.00000390   -0.00000307   -0.00007062
     atom   37 type  2   force =    -0.00000029   -0.00000107   -0.00001341
     atom   38 type  3   force =     0.00000009    0.00000006   -0.00000114

     Total force =     0.069412     Total SCF correction =     0.000380

     Writing all to output data dir ./pwscf.save/

     init_run     :     13.07s CPU     13.43s WALL (       1 calls)
     electrons    :    407.90s CPU    423.44s WALL (       1 calls)
     forces       :      3.85s CPU      4.66s WALL (       1 calls)

     Called by init_run:
     wfcinit      :      8.18s CPU      8.38s WALL (       1 calls)
     potinit      :      3.25s CPU      3.33s WALL (       1 calls)
     hinit0       :      1.04s CPU      1.06s WALL (       1 calls)

     Called by electrons:
     c_bands      :    348.17s CPU    358.47s WALL (      24 calls)
     sum_band     :     38.06s CPU     39.72s WALL (      24 calls)
     v_of_rho     :      9.71s CPU     11.73s WALL (      24 calls)
     newd         :      3.67s CPU      4.62s WALL (      24 calls)
     PAW_pot      :      5.30s CPU      5.44s WALL (      24 calls)
     mix_rho      :      4.86s CPU      5.10s WALL (      24 calls)
     vdW_kernel   :      1.73s CPU      1.74s WALL (       1 calls)

     Called by c_bands:
     init_us_2    :      3.51s CPU      3.69s WALL (     650 calls)
     init_us_2:cp :      3.51s CPU      3.69s WALL (     650 calls)
     cegterg      :    338.42s CPU    348.14s WALL (     312 calls)

     Called by *egterg:
     cdiaghg      :     93.97s CPU     96.18s WALL (    1518 calls)
     h_psi        :    152.08s CPU    156.67s WALL (    1544 calls)
     s_psi        :     18.79s CPU     19.16s WALL (    1544 calls)
     g_psi        :      0.57s CPU      0.59s WALL (    1219 calls)

     Called by h_psi:
     h_psi:calbec :     23.03s CPU     23.82s WALL (    1544 calls)
     vloc_psi     :    108.94s CPU    112.20s WALL (    1544 calls)
     add_vuspsi   :     18.71s CPU     19.22s WALL (    1544 calls)

     General routines
     calbec       :     32.26s CPU     33.32s WALL (    1908 calls)
     fft          :      5.50s CPU      7.53s WALL (    1572 calls)
     ffts         :      2.72s CPU      2.77s WALL (    5614 calls)
     fftw         :    105.15s CPU    108.02s WALL (  403692 calls)
     interpolate  :      0.62s CPU      0.67s WALL (      24 calls)

     Parallel routines

     PWSCF        :   7m 6.66s CPU   7m26.41s WALL


   This run was terminated on:  21:27:36  10Nov2025            

=------------------------------------------------------------------------------=
   JOB DONE.
=------------------------------------------------------------------------------=
