
     Program PWSCF v.7.1 starts on 14Dec2025 at  9:56: 9 
        Git branch: heads/qe-7.1
        Last git commit: 48ba0178f8fede6d020eb786884699a9f063f55d-dirty
        Last git commit date: Fri Jan 27 14:22:33 2023 +0000
        Last git commit subject: Merge branch 'fix_hubbard' into 'develop'

     This program is part of the open-source Quantum ESPRESSO suite
     for quantum simulation of materials; please cite
         "P. Giannozzi et al., J. Phys.:Condens. Matter 21 395502 (2009);
         "P. Giannozzi et al., J. Phys.:Condens. Matter 29 465901 (2017);
         "P. Giannozzi et al., J. Chem. Phys. 152 154105 (2020);
          URL http://www.quantum-espresso.org", 
     in publications or presentations arising from this work. More details at
     http://www.quantum-espresso.org/quote

     Parallel version (MPI), running on    96 processors

     MPI processes distributed on     2 nodes
     200603 MiB available memory on the printing compute node when the environment starts

     Reading input from espresso.pwi
Warning: card &CELL ignored
Warning: card / ignored
Warning: card &FCP ignored
Warning: card / ignored
Warning: card &RISM ignored
Warning: card / ignored

     Current dimensions of program PWSCF are:
     Max number of different atomic species (ntypx) = 10
     Max number of k-points (npk) =  40000
     Max angular momentum in pseudopotentials (lmaxx) =  4
     file Co.pbe-n-kjpaw_psl.1.0.0.UPF: wavefunction(s)  4S 3D renormalized
     file C.pbe-n-kjpaw_psl.1.0.0.UPF: wavefunction(s)  2S 2P renormalized
     file O.pbe-nl-kjpaw_psl.1.0.0.UPF: wavefunction(s)  2S 2P renormalized
     file H.pbe-kjpaw_psl.1.0.0.UPF: wavefunction(s)  1S renormalized

     **************************************************************************
     Initializing libbeef V0.1.2 with the BEEF-vdW functional.
     Citation: Wellendorff et al., PRB 85, 235149 (2012).
     **************************************************************************


     IMPORTANT: XC functional enforced from input :
     Exchange-correlation= BEEF-VDW
                           (   1   4  43  14   2   0   0)
     Any further DFT definition will be discarded
     Please, verify this is what you really want


     R & G space division:  proc/nbgrp/npool/nimage =      96
     Subspace diagonalization in iterative solution of the eigenvalue problem:
     one sub-group per band group will be used
     custom distributed-memory algorithm (size of sub-group:  2*  2 procs)


     Parallelization info
     --------------------
     sticks:   dense  smooth     PW     G-vecs:    dense   smooth      PW
     Min          43      28      7                 7829     4248     595
     Max          44      29      8                 7845     4281     630
     Sum        4153    2773    757               752179   409445   59217

     Using Slab Decomposition



     bravais-lattice index     =            0
     lattice parameter (alat)  =      14.1729  a.u.
     unit-cell volume          =    8574.3059 (a.u.)^3
     number of atoms/cell      =           39
     number of atomic types    =            4
     number of electrons       =       335.00
     number of Kohn-Sham states=          202
     kinetic-energy cutoff     =      50.0000  Ry
     charge density cutoff     =     300.0000  Ry
     scf convergence threshold =      1.0E-08
     mixing beta               =       0.7000
     number of iterations used =            8  local-TF  mixing
     Exchange-correlation= BEEF-VDW
                           (   1   4  43  14   2   0   0)

     celldm(1)=  14.172946  celldm(2)=   0.000000  celldm(3)=   0.000000
     celldm(4)=   0.000000  celldm(5)=   0.000000  celldm(6)=   0.000000

     crystal axes: (cart. coord. in units of alat)
               a(1) = (   1.000000   0.000000   0.000000 )  
               a(2) = (   0.500000   0.866025   0.000000 )  
               a(3) = (   0.000000   0.000000   3.477667 )  

     reciprocal axes: (cart. coord. in units 2 pi/alat)
               b(1) = (  1.000000 -0.577350  0.000000 )  
               b(2) = (  0.000000  1.154701  0.000000 )  
               b(3) = (  0.000000  0.000000  0.287549 )  


     PseudoPot. # 1 for Co read from file:
     /users/kbadger1/espresso/pseudo/pslibrary.1.0.0/pbe/PSEUDOPOTENTIALS/Co.pbe-n-kjpaw_psl.1.0.0.UPF
     MD5 check sum: 88af6ec42553d4236c267fdfcb472151
     Pseudo is Projector augmented-wave + core cor, Zval =  9.0
     Generated using 'atomic' code by A. Dal Corso  v.7.0
     Shape of augmentation charge: PSQ
     Using radial grid of 1193 points,  6 beta functions with: 
                l(1) =   0
                l(2) =   0
                l(3) =   1
                l(4) =   1
                l(5) =   2
                l(6) =   2
     Q(r) pseudized with 0 coefficients 


     PseudoPot. # 2 for C  read from file:
     /users/kbadger1/espresso/pseudo/pslibrary.1.0.0/pbe/PSEUDOPOTENTIALS/C.pbe-n-kjpaw_psl.1.0.0.UPF
     MD5 check sum: 6408e75cdba28732cea38a4db8498ce4
     Pseudo is Projector augmented-wave + core cor, Zval =  4.0
     Generated using 'atomic' code by A. Dal Corso  v.7.0
     Shape of augmentation charge: PSQ
     Using radial grid of 1073 points,  4 beta functions with: 
                l(1) =   0
                l(2) =   0
                l(3) =   1
                l(4) =   1
     Q(r) pseudized with 0 coefficients 


     PseudoPot. # 3 for O  read from file:
     /users/kbadger1/espresso/pseudo/pslibrary.1.0.0/pbe/PSEUDOPOTENTIALS/O.pbe-nl-kjpaw_psl.1.0.0.UPF
     MD5 check sum: f0439fab3598ca4e468f064226030408
     Pseudo is Projector augmented-wave + core cor, Zval =  6.0
     Generated using 'atomic' code by A. Dal Corso  v.7.0
     Shape of augmentation charge: PSQ
     Using radial grid of 1095 points,  4 beta functions with: 
                l(1) =   0
                l(2) =   0
                l(3) =   1
                l(4) =   1
     Q(r) pseudized with 0 coefficients 


     PseudoPot. # 4 for H  read from file:
     /users/kbadger1/espresso/pseudo/pslibrary.1.0.0/pbe/PSEUDOPOTENTIALS/H.pbe-kjpaw_psl.1.0.0.UPF
     MD5 check sum: fe4c6fa958fa6d3815bf5d2419cbf1df
     Pseudo is Projector augmented-wave, Zval =  1.0
     Generated using 'atomic' code by A. Dal Corso  v.7.0
     Shape of augmentation charge: PSQ
     Using radial grid of  929 points,  2 beta functions with: 
                l(1) =   0
                l(2) =   0
     Q(r) pseudized with 0 coefficients 


     atomic species   valence    mass     pseudopotential
        Co             9.00    58.93319     Co( 1.00)
        C              4.00    12.00000     C ( 1.00)
        O              6.00    15.99491     O ( 1.00)
        H              1.00     1.00783     H ( 1.00)

     Starting magnetic structure 
     atomic species   magnetization
        Co           1.000
        C            1.000
        O            0.000
        H            0.000

     No symmetry found



   Cartesian axes

     site n.     atom                  positions (alat units)
         1           Co  tau(   1) = (   0.0000000   0.1924501   1.3333333  )
         2           Co  tau(   2) = (   0.3333333   0.1924501   1.3333333  )
         3           Co  tau(   3) = (   0.6666667   0.1924501   1.3333333  )
         4           Co  tau(   4) = (   0.1666667   0.4811252   1.3333333  )
         5           Co  tau(   5) = (   0.5000000   0.4811252   1.3333333  )
         6           Co  tau(   6) = (   0.8333333   0.4811252   1.3333333  )
         7           Co  tau(   7) = (   0.3333333   0.7698004   1.3333333  )
         8           Co  tau(   8) = (   0.6666667   0.7698004   1.3333333  )
         9           Co  tau(   9) = (   1.0000000   0.7698004   1.3333333  )
        10           Co  tau(  10) = (   0.0000000   0.0000000   1.6036667  )
        11           Co  tau(  11) = (   0.3333333   0.0000000   1.6036667  )
        12           Co  tau(  12) = (   0.6666667   0.0000000   1.6036667  )
        13           Co  tau(  13) = (   0.1666667   0.2886751   1.6036667  )
        14           Co  tau(  14) = (   0.5000000   0.2886751   1.6036667  )
        15           Co  tau(  15) = (   0.8333333   0.2886751   1.6036667  )
        16           Co  tau(  16) = (   0.3333333   0.5773503   1.6036667  )
        17           Co  tau(  17) = (   0.6666667   0.5773503   1.6036667  )
        18           Co  tau(  18) = (   1.0000000   0.5773503   1.6036667  )
        19           Co  tau(  19) = (   0.0000000   0.1924501   1.8740000  )
        20           Co  tau(  20) = (   0.3333333   0.1924501   1.8740000  )
        21           Co  tau(  21) = (   0.6666667   0.1924501   1.8740000  )
        22           Co  tau(  22) = (   0.1666667   0.4811252   1.8740000  )
        23           Co  tau(  23) = (   0.5000000   0.4811252   1.8740000  )
        24           Co  tau(  24) = (   0.8333333   0.4811252   1.8740000  )
        25           Co  tau(  25) = (   0.3333333   0.7698004   1.8740000  )
        26           Co  tau(  26) = (   0.6666667   0.7698004   1.8740000  )
        27           Co  tau(  27) = (   1.0000000   0.7698004   1.8740000  )
        28           Co  tau(  28) = (   0.0000000   0.0000000   2.1443333  )
        29           Co  tau(  29) = (   0.3333333   0.0000000   2.1443333  )
        30           Co  tau(  30) = (   0.6666667   0.0000000   2.1443333  )
        31           Co  tau(  31) = (   0.1666667   0.2886751   2.1443333  )
        32           Co  tau(  32) = (   0.5000000   0.2886751   2.1443333  )
        33           Co  tau(  33) = (   0.8333333   0.2886751   2.1443333  )
        34           Co  tau(  34) = (   0.3333333   0.5773503   2.1443333  )
        35           Co  tau(  35) = (   0.6666667   0.5773503   2.1443333  )
        36           Co  tau(  36) = (   1.0000000   0.5773503   2.1443333  )
        37           C   tau(  37) = (   0.4070897   0.1877808   2.3536672  )
        38           O   tau(  38) = (   0.3167762   0.0796185   2.4408261  )
        39           H   tau(  39) = (   0.4962469   0.2852629   2.4261787  )

     number of k points=    13  Marzari-Vanderbilt smearing, width (Ry)=  0.0010
                       cart. coord. in units 2pi/alat
        k(    1) = (   0.0000000   0.0000000   0.0000000), wk =   0.0400000
        k(    2) = (   0.0000000   0.2309401   0.0000000), wk =   0.0800000
        k(    3) = (   0.0000000   0.4618802   0.0000000), wk =   0.0800000
        k(    4) = (   0.2000000  -0.1154701   0.0000000), wk =   0.0800000
        k(    5) = (   0.2000000   0.1154701   0.0000000), wk =   0.0800000
        k(    6) = (   0.2000000   0.3464102   0.0000000), wk =   0.0800000
        k(    7) = (   0.2000000  -0.5773503   0.0000000), wk =   0.0800000
        k(    8) = (   0.2000000  -0.3464102   0.0000000), wk =   0.0800000
        k(    9) = (   0.4000000  -0.2309401   0.0000000), wk =   0.0800000
        k(   10) = (   0.4000000   0.0000000   0.0000000), wk =   0.0800000
        k(   11) = (   0.4000000   0.2309401   0.0000000), wk =   0.0800000
        k(   12) = (   0.4000000  -0.6928203   0.0000000), wk =   0.0800000
        k(   13) = (   0.4000000  -0.4618802   0.0000000), wk =   0.0800000

     Dense  grid:   752179 G-vectors     FFT dimensions: (  80,  80, 288)

     Smooth grid:   409445 G-vectors     FFT dimensions: (  64,  64, 225)

     Estimated max dynamical RAM per process >      99.02 MB

     Estimated total dynamical RAM >       9.28 GB
     Generating pointlists ...
     new r_m :   0.1032 (alat units)  1.4631 (a.u.) for type    1
     new r_m :   0.0622 (alat units)  0.8810 (a.u.) for type    2
     new r_m :   0.0683 (alat units)  0.9687 (a.u.) for type    3
     new r_m :   0.0622 (alat units)  0.8810 (a.u.) for type    4

     Initial potential from superposition of free atoms

     starting charge     334.9897, renormalised to     335.0000

     negative rho (up, down):  3.024E-03 4.713E-04


     %%%%%%%%%%%%%%%%%%%%%%%%%%%%%%%%%%%%%%%%%%%%%%%%%%%%%%%%%%%%%%%%%%%%%%%%
     %                                                                      %
     % You are using vdW-DF, which was implemented by the Thonhauser group. %
     % Please cite the following two papers that made this development      %
     % possible and the two reviews that describe the various versions:     %
     %                                                                      %
     %   T. Thonhauser et al., PRL 115, 136402 (2015).                      %
     %   T. Thonhauser et al., PRB 76, 125112 (2007).                       %
     %   K. Berland et al., Rep. Prog. Phys. 78, 066501 (2015).             %
     %   D.C. Langreth et al., J. Phys.: Condens. Matter 21, 084203 (2009). %
     %                                                                      %
     % If you are calculating stress with vdW-DF, please also cite:         %
     %                                                                      %
     %   R. Sabatini et al., J. Phys.: Condens. Matter 24, 424209 (2012).   %
     %   C.M. Frostenson et al., Electr. Struct. 4, 014001 (2022).          %
     %                                                                      %
     %%%%%%%%%%%%%%%%%%%%%%%%%%%%%%%%%%%%%%%%%%%%%%%%%%%%%%%%%%%%%%%%%%%%%%%%

     %%%%%%%%%%%%%%%%%%%%%%%%%%%%%%%%%%%%%%%%%%%%%%%%%%%%%%%%%%%%%%%%%%%%%%%%
     %                                                                      %
     %  vdW-DF NEWS:                                                        %
     %                                                                      %
     %  * vdW-DF3 is now available. DOI: 10.1021/acs.jctc.0c00471           %
     %    use with input_dft = 'vdW-DF3-opt1' or 'vdW-DF3-opt2'             %
     %                                                                      %
     %  * Unscreened and range-separated hybrid vdW-DF-cx functionals       %
     %    DOI: 10.1063/1.4986522 and 10.1088/1361-648X/ac2ad2               %
     %    use with input_dft = 'vdW-DF-cx0'    and 'vdW-DF-ahcx'            %
     %  * Unscreened and range-separated hybrid vdW-DF2-b86r functionals    %
     %    DOI: 10.1063/1.4986522 and DOI: 10.1103/PhysRevX.12.041003        %
     %    use with input_dft = 'vdW-DF2-br0' and 'vdW-DF2-ahbr'             %
     %                                                                      %
     %%%%%%%%%%%%%%%%%%%%%%%%%%%%%%%%%%%%%%%%%%%%%%%%%%%%%%%%%%%%%%%%%%%%%%%%


     Starting wfcs are  333 randomized atomic wfcs
     Checking if some PAW data can be deallocated... 

     total cpu time spent up to now is       12.2 secs

     per-process dynamical memory:   233.7 Mb

     Self-consistent Calculation

     iteration #  1     ecut=    50.00 Ry     beta= 0.70
     Davidson diagonalization with overlap
     ethr =  1.00E-02,  avg # of iterations =  2.0

     negative rho (up, down):  2.428E-05 4.917E-08

     total cpu time spent up to now is       34.7 secs

     total energy              =   -6053.07903062 Ry
     estimated scf accuracy    <      39.73374458 Ry

     total magnetization       =    69.00 Bohr mag/cell
     absolute magnetization    =    81.29 Bohr mag/cell

     iteration #  2     ecut=    50.00 Ry     beta= 0.70
     Davidson diagonalization with overlap
     ethr =  1.00E-02,  avg # of iterations =  1.0

     negative rho (up, down):  2.854E-06 9.267E-09

     total cpu time spent up to now is       48.2 secs

     total energy              =   -6052.53994511 Ry
     estimated scf accuracy    <      24.50972274 Ry

     total magnetization       =    68.53 Bohr mag/cell
     absolute magnetization    =    76.69 Bohr mag/cell

     iteration #  3     ecut=    50.00 Ry     beta= 0.70
     Davidson diagonalization with overlap
     ethr =  7.32E-03,  avg # of iterations =  1.0

     total cpu time spent up to now is       66.4 secs

     total energy              =   -6055.12975084 Ry
     estimated scf accuracy    <      87.48478123 Ry

     total magnetization       =    65.82 Bohr mag/cell
     absolute magnetization    =    73.08 Bohr mag/cell

     iteration #  4     ecut=    50.00 Ry     beta= 0.70
     Davidson diagonalization with overlap
     ethr =  7.32E-03,  avg # of iterations =  1.0

     total cpu time spent up to now is       79.8 secs

     total energy              =   -6056.29402060 Ry
     estimated scf accuracy    <       5.84057089 Ry

     total magnetization       =    60.36 Bohr mag/cell
     absolute magnetization    =    70.44 Bohr mag/cell

     iteration #  5     ecut=    50.00 Ry     beta= 0.70
     Davidson diagonalization with overlap
     ethr =  1.74E-03,  avg # of iterations =  1.5

     total cpu time spent up to now is       98.1 secs

     total energy              =   -6056.34670155 Ry
     estimated scf accuracy    <       2.17945449 Ry

     total magnetization       =    60.20 Bohr mag/cell
     absolute magnetization    =    69.73 Bohr mag/cell

     iteration #  6     ecut=    50.00 Ry     beta= 0.70
     Davidson diagonalization with overlap
     ethr =  6.51E-04,  avg # of iterations =  1.7

     total cpu time spent up to now is      117.1 secs

     total energy              =   -6056.46337735 Ry
     estimated scf accuracy    <       0.61577938 Ry

     total magnetization       =    60.20 Bohr mag/cell
     absolute magnetization    =    69.58 Bohr mag/cell

     iteration #  7     ecut=    50.00 Ry     beta= 0.70
     Davidson diagonalization with overlap
     ethr =  1.84E-04,  avg # of iterations =  4.6

     total cpu time spent up to now is      134.4 secs

     total energy              =   -6056.49738890 Ry
     estimated scf accuracy    <       0.69964906 Ry

     total magnetization       =    60.20 Bohr mag/cell
     absolute magnetization    =    69.25 Bohr mag/cell

     iteration #  8     ecut=    50.00 Ry     beta= 0.70
     Davidson diagonalization with overlap
     ethr =  1.84E-04,  avg # of iterations =  1.7

     total cpu time spent up to now is      153.8 secs

     total energy              =   -6056.50553158 Ry
     estimated scf accuracy    <       0.14213589 Ry

     total magnetization       =    60.38 Bohr mag/cell
     absolute magnetization    =    69.24 Bohr mag/cell

     iteration #  9     ecut=    50.00 Ry     beta= 0.70
     Davidson diagonalization with overlap
     c_bands:  1 eigenvalues not converged
     c_bands:  1 eigenvalues not converged
     ethr =  4.24E-05,  avg # of iterations = 12.7

     total cpu time spent up to now is      189.0 secs

     total energy              =   -6056.53463153 Ry
     estimated scf accuracy    <       0.26174600 Ry

     total magnetization       =    61.25 Bohr mag/cell
     absolute magnetization    =    69.23 Bohr mag/cell

     iteration # 10     ecut=    50.00 Ry     beta= 0.70
     Davidson diagonalization with overlap
     ethr =  4.24E-05,  avg # of iterations =  1.3

     total cpu time spent up to now is      206.8 secs

     total energy              =   -6056.53810500 Ry
     estimated scf accuracy    <       0.19536894 Ry

     total magnetization       =    61.24 Bohr mag/cell
     absolute magnetization    =    69.13 Bohr mag/cell

     iteration # 11     ecut=    50.00 Ry     beta= 0.70
     Davidson diagonalization with overlap
     ethr =  4.24E-05,  avg # of iterations =  1.0

     total cpu time spent up to now is      219.8 secs

     total energy              =   -6056.52478788 Ry
     estimated scf accuracy    <       0.10592930 Ry

     total magnetization       =    61.22 Bohr mag/cell
     absolute magnetization    =    69.01 Bohr mag/cell

     iteration # 12     ecut=    50.00 Ry     beta= 0.70
     Davidson diagonalization with overlap
     ethr =  3.16E-05,  avg # of iterations =  2.0

     total cpu time spent up to now is      239.1 secs

     total energy              =   -6056.52862372 Ry
     estimated scf accuracy    <       0.14148104 Ry

     total magnetization       =    61.01 Bohr mag/cell
     absolute magnetization    =    68.60 Bohr mag/cell

     iteration # 13     ecut=    50.00 Ry     beta= 0.70
     Davidson diagonalization with overlap
     ethr =  3.16E-05,  avg # of iterations =  1.3

     total cpu time spent up to now is      252.6 secs

     total energy              =   -6056.52581680 Ry
     estimated scf accuracy    <       0.10577860 Ry

     total magnetization       =    61.10 Bohr mag/cell
     absolute magnetization    =    68.60 Bohr mag/cell

     iteration # 14     ecut=    50.00 Ry     beta= 0.70
     Davidson diagonalization with overlap
     ethr =  3.16E-05,  avg # of iterations =  1.3

     total cpu time spent up to now is      270.2 secs

     total energy              =   -6056.52378951 Ry
     estimated scf accuracy    <       0.09924371 Ry

     total magnetization       =    61.25 Bohr mag/cell
     absolute magnetization    =    68.76 Bohr mag/cell

     iteration # 15     ecut=    50.00 Ry     beta= 0.70
     Davidson diagonalization with overlap
     ethr =  2.96E-05,  avg # of iterations =  1.0

     negative rho (up, down):  4.175E-05 3.084E-06

     total cpu time spent up to now is      283.5 secs

     total energy              =   -6056.52194657 Ry
     estimated scf accuracy    <       0.08712844 Ry

     total magnetization       =    61.20 Bohr mag/cell
     absolute magnetization    =    68.69 Bohr mag/cell

     iteration # 16     ecut=    50.00 Ry     beta= 0.70
     Davidson diagonalization with overlap
     ethr =  2.60E-05,  avg # of iterations =  1.1

     negative rho (up, down):  5.076E-03 4.237E-03

     total cpu time spent up to now is      301.2 secs

     total energy              =   -6056.51769849 Ry
     estimated scf accuracy    <       0.05893821 Ry

     total magnetization       =    61.23 Bohr mag/cell
     absolute magnetization    =    68.71 Bohr mag/cell

     iteration # 17     ecut=    50.00 Ry     beta= 0.70
     Davidson diagonalization with overlap
     ethr =  1.76E-05,  avg # of iterations =  1.7

     negative rho (up, down):  1.471E-02 1.341E-02

     total cpu time spent up to now is      315.4 secs

     total energy              =   -6056.51577712 Ry
     estimated scf accuracy    <       0.03296242 Ry

     total magnetization       =    61.24 Bohr mag/cell
     absolute magnetization    =    68.74 Bohr mag/cell

     iteration # 18     ecut=    50.00 Ry     beta= 0.70
     Davidson diagonalization with overlap
     c_bands:  1 eigenvalues not converged
     c_bands:  4 eigenvalues not converged
     ethr =  9.84E-06,  avg # of iterations =  3.1

     negative rho (up, down):  3.474E-03 2.665E-03

     total cpu time spent up to now is      335.7 secs

     total energy              =   -6056.51660032 Ry
     estimated scf accuracy    <       0.08279243 Ry

     total magnetization       =    61.24 Bohr mag/cell
     absolute magnetization    =    68.69 Bohr mag/cell

     iteration # 19     ecut=    50.00 Ry     beta= 0.70
     Davidson diagonalization with overlap
     ethr =  9.84E-06,  avg # of iterations =  1.0

     negative rho (up, down):  6.813E-03 5.831E-03

     total cpu time spent up to now is      348.5 secs

     total energy              =   -6056.51590289 Ry
     estimated scf accuracy    <       0.03145779 Ry

     total magnetization       =    61.24 Bohr mag/cell
     absolute magnetization    =    68.71 Bohr mag/cell

     iteration # 20     ecut=    50.00 Ry     beta= 0.70
     Davidson diagonalization with overlap
     ethr =  9.39E-06,  avg # of iterations =  1.0

     negative rho (up, down):  8.174E-03 7.170E-03

     total cpu time spent up to now is      366.8 secs

     total energy              =   -6056.51490084 Ry
     estimated scf accuracy    <       0.03039888 Ry

     total magnetization       =    61.24 Bohr mag/cell
     absolute magnetization    =    68.71 Bohr mag/cell

     iteration # 21     ecut=    50.00 Ry     beta= 0.70
     Davidson diagonalization with overlap
     ethr =  9.07E-06,  avg # of iterations =  1.0

     negative rho (up, down):  9.448E-03 8.459E-03

     total cpu time spent up to now is      379.6 secs

     total energy              =   -6056.51441448 Ry
     estimated scf accuracy    <       0.01951859 Ry

     total magnetization       =    61.25 Bohr mag/cell
     absolute magnetization    =    68.71 Bohr mag/cell

     iteration # 22     ecut=    50.00 Ry     beta= 0.70
     Davidson diagonalization with overlap
     ethr =  5.83E-06,  avg # of iterations =  1.0

     negative rho (up, down):  2.672E-02 2.572E-02

     total cpu time spent up to now is      397.6 secs

     total energy              =   -6056.51285001 Ry
     estimated scf accuracy    <       0.01219489 Ry

     total magnetization       =    61.24 Bohr mag/cell
     absolute magnetization    =    68.71 Bohr mag/cell

     iteration # 23     ecut=    50.00 Ry     beta= 0.70
     Davidson diagonalization with overlap
     c_bands:  4 eigenvalues not converged
     ethr =  3.64E-06,  avg # of iterations =  2.4

     negative rho (up, down):  1.450E-02 1.381E-02

     total cpu time spent up to now is      417.3 secs

     total energy              =   -6056.51218730 Ry
     estimated scf accuracy    <       0.00595310 Ry

     total magnetization       =    61.24 Bohr mag/cell
     absolute magnetization    =    68.72 Bohr mag/cell

     iteration # 24     ecut=    50.00 Ry     beta= 0.70
     Davidson diagonalization with overlap
     ethr =  1.78E-06,  avg # of iterations =  1.8

     negative rho (up, down):  1.243E-02 1.174E-02

     total cpu time spent up to now is      431.5 secs

     total energy              =   -6056.51219048 Ry
     estimated scf accuracy    <       0.01054116 Ry

     total magnetization       =    61.25 Bohr mag/cell
     absolute magnetization    =    68.73 Bohr mag/cell

     iteration # 25     ecut=    50.00 Ry     beta= 0.70
     Davidson diagonalization with overlap
     ethr =  1.78E-06,  avg # of iterations =  1.2

     negative rho (up, down):  9.013E-03 8.328E-03

     total cpu time spent up to now is      449.1 secs

     total energy              =   -6056.51221509 Ry
     estimated scf accuracy    <       0.00425018 Ry

     total magnetization       =    61.25 Bohr mag/cell
     absolute magnetization    =    68.73 Bohr mag/cell

     iteration # 26     ecut=    50.00 Ry     beta= 0.70
     Davidson diagonalization with overlap
     ethr =  1.27E-06,  avg # of iterations =  1.8

     negative rho (up, down):  1.260E-02 1.201E-02

     total cpu time spent up to now is      463.3 secs

     total energy              =   -6056.51254118 Ry
     estimated scf accuracy    <       0.00536404 Ry

     total magnetization       =    61.24 Bohr mag/cell
     absolute magnetization    =    68.73 Bohr mag/cell

     iteration # 27     ecut=    50.00 Ry     beta= 0.70
     Davidson diagonalization with overlap
     ethr =  1.27E-06,  avg # of iterations =  1.1

     negative rho (up, down):  8.184E-03 7.588E-03

     total cpu time spent up to now is      481.4 secs

     total energy              =   -6056.51258266 Ry
     estimated scf accuracy    <       0.00070268 Ry

     total magnetization       =    61.24 Bohr mag/cell
     absolute magnetization    =    68.74 Bohr mag/cell

     iteration # 28     ecut=    50.00 Ry     beta= 0.70
     Davidson diagonalization with overlap
     ethr =  2.10E-07,  avg # of iterations =  2.5

     negative rho (up, down):  6.440E-03 5.791E-03

     total cpu time spent up to now is      496.3 secs

     total energy              =   -6056.51267518 Ry
     estimated scf accuracy    <       0.00121141 Ry

     total magnetization       =    61.24 Bohr mag/cell
     absolute magnetization    =    68.74 Bohr mag/cell

     iteration # 29     ecut=    50.00 Ry     beta= 0.70
     Davidson diagonalization with overlap
     ethr =  2.10E-07,  avg # of iterations =  1.6

     negative rho (up, down):  4.953E-03 4.139E-03

     total cpu time spent up to now is      515.1 secs

     total energy              =   -6056.51273048 Ry
     estimated scf accuracy    <       0.00033137 Ry

     total magnetization       =    61.24 Bohr mag/cell
     absolute magnetization    =    68.74 Bohr mag/cell

     iteration # 30     ecut=    50.00 Ry     beta= 0.70
     Davidson diagonalization with overlap
     ethr =  9.89E-08,  avg # of iterations =  3.7

     negative rho (up, down):  4.762E-03 3.946E-03

     total cpu time spent up to now is      535.7 secs

     total energy              =   -6056.51271070 Ry
     estimated scf accuracy    <       0.00122682 Ry

     total magnetization       =    61.24 Bohr mag/cell
     absolute magnetization    =    68.74 Bohr mag/cell

     iteration # 31     ecut=    50.00 Ry     beta= 0.70
     Davidson diagonalization with overlap
     ethr =  9.89E-08,  avg # of iterations =  1.4

     negative rho (up, down):  4.332E-03 3.449E-03

     total cpu time spent up to now is      550.0 secs

     total energy              =   -6056.51274466 Ry
     estimated scf accuracy    <       0.00023831 Ry

     total magnetization       =    61.24 Bohr mag/cell
     absolute magnetization    =    68.75 Bohr mag/cell

     iteration # 32     ecut=    50.00 Ry     beta= 0.70
     Davidson diagonalization with overlap
     ethr =  7.11E-08,  avg # of iterations =  1.2

     negative rho (up, down):  2.745E-03 1.655E-03

     total cpu time spent up to now is      568.3 secs

     total energy              =   -6056.51274027 Ry
     estimated scf accuracy    <       0.00004217 Ry

     total magnetization       =    61.24 Bohr mag/cell
     absolute magnetization    =    68.75 Bohr mag/cell

     iteration # 33     ecut=    50.00 Ry     beta= 0.70
     Davidson diagonalization with overlap
     ethr =  1.26E-08,  avg # of iterations =  6.7

     negative rho (up, down):  3.312E-03 2.293E-03

     total cpu time spent up to now is      587.0 secs

     total energy              =   -6056.51273878 Ry
     estimated scf accuracy    <       0.00007780 Ry

     total magnetization       =    61.24 Bohr mag/cell
     absolute magnetization    =    68.74 Bohr mag/cell

     iteration # 34     ecut=    50.00 Ry     beta= 0.70
     Davidson diagonalization with overlap
     ethr =  1.26E-08,  avg # of iterations =  1.9

     negative rho (up, down):  2.795E-03 1.682E-03

     total cpu time spent up to now is      607.3 secs

     total energy              =   -6056.51274368 Ry
     estimated scf accuracy    <       0.00007384 Ry

     total magnetization       =    61.24 Bohr mag/cell
     absolute magnetization    =    68.75 Bohr mag/cell

     iteration # 35     ecut=    50.00 Ry     beta= 0.70
     Davidson diagonalization with overlap
     ethr =  1.26E-08,  avg # of iterations =  1.7

     negative rho (up, down):  2.809E-03 1.738E-03

     total cpu time spent up to now is      626.2 secs

     total energy              =   -6056.51273611 Ry
     estimated scf accuracy    <       0.00006834 Ry

     total magnetization       =    61.24 Bohr mag/cell
     absolute magnetization    =    68.74 Bohr mag/cell

     iteration # 36     ecut=    50.00 Ry     beta= 0.70
     Davidson diagonalization with overlap
     ethr =  1.26E-08,  avg # of iterations =  1.2

     negative rho (up, down):  2.324E-03 1.232E-03

     total cpu time spent up to now is      639.8 secs

     total energy              =   -6056.51274791 Ry
     estimated scf accuracy    <       0.00002376 Ry

     total magnetization       =    61.24 Bohr mag/cell
     absolute magnetization    =    68.74 Bohr mag/cell

     iteration # 37     ecut=    50.00 Ry     beta= 0.70
     Davidson diagonalization with overlap
     ethr =  7.09E-09,  avg # of iterations =  2.0

     negative rho (up, down):  2.302E-03 1.198E-03

     total cpu time spent up to now is      659.4 secs

     total energy              =   -6056.51274849 Ry
     estimated scf accuracy    <       0.00002674 Ry

     total magnetization       =    61.24 Bohr mag/cell
     absolute magnetization    =    68.74 Bohr mag/cell

     iteration # 38     ecut=    50.00 Ry     beta= 0.70
     Davidson diagonalization with overlap
     ethr =  7.09E-09,  avg # of iterations =  1.2

     negative rho (up, down):  2.219E-03 1.123E-03

     total cpu time spent up to now is      673.4 secs

     total energy              =   -6056.51274914 Ry
     estimated scf accuracy    <       0.00001762 Ry

     total magnetization       =    61.24 Bohr mag/cell
     absolute magnetization    =    68.74 Bohr mag/cell

     iteration # 39     ecut=    50.00 Ry     beta= 0.70
     Davidson diagonalization with overlap
     ethr =  5.26E-09,  avg # of iterations =  1.3

     negative rho (up, down):  2.155E-03 1.069E-03

     total cpu time spent up to now is      691.5 secs

     total energy              =   -6056.51274941 Ry
     estimated scf accuracy    <       0.00001164 Ry

     total magnetization       =    61.24 Bohr mag/cell
     absolute magnetization    =    68.74 Bohr mag/cell

     iteration # 40     ecut=    50.00 Ry     beta= 0.70
     Davidson diagonalization with overlap
     ethr =  3.48E-09,  avg # of iterations =  1.6

     negative rho (up, down):  2.157E-03 1.068E-03

     total cpu time spent up to now is      705.6 secs

     total energy              =   -6056.51274989 Ry
     estimated scf accuracy    <       0.00000518 Ry

     total magnetization       =    61.24 Bohr mag/cell
     absolute magnetization    =    68.74 Bohr mag/cell

     iteration # 41     ecut=    50.00 Ry     beta= 0.70
     Davidson diagonalization with overlap
     ethr =  1.55E-09,  avg # of iterations =  3.2

     negative rho (up, down):  2.168E-03 1.076E-03

     total cpu time spent up to now is      726.7 secs

     total energy              =   -6056.51274990 Ry
     estimated scf accuracy    <       0.00000632 Ry

     total magnetization       =    61.24 Bohr mag/cell
     absolute magnetization    =    68.74 Bohr mag/cell

     iteration # 42     ecut=    50.00 Ry     beta= 0.70
     Davidson diagonalization with overlap
     ethr =  1.55E-09,  avg # of iterations =  1.3

     negative rho (up, down):  2.250E-03 1.146E-03

     total cpu time spent up to now is      739.9 secs

     total energy              =   -6056.51274985 Ry
     estimated scf accuracy    <       0.00000279 Ry

     total magnetization       =    61.24 Bohr mag/cell
     absolute magnetization    =    68.74 Bohr mag/cell

     iteration # 43     ecut=    50.00 Ry     beta= 0.70
     Davidson diagonalization with overlap
     ethr =  8.32E-10,  avg # of iterations =  2.8

     negative rho (up, down):  2.237E-03 1.135E-03

     total cpu time spent up to now is      760.0 secs

     total energy              =   -6056.51275005 Ry
     estimated scf accuracy    <       0.00000230 Ry

     total magnetization       =    61.24 Bohr mag/cell
     absolute magnetization    =    68.74 Bohr mag/cell

     iteration # 44     ecut=    50.00 Ry     beta= 0.70
     Davidson diagonalization with overlap
     ethr =  6.88E-10,  avg # of iterations =  1.5

     negative rho (up, down):  2.222E-03 1.123E-03

     total cpu time spent up to now is      778.9 secs

     total energy              =   -6056.51275017 Ry
     estimated scf accuracy    <       0.00000256 Ry

     total magnetization       =    61.24 Bohr mag/cell
     absolute magnetization    =    68.74 Bohr mag/cell

     iteration # 45     ecut=    50.00 Ry     beta= 0.70
     Davidson diagonalization with overlap
     ethr =  6.88E-10,  avg # of iterations =  1.7

     negative rho (up, down):  2.223E-03 1.124E-03

     total cpu time spent up to now is      793.8 secs

     total energy              =   -6056.51275021 Ry
     estimated scf accuracy    <       0.00000264 Ry

     total magnetization       =    61.24 Bohr mag/cell
     absolute magnetization    =    68.74 Bohr mag/cell

     iteration # 46     ecut=    50.00 Ry     beta= 0.70
     Davidson diagonalization with overlap
     ethr =  6.88E-10,  avg # of iterations =  1.0

     negative rho (up, down):  2.223E-03 1.126E-03

     total cpu time spent up to now is      811.6 secs

     total energy              =   -6056.51275035 Ry
     estimated scf accuracy    <       0.00000016 Ry

     total magnetization       =    61.24 Bohr mag/cell
     absolute magnetization    =    68.74 Bohr mag/cell

     iteration # 47     ecut=    50.00 Ry     beta= 0.70
     Davidson diagonalization with overlap
     ethr =  4.74E-11,  avg # of iterations =  9.1

     negative rho (up, down):  2.226E-03 1.129E-03

     total cpu time spent up to now is      844.6 secs

     total energy              =   -6056.51275040 Ry
     estimated scf accuracy    <       0.00000056 Ry

     total magnetization       =    61.24 Bohr mag/cell
     absolute magnetization    =    68.74 Bohr mag/cell

     iteration # 48     ecut=    50.00 Ry     beta= 0.70
     Davidson diagonalization with overlap
     ethr =  4.74E-11,  avg # of iterations =  1.4

     negative rho (up, down):  2.228E-03 1.130E-03

     total cpu time spent up to now is      858.3 secs

     total energy              =   -6056.51275039 Ry
     estimated scf accuracy    <       0.00000027 Ry

     total magnetization       =    61.24 Bohr mag/cell
     absolute magnetization    =    68.74 Bohr mag/cell

     iteration # 49     ecut=    50.00 Ry     beta= 0.70
     Davidson diagonalization with overlap
     ethr =  4.74E-11,  avg # of iterations =  1.4

     negative rho (up, down):  2.225E-03 1.129E-03

     total cpu time spent up to now is      877.0 secs

     total energy              =   -6056.51275042 Ry
     estimated scf accuracy    <       0.00000026 Ry

     total magnetization       =    61.24 Bohr mag/cell
     absolute magnetization    =    68.74 Bohr mag/cell

     iteration # 50     ecut=    50.00 Ry     beta= 0.70
     Davidson diagonalization with overlap
     ethr =  4.74E-11,  avg # of iterations =  1.5

     negative rho (up, down):  2.225E-03 1.129E-03

     total cpu time spent up to now is      895.2 secs

     total energy              =   -6056.51275042 Ry
     estimated scf accuracy    <       0.00000018 Ry

     total magnetization       =    61.24 Bohr mag/cell
     absolute magnetization    =    68.74 Bohr mag/cell

     iteration # 51     ecut=    50.00 Ry     beta= 0.70
     Davidson diagonalization with overlap
     ethr =  4.74E-11,  avg # of iterations =  1.0

     negative rho (up, down):  2.225E-03 1.129E-03

     total cpu time spent up to now is      909.4 secs

     total energy              =   -6056.51275043 Ry
     estimated scf accuracy    <       0.00000007 Ry

     total magnetization       =    61.24 Bohr mag/cell
     absolute magnetization    =    68.74 Bohr mag/cell

     iteration # 52     ecut=    50.00 Ry     beta= 0.70
     Davidson diagonalization with overlap
     ethr =  1.98E-11,  avg # of iterations =  1.2

     negative rho (up, down):  2.224E-03 1.129E-03

     total cpu time spent up to now is      927.6 secs

     total energy              =   -6056.51275043 Ry
     estimated scf accuracy    <       0.00000005 Ry

     total magnetization       =    61.24 Bohr mag/cell
     absolute magnetization    =    68.74 Bohr mag/cell

     iteration # 53     ecut=    50.00 Ry     beta= 0.70
     Davidson diagonalization with overlap
     ethr =  1.59E-11,  avg # of iterations =  1.0

     negative rho (up, down):  2.224E-03 1.128E-03

     Magnetic moment per site  (integrated on atomic sphere of radius R)
     atom   1 (R=0.103)  charge=  6.2548  magn=  1.7696
     atom   2 (R=0.103)  charge=  6.2555  magn=  1.7623
     atom   3 (R=0.103)  charge=  6.2550  magn=  1.7656
     atom   4 (R=0.103)  charge=  6.2550  magn=  1.7673
     atom   5 (R=0.103)  charge=  6.2552  magn=  1.7643
     atom   6 (R=0.103)  charge=  6.2544  magn=  1.7729
     atom   7 (R=0.103)  charge=  6.2549  magn=  1.7735
     atom   8 (R=0.103)  charge=  6.2547  magn=  1.7681
     atom   9 (R=0.103)  charge=  6.2547  magn=  1.7653
     atom  10 (R=0.103)  charge=  6.2613  magn=  1.6896
     atom  11 (R=0.103)  charge=  6.2616  magn=  1.6973
     atom  12 (R=0.103)  charge=  6.2612  magn=  1.6958
     atom  13 (R=0.103)  charge=  6.2614  magn=  1.6939
     atom  14 (R=0.103)  charge=  6.2623  magn=  1.6870
     atom  15 (R=0.103)  charge=  6.2615  magn=  1.6966
     atom  16 (R=0.103)  charge=  6.2615  magn=  1.6931
     atom  17 (R=0.103)  charge=  6.2617  magn=  1.6978
     atom  18 (R=0.103)  charge=  6.2614  magn=  1.6959
     atom  19 (R=0.103)  charge=  6.2594  magn=  1.7037
     atom  20 (R=0.103)  charge=  6.2585  magn=  1.7189
     atom  21 (R=0.103)  charge=  6.2603  magn=  1.6926
     atom  22 (R=0.103)  charge=  6.2612  magn=  1.7056
     atom  23 (R=0.103)  charge=  6.2605  magn=  1.6856
     atom  24 (R=0.103)  charge=  6.2604  magn=  1.6994
     atom  25 (R=0.103)  charge=  6.2605  magn=  1.7034
     atom  26 (R=0.103)  charge=  6.2587  magn=  1.7018
     atom  27 (R=0.103)  charge=  6.2608  magn=  1.6997
     atom  28 (R=0.103)  charge=  6.2580  magn=  1.7802
     atom  29 (R=0.103)  charge=  6.2680  magn=  1.6292
     atom  30 (R=0.103)  charge=  6.2588  magn=  1.7610
     atom  31 (R=0.103)  charge=  6.2645  magn=  1.7173
     atom  32 (R=0.103)  charge=  6.2896  magn=  1.2136
     atom  33 (R=0.103)  charge=  6.2561  magn=  1.7611
     atom  34 (R=0.103)  charge=  6.2565  magn=  1.7641
     atom  35 (R=0.103)  charge=  6.2579  magn=  1.7505
     atom  36 (R=0.103)  charge=  6.2538  magn=  1.7849
     atom  37 (R=0.062)  charge=  0.9050  magn= -0.0151
     atom  38 (R=0.068)  charge=  3.1245  magn=  0.0046
     atom  39 (R=0.062)  charge=  0.5047  magn=  0.0092

     total cpu time spent up to now is      940.6 secs

     End of self-consistent calculation

 ------ SPIN UP ------------


          k = 0.0000 0.0000 0.0000 ( 51087 PWs)   bands (ev):

   -21.6602 -10.5382  -7.5151  -6.8786  -6.2567  -5.7049  -5.2752  -4.6414
    -4.6101  -4.6086  -4.6081  -4.6013  -4.5899  -4.5565  -4.2539  -4.0812
    -4.0780  -4.0731  -4.0648  -4.0499  -4.0167  -3.5653  -3.5595  -3.5562
    -3.5545  -3.5408  -3.5115  -3.4383  -3.4281  -3.4257  -3.4248  -3.4197
    -3.4001  -3.3570  -3.3557  -3.0446  -3.0407  -3.0388  -3.0368  -3.0227
    -2.9827  -2.9754  -2.9702  -2.9672  -2.9642  -2.9608  -2.9593  -2.8101
    -2.8080  -2.7807  -2.7517  -2.7385  -2.7324  -2.7308  -2.7231  -2.7083
    -2.7023  -2.6974  -2.6965  -2.6034  -2.6009  -2.5978  -2.5926  -2.5842
    -2.5507  -2.2898  -2.0714  -2.0645  -2.0586  -2.0548  -2.0494  -1.9537
    -1.9368  -1.9233  -1.9069  -1.8965  -1.8946  -1.8873  -1.8805  -1.8793
    -1.8586  -1.8262  -1.8238  -1.7767  -1.7694  -1.7683  -1.7525  -1.7436
    -1.7419  -1.7349  -1.7306  -1.7291  -1.7150  -1.7028  -1.6996  -1.6950
    -1.6927  -1.6897  -1.6876  -1.6872  -1.6860  -1.6809  -1.6771  -1.6769
    -1.6727  -1.6356  -1.6327  -1.6049  -1.5998  -1.5267  -1.5227  -1.4899
    -1.3181  -1.2456  -1.2314  -1.2287  -1.2271  -1.2231  -1.2201  -1.2024
    -1.1941  -1.1926  -1.1585  -1.1520  -1.1392  -1.0985  -1.0203  -1.0186
    -0.9898  -0.9869  -0.8789  -0.8327  -0.8189  -0.8159  -0.8076  -0.7957
    -0.7478  -0.7386  -0.7348  -0.7327  -0.7318  -0.7164  -0.6252  -0.6192
    -0.5157  -0.5000  -0.4910  -0.4899  -0.4674  -0.4584  -0.4315  -0.4271
    -0.4248  -0.4202  -0.4144  -0.4106  -0.4085  -0.4074  -0.4059  -0.4013
    -0.3956  -0.3927  -0.3800  -0.3650  -0.3539  -0.3433  -0.3419  -0.3399
    -0.3264  -0.3187  -0.3007  -0.2983  -0.2947  -0.2704  -0.2678  -0.2658
    -0.2634  -0.2574  -0.2542  -0.2408  -0.2195  -0.2004  -0.1936  -0.1906
    -0.1885  -0.1837  -0.1806  -0.1762  -0.1757  -0.1608  -0.1115  -0.1072
    -0.0958  -0.0947  -0.0323  -0.0313  -0.0265  -0.0207  -0.0198  -0.0025
     0.3523   1.1041

          k = 0.0000 0.2309 0.0000 ( 51134 PWs)   bands (ev):

   -21.6602 -10.5378  -7.3730  -6.8606  -6.1759  -5.6761  -5.3732  -5.2380
    -4.8560  -4.8462  -4.4959  -4.3636  -4.2696  -4.2658  -4.2023  -4.1583
    -4.1133  -4.0766  -4.0076  -3.9514  -3.9350  -3.6852  -3.5716  -3.5624
    -3.4874  -3.4687  -3.4425  -3.4382  -3.4369  -3.4279  -3.4115  -3.3951
    -3.3652  -3.3219  -3.3150  -3.2839  -3.2827  -3.0980  -3.0646  -3.0553
    -3.0254  -2.9994  -2.9975  -2.9881  -2.9228  -2.8977  -2.8676  -2.8403
    -2.8301  -2.8257  -2.8040  -2.7908  -2.7071  -2.6967  -2.6698  -2.6348
    -2.6268  -2.6053  -2.5884  -2.5724  -2.5621  -2.5407  -2.5233  -2.5156
    -2.4640  -2.3193  -2.1858  -2.1720  -2.1475  -2.1304  -2.0911  -2.0340
    -2.0249  -2.0145  -2.0112  -1.9972  -1.9883  -1.9674  -1.9464  -1.9105
    -1.8849  -1.8817  -1.8653  -1.8203  -1.8180  -1.8158  -1.8115  -1.7883
    -1.7857  -1.7761  -1.7723  -1.7702  -1.7687  -1.7410  -1.7009  -1.6825
    -1.6690  -1.6456  -1.6138  -1.5955  -1.5881  -1.5832  -1.5703  -1.5640
    -1.5565  -1.5424  -1.5315  -1.5287  -1.5221  -1.5054  -1.4833  -1.4750
    -1.4662  -1.4552  -1.4297  -1.4086  -1.3659  -1.3300  -1.2593  -1.2546
    -1.2473  -1.2446  -1.2267  -1.2254  -1.2232  -1.2143  -1.1158  -1.0783
    -1.0584  -1.0421  -0.9728  -0.9688  -0.9454  -0.9030  -0.8757  -0.8693
    -0.8084  -0.7995  -0.7716  -0.7520  -0.7353  -0.7247  -0.6844  -0.6839
    -0.6685  -0.6529  -0.6359  -0.6012  -0.5969  -0.5769  -0.5757  -0.5690
    -0.5333  -0.4990  -0.4909  -0.4870  -0.4666  -0.4517  -0.4255  -0.4212
    -0.4151  -0.4124  -0.4082  -0.3977  -0.3768  -0.3676  -0.3597  -0.3509
    -0.2999  -0.2909  -0.2743  -0.2570  -0.2420  -0.2303  -0.2042  -0.1898
    -0.1724  -0.1670  -0.1647  -0.1482  -0.1421  -0.1243  -0.1150  -0.1075
    -0.0740  -0.0342  -0.0288  -0.0216   0.0031   0.0041   0.0465   0.0513
     0.0597   0.1044   0.3319   0.3497   0.4196   0.5223   0.5968   0.6452
     0.6721   0.7891

          k = 0.0000 0.4619 0.0000 ( 51204 PWs)   bands (ev):

   -21.6602 -10.5371  -7.0238  -6.7691  -6.2197  -5.9862  -5.4844  -5.2528
    -4.9980  -4.9772  -4.8784  -4.1712  -4.1120  -4.0996  -4.0607  -4.0317
    -3.9108  -3.9090  -3.8739  -3.7805  -3.7770  -3.7710  -3.6850  -3.5991
    -3.5932  -3.5825  -3.5809  -3.5356  -3.4865  -3.4742  -3.4680  -3.3139
    -3.3092  -3.3007  -3.2858  -3.2627  -3.2611  -3.1656  -3.1562  -3.1442
    -3.1395  -3.1343  -3.0268  -2.9566  -2.9216  -2.8509  -2.8270  -2.8094
    -2.7889  -2.7657  -2.7465  -2.7426  -2.7367  -2.7108  -2.6560  -2.6477
    -2.6230  -2.5867  -2.5800  -2.4706  -2.4370  -2.4326  -2.4171  -2.3775
    -2.3296  -2.3100  -2.3017  -2.2866  -2.2488  -2.1953  -2.1547  -2.1510
    -2.1468  -2.1388  -2.1168  -2.1083  -2.1043  -2.0934  -2.0591  -2.0312
    -2.0173  -1.9934  -1.9752  -1.9495  -1.9358  -1.9167  -1.8612  -1.8323
    -1.8199  -1.8133  -1.7935  -1.7790  -1.7404  -1.7182  -1.7118  -1.7063
    -1.6922  -1.6736  -1.6675  -1.6450  -1.6415  -1.6236  -1.6064  -1.5947
    -1.5811  -1.5729  -1.5206  -1.4761  -1.4576  -1.4427  -1.4143  -1.4043
    -1.3938  -1.3781  -1.3439  -1.3036  -1.2934  -1.2799  -1.2746  -1.2690
    -1.2616  -1.2515  -1.2484  -1.2432  -1.2352  -1.2310  -1.2185  -1.2028
    -1.1847  -1.1670  -1.1107  -1.0704  -1.0431  -1.0310  -1.0163  -0.9958
    -0.9785  -0.9353  -0.9181  -0.8939  -0.8853  -0.8395  -0.8268  -0.7747
    -0.7633  -0.7353  -0.7098  -0.6931  -0.6826  -0.6688  -0.6431  -0.5981
    -0.5639  -0.5119  -0.5019  -0.4900  -0.4851  -0.4816  -0.4737  -0.4656
    -0.4532  -0.4398  -0.3936  -0.3456  -0.3391  -0.3232  -0.3163  -0.3109
    -0.3010  -0.2788  -0.2739  -0.2664  -0.2494  -0.2435  -0.1652  -0.1433
    -0.1369  -0.1322  -0.1072  -0.0866  -0.0440  -0.0349  -0.0065   0.0111
     0.0301   0.0762   0.0786   0.0990   0.1016   0.1057   0.1263   0.1336
     0.2116   0.2264   0.2719   0.9491   1.0831   1.2206   1.3355   1.3645
     1.5374   1.7137

          k = 0.2000-0.1155 0.0000 ( 51134 PWs)   bands (ev):

   -21.6602 -10.5373  -7.3736  -6.8605  -6.1811  -5.6887  -5.3556  -5.2363
    -4.8580  -4.8521  -4.4940  -4.3437  -4.2689  -4.2684  -4.2000  -4.1523
    -4.1150  -4.0970  -3.9970  -3.9513  -3.9446  -3.6832  -3.5713  -3.5631
    -3.4886  -3.4630  -3.4449  -3.4387  -3.4369  -3.4217  -3.4128  -3.3989
    -3.3672  -3.3189  -3.3168  -3.2853  -3.2828  -3.1063  -3.0585  -3.0551
    -3.0060  -3.0028  -2.9964  -2.9909  -2.9276  -2.8784  -2.8708  -2.8462
    -2.8326  -2.8268  -2.8039  -2.7886  -2.6986  -2.6971  -2.6659  -2.6367
    -2.6211  -2.6064  -2.5924  -2.5784  -2.5724  -2.5465  -2.5247  -2.5168
    -2.4586  -2.3111  -2.1854  -2.1671  -2.1579  -2.1357  -2.0933  -2.0315
    -2.0222  -2.0191  -2.0053  -2.0025  -1.9872  -1.9719  -1.9530  -1.9079
    -1.8897  -1.8805  -1.8647  -1.8265  -1.8188  -1.8162  -1.8074  -1.7913
    -1.7826  -1.7757  -1.7723  -1.7702  -1.7653  -1.7328  -1.7020  -1.6908
    -1.6754  -1.6423  -1.6110  -1.5941  -1.5867  -1.5827  -1.5729  -1.5654
    -1.5509  -1.5423  -1.5378  -1.5300  -1.5265  -1.5008  -1.4893  -1.4836
    -1.4640  -1.4581  -1.4331  -1.3800  -1.3635  -1.3338  -1.2638  -1.2542
    -1.2486  -1.2399  -1.2296  -1.2256  -1.2218  -1.2168  -1.1352  -1.0830
    -1.0661  -1.0433  -0.9719  -0.9689  -0.9443  -0.8971  -0.8753  -0.8715
    -0.8307  -0.7789  -0.7587  -0.7449  -0.7309  -0.7224  -0.6915  -0.6833
    -0.6687  -0.6534  -0.6387  -0.5987  -0.5952  -0.5812  -0.5719  -0.5653
    -0.5266  -0.5066  -0.4922  -0.4868  -0.4756  -0.4511  -0.4298  -0.4260
    -0.4200  -0.4122  -0.4042  -0.3951  -0.3807  -0.3684  -0.3550  -0.3380
    -0.3059  -0.2941  -0.2802  -0.2556  -0.2366  -0.2326  -0.2007  -0.1933
    -0.1721  -0.1683  -0.1617  -0.1471  -0.1435  -0.1246  -0.1130  -0.1087
    -0.0763  -0.0333  -0.0294  -0.0209   0.0032   0.0043   0.0381   0.0466
     0.0620   0.1030   0.3404   0.3482   0.4502   0.5424   0.6011   0.6145
     0.6817   0.8367

          k = 0.2000 0.1155 0.0000 ( 51134 PWs)   bands (ev):

   -21.6602 -10.5378  -7.3731  -6.8611  -6.1731  -5.6718  -5.3518  -5.2723
    -4.8501  -4.8430  -4.4986  -4.3723  -4.2706  -4.2644  -4.2032  -4.1591
    -4.1056  -4.0752  -4.0096  -3.9493  -3.9359  -3.6858  -3.5702  -3.5662
    -3.4855  -3.4687  -3.4405  -3.4397  -3.4367  -3.4242  -3.4121  -3.3955
    -3.3664  -3.3215  -3.3150  -3.2842  -3.2820  -3.0945  -3.0566  -3.0553
    -3.0223  -3.0010  -2.9973  -2.9951  -2.9182  -2.8960  -2.8736  -2.8454
    -2.8301  -2.8273  -2.8050  -2.7959  -2.7051  -2.6955  -2.6810  -2.6398
    -2.6267  -2.5995  -2.5911  -2.5691  -2.5574  -2.5405  -2.5247  -2.5190
    -2.4662  -2.3053  -2.1903  -2.1767  -2.1532  -2.1268  -2.0887  -2.0269
    -2.0231  -2.0166  -2.0117  -2.0009  -1.9929  -1.9688  -1.9310  -1.9081
    -1.8939  -1.8782  -1.8586  -1.8274  -1.8185  -1.8149  -1.8097  -1.7862
    -1.7835  -1.7807  -1.7761  -1.7706  -1.7625  -1.7355  -1.6992  -1.6941
    -1.6703  -1.6399  -1.6060  -1.5924  -1.5857  -1.5828  -1.5655  -1.5628
    -1.5550  -1.5438  -1.5396  -1.5287  -1.5236  -1.5056  -1.4812  -1.4748
    -1.4648  -1.4597  -1.4334  -1.4098  -1.3644  -1.3332  -1.2601  -1.2532
    -1.2500  -1.2433  -1.2326  -1.2270  -1.2233  -1.2178  -1.1067  -1.0739
    -1.0568  -1.0410  -0.9769  -0.9681  -0.9417  -0.9031  -0.8794  -0.8712
    -0.8090  -0.7906  -0.7736  -0.7484  -0.7411  -0.7256  -0.6913  -0.6861
    -0.6654  -0.6552  -0.6366  -0.5946  -0.5887  -0.5848  -0.5769  -0.5641
    -0.5326  -0.5024  -0.4924  -0.4858  -0.4722  -0.4374  -0.4299  -0.4264
    -0.4191  -0.4100  -0.4008  -0.3921  -0.3784  -0.3683  -0.3620  -0.3446
    -0.2998  -0.2904  -0.2709  -0.2605  -0.2432  -0.2323  -0.2014  -0.1935
    -0.1703  -0.1685  -0.1653  -0.1467  -0.1365  -0.1252  -0.1134  -0.1078
    -0.0756  -0.0343  -0.0297  -0.0225   0.0042   0.0051   0.0443   0.0502
     0.0623   0.0984   0.3184   0.3499   0.4142   0.5178   0.5936   0.6310
     0.6847   0.7818

          k = 0.2000 0.3464 0.0000 ( 51202 PWs)   bands (ev):

   -21.6602 -10.5375  -7.1174  -6.8144  -6.0686  -5.7073  -5.6897  -5.4774
    -5.2603  -4.5687  -4.5325  -4.2809  -4.2727  -4.2293  -4.0576  -4.0526
    -3.9630  -3.9614  -3.9536  -3.8231  -3.8000  -3.6848  -3.6769  -3.6133
    -3.5654  -3.4777  -3.4707  -3.4501  -3.4287  -3.4227  -3.4145  -3.3908
    -3.3697  -3.3551  -3.3427  -3.3049  -3.2603  -3.2299  -3.2172  -3.1005
    -3.0903  -3.0027  -2.9921  -2.9631  -2.9460  -2.9422  -2.8609  -2.8359
    -2.7928  -2.7641  -2.7602  -2.7560  -2.7072  -2.6947  -2.6781  -2.6705
    -2.6548  -2.5662  -2.5366  -2.4802  -2.4707  -2.4590  -2.4350  -2.4143
    -2.4108  -2.2950  -2.2678  -2.2126  -2.2019  -2.1706  -2.1497  -2.1333
    -2.1124  -2.1045  -2.0984  -2.0808  -2.0667  -2.0516  -2.0451  -2.0304
    -2.0096  -1.9913  -1.9357  -1.9100  -1.8567  -1.8501  -1.8325  -1.8141
    -1.7967  -1.7845  -1.7633  -1.7429  -1.7339  -1.7022  -1.6931  -1.6916
    -1.6774  -1.6733  -1.6593  -1.6462  -1.6400  -1.6269  -1.6146  -1.5941
    -1.5855  -1.5565  -1.5321  -1.5152  -1.5003  -1.4940  -1.4629  -1.4541
    -1.4315  -1.4214  -1.4130  -1.3871  -1.3611  -1.3478  -1.3254  -1.2866
    -1.2813  -1.2779  -1.2716  -1.2501  -1.2367  -1.2334  -1.2136  -1.1800
    -1.1256  -1.1085  -1.1051  -1.0656  -0.9908  -0.9816  -0.9631  -0.8884
    -0.8585  -0.8402  -0.8346  -0.8229  -0.8138  -0.8039  -0.7901  -0.7867
    -0.7539  -0.7423  -0.7160  -0.6855  -0.6739  -0.6644  -0.6444  -0.6344
    -0.6152  -0.6018  -0.5664  -0.5552  -0.5490  -0.5353  -0.4679  -0.3995
    -0.3900  -0.3671  -0.3553  -0.3464  -0.3313  -0.3187  -0.3133  -0.3015
    -0.2980  -0.2877  -0.2214  -0.2056  -0.1979  -0.1878  -0.1526  -0.1461
    -0.1195  -0.1180  -0.1116  -0.1025  -0.0839  -0.0780  -0.0727  -0.0524
    -0.0432  -0.0265   0.0423   0.0505   0.0555   0.1015   0.1048   0.1151
     0.4330   0.4443   0.5091   0.5616   0.7577   0.7730   1.0281   1.2765
     1.3388   1.4881

          k = 0.2000-0.5774 0.0000 ( 51262 PWs)   bands (ev):

   -21.6602 -10.5368  -6.9398  -6.4729  -6.4335  -5.9894  -5.7569  -5.3651
    -5.1300  -5.0172  -4.5932  -4.2588  -4.0201  -3.9795  -3.8798  -3.8437
    -3.8376  -3.8227  -3.8148  -3.7882  -3.7373  -3.7280  -3.7256  -3.7203
    -3.6438  -3.6274  -3.5786  -3.5737  -3.5483  -3.5448  -3.4330  -3.4124
    -3.3922  -3.3872  -3.3648  -3.3288  -3.2384  -3.2265  -3.1264  -3.1034
    -3.0963  -3.0339  -3.0106  -2.9969  -2.9677  -2.8940  -2.8822  -2.8761
    -2.8086  -2.8032  -2.7439  -2.6993  -2.6755  -2.6574  -2.6154  -2.6024
    -2.5431  -2.5164  -2.5061  -2.4960  -2.4914  -2.4552  -2.4451  -2.3861
    -2.3279  -2.3041  -2.2926  -2.2811  -2.2600  -2.2193  -2.1927  -2.1605
    -2.1380  -2.1165  -2.1061  -2.1009  -2.0862  -2.0684  -2.0377  -2.0272
    -2.0207  -2.0086  -1.9944  -1.9680  -1.9645  -1.9403  -1.8955  -1.8817
    -1.8657  -1.8413  -1.8020  -1.7903  -1.7454  -1.7332  -1.7200  -1.6993
    -1.6899  -1.6756  -1.6707  -1.6653  -1.6571  -1.6410  -1.6124  -1.6017
    -1.5439  -1.5283  -1.5230  -1.5166  -1.5054  -1.4946  -1.4909  -1.4819
    -1.4718  -1.4658  -1.4500  -1.4211  -1.4048  -1.3675  -1.3613  -1.3355
    -1.2810  -1.2668  -1.2371  -1.2172  -1.2142  -1.1998  -1.1881  -1.1449
    -1.1160  -1.1112  -1.0985  -1.0427  -1.0134  -0.9786  -0.9593  -0.9418
    -0.9400  -0.9231  -0.9086  -0.8917  -0.8641  -0.8515  -0.8230  -0.7981
    -0.7731  -0.7614  -0.7459  -0.7335  -0.7133  -0.6909  -0.6617  -0.6498
    -0.6341  -0.6207  -0.6118  -0.6001  -0.5688  -0.5497  -0.5200  -0.4576
    -0.3567  -0.3491  -0.3439  -0.3375  -0.3279  -0.3205  -0.3129  -0.3046
    -0.2635  -0.2605  -0.2485  -0.2393  -0.2153  -0.1906  -0.1226  -0.1184
    -0.1075  -0.0904  -0.0732  -0.0670  -0.0260  -0.0128  -0.0102  -0.0026
     0.0059   0.0751   0.0821   0.0908   0.1040   0.1082   0.1340   0.1614
     0.2009   0.4737   0.5362   0.8000   1.2562   1.3842   1.4877   1.7115
     1.8476   1.9098

          k = 0.2000-0.3464 0.0000 ( 51202 PWs)   bands (ev):

   -21.6602 -10.5367  -7.1172  -6.8168  -6.0806  -5.7312  -5.6861  -5.4710
    -5.2312  -4.5966  -4.5022  -4.2759  -4.2702  -4.2291  -4.0556  -4.0527
    -3.9676  -3.9570  -3.9391  -3.8224  -3.8165  -3.6813  -3.6778  -3.6162
    -3.5669  -3.4822  -3.4764  -3.4478  -3.4259  -3.4210  -3.4168  -3.3906
    -3.3735  -3.3553  -3.3480  -3.3034  -3.2621  -3.2224  -3.2150  -3.1045
    -3.0935  -2.9985  -2.9878  -2.9685  -2.9539  -2.9342  -2.8412  -2.7993
    -2.7870  -2.7747  -2.7599  -2.7525  -2.7057  -2.6981  -2.6772  -2.6707
    -2.6538  -2.5405  -2.5352  -2.4936  -2.4793  -2.4535  -2.4360  -2.4197
    -2.4032  -2.3237  -2.2893  -2.2201  -2.2033  -2.1639  -2.1504  -2.1305
    -2.1236  -2.1055  -2.0962  -2.0743  -2.0592  -2.0540  -2.0460  -2.0317
    -2.0267  -1.9971  -1.9329  -1.9051  -1.8566  -1.8483  -1.8217  -1.8149
    -1.8060  -1.7822  -1.7691  -1.7397  -1.7307  -1.7058  -1.6945  -1.6916
    -1.6828  -1.6714  -1.6592  -1.6474  -1.6374  -1.6328  -1.6049  -1.5987
    -1.5830  -1.5764  -1.5543  -1.5220  -1.5045  -1.4922  -1.4585  -1.4502
    -1.4448  -1.4259  -1.4217  -1.3732  -1.3582  -1.3440  -1.3269  -1.3004
    -1.2785  -1.2761  -1.2708  -1.2555  -1.2439  -1.2307  -1.2109  -1.1696
    -1.1385  -1.1056  -1.1021  -1.0647  -0.9932  -0.9807  -0.9629  -0.8641
    -0.8493  -0.8420  -0.8371  -0.8234  -0.8182  -0.8047  -0.7905  -0.7669
    -0.7534  -0.7343  -0.7209  -0.6962  -0.6788  -0.6605  -0.6509  -0.6328
    -0.6143  -0.5891  -0.5731  -0.5531  -0.5499  -0.5319  -0.4596  -0.4053
    -0.3887  -0.3743  -0.3548  -0.3467  -0.3392  -0.3196  -0.3119  -0.3032
    -0.2955  -0.2906  -0.2180  -0.2082  -0.1941  -0.1880  -0.1491  -0.1401
    -0.1222  -0.1176  -0.1145  -0.0968  -0.0869  -0.0772  -0.0710  -0.0566
    -0.0466  -0.0195   0.0409   0.0510   0.0575   0.1016   0.1046   0.1222
     0.4124   0.4450   0.5078   0.5815   0.7033   0.7881   1.1265   1.3100
     1.3248   1.5365

          k = 0.4000-0.2309 0.0000 ( 51204 PWs)   bands (ev):

   -21.6602 -10.5360  -7.0252  -6.7706  -6.2336  -5.9877  -5.5074  -5.2155
    -4.9981  -4.9906  -4.8542  -4.1556  -4.1143  -4.1007  -4.0836  -4.0224
    -3.9116  -3.9103  -3.8707  -3.7844  -3.7776  -3.7692  -3.6746  -3.5997
    -3.5963  -3.5835  -3.5811  -3.5338  -3.4803  -3.4723  -3.4689  -3.3157
    -3.3093  -3.3013  -3.2954  -3.2643  -3.2589  -3.1694  -3.1501  -3.1464
    -3.1353  -3.1333  -3.0226  -2.9377  -2.9227  -2.8406  -2.8246  -2.8029
    -2.7899  -2.7554  -2.7469  -2.7431  -2.7364  -2.7105  -2.6621  -2.6497
    -2.6227  -2.5870  -2.5763  -2.4794  -2.4376  -2.4311  -2.4156  -2.3839
    -2.3349  -2.3186  -2.2948  -2.2852  -2.2631  -2.1929  -2.1716  -2.1488
    -2.1433  -2.1423  -2.1295  -2.1132  -2.1065  -2.0940  -2.0504  -2.0451
    -2.0083  -2.0044  -1.9775  -1.9571  -1.9302  -1.9146  -1.8516  -1.8384
    -1.8239  -1.8146  -1.7876  -1.7742  -1.7425  -1.7163  -1.7113  -1.7045
    -1.6950  -1.6747  -1.6674  -1.6431  -1.6338  -1.6234  -1.6155  -1.5980
    -1.5790  -1.5692  -1.5219  -1.5078  -1.4551  -1.4399  -1.4247  -1.4116
    -1.3899  -1.3703  -1.3477  -1.3050  -1.2981  -1.2785  -1.2739  -1.2699
    -1.2653  -1.2583  -1.2426  -1.2406  -1.2358  -1.2278  -1.2195  -1.2033
    -1.1895  -1.1701  -1.0967  -1.0692  -1.0433  -1.0350  -1.0117  -1.0038
    -0.9718  -0.9439  -0.9146  -0.8948  -0.8872  -0.8383  -0.8230  -0.7751
    -0.7645  -0.7298  -0.7153  -0.6850  -0.6780  -0.6694  -0.6367  -0.5922
    -0.5392  -0.5135  -0.5094  -0.4956  -0.4889  -0.4851  -0.4755  -0.4640
    -0.4582  -0.4357  -0.4053  -0.3476  -0.3310  -0.3261  -0.3162  -0.3142
    -0.3093  -0.2856  -0.2693  -0.2642  -0.2535  -0.2404  -0.1647  -0.1449
    -0.1374  -0.1324  -0.1089  -0.0751  -0.0422  -0.0333  -0.0045   0.0067
     0.0302   0.0747   0.0775   0.0970   0.1005   0.1061   0.1135   0.1369
     0.2119   0.2257   0.3121   0.9189   1.1547   1.2587   1.3345   1.3613
     1.5696   1.6963

          k = 0.4000 0.0000 0.0000 ( 51202 PWs)   bands (ev):

   -21.6602 -10.5368  -7.1187  -6.8152  -6.0773  -5.7252  -5.6833  -5.4708
    -5.2460  -4.5894  -4.5102  -4.2757  -4.2697  -4.2313  -4.0565  -4.0524
    -3.9666  -3.9596  -3.9413  -3.8230  -3.8120  -3.6856  -3.6755  -3.6164
    -3.5663  -3.4780  -3.4771  -3.4473  -3.4293  -3.4202  -3.4110  -3.3900
    -3.3729  -3.3540  -3.3503  -3.3001  -3.2610  -3.2188  -3.2162  -3.1065
    -3.0883  -2.9998  -2.9906  -2.9644  -2.9489  -2.9376  -2.8469  -2.8054
    -2.7926  -2.7753  -2.7598  -2.7562  -2.7106  -2.6997  -2.6802  -2.6714
    -2.6534  -2.5583  -2.5349  -2.4870  -2.4790  -2.4572  -2.4352  -2.4180
    -2.4065  -2.3147  -2.2676  -2.2176  -2.2044  -2.1657  -2.1446  -2.1247
    -2.1178  -2.1138  -2.1002  -2.0785  -2.0660  -2.0477  -2.0445  -2.0306
    -2.0213  -1.9927  -1.9373  -1.9071  -1.8568  -1.8520  -1.8335  -1.8159
    -1.8031  -1.7813  -1.7640  -1.7392  -1.7264  -1.7032  -1.6970  -1.6927
    -1.6757  -1.6715  -1.6572  -1.6537  -1.6401  -1.6334  -1.6117  -1.5934
    -1.5855  -1.5740  -1.5389  -1.5222  -1.5027  -1.4861  -1.4610  -1.4508
    -1.4411  -1.4283  -1.4176  -1.3779  -1.3607  -1.3496  -1.3257  -1.2948
    -1.2802  -1.2757  -1.2732  -1.2504  -1.2391  -1.2319  -1.2139  -1.1751
    -1.1280  -1.1092  -1.1009  -1.0669  -0.9918  -0.9760  -0.9614  -0.8881
    -0.8458  -0.8438  -0.8360  -0.8258  -0.8156  -0.8038  -0.7898  -0.7706
    -0.7591  -0.7397  -0.7163  -0.6848  -0.6734  -0.6664  -0.6443  -0.6331
    -0.6094  -0.5964  -0.5638  -0.5583  -0.5500  -0.5321  -0.4681  -0.4052
    -0.3910  -0.3620  -0.3570  -0.3497  -0.3346  -0.3232  -0.3117  -0.3040
    -0.2961  -0.2898  -0.2180  -0.2092  -0.1962  -0.1889  -0.1522  -0.1405
    -0.1207  -0.1161  -0.1112  -0.0940  -0.0848  -0.0795  -0.0713  -0.0611
    -0.0455  -0.0228   0.0422   0.0506   0.0567   0.1029   0.1067   0.1138
     0.4171   0.4449   0.5086   0.5847   0.7207   0.7874   1.0767   1.2832
     1.3490   1.5045

          k = 0.4000 0.2309 0.0000 ( 51204 PWs)   bands (ev):

   -21.6602 -10.5374  -7.0278  -6.7664  -6.2096  -5.9851  -5.4623  -5.2892
    -4.9967  -4.9657  -4.8967  -4.1752  -4.1019  -4.0997  -4.0572  -4.0336
    -3.9120  -3.9070  -3.8744  -3.7804  -3.7769  -3.7728  -3.6899  -3.5994
    -3.5948  -3.5819  -3.5797  -3.5369  -3.4864  -3.4737  -3.4639  -3.3125
    -3.3084  -3.2967  -3.2819  -3.2640  -3.2565  -3.1633  -3.1484  -3.1444
    -3.1391  -3.1338  -3.0199  -2.9624  -2.9322  -2.8614  -2.8345  -2.8073
    -2.7946  -2.7632  -2.7488  -2.7414  -2.7382  -2.7214  -2.6506  -2.6469
    -2.6261  -2.5961  -2.5795  -2.4725  -2.4336  -2.4284  -2.4233  -2.3752
    -2.3293  -2.3095  -2.3020  -2.2884  -2.2422  -2.1944  -2.1647  -2.1514
    -2.1438  -2.1403  -2.1227  -2.1083  -2.0985  -2.0955  -2.0771  -2.0268
    -2.0067  -1.9903  -1.9727  -1.9414  -1.9197  -1.9142  -1.8681  -1.8295
    -1.8225  -1.8194  -1.7910  -1.7745  -1.7330  -1.7139  -1.7056  -1.7039
    -1.6883  -1.6746  -1.6636  -1.6419  -1.6360  -1.6254  -1.6045  -1.5892
    -1.5803  -1.5679  -1.5223  -1.4861  -1.4525  -1.4409  -1.4182  -1.4093
    -1.3831  -1.3726  -1.3439  -1.3073  -1.2930  -1.2841  -1.2755  -1.2721
    -1.2654  -1.2576  -1.2469  -1.2436  -1.2403  -1.2300  -1.2167  -1.1997
    -1.1860  -1.1512  -1.1196  -1.0705  -1.0429  -1.0297  -1.0193  -0.9888
    -0.9681  -0.9493  -0.9151  -0.9070  -0.8883  -0.8377  -0.8298  -0.7884
    -0.7651  -0.7305  -0.7128  -0.6927  -0.6802  -0.6617  -0.6317  -0.5992
    -0.5713  -0.5178  -0.5069  -0.4910  -0.4871  -0.4774  -0.4724  -0.4655
    -0.4557  -0.4356  -0.3961  -0.3422  -0.3347  -0.3258  -0.3167  -0.3109
    -0.3029  -0.2729  -0.2701  -0.2633  -0.2530  -0.2437  -0.1606  -0.1429
    -0.1385  -0.1356  -0.1081  -0.0875  -0.0429  -0.0362  -0.0060   0.0126
     0.0296   0.0765   0.0781   0.1009   0.1021   0.1045   0.1256   0.1410
     0.2096   0.2217   0.2660   0.9237   1.0809   1.2056   1.3324   1.3579
     1.5666   1.6995

          k = 0.4000-0.6928 0.0000 ( 51262 PWs)   bands (ev):

   -21.6602 -10.5369  -6.9435  -6.4707  -6.4242  -5.9979  -5.7555  -5.3183
    -5.1827  -5.0277  -4.5779  -4.2577  -4.0213  -3.9803  -3.8855  -3.8449
    -3.8363  -3.8241  -3.8123  -3.7922  -3.7348  -3.7289  -3.7261  -3.7186
    -3.6440  -3.6296  -3.5784  -3.5726  -3.5479  -3.5445  -3.4290  -3.4068
    -3.3925  -3.3863  -3.3614  -3.3277  -3.2430  -3.2223  -3.1292  -3.0980
    -3.0950  -3.0342  -3.0122  -2.9956  -2.9648  -2.9009  -2.8844  -2.8753
    -2.8190  -2.8070  -2.7423  -2.7036  -2.6729  -2.6624  -2.6204  -2.5990
    -2.5402  -2.5179  -2.5066  -2.4958  -2.4931  -2.4638  -2.4489  -2.3770
    -2.3267  -2.2998  -2.2941  -2.2837  -2.2482  -2.2220  -2.1911  -2.1644
    -2.1420  -2.1163  -2.1081  -2.1012  -2.0877  -2.0715  -2.0395  -2.0259
    -2.0154  -2.0067  -2.0007  -1.9682  -1.9659  -1.9288  -1.8921  -1.8778
    -1.8688  -1.8562  -1.7931  -1.7884  -1.7524  -1.7265  -1.7103  -1.7016
    -1.6820  -1.6783  -1.6703  -1.6609  -1.6538  -1.6228  -1.6158  -1.5915
    -1.5381  -1.5294  -1.5227  -1.5153  -1.4985  -1.4956  -1.4919  -1.4797
    -1.4739  -1.4633  -1.4452  -1.4285  -1.4089  -1.3756  -1.3604  -1.3422
    -1.2853  -1.2775  -1.2321  -1.2200  -1.2128  -1.2039  -1.1919  -1.1422
    -1.1208  -1.1119  -1.1048  -1.0463  -1.0018  -0.9788  -0.9634  -0.9498
    -0.9297  -0.9207  -0.9061  -0.8951  -0.8623  -0.8489  -0.8139  -0.8018
    -0.7812  -0.7606  -0.7434  -0.7355  -0.7168  -0.6857  -0.6572  -0.6460
    -0.6361  -0.6282  -0.6114  -0.5963  -0.5657  -0.5467  -0.5264  -0.4647
    -0.3604  -0.3473  -0.3425  -0.3367  -0.3307  -0.3202  -0.3138  -0.2983
    -0.2666  -0.2590  -0.2499  -0.2401  -0.2172  -0.1870  -0.1223  -0.1189
    -0.1077  -0.0890  -0.0737  -0.0640  -0.0297  -0.0145  -0.0090  -0.0009
     0.0021   0.0791   0.0830   0.0885   0.1044   0.1101   0.1313   0.1588
     0.1950   0.4799   0.5356   0.8181   1.2127   1.3862   1.4799   1.7313
     1.8327   1.8932

          k = 0.4000-0.4619 0.0000 ( 51262 PWs)   bands (ev):

   -21.6602 -10.5361  -6.9401  -6.4719  -6.4464  -5.9763  -5.7628  -5.4142
    -5.0556  -5.0167  -4.6171  -4.2612  -4.0178  -3.9773  -3.8644  -3.8445
    -3.8394  -3.8184  -3.8115  -3.7880  -3.7432  -3.7283  -3.7266  -3.7208
    -3.6409  -3.6283  -3.5775  -3.5764  -3.5475  -3.5427  -3.4469  -3.4091
    -3.3911  -3.3840  -3.3686  -3.3293  -3.2412  -3.2276  -3.1236  -3.0985
    -3.0937  -3.0266  -3.0158  -2.9945  -2.9675  -2.8869  -2.8820  -2.8776
    -2.8100  -2.8048  -2.7339  -2.6963  -2.6660  -2.6570  -2.6126  -2.6007
    -2.5478  -2.5173  -2.5071  -2.4940  -2.4892  -2.4639  -2.4485  -2.3844
    -2.3391  -2.3051  -2.2844  -2.2809  -2.2548  -2.2245  -2.2092  -2.1611
    -2.1471  -2.1179  -2.1109  -2.0995  -2.0899  -2.0548  -2.0415  -2.0317
    -2.0206  -2.0113  -1.9897  -1.9736  -1.9656  -1.9582  -1.8949  -1.8817
    -1.8611  -1.8262  -1.8067  -1.7861  -1.7468  -1.7358  -1.7294  -1.7043
    -1.6858  -1.6774  -1.6706  -1.6667  -1.6520  -1.6421  -1.6170  -1.6091
    -1.5504  -1.5294  -1.5202  -1.5166  -1.5002  -1.4972  -1.4907  -1.4778
    -1.4740  -1.4670  -1.4493  -1.4164  -1.4055  -1.3684  -1.3619  -1.3341
    -1.2789  -1.2692  -1.2346  -1.2227  -1.2113  -1.2023  -1.1881  -1.1295
    -1.1179  -1.1090  -1.1008  -1.0463  -1.0241  -0.9768  -0.9655  -0.9455
    -0.9310  -0.9192  -0.9091  -0.8956  -0.8607  -0.8541  -0.8249  -0.8000
    -0.7780  -0.7621  -0.7483  -0.7301  -0.7156  -0.6840  -0.6581  -0.6442
    -0.6340  -0.6215  -0.6122  -0.5919  -0.5655  -0.5448  -0.5291  -0.4551
    -0.3596  -0.3530  -0.3440  -0.3363  -0.3262  -0.3244  -0.3162  -0.3035
    -0.2678  -0.2574  -0.2443  -0.2399  -0.2169  -0.1906  -0.1241  -0.1176
    -0.1033  -0.0919  -0.0750  -0.0683  -0.0259  -0.0131  -0.0093   0.0004
     0.0059   0.0716   0.0817   0.0855   0.1041   0.1079   0.1340   0.1614
     0.2540   0.4535   0.5150   0.7909   1.3207   1.3777   1.5195   1.6620
     1.8594   1.9369

 ------ SPIN DOWN ----------


          k = 0.0000 0.0000 0.0000 ( 51087 PWs)   bands (ev):

   -21.6545 -10.5602  -7.6419  -6.8314  -6.3083  -5.6875  -5.2983  -4.4422
    -4.4164  -4.4122  -4.4107  -4.4041  -4.3894  -4.2904  -3.5453  -3.5395
    -3.5355  -3.5227  -3.5126  -3.4995  -3.3828  -2.5991  -2.5922  -2.5873
    -2.5826  -2.5714  -2.5199  -2.1732  -2.1314  -2.1272  -2.1218  -2.1167
    -2.1127  -1.9383  -1.9225  -1.8586  -1.8493  -1.8352  -1.8287  -1.8094
    -1.7369  -1.7337  -1.6870  -1.6835  -1.6355  -1.5903  -1.5833  -1.5741
    -1.5573  -1.4806  -1.3681  -1.3298  -1.3127  -1.3072  -1.2926  -1.2892
    -1.2852  -1.2844  -1.2723  -1.2388  -1.2286  -1.2100  -1.2081  -1.2027
    -1.1902  -1.0706  -0.7286  -0.6470  -0.6383  -0.6293  -0.6274  -0.4763
    -0.4373  -0.3432  -0.3148  -0.3059  -0.3024  -0.2976  -0.2874  -0.2751
    -0.2468  -0.2274  -0.2147  -0.2098  -0.2073  -0.2047  -0.1704  -0.1445
    -0.1230  -0.1176  -0.1052  -0.1038  -0.0740  -0.0546  -0.0490  -0.0481
    -0.0443  -0.0416  -0.0197  -0.0183  -0.0163  -0.0147   0.0510   0.0772
     0.1216   0.1413   0.1551   0.1666   0.1947   0.2047   0.2090   0.2114
     0.2136   0.2164   0.2184   0.2196   0.2898   0.2906   0.3515   0.3673
     0.3830   0.3957   0.3999   0.4049   0.5898   0.5997   0.6305   0.6523
     0.6800   0.6867   0.6969   0.6982   0.7467   0.9755   0.9923   1.0369
     1.0380   1.1700   1.2036   1.2185   1.2419   1.2560   1.2625   1.2654
     1.3647   1.4036   1.4218   1.4273   1.4344   1.4360   1.4492   1.4618
     1.4818   1.4896   1.5171   1.5224   1.5383   1.5568   1.5674   1.5807
     1.5866   1.5878   1.5902   1.6047   1.6432   1.6621   1.6675   1.6711
     1.6903   1.7040   1.7075   1.7123   1.7152   1.7188   1.7238   1.7593
     1.7607   1.7837   1.7889   1.7964   1.8044   1.8067   1.8140   1.8159
     1.8484   1.8530   1.8581   1.8601   1.8636   1.8648   1.8730   1.8754
     1.8861   1.8984   1.9382   1.9392   2.0857   2.0912   2.0941   2.0967
     2.0974   2.0986

          k = 0.0000 0.2309 0.0000 ( 51134 PWs)   bands (ev):

   -21.6545 -10.5598  -7.4952  -6.8127  -6.2191  -5.6823  -5.3943  -5.2634
    -4.7948  -4.7811  -4.2768  -4.1632  -3.8678  -3.8607  -3.7721  -3.7211
    -3.5748  -3.3234  -3.1925  -3.1694  -3.0901  -2.8240  -2.6055  -2.5771
    -2.5405  -2.4903  -2.4683  -2.2571  -2.1738  -2.1630  -2.1565  -2.1406
    -2.1160  -2.0717  -2.0657  -2.0462  -2.0274  -1.9123  -1.8834  -1.8411
    -1.7994  -1.7869  -1.7389  -1.6331  -1.6068  -1.5992  -1.5618  -1.5064
    -1.4545  -1.4227  -1.3868  -1.3642  -1.3414  -1.3223  -1.3028  -1.2965
    -1.2889  -1.2504  -1.2197  -1.1773  -1.1606  -1.1441  -1.1242  -1.1019
    -1.0401  -0.9645  -0.7866  -0.6940  -0.6840  -0.6695  -0.6393  -0.5757
    -0.5423  -0.5139  -0.4630  -0.4486  -0.3562  -0.3311  -0.3184  -0.3074
    -0.2822  -0.2742  -0.2642  -0.2494  -0.2332  -0.2277  -0.1908  -0.1547
    -0.1273  -0.1040  -0.0979  -0.0863  -0.0727  -0.0462  -0.0352  -0.0187
    -0.0152  -0.0068   0.0021   0.0041   0.0104   0.0116   0.0296   0.0550
     0.0896   0.0962   0.1070   0.1102   0.1391   0.1536   0.1633   0.1790
     0.2192   0.2293   0.2625   0.2796   0.3076   0.3237   0.3268   0.3573
     0.4844   0.4912   0.5505   0.5658   0.5787   0.6174   0.6231   0.6327
     0.6512   0.6681   0.6758   0.6773   0.8570   0.9518   0.9801   1.0036
     1.0060   1.0238   1.0439   1.0497   1.0889   1.1118   1.1793   1.1951
     1.2021   1.2748   1.2848   1.3099   1.3243   1.3484   1.3735   1.3760
     1.4282   1.4669   1.4820   1.4901   1.4983   1.5199   1.5441   1.5469
     1.5765   1.5958   1.6256   1.6484   1.6680   1.6793   1.6902   1.7111
     1.7328   1.7446   1.7531   1.7596   1.7707   1.7822   1.8310   1.8381
     1.8451   1.8484   1.8918   1.8975   1.9044   1.9209   1.9351   1.9460
     1.9541   1.9893   1.9944   1.9980   2.0242   2.0288   2.0344   2.0506
     2.0586   2.0847   2.0895   2.1035   2.1793   2.1881   2.1949   2.2142
     2.2679   2.2864

          k = 0.0000 0.4619 0.0000 ( 51204 PWs)   bands (ev):

   -21.6545 -10.5591  -7.0874  -6.7746  -6.3113  -6.0024  -5.5277  -5.2828
    -5.0130  -4.9829  -4.8712  -3.9357  -3.8948  -3.7934  -3.3233  -3.2462
    -3.2407  -3.1290  -2.9852  -2.9298  -2.7985  -2.7897  -2.6470  -2.6430
    -2.5872  -2.5661  -2.5240  -2.5099  -2.4005  -2.3964  -2.3567  -2.3274
    -2.3172  -2.1251  -2.1074  -2.0628  -2.0277  -1.9583  -1.9104  -1.9036
    -1.8938  -1.8876  -1.7544  -1.6052  -1.5979  -1.5673  -1.5498  -1.4965
    -1.3784  -1.3718  -1.3594  -1.3404  -1.3272  -1.3143  -1.3057  -1.2956
    -1.2362  -1.2019  -1.1853  -1.1801  -1.1516  -1.1228  -1.0220  -0.9685
    -0.8707  -0.8339  -0.8002  -0.7350  -0.7057  -0.6716  -0.6506  -0.6309
    -0.6174  -0.5985  -0.5677  -0.5304  -0.5213  -0.4752  -0.4539  -0.4264
    -0.4012  -0.3721  -0.3492  -0.3410  -0.3344  -0.2899  -0.2416  -0.1971
    -0.1584  -0.1483  -0.1193  -0.0848  -0.0690  -0.0470  -0.0311  -0.0038
     0.0169   0.0324   0.0402   0.0568   0.0588   0.0665   0.0841   0.1054
     0.1208   0.1502   0.1616   0.1637   0.1695   0.1753   0.1916   0.2199
     0.2255   0.2436   0.2768   0.3653   0.3713   0.3769   0.4111   0.4257
     0.4295   0.4495   0.4587   0.5205   0.5342   0.5405   0.5619   0.5817
     0.5996   0.6277   0.6416   0.6520   0.6822   0.7111   0.8185   0.8409
     0.8658   0.8894   0.9544   1.0426   1.0710   1.0835   1.1047   1.1144
     1.1243   1.1701   1.1823   1.2092   1.2205   1.2554   1.3360   1.3898
     1.4066   1.4400   1.4664   1.4819   1.5100   1.5255   1.5447   1.5707
     1.5957   1.6080   1.6306   1.6816   1.7140   1.7269   1.7362   1.7567
     1.7646   1.7705   1.7973   1.8142   1.8321   1.8443   1.8608   1.8736
     1.8927   1.9112   1.9708   1.9873   2.0013   2.0263   2.0332   2.0463
     2.0505   2.0554   2.0870   2.0929   2.0967   2.1184   2.1241   2.1267
     2.1333   2.1748   2.2733   2.3408   2.3724   2.4634   2.4881   2.7892
     2.8569   2.8929

          k = 0.2000-0.1155 0.0000 ( 51134 PWs)   bands (ev):

   -21.6545 -10.5594  -7.4957  -6.8122  -6.2244  -5.6989  -5.3775  -5.2526
    -4.7990  -4.7895  -4.2766  -4.1316  -3.8669  -3.8627  -3.7735  -3.7483
    -3.5705  -3.3218  -3.1918  -3.1837  -3.0790  -2.8054  -2.6090  -2.5932
    -2.5310  -2.4892  -2.4759  -2.2670  -2.1727  -2.1638  -2.1531  -2.1239
    -2.1141  -2.0733  -2.0659  -2.0439  -2.0307  -1.9188  -1.8832  -1.8273
    -1.8004  -1.7925  -1.6890  -1.6624  -1.6102  -1.6009  -1.5843  -1.4862
    -1.4622  -1.4260  -1.3935  -1.3700  -1.3426  -1.3238  -1.3035  -1.2947
    -1.2893  -1.2767  -1.2128  -1.1746  -1.1631  -1.1451  -1.1178  -1.1022
    -1.0355  -0.9684  -0.7887  -0.6962  -0.6822  -0.6725  -0.6300  -0.5737
    -0.5375  -0.5184  -0.4657  -0.4488  -0.3493  -0.3330  -0.3250  -0.3063
    -0.2847  -0.2741  -0.2631  -0.2478  -0.2419  -0.2283  -0.1904  -0.1523
    -0.1180  -0.1068  -0.0979  -0.0903  -0.0712  -0.0476  -0.0359  -0.0190
    -0.0131  -0.0078   0.0004   0.0045   0.0071   0.0112   0.0357   0.0537
     0.0906   0.0966   0.1067   0.1080   0.1417   0.1545   0.1711   0.1759
     0.2147   0.2307   0.2460   0.2751   0.3135   0.3211   0.3257   0.3566
     0.4771   0.5045   0.5563   0.5680   0.5938   0.6072   0.6225   0.6469
     0.6567   0.6653   0.6711   0.6784   0.8565   0.9486   0.9922   1.0043
     1.0103   1.0232   1.0430   1.0508   1.1008   1.1275   1.1716   1.1952
     1.2124   1.2650   1.2838   1.3031   1.3320   1.3391   1.3723   1.3942
     1.4275   1.4533   1.4746   1.4922   1.5010   1.5178   1.5405   1.5476
     1.5694   1.5919   1.6300   1.6404   1.6567   1.6774   1.6869   1.7054
     1.7409   1.7479   1.7508   1.7560   1.7807   1.7821   1.8331   1.8420
     1.8448   1.8484   1.8889   1.8961   1.9049   1.9211   1.9391   1.9436
     1.9572   1.9848   1.9941   1.9981   2.0250   2.0299   2.0312   2.0574
     2.0630   2.0830   2.0858   2.1055   2.1744   2.1923   2.1952   2.2301
     2.2660   2.2845

          k = 0.2000 0.1155 0.0000 ( 51134 PWs)   bands (ev):

   -21.6545 -10.5599  -7.4952  -6.8136  -6.2161  -5.6760  -5.3759  -5.2976
    -4.7852  -4.7805  -4.2797  -4.1743  -3.8668  -3.8623  -3.7617  -3.7174
    -3.5764  -3.3229  -3.1907  -3.1725  -3.0903  -2.8276  -2.6030  -2.5737
    -2.5354  -2.4927  -2.4722  -2.2534  -2.1823  -2.1580  -2.1548  -2.1349
    -2.1180  -2.0721  -2.0654  -2.0400  -2.0299  -1.9141  -1.8830  -1.8454
    -1.7996  -1.7932  -1.7278  -1.6616  -1.6094  -1.6011  -1.5391  -1.4818
    -1.4671  -1.4337  -1.3904  -1.3727  -1.3422  -1.3100  -1.3060  -1.2961
    -1.2894  -1.2486  -1.2261  -1.1861  -1.1601  -1.1406  -1.1209  -1.1001
    -1.0357  -0.9523  -0.8014  -0.6929  -0.6832  -0.6577  -0.6304  -0.5828
    -0.5527  -0.5181  -0.4553  -0.4475  -0.3584  -0.3248  -0.3221  -0.3078
    -0.2753  -0.2705  -0.2641  -0.2475  -0.2376  -0.2191  -0.2049  -0.1606
    -0.1223  -0.1023  -0.0961  -0.0921  -0.0751  -0.0440  -0.0339  -0.0186
    -0.0149  -0.0066  -0.0038   0.0033   0.0051   0.0172   0.0336   0.0550
     0.0920   0.0961   0.1097   0.1117   0.1359   0.1581   0.1701   0.1736
     0.2183   0.2289   0.2573   0.2785   0.3120   0.3176   0.3272   0.3572
     0.4904   0.5096   0.5332   0.5645   0.5804   0.6167   0.6246   0.6368
     0.6480   0.6635   0.6751   0.6791   0.8392   0.9518   0.9804   0.9954
     1.0069   1.0231   1.0410   1.0497   1.0833   1.1237   1.1796   1.2018
     1.2099   1.2704   1.2824   1.3142   1.3363   1.3418   1.3709   1.3774
     1.4324   1.4651   1.4835   1.4913   1.4971   1.5199   1.5421   1.5489
     1.5660   1.5981   1.6253   1.6406   1.6595   1.6811   1.6946   1.7224
     1.7382   1.7478   1.7485   1.7596   1.7685   1.7803   1.8338   1.8372
     1.8416   1.8478   1.8897   1.8986   1.9067   1.9227   1.9315   1.9451
     1.9546   1.9921   1.9946   2.0015   2.0242   2.0299   2.0330   2.0534
     2.0589   2.0847   2.0881   2.1038   2.1747   2.1892   2.1997   2.2129
     2.2695   2.2830

          k = 0.2000 0.3464 0.0000 ( 51202 PWs)   bands (ev):

   -21.6545 -10.5595  -7.2142  -6.7865  -6.0836  -5.7875  -5.7710  -5.4954
    -5.2874  -4.5225  -4.4558  -4.0645  -4.0509  -3.9492  -3.2255  -3.2184
    -3.2118  -3.2038  -3.1025  -3.0113  -2.9196  -2.9063  -2.8993  -2.5446
    -2.4783  -2.4617  -2.4567  -2.3757  -2.3624  -2.3414  -2.2634  -2.2569
    -2.2491  -2.2392  -2.2292  -2.0981  -2.0643  -1.9694  -1.8640  -1.8595
    -1.8235  -1.8009  -1.7357  -1.7274  -1.6470  -1.5709  -1.5272  -1.5067
    -1.4031  -1.3787  -1.3443  -1.3416  -1.3366  -1.3170  -1.2892  -1.2798
    -1.2654  -1.2357  -1.1952  -1.1591  -1.1148  -1.0613  -1.0081  -0.9612
    -0.8970  -0.8634  -0.8001  -0.7565  -0.6715  -0.6415  -0.6312  -0.6028
    -0.5800  -0.5591  -0.5511  -0.5274  -0.4774  -0.4577  -0.4388  -0.4226
    -0.4028  -0.3841  -0.3695  -0.3617  -0.3153  -0.2392  -0.2017  -0.1883
    -0.1744  -0.1599  -0.1215  -0.1027  -0.0857  -0.0763  -0.0581  -0.0469
    -0.0278  -0.0097   0.0046   0.0179   0.0284   0.0479   0.0723   0.0896
     0.1028   0.1083   0.1276   0.1454   0.1482   0.1579   0.1777   0.1815
     0.2039   0.2666   0.2764   0.2979   0.3977   0.4166   0.4291   0.4472
     0.4673   0.4824   0.5151   0.5513   0.5808   0.5943   0.6012   0.6070
     0.6200   0.6329   0.6701   0.7023   0.7509   0.7871   0.9021   0.9206
     0.9831   1.0173   1.0347   1.0481   1.0740   1.0841   1.0989   1.1072
     1.1262   1.1403   1.1577   1.1816   1.1946   1.2449   1.3070   1.3249
     1.3503   1.3585   1.3990   1.4069   1.4247   1.4422   1.4848   1.5022
     1.5663   1.6211   1.6795   1.7165   1.7264   1.7393   1.7601   1.7767
     1.7888   1.7909   1.8034   1.8181   1.8311   1.8865   1.8946   1.8978
     1.9107   1.9432   1.9550   1.9604   1.9745   1.9988   2.0067   2.0299
     2.0342   2.0442   2.0466   2.0700   2.0765   2.0906   2.1212   2.1493
     2.1712   2.1819   2.2790   2.3013   2.3286   2.4133   2.4483   2.5834
     2.7001   2.7680

          k = 0.2000-0.5774 0.0000 ( 51262 PWs)   bands (ev):

   -21.6545 -10.5587  -6.9032  -6.5918  -6.5203  -6.0100  -5.8214  -5.4097
    -5.1719  -5.0351  -4.5592  -4.1111  -3.5926  -3.4685  -3.2498  -3.2452
    -3.2131  -3.0242  -2.9918  -2.8418  -2.8326  -2.8259  -2.7009  -2.6892
    -2.6815  -2.6630  -2.6466  -2.6297  -2.4552  -2.3183  -2.3006  -2.2861
    -2.2683  -2.2566  -2.2125  -2.2094  -2.1180  -2.0908  -1.9193  -1.8273
    -1.7602  -1.7499  -1.7437  -1.6695  -1.6224  -1.5686  -1.5112  -1.4989
    -1.4542  -1.4485  -1.4350  -1.3387  -1.2941  -1.2770  -1.2655  -1.2364
    -1.2075  -1.1442  -1.1182  -1.1016  -1.0482  -1.0341  -1.0162  -0.9393
    -0.9185  -0.8594  -0.7603  -0.7260  -0.7216  -0.6756  -0.6522  -0.6437
    -0.5947  -0.5733  -0.5552  -0.5249  -0.4914  -0.4708  -0.4400  -0.4254
    -0.4050  -0.3895  -0.3813  -0.3622  -0.3592  -0.3452  -0.3162  -0.2933
[...]
     atom    8 type  1   force =    -0.00074564   -0.00267125   -0.10258175
     atom    9 type  1   force =     0.00135177    0.00160633   -0.10439592
     atom   10 type  1   force =     0.00149683    0.00139952   -0.01148946
     atom   11 type  1   force =    -0.00037947   -0.00075375   -0.00871807
     atom   12 type  1   force =    -0.00099805    0.00077849   -0.01018628
     atom   13 type  1   force =    -0.00178067   -0.00007089   -0.01054388
     atom   14 type  1   force =     0.00133730    0.00137030   -0.01029731
     atom   15 type  1   force =    -0.00007632   -0.00004935   -0.00998840
     atom   16 type  1   force =     0.00044219   -0.00173145   -0.00946082
     atom   17 type  1   force =    -0.00061735   -0.00087536   -0.00971191
     atom   18 type  1   force =     0.00060130    0.00009158   -0.01208583
     atom   19 type  1   force =    -0.00107523   -0.00029871    0.01220650
     atom   20 type  1   force =    -0.00450900    0.00400139    0.00325837
     atom   21 type  1   force =     0.00292404   -0.00542961    0.01000272
     atom   22 type  1   force =     0.00198950    0.00030470    0.01661214
     atom   23 type  1   force =    -0.00123081    0.00542288    0.00769986
     atom   24 type  1   force =    -0.00064991    0.00114969    0.01769528
     atom   25 type  1   force =     0.00041870    0.00049045    0.01875278
     atom   26 type  1   force =    -0.00503649   -0.00435699    0.00452451
     atom   27 type  1   force =     0.00694148   -0.00144315    0.00558509
     atom   28 type  1   force =     0.01842371    0.00288063    0.12773969
     atom   29 type  1   force =     0.00343165    0.05357294    0.17224225
     atom   30 type  1   force =    -0.02238445    0.00789355    0.12861236
     atom   31 type  1   force =     0.03080927   -0.04058128    0.15495610
     atom   32 type  1   force =     0.00736654    0.01105464    0.16347780
     atom   33 type  1   force =    -0.00494886    0.00104917    0.11175307
     atom   34 type  1   force =    -0.00007961   -0.00670953    0.11346368
     atom   35 type  1   force =    -0.00227339   -0.00224561    0.12552367
     atom   36 type  1   force =    -0.00105167    0.00292823    0.10712806
     atom   37 type  2   force =    -0.15677000   -0.18689767    0.21178647
     atom   38 type  3   force =     1.35813086    1.56957831   -1.60952500
     atom   39 type  4   force =    -0.04075358   -0.04460463   -0.03488708
     The ionic contribution  to forces
     atom    1 type  1   force =    -0.00669973    0.00135746 -111.16248992
     atom    2 type  1   force =    -0.00271189    0.00264141 -111.18136648
     atom    3 type  1   force =     0.00941152    0.00098536 -111.16787110
     atom    4 type  1   force =    -0.00359287    0.00520936 -111.16140919
     atom    5 type  1   force =     0.00194489    0.00736271 -111.16473193
     atom    6 type  1   force =     0.00164803   -0.00139908 -111.15759172
     atom    7 type  1   force =     0.00101075   -0.00120794 -111.15711635
     atom    8 type  1   force =    -0.00579050   -0.00621818 -111.16659650
     atom    9 type  1   force =     0.00477979   -0.00873110 -111.16864298
     atom   10 type  1   force =    -0.04342401   -0.01743963  -40.10494649
     atom   11 type  1   force =    -0.01317690   -0.05506266  -40.21902817
     atom   12 type  1   force =     0.05659035   -0.03205837  -40.12983851
     atom   13 type  1   force =    -0.06006027    0.04102344  -40.16808273
     atom   14 type  1   force =     0.04150515    0.04564913  -40.20709782
     atom   15 type  1   force =     0.01857094    0.01288257  -40.08762016
     atom   16 type  1   force =    -0.00597517    0.03961010  -40.09400532
     atom   17 type  1   force =     0.00247363   -0.00836238  -40.09971335
     atom   18 type  1   force =     0.00349956   -0.02624117  -40.08871209
     atom   19 type  1   force =    -0.32267538    0.06609220   31.48883622
     atom   20 type  1   force =    -0.16066728    0.14743615   30.46849871
     atom   21 type  1   force =     0.47970602    0.04449695   31.22754698
     atom   22 type  1   force =    -0.16988128    0.24789750   31.54145793
     atom   23 type  1   force =     0.09891692    0.36478671   31.38276025
     atom   24 type  1   force =     0.07169652   -0.06347859   31.69329644
     atom   25 type  1   force =     0.04065270   -0.05302729   31.71520355
     atom   26 type  1   force =    -0.28542529   -0.31314310   31.28470115
     atom   27 type  1   force =     0.24539813   -0.44044222   31.19266382
     atom   28 type  1   force =    -1.68451684   -0.58696787  103.69948205
     atom   29 type  1   force =    -0.78638103   -3.88297548   97.89139264
     atom   30 type  1   force =     2.31716346   -1.30183690  103.19933204
     atom   31 type  1   force =    -3.06964896    2.14436450  101.64784852
     atom   32 type  1   force =     3.00595518    3.30700916   98.37573394
     atom   33 type  1   force =     0.62764001    0.35289473  104.28690204
     atom   34 type  1   force =    -0.24295601    1.32406089  104.14872684
     atom   35 type  1   force =     0.02140398   -0.34816117  103.99147491
     atom   36 type  1   force =     0.21297074   -0.88329469  104.22424996
     atom   37 type  2   force =     3.25082906    4.11500570   54.55329553
     atom   38 type  3   force =    -5.12829892   -5.87960685   88.62934136
     atom   39 type  4   force =     1.47811503    1.63888865   15.04411593
     The local contribution  to forces
     atom    1 type  1   force =     0.00830213   -0.00184309  111.27142348
     atom    2 type  1   force =     0.00211992   -0.00375269  111.28585672
     atom    3 type  1   force =    -0.01006103    0.00036384  111.27571919
     atom    4 type  1   force =     0.00101364   -0.00573172  111.27073222
     atom    5 type  1   force =    -0.00135257   -0.01028512  111.27353859
     atom    6 type  1   force =     0.00024483    0.00160661  111.26227543
     atom    7 type  1   force =    -0.00122223    0.00169999  111.26486761
     atom    8 type  1   force =     0.00736045    0.00901608  111.27227886
     atom    9 type  1   force =    -0.00646666    0.00730284  111.27487894
     atom   10 type  1   force =     0.04248176    0.01569805   40.09490307
     atom   11 type  1   force =     0.01284774    0.05614772   40.20725317
     atom   12 type  1   force =    -0.05554374    0.03145517   40.12195891
     atom   13 type  1   force =     0.06210354   -0.04238086   40.15923154
     atom   14 type  1   force =    -0.04241275   -0.04635315   40.19492599
     atom   15 type  1   force =    -0.01878244   -0.01296373   40.07798330
     atom   16 type  1   force =     0.00656039   -0.03758559   40.08406632
     atom   17 type  1   force =    -0.00245971    0.00942197   40.09006797
     atom   18 type  1   force =    -0.00429966    0.02626296   40.07988910
     atom   19 type  1   force =     0.32280848   -0.06477364  -31.47842962
     atom   20 type  1   force =     0.16371405   -0.15270082  -30.45291889
     atom   21 type  1   force =    -0.47969784   -0.04058603  -31.21773786
     atom   22 type  1   force =     0.16675704   -0.24761201  -31.53533576
     atom   23 type  1   force =    -0.09737055   -0.36595806  -31.37214171
     atom   24 type  1   force =    -0.06992159    0.06237399  -31.68877953
     atom   25 type  1   force =    -0.04164449    0.05226645  -31.70798901
     atom   26 type  1   force =     0.29258578    0.31654690  -31.26610217
     atom   27 type  1   force =    -0.25317497    0.44120706  -31.17784320
     atom   28 type  1   force =     1.65818486    0.58198511 -103.83676644
     atom   29 type  1   force =     0.77721066    3.80846876  -98.07060700
     atom   30 type  1   force =    -2.28223781    1.28659778 -103.33865749
     atom   31 type  1   force =     3.02604921   -2.09275811 -101.81267463
     atom   32 type  1   force =    -3.00465819   -3.30733899  -98.53714241
     atom   33 type  1   force =    -0.61557755   -0.35248675 -104.41046699
     atom   34 type  1   force =     0.23925247   -1.30750236 -104.27187182
     atom   35 type  1   force =    -0.01733318    0.35076017 -104.13138282
     atom   36 type  1   force =    -0.21128326    0.87509662 -104.34170405
     atom   37 type  2   force =    -3.09610917   -3.93046735  -54.76404337
     atom   38 type  3   force =     3.78061154    4.32240237  -87.03339824
     atom   39 type  4   force =    -1.43663359   -1.59331053  -15.00855353
     The core correction contribution to forces
     atom    1 type  1   force =     0.00019197    0.00002372    0.01014047
     atom    2 type  1   force =    -0.00022517   -0.00029725    0.01010845
     atom    3 type  1   force =    -0.00000703    0.00008537    0.01022848
     atom    4 type  1   force =    -0.00022830   -0.00011057    0.01002545
     atom    5 type  1   force =     0.00006791   -0.00016999    0.01018592
     atom    6 type  1   force =     0.00007968   -0.00002989    0.00975847
     atom    7 type  1   force =    -0.00009135   -0.00001744    0.01037182
     atom    8 type  1   force =     0.00018823    0.00030727    0.01036088
     atom    9 type  1   force =    -0.00010177   -0.00010134    0.01013841
     atom   10 type  1   force =    -0.00025037   -0.00008266   -0.00204205
     atom   11 type  1   force =    -0.00009310   -0.00001972   -0.00154164
     atom   12 type  1   force =     0.00042585   -0.00001233   -0.00197997
     atom   13 type  1   force =     0.00005237   -0.00006998   -0.00162899
     atom   14 type  1   force =     0.00015300    0.00003305   -0.00210741
     atom   15 type  1   force =     0.00004422    0.00000190   -0.00153180
     atom   16 type  1   force =     0.00014268    0.00032497   -0.00189810
     atom   17 type  1   force =     0.00001650    0.00005950   -0.00167555
     atom   18 type  1   force =    -0.00013498   -0.00013665   -0.00180513
     atom   19 type  1   force =    -0.00057852   -0.00026301    0.00162787
     atom   20 type  1   force =     0.00049900   -0.00013122    0.00202347
     atom   21 type  1   force =     0.00003891   -0.00001070    0.00106715
     atom   22 type  1   force =    -0.00035979   -0.00009656    0.00178058
     atom   23 type  1   force =    -0.00005952    0.00009658    0.00117207
     atom   24 type  1   force =    -0.00000807    0.00003742    0.00192351
     atom   25 type  1   force =     0.00037887    0.00011736    0.00217379
     atom   26 type  1   force =    -0.00043795   -0.00042593    0.00130457
     atom   27 type  1   force =    -0.00025145   -0.00025765    0.00096861
     atom   28 type  1   force =     0.00070050   -0.00003653   -0.00900468
     atom   29 type  1   force =     0.00392068    0.01357722    0.00482920
     atom   30 type  1   force =    -0.00360225    0.00395591   -0.00824189
     atom   31 type  1   force =     0.00736256   -0.00241420   -0.00558348
     atom   32 type  1   force =    -0.00806271   -0.00903752    0.01173032
     atom   33 type  1   force =    -0.00205315   -0.00022976   -0.00962825
     atom   34 type  1   force =     0.00140887   -0.00292342   -0.00900309
     atom   35 type  1   force =    -0.00064080   -0.00058368   -0.00885872
     atom   36 type  1   force =    -0.00025266    0.00011896   -0.01032962
     atom   37 type  2   force =     0.00125968    0.00186071   -0.00167352
     atom   38 type  3   force =    -0.01098640   -0.01255231    0.01362305
     atom   39 type  4   force =     0.00000000    0.00000000    0.00000000
     The Hubbard contrib.    to forces
     atom    1 type  1   force =     0.00000000    0.00000000    0.00000000
     atom    2 type  1   force =     0.00000000    0.00000000    0.00000000
     atom    3 type  1   force =     0.00000000    0.00000000    0.00000000
     atom    4 type  1   force =     0.00000000    0.00000000    0.00000000
     atom    5 type  1   force =     0.00000000    0.00000000    0.00000000
     atom    6 type  1   force =     0.00000000    0.00000000    0.00000000
     atom    7 type  1   force =     0.00000000    0.00000000    0.00000000
     atom    8 type  1   force =     0.00000000    0.00000000    0.00000000
     atom    9 type  1   force =     0.00000000    0.00000000    0.00000000
     atom   10 type  1   force =     0.00000000    0.00000000    0.00000000
     atom   11 type  1   force =     0.00000000    0.00000000    0.00000000
     atom   12 type  1   force =     0.00000000    0.00000000    0.00000000
     atom   13 type  1   force =     0.00000000    0.00000000    0.00000000
     atom   14 type  1   force =     0.00000000    0.00000000    0.00000000
     atom   15 type  1   force =     0.00000000    0.00000000    0.00000000
     atom   16 type  1   force =     0.00000000    0.00000000    0.00000000
     atom   17 type  1   force =     0.00000000    0.00000000    0.00000000
     atom   18 type  1   force =     0.00000000    0.00000000    0.00000000
     atom   19 type  1   force =     0.00000000    0.00000000    0.00000000
     atom   20 type  1   force =     0.00000000    0.00000000    0.00000000
     atom   21 type  1   force =     0.00000000    0.00000000    0.00000000
     atom   22 type  1   force =     0.00000000    0.00000000    0.00000000
     atom   23 type  1   force =     0.00000000    0.00000000    0.00000000
     atom   24 type  1   force =     0.00000000    0.00000000    0.00000000
     atom   25 type  1   force =     0.00000000    0.00000000    0.00000000
     atom   26 type  1   force =     0.00000000    0.00000000    0.00000000
     atom   27 type  1   force =     0.00000000    0.00000000    0.00000000
     atom   28 type  1   force =     0.00000000    0.00000000    0.00000000
     atom   29 type  1   force =     0.00000000    0.00000000    0.00000000
     atom   30 type  1   force =     0.00000000    0.00000000    0.00000000
     atom   31 type  1   force =     0.00000000    0.00000000    0.00000000
     atom   32 type  1   force =     0.00000000    0.00000000    0.00000000
     atom   33 type  1   force =     0.00000000    0.00000000    0.00000000
     atom   34 type  1   force =     0.00000000    0.00000000    0.00000000
     atom   35 type  1   force =     0.00000000    0.00000000    0.00000000
     atom   36 type  1   force =     0.00000000    0.00000000    0.00000000
     atom   37 type  2   force =     0.00000000    0.00000000    0.00000000
     atom   38 type  3   force =     0.00000000    0.00000000    0.00000000
     atom   39 type  4   force =     0.00000000    0.00000000    0.00000000
     The SCF correction term to forces
     atom    1 type  1   force =     0.00000000    0.00000000   -0.00000000
     atom    2 type  1   force =     0.00000000    0.00000000   -0.00000000
     atom    3 type  1   force =    -0.00000000   -0.00000000   -0.00000000
     atom    4 type  1   force =    -0.00000000    0.00000000   -0.00000000
     atom    5 type  1   force =    -0.00000000   -0.00000000   -0.00000000
     atom    6 type  1   force =     0.00000000    0.00000000   -0.00000000
     atom    7 type  1   force =    -0.00000000   -0.00000000   -0.00000000
     atom    8 type  1   force =     0.00000000    0.00000000   -0.00000000
     atom    9 type  1   force =     0.00000000   -0.00000000   -0.00000000
     atom   10 type  1   force =     0.00000000    0.00000000   -0.00000000
     atom   11 type  1   force =     0.00000000   -0.00000000   -0.00000000
     atom   12 type  1   force =    -0.00000000   -0.00000000   -0.00000000
     atom   13 type  1   force =     0.00000000    0.00000000   -0.00000000
     atom   14 type  1   force =    -0.00000000   -0.00000000   -0.00000000
     atom   15 type  1   force =     0.00000000    0.00000000   -0.00000000
     atom   16 type  1   force =    -0.00000000   -0.00000000   -0.00000000
     atom   17 type  1   force =     0.00000000    0.00000000   -0.00000000
     atom   18 type  1   force =     0.00000000    0.00000000   -0.00000000
     atom   19 type  1   force =     0.00000000   -0.00000000   -0.00000000
     atom   20 type  1   force =    -0.00000000    0.00000000   -0.00000000
     atom   21 type  1   force =     0.00000000   -0.00000000   -0.00000000
     atom   22 type  1   force =     0.00000000    0.00000000   -0.00000000
     atom   23 type  1   force =    -0.00000000    0.00000000   -0.00000000
     atom   24 type  1   force =     0.00000000    0.00000000   -0.00000000
     atom   25 type  1   force =     0.00000000   -0.00000000   -0.00000000
     atom   26 type  1   force =    -0.00000000    0.00000000   -0.00000000
     atom   27 type  1   force =     0.00000000   -0.00000000   -0.00000000
     atom   28 type  1   force =    -0.00000000   -0.00000000   -0.00000000
     atom   29 type  1   force =     0.00000000    0.00000000   -0.00000000
     atom   30 type  1   force =     0.00000000   -0.00000000   -0.00000000
     atom   31 type  1   force =    -0.00000000    0.00000000   -0.00000000
     atom   32 type  1   force =    -0.00000000    0.00000000   -0.00000000
     atom   33 type  1   force =     0.00000000   -0.00000000   -0.00000000
     atom   34 type  1   force =    -0.00000000    0.00000000   -0.00000000
     atom   35 type  1   force =    -0.00000000    0.00000000   -0.00000000
     atom   36 type  1   force =     0.00000000    0.00000000   -0.00000000
     atom   37 type  2   force =    -0.00000180    0.00000086    0.00000934
     atom   38 type  3   force =     0.00000133    0.00000538   -0.00000377
     atom   39 type  4   force =    -0.00000081   -0.00000017    0.00000133

     Total force =     0.001878     Total SCF correction =     0.000012

     Writing all to output data dir ./pwscf.save/

     init_run     :     11.39s CPU     11.85s WALL (       1 calls)
     electrons    :    914.94s CPU    928.59s WALL (       1 calls)
     forces       :      3.33s CPU      3.38s WALL (       1 calls)

     Called by init_run:
     wfcinit      :      8.15s CPU      8.48s WALL (       1 calls)
     potinit      :      1.99s CPU      2.08s WALL (       1 calls)
     hinit0       :      1.00s CPU      1.01s WALL (       1 calls)

     Called by electrons:
     c_bands      :    762.13s CPU    771.19s WALL (      53 calls)
     sum_band     :    102.04s CPU    103.52s WALL (      53 calls)
     v_of_rho     :      9.92s CPU     10.08s WALL (      54 calls)
     newd         :      4.18s CPU      4.22s WALL (      54 calls)
     PAW_pot      :     16.76s CPU     16.90s WALL (      54 calls)
     mix_rho      :     21.28s CPU     23.87s WALL (      53 calls)
     vdW_kernel   :      1.14s CPU      1.15s WALL (       1 calls)

     Called by c_bands:
     init_us_2    :      9.28s CPU      9.46s WALL (    2808 calls)
     init_us_2:cp :      9.26s CPU      9.45s WALL (    2808 calls)
     cegterg      :    736.09s CPU    744.39s WALL (    1378 calls)

     Called by *egterg:
     cdiaghg      :    204.44s CPU    205.84s WALL (    4226 calls)
     h_psi        :    362.74s CPU    367.93s WALL (    4252 calls)
     s_psi        :     38.17s CPU     38.62s WALL (    4252 calls)
     g_psi        :      0.95s CPU      0.97s WALL (    2848 calls)

     Called by h_psi:
     h_psi:calbec :     55.80s CPU     56.64s WALL (    4252 calls)
     vloc_psi     :    266.38s CPU    270.22s WALL (    4252 calls)
     add_vuspsi   :     38.14s CPU     38.61s WALL (    4252 calls)

     General routines
     calbec       :     83.67s CPU     84.86s WALL (    5734 calls)
     fft          :      6.55s CPU      6.69s WALL (    4883 calls)
     ffts         :     11.84s CPU     13.02s WALL (   22052 calls)
     fftw         :    308.88s CPU    313.23s WALL ( 1430850 calls)
     interpolate  :      0.35s CPU      0.36s WALL (     108 calls)

     Parallel routines

     PWSCF        :  15m39.99s CPU  15m58.89s WALL


   This run was terminated on:  10:12: 8  14Dec2025            

=------------------------------------------------------------------------------=
   JOB DONE.
=------------------------------------------------------------------------------=
