
     Program PWSCF v.7.1 starts on  4Feb2025 at 13:45:18 
        Git branch: heads/qe-7.1
        Last git commit: 48ba0178f8fede6d020eb786884699a9f063f55d-dirty
        Last git commit date: Fri Jan 27 14:22:33 2023 +0000
        Last git commit subject: Merge branch 'fix_hubbard' into 'develop'

     This program is part of the open-source Quantum ESPRESSO suite
     for quantum simulation of materials; please cite
         "P. Giannozzi et al., J. Phys.:Condens. Matter 21 395502 (2009);
         "P. Giannozzi et al., J. Phys.:Condens. Matter 29 465901 (2017);
         "P. Giannozzi et al., J. Chem. Phys. 152 154105 (2020);
          URL http://www.quantum-espresso.org", 
     in publications or presentations arising from this work. More details at
     http://www.quantum-espresso.org/quote

     Parallel version (MPI), running on    48 processors

     MPI processes distributed on     1 nodes
     241783 MiB available memory on the printing compute node when the environment starts

     Reading input from espresso.pwi
Warning: card &CELL ignored
Warning: card / ignored
Warning: card &FCP ignored
Warning: card / ignored
Warning: card &RISM ignored
Warning: card / ignored

     Current dimensions of program PWSCF are:
     Max number of different atomic species (ntypx) = 10
     Max number of k-points (npk) =  40000
     Max angular momentum in pseudopotentials (lmaxx) =  4
     file Pt.pbe-n-kjpaw_psl.1.0.0.UPF: wavefunction(s)  6S 5D renormalized
     file H.pbe-kjpaw_psl.1.0.0.UPF: wavefunction(s)  1S renormalized
     file C.pbe-n-kjpaw_psl.1.0.0.UPF: wavefunction(s)  2S 2P renormalized

     **************************************************************************
     Initializing libbeef V0.1.2 with the BEEF-vdW functional.
     Citation: Wellendorff et al., PRB 85, 235149 (2012).
     **************************************************************************


     IMPORTANT: XC functional enforced from input :
     Exchange-correlation= BEEF-VDW
                           (   1   4  43  14   2   0   0)
     Any further DFT definition will be discarded
     Please, verify this is what you really want


     R & G space division:  proc/nbgrp/npool/nimage =      48
     Subspace diagonalization in iterative solution of the eigenvalue problem:
     one sub-group per band group will be used
     custom distributed-memory algorithm (size of sub-group:  2*  2 procs)


     Parallelization info
     --------------------
     sticks:   dense  smooth     PW     G-vecs:    dense   smooth      PW
     Min         150      59     16                30552     7447    1068
     Max         151      60     17                30571     7456    1081
     Sum        7243    2839    769              1467143   357639   51591

     Using Slab Decomposition



     bravais-lattice index     =            0
     lattice parameter (alat)  =      16.0028  a.u.
     unit-cell volume          =   10463.1828 (a.u.)^3
     number of atoms/cell      =           38
     number of atomic types    =            3
     number of electrons       =       365.00
     number of Kohn-Sham states=          220
     kinetic-energy cutoff     =      40.0000  Ry
     charge density cutoff     =     410.0000  Ry
     scf convergence threshold =      1.0E-06
     mixing beta               =       0.7000
     number of iterations used =            8  local-TF  mixing
     Exchange-correlation= BEEF-VDW
                           (   1   4  43  14   2   0   0)

     celldm(1)=  16.002787  celldm(2)=   0.000000  celldm(3)=   0.000000
     celldm(4)=   0.000000  celldm(5)=   0.000000  celldm(6)=   0.000000

     crystal axes: (cart. coord. in units of alat)
               a(1) = (   1.000000   0.000000   0.000000 )  
               a(2) = (   0.500000   0.866025   0.000000 )  
               a(3) = (   0.000000   0.000000   2.948128 )  

     reciprocal axes: (cart. coord. in units 2 pi/alat)
               b(1) = (  1.000000 -0.577350  0.000000 )  
               b(2) = (  0.000000  1.154701  0.000000 )  
               b(3) = (  0.000000  0.000000  0.339198 )  


     PseudoPot. # 1 for Pt read from file:
     /users/kbadger1/espresso/pseudo/pslibrary.1.0.0/pbe/PSEUDOPOTENTIALS/Pt.pbe-n-kjpaw_psl.1.0.0.UPF
     MD5 check sum: 2e24a0b5bf98a4ed1a57fa81bca8c143
     Pseudo is Projector augmented-wave + core cor, Zval = 10.0
     Generated using 'atomic' code by A. Dal Corso  v.7.0
     Shape of augmentation charge: PSQ
     Using radial grid of 1277 points,  6 beta functions with: 
                l(1) =   0
                l(2) =   0
                l(3) =   1
                l(4) =   1
                l(5) =   2
                l(6) =   2
     Q(r) pseudized with 0 coefficients 


     PseudoPot. # 2 for H  read from file:
     /users/kbadger1/espresso/pseudo/pslibrary.1.0.0/pbe/PSEUDOPOTENTIALS/H.pbe-kjpaw_psl.1.0.0.UPF
     MD5 check sum: fe4c6fa958fa6d3815bf5d2419cbf1df
     Pseudo is Projector augmented-wave, Zval =  1.0
     Generated using 'atomic' code by A. Dal Corso  v.7.0
     Shape of augmentation charge: PSQ
     Using radial grid of  929 points,  2 beta functions with: 
                l(1) =   0
                l(2) =   0
     Q(r) pseudized with 0 coefficients 


     PseudoPot. # 3 for C  read from file:
     /users/kbadger1/espresso/pseudo/pslibrary.1.0.0/pbe/PSEUDOPOTENTIALS/C.pbe-n-kjpaw_psl.1.0.0.UPF
     MD5 check sum: 6408e75cdba28732cea38a4db8498ce4
     Pseudo is Projector augmented-wave + core cor, Zval =  4.0
     Generated using 'atomic' code by A. Dal Corso  v.7.0
     Shape of augmentation charge: PSQ
     Using radial grid of 1073 points,  4 beta functions with: 
                l(1) =   0
                l(2) =   0
                l(3) =   1
                l(4) =   1
     Q(r) pseudized with 0 coefficients 


     atomic species   valence    mass     pseudopotential
        Pt            10.00   195.08400     Pt( 1.00)
        H              1.00     1.00800     H ( 1.00)
        C              4.00    12.01100     C ( 1.00)

     No symmetry found



   Cartesian axes

     site n.     atom                  positions (alat units)
         1           Pt  tau(   1) = (   0.0000000   0.0000000   1.0037422  )
         2           Pt  tau(   2) = (   0.3340014   0.0000000   1.0037422  )
         3           Pt  tau(   3) = (   0.6680027   0.0000000   1.0037422  )
         4           Pt  tau(   4) = (   0.1670007   0.2892537   1.0037422  )
         5           Pt  tau(   5) = (   0.5010021   0.2892537   1.0037422  )
         6           Pt  tau(   6) = (   0.8350034   0.2892537   1.0037422  )
         7           Pt  tau(   7) = (   0.3340014   0.5785073   1.0037422  )
         8           Pt  tau(   8) = (   0.6680027   0.5785073   1.0037422  )
         9           Pt  tau(   9) = (   1.0020041   0.5785073   1.0037422  )
        10           Pt  tau(  10) = (   0.1670007   0.0964179   1.2764532  )
        11           Pt  tau(  11) = (   0.5010021   0.0964179   1.2764532  )
        12           Pt  tau(  12) = (   0.8350034   0.0964179   1.2764532  )
        13           Pt  tau(  13) = (   0.3340014   0.3856716   1.2764532  )
        14           Pt  tau(  14) = (   0.6680027   0.3856716   1.2764532  )
        15           Pt  tau(  15) = (   1.0020041   0.3856716   1.2764532  )
        16           Pt  tau(  16) = (   0.5010021   0.6749252   1.2764532  )
        17           Pt  tau(  17) = (   0.8350034   0.6749252   1.2764532  )
        18           Pt  tau(  18) = (   1.1690048   0.6749252   1.2764532  )
        19           Pt  tau(  19) = (   0.0039422   0.1945869   1.5540144  )
        20           Pt  tau(  20) = (   0.3323723   0.1945091   1.5536474  )
        21           Pt  tau(  21) = (   0.6681668   0.1951503   1.5454059  )
        22           Pt  tau(  22) = (   0.1682065   0.4794380   1.5507823  )
        23           Pt  tau(  23) = (   0.5010617   0.4827780   1.5444743  )
        24           Pt  tau(  24) = (   0.8352659   0.4827854   1.5444324  )
        25           Pt  tau(  25) = (   0.3362450   0.7731586   1.5482607  )
        26           Pt  tau(  26) = (   0.6682021   0.7729398   1.5494631  )
        27           Pt  tau(  27) = (   1.0003658   0.7730234   1.5479029  )
        28           Pt  tau(  28) = (  -0.0132908  -0.0057824   1.8353577  )
        29           Pt  tau(  29) = (   0.3497236  -0.0056833   1.8349937  )
        30           Pt  tau(  30) = (   0.6682161   0.0043522   1.8212377  )
        31           Pt  tau(  31) = (   0.1682508   0.3110831   1.8652334  )
        32           Pt  tau(  32) = (   0.5037268   0.2938163   1.8203427  )
        33           Pt  tau(  33) = (   0.8328028   0.2938396   1.8204686  )
        34           Pt  tau(  34) = (   0.3353633   0.5813834   1.8187859  )
        35           Pt  tau(  35) = (   0.6682849   0.5764192   1.8181671  )
        36           Pt  tau(  36) = (   1.0011509   0.5814482   1.8187240  )
        37           H   tau(  37) = (   0.1684436   0.3420831   2.0465821  )
        38           C   tau(  38) = (   0.1682516   0.0891203   1.9202886  )

     number of k points=    13  Marzari-Vanderbilt smearing, width (Ry)=  0.0200
                       cart. coord. in units 2pi/alat
        k(    1) = (   0.0000000   0.0000000   0.0000000), wk =   0.0800000
        k(    2) = (   0.0000000   0.2309401   0.0000000), wk =   0.1600000
        k(    3) = (   0.0000000   0.4618802   0.0000000), wk =   0.1600000
        k(    4) = (   0.2000000  -0.1154701   0.0000000), wk =   0.1600000
        k(    5) = (   0.2000000   0.1154701   0.0000000), wk =   0.1600000
        k(    6) = (   0.2000000   0.3464102   0.0000000), wk =   0.1600000
        k(    7) = (   0.2000000  -0.5773503   0.0000000), wk =   0.1600000
        k(    8) = (   0.2000000  -0.3464102   0.0000000), wk =   0.1600000
        k(    9) = (   0.4000000  -0.2309401   0.0000000), wk =   0.1600000
        k(   10) = (   0.4000000   0.0000000   0.0000000), wk =   0.1600000
        k(   11) = (   0.4000000   0.2309401   0.0000000), wk =   0.1600000
        k(   12) = (   0.4000000  -0.6928203   0.0000000), wk =   0.1600000
        k(   13) = (   0.4000000  -0.4618802   0.0000000), wk =   0.1600000

     Dense  grid:  1467143 G-vectors     FFT dimensions: ( 108, 108, 320)

     Smooth grid:   357639 G-vectors     FFT dimensions: (  72,  72, 192)

     Estimated max dynamical RAM per process >     214.57 MB

     Estimated total dynamical RAM >      10.06 GB

     Initial potential from superposition of free atoms

     starting charge     364.9938, renormalised to     365.0000

     negative rho (up, down):  3.536E-03 0.000E+00


     %%%%%%%%%%%%%%%%%%%%%%%%%%%%%%%%%%%%%%%%%%%%%%%%%%%%%%%%%%%%%%%%%%%%%%%%
     %                                                                      %
     % You are using vdW-DF, which was implemented by the Thonhauser group. %
     % Please cite the following two papers that made this development      %
     % possible and the two reviews that describe the various versions:     %
     %                                                                      %
     %   T. Thonhauser et al., PRL 115, 136402 (2015).                      %
     %   T. Thonhauser et al., PRB 76, 125112 (2007).                       %
     %   K. Berland et al., Rep. Prog. Phys. 78, 066501 (2015).             %
     %   D.C. Langreth et al., J. Phys.: Condens. Matter 21, 084203 (2009). %
     %                                                                      %
     % If you are calculating stress with vdW-DF, please also cite:         %
     %                                                                      %
     %   R. Sabatini et al., J. Phys.: Condens. Matter 24, 424209 (2012).   %
     %                                                                      %
     %%%%%%%%%%%%%%%%%%%%%%%%%%%%%%%%%%%%%%%%%%%%%%%%%%%%%%%%%%%%%%%%%%%%%%%%

     %%%%%%%%%%%%%%%%%%%%%%%%%%%%%%%%%%%%%%%%%%%%%%%%%%%%%%%%%%%%%%%%%%%%%%%%
     %                                                                      %
     %  vdW-DF NEWS:                                                        %
     %                                                                      %
     %  * vdW-DF3 is now available. DOI: 10.1021/acs.jctc.0c00471           %
     %    use with input_dft = 'vdW-DF3-opt1' or 'vdW-DF3-opt2'             %
     %                                                                      %
     %  * Unscreened and range-separated hybrid vdW-DF-cx functionals       %
     %    DOI: 10.1063/1.4986522 and 10.1088/1361-648X/ac2ad2               %
     %    use with input_dft = 'vdW-DF-cx0'    and 'vdW-DF-ahcx'            %
     %  * Unscreened and range-separated hybrid vdW-DF2-b86r functionals    %
     %    DOI: 10.1063/1.4986522 and DOI: 10.1103/PhysRevX.12.041003        %
     %    use with input_dft = 'vdW-DF2-br0' and 'vdW-DF2-ahbr'             %
     %                                                                      %
     %%%%%%%%%%%%%%%%%%%%%%%%%%%%%%%%%%%%%%%%%%%%%%%%%%%%%%%%%%%%%%%%%%%%%%%%


     Starting wfcs are  329 randomized atomic wfcs
     Checking if some PAW data can be deallocated... 

     total cpu time spent up to now is       20.8 secs

     per-process dynamical memory:   215.1 Mb

     Self-consistent Calculation

     iteration #  1     ecut=    40.00 Ry     beta= 0.70
     Davidson diagonalization with overlap
     ethr =  1.00E-02,  avg # of iterations =  2.0

     Threshold (ethr) on eigenvalues was too large:
     Diagonalizing with lowered threshold

     Davidson diagonalization with overlap
     ethr =  5.26E-04,  avg # of iterations =  4.2

     negative rho (up, down):  1.579E-02 0.000E+00

     total cpu time spent up to now is       68.3 secs

     total energy              =  -27774.05871444 Ry
     estimated scf accuracy    <       2.18637247 Ry

     iteration #  2     ecut=    40.00 Ry     beta= 0.70
     Davidson diagonalization with overlap
     ethr =  5.99E-04,  avg # of iterations =  2.0

     negative rho (up, down):  1.335E-02 0.000E+00

     total cpu time spent up to now is       86.1 secs

     total energy              =  -27774.28354861 Ry
     estimated scf accuracy    <       0.95080065 Ry

     iteration #  3     ecut=    40.00 Ry     beta= 0.70
     Davidson diagonalization with overlap
     ethr =  2.60E-04,  avg # of iterations =  2.0

     negative rho (up, down):  9.468E-03 0.000E+00

     total cpu time spent up to now is      109.4 secs

     total energy              =  -27774.35494428 Ry
     estimated scf accuracy    <       0.25597805 Ry

     iteration #  4     ecut=    40.00 Ry     beta= 0.70
     Davidson diagonalization with overlap
     ethr =  7.01E-05,  avg # of iterations =  9.2

     negative rho (up, down):  5.740E-03 0.000E+00

     total cpu time spent up to now is      142.6 secs

     total energy              =  -27774.39247709 Ry
     estimated scf accuracy    <       0.08932629 Ry

     iteration #  5     ecut=    40.00 Ry     beta= 0.70
     Davidson diagonalization with overlap
     ethr =  2.45E-05,  avg # of iterations =  7.4

     negative rho (up, down):  3.493E-03 0.000E+00

     total cpu time spent up to now is      175.0 secs

     total energy              =  -27774.40609242 Ry
     estimated scf accuracy    <       0.05826953 Ry

     iteration #  6     ecut=    40.00 Ry     beta= 0.70
     Davidson diagonalization with overlap
     ethr =  1.60E-05,  avg # of iterations =  2.0

     negative rho (up, down):  1.408E-03 0.000E+00

     total cpu time spent up to now is      198.2 secs

     total energy              =  -27774.40839852 Ry
     estimated scf accuracy    <       0.00679718 Ry

     iteration #  7     ecut=    40.00 Ry     beta= 0.70
     Davidson diagonalization with overlap
     c_bands:  1 eigenvalues not converged
     c_bands:  2 eigenvalues not converged
     c_bands:  1 eigenvalues not converged
     c_bands:  1 eigenvalues not converged
     c_bands:  1 eigenvalues not converged
     c_bands:  1 eigenvalues not converged
     c_bands:  1 eigenvalues not converged
     ethr =  1.86E-06,  avg # of iterations = 17.2

     negative rho (up, down):  7.790E-04 0.000E+00

     total cpu time spent up to now is      258.9 secs

     total energy              =  -27774.41085780 Ry
     estimated scf accuracy    <       0.00246985 Ry

     iteration #  8     ecut=    40.00 Ry     beta= 0.70
     Davidson diagonalization with overlap
     c_bands:  2 eigenvalues not converged
     c_bands:  1 eigenvalues not converged
     c_bands:  1 eigenvalues not converged
     ethr =  6.77E-07,  avg # of iterations =  8.4

     negative rho (up, down):  5.270E-04 0.000E+00

     total cpu time spent up to now is      288.2 secs

     total energy              =  -27774.41121010 Ry
     estimated scf accuracy    <       0.00042842 Ry

     iteration #  9     ecut=    40.00 Ry     beta= 0.70
     Davidson diagonalization with overlap
     ethr =  1.17E-07,  avg # of iterations =  6.8

     negative rho (up, down):  4.431E-04 0.000E+00

     total cpu time spent up to now is      322.9 secs

     total energy              =  -27774.41134418 Ry
     estimated scf accuracy    <       0.00028965 Ry

     iteration # 10     ecut=    40.00 Ry     beta= 0.70
     Davidson diagonalization with overlap
     ethr =  7.94E-08,  avg # of iterations =  1.5

     negative rho (up, down):  4.405E-04 0.000E+00

     total cpu time spent up to now is      346.5 secs

     total energy              =  -27774.41136545 Ry
     estimated scf accuracy    <       0.00019206 Ry

     iteration # 11     ecut=    40.00 Ry     beta= 0.70
     Davidson diagonalization with overlap
     ethr =  5.26E-08,  avg # of iterations =  2.9

     negative rho (up, down):  5.635E-04 0.000E+00

     total cpu time spent up to now is      359.9 secs

     total energy              =  -27774.41138711 Ry
     estimated scf accuracy    <       0.00011710 Ry

     iteration # 12     ecut=    40.00 Ry     beta= 0.70
     Davidson diagonalization with overlap
     ethr =  3.21E-08,  avg # of iterations =  1.9

     negative rho (up, down):  8.085E-04 0.000E+00

     total cpu time spent up to now is      383.4 secs

     total energy              =  -27774.41140624 Ry
     estimated scf accuracy    <       0.00007549 Ry

     iteration # 13     ecut=    40.00 Ry     beta= 0.70
     Davidson diagonalization with overlap
     ethr =  2.07E-08,  avg # of iterations =  1.5

     negative rho (up, down):  1.426E-03 0.000E+00

     total cpu time spent up to now is      406.2 secs

     total energy              =  -27774.41142376 Ry
     estimated scf accuracy    <       0.00003619 Ry

     iteration # 14     ecut=    40.00 Ry     beta= 0.70
     Davidson diagonalization with overlap
     ethr =  9.91E-09,  avg # of iterations =  2.4

     negative rho (up, down):  1.706E-03 0.000E+00

     total cpu time spent up to now is      420.7 secs

     total energy              =  -27774.41143518 Ry
     estimated scf accuracy    <       0.00001619 Ry

     iteration # 15     ecut=    40.00 Ry     beta= 0.70
     Davidson diagonalization with overlap
     ethr =  4.44E-09,  avg # of iterations =  1.7

     negative rho (up, down):  2.891E-03 0.000E+00

     total cpu time spent up to now is      444.2 secs

     total energy              =  -27774.41143517 Ry
     estimated scf accuracy    <       0.00001012 Ry

     iteration # 16     ecut=    40.00 Ry     beta= 0.70
     Davidson diagonalization with overlap
     ethr =  2.77E-09,  avg # of iterations =  1.9

     negative rho (up, down):  3.148E-03 0.000E+00

     total cpu time spent up to now is      468.1 secs

     total energy              =  -27774.41143483 Ry
     estimated scf accuracy    <       0.00000165 Ry

     iteration # 17     ecut=    40.00 Ry     beta= 0.70
     Davidson diagonalization with overlap
     ethr =  4.51E-10,  avg # of iterations =  5.1

     negative rho (up, down):  3.367E-03 0.000E+00

     total cpu time spent up to now is      503.8 secs

     End of self-consistent calculation

          k = 0.0000 0.0000 0.0000 ( 44645 PWs)   bands (ev):

   -10.0000  -6.4489  -5.1609  -4.5928  -4.5827  -4.1182  -4.0912  -4.0628
    -4.0449  -4.0319  -3.9876  -3.9791  -3.9279  -3.6627  -3.5385  -3.5275
    -3.4942  -3.4644  -3.4537  -3.3724  -3.1155  -3.1110  -3.0920  -3.0327
    -2.9092  -2.8986  -2.8883  -2.8576  -2.8320  -2.7965  -2.7909  -2.7667
    -2.6848  -2.6827  -2.6200  -2.6038  -2.5715  -2.5645  -2.5439  -2.5085
    -2.4977  -2.4559  -2.2499  -2.2465  -2.1258  -2.0635  -2.0337  -2.0119
    -1.9708  -1.9686  -1.9294  -1.8475  -1.8246  -1.8127  -1.7412  -1.7213
    -1.6798  -1.6192  -1.4851  -1.3385  -1.3344  -1.2306  -1.2086  -1.1688
    -1.1310  -1.0963  -1.0889  -1.0447  -1.0132  -0.9960  -0.9904  -0.9690
    -0.9548  -0.9490  -0.9367  -0.9104  -0.8831  -0.8681  -0.8645  -0.8562
    -0.8234  -0.8152  -0.8083  -0.8040  -0.7770  -0.7550  -0.7075  -0.6388
    -0.5948  -0.5773  -0.5588  -0.5464  -0.5141  -0.4787  -0.4591  -0.4503
    -0.4404  -0.4186  -0.3526  -0.3349  -0.3268  -0.2917  -0.2874  -0.2850
    -0.2316  -0.2175  -0.1561  -0.1439  -0.1242  -0.0885   0.0839   0.1501
     0.1863   0.2264   0.2955   0.3342   0.3637   0.3666   0.3879   0.4079
     0.4920   0.5030   0.5161   0.5646   0.5794   0.5895   0.5923   0.5962
     0.6291   0.7114   0.8096   0.8203   0.8565   0.8592   0.8877   0.9274
     0.9305   0.9836   1.0516   1.0734   1.1256   1.1362   1.1595   1.1786
     1.1809   1.2379   1.2771   1.3321   1.3740   1.3824   1.3938   1.4300
     1.4818   1.5426   1.5460   1.5557   1.5664   1.5698   1.5736   1.5805
     1.6030   1.6060   1.6352   1.6468   1.6506   1.6868   1.6900   1.7168
     1.7641   1.7689   1.7912   1.7923   1.8028   1.8508   1.8614   1.8794
     1.9348   1.9366   1.9450   1.9478   1.9537   1.9891   1.9919   2.0189
     2.0483   2.0499   2.0817   2.0877   2.2130   2.2230   2.3161   2.3435
     2.3480   2.3761   2.3785   2.4060   2.5526   2.6511   3.0211   3.0273
     3.2312   3.2407   3.2882   4.0642   4.2948   4.4969   5.3229   5.3564
     5.5062   5.6012   5.8129   5.9052   6.2942   7.1842   7.2325   7.2334
     7.2436   7.2576   7.3991   7.4608

          k = 0.0000 0.2309 0.0000 ( 44694 PWs)   bands (ev):

    -9.9914  -6.3071  -5.0556  -4.6958  -4.5533  -4.4078  -4.1425  -4.0625
    -3.9667  -3.8902  -3.8580  -3.8186  -3.7681  -3.6843  -3.5638  -3.5348
    -3.4554  -3.4401  -3.3782  -3.3246  -3.1390  -3.0917  -3.0441  -3.0186
    -2.9521  -2.9433  -2.9020  -2.8759  -2.8268  -2.8097  -2.7697  -2.7661
    -2.7186  -2.7135  -2.6413  -2.6356  -2.5999  -2.5757  -2.4807  -2.4061
    -2.3858  -2.3659  -2.2265  -2.2092  -2.1631  -2.1556  -2.1129  -2.0720
    -2.0497  -2.0475  -1.9620  -1.8964  -1.7912  -1.7778  -1.7171  -1.6963
    -1.6643  -1.6250  -1.5237  -1.4153  -1.3985  -1.3575  -1.3535  -1.2829
    -1.2721  -1.2466  -1.2242  -1.2082  -1.1325  -1.1273  -1.0696  -1.0487
    -1.0360  -0.9978  -0.9780  -0.9327  -0.9050  -0.8680  -0.8409  -0.8293
    -0.7995  -0.7956  -0.7611  -0.7491  -0.7167  -0.7069  -0.6679  -0.6413
    -0.6004  -0.5980  -0.5838  -0.5391  -0.5356  -0.5255  -0.5006  -0.4580
    -0.4092  -0.4052  -0.3819  -0.3759  -0.3541  -0.3359  -0.3268  -0.2585
    -0.2468  -0.1704  -0.1636  -0.1238  -0.1002  -0.0973  -0.0637  -0.0384
    -0.0365   0.0137   0.0688   0.1369   0.2017   0.2539   0.3034   0.3558
     0.3868   0.3896   0.4241   0.4304   0.5504   0.5666   0.6063   0.6216
     0.6876   0.6953   0.7119   0.7263   0.7681   0.7746   0.8290   0.8456
     0.9008   0.9714   0.9784   1.0002   1.0447   1.0708   1.0910   1.1361
     1.1565   1.2001   1.2101   1.2738   1.3027   1.3172   1.3444   1.3787
     1.3867   1.4233   1.4635   1.5286   1.5328   1.5589   1.5764   1.6094
     1.6368   1.6804   1.7174   1.7454   1.7480   1.7838   1.8296   1.8369
     1.8877   1.9224   1.9318   1.9503   2.0061   2.0087   2.0200   2.0429
     2.0639   2.0917   2.0984   2.1329   2.1581   2.2176   2.2368   2.2607
     2.2882   2.2996   2.3274   2.3559   2.3672   2.3913   2.4371   2.4652
     2.5071   2.5185   2.6137   2.6660   2.7002   2.9739   2.9802   3.1572
     3.4419   3.6982   3.8770   3.9217   4.5349   4.6247   5.0495   5.1897
     5.5015   5.5887   6.0535   6.2189   6.2664   6.2834   6.5353   7.0326
     7.2172   7.3641   7.4539   7.5120

          k = 0.0000 0.4619 0.0000 ( 44748 PWs)   bands (ev):

    -9.9775  -5.9032  -5.2958  -4.7857  -4.4883  -4.4379  -4.1739  -4.0221
    -4.0003  -3.8305  -3.6948  -3.6039  -3.5642  -3.4833  -3.4557  -3.4543
    -3.3289  -3.2893  -3.2664  -3.2360  -3.2120  -3.1642  -3.0935  -3.0738
    -3.0539  -3.0344  -3.0103  -2.9910  -2.9270  -2.8931  -2.7914  -2.7337
    -2.6641  -2.6560  -2.6356  -2.5805  -2.5410  -2.4846  -2.4643  -2.4057
    -2.4020  -2.3672  -2.3350  -2.2249  -2.1731  -2.1315  -2.1019  -2.0917
    -1.9926  -1.9705  -1.9368  -1.9235  -1.8894  -1.8853  -1.8305  -1.7946
    -1.7407  -1.6854  -1.6232  -1.5638  -1.5413  -1.5318  -1.4902  -1.4654
    -1.3677  -1.3375  -1.3139  -1.2777  -1.2247  -1.2108  -1.1926  -1.1642
    -1.0890  -1.0565  -1.0329  -1.0214  -0.9610  -0.9479  -0.8898  -0.8794
    -0.8577  -0.8343  -0.8280  -0.7961  -0.7599  -0.7578  -0.7366  -0.7083
    -0.7057  -0.6553  -0.6313  -0.6110  -0.5885  -0.5498  -0.5387  -0.5318
    -0.4745  -0.4395  -0.4343  -0.4046  -0.3528  -0.3493  -0.3213  -0.3066
    -0.2848  -0.2473  -0.1915  -0.1418  -0.1327  -0.0814  -0.0619  -0.0302
     0.0461   0.0481   0.1080   0.1312   0.1828   0.2031   0.2578   0.2763
     0.2973   0.3369   0.3424   0.4084   0.4248   0.4329   0.4492   0.4747
     0.4987   0.5798   0.5810   0.6249   0.6495   0.6655   0.7362   0.7475
     0.8310   0.9070   0.9142   0.9633   0.9841   1.0266   1.0421   1.0734
     1.1489   1.1531   1.2328   1.2373   1.2519   1.2687   1.2923   1.3244
     1.3926   1.4299   1.4499   1.4594   1.5305   1.5331   1.5848   1.5911
     1.6416   1.6849   1.7164   1.7697   1.8110   1.8166   1.9082   1.9294
     1.9464   1.9804   2.0097   2.0328   2.0592   2.0733   2.1312   2.1681
     2.1743   2.2096   2.2287   2.2611   2.2784   2.3240   2.3574   2.4096
     2.4520   2.5191   2.5228   2.5366   2.5722   2.6137   2.7806   2.9270
     2.9693   3.0250   3.2369   3.4573   3.5298   3.7271   3.8101   4.0718
     4.1360   4.3335   4.3729   4.4751   4.8234   4.8425   4.9516   5.0377
     5.1557   5.1903   5.3037   5.7136   5.8565   5.9457   6.2013   6.6054
     6.6636   6.9168   7.1783   7.2566

          k = 0.2000-0.1155 0.0000 ( 44694 PWs)   bands (ev):

    -9.9909  -6.3078  -5.0574  -4.7143  -4.5383  -4.3956  -4.1172  -4.0869
    -3.9662  -3.8876  -3.8669  -3.8050  -3.7786  -3.6806  -3.5940  -3.5157
    -3.4678  -3.4181  -3.3946  -3.3103  -3.1707  -3.0908  -3.0314  -3.0105
    -2.9652  -2.9258  -2.9004  -2.8592  -2.8262  -2.8183  -2.7771  -2.7611
    -2.7238  -2.7051  -2.6644  -2.6403  -2.6011  -2.5388  -2.5162  -2.4338
    -2.3882  -2.3508  -2.2441  -2.1973  -2.1511  -2.1376  -2.1100  -2.0780
    -2.0570  -2.0247  -1.9730  -1.8713  -1.7919  -1.7581  -1.7192  -1.6973
    -1.6619  -1.6308  -1.5398  -1.4254  -1.3911  -1.3468  -1.3437  -1.3150
    -1.2662  -1.2383  -1.2267  -1.1907  -1.1414  -1.1063  -1.0723  -1.0433
    -1.0253  -1.0063  -0.9872  -0.9530  -0.9132  -0.8851  -0.8545  -0.8235
    -0.7934  -0.7691  -0.7505  -0.7427  -0.7268  -0.6986  -0.6809  -0.6495
    -0.6306  -0.6067  -0.5745  -0.5576  -0.5410  -0.5073  -0.4864  -0.4599
    -0.4274  -0.4108  -0.3851  -0.3743  -0.3513  -0.3393  -0.3299  -0.2657
    -0.2519  -0.2074  -0.1620  -0.1178  -0.0988  -0.0856  -0.0503  -0.0382
    -0.0072   0.0364   0.0754   0.1466   0.1949   0.2207   0.3042   0.3261
     0.3478   0.3920   0.4178   0.4627   0.5441   0.5717   0.6016   0.6412
     0.6758   0.7019   0.7375   0.7581   0.7667   0.7863   0.7937   0.8222
     0.9134   0.9578   0.9791   0.9980   1.0216   1.0693   1.1038   1.1200
     1.1589   1.2017   1.2256   1.2634   1.3078   1.3492   1.3713   1.3826
     1.3963   1.4210   1.4892   1.5281   1.5481   1.5531   1.5925   1.6148
     1.6410   1.6617   1.7106   1.7420   1.7656   1.8047   1.8290   1.8462
     1.8871   1.9017   1.9257   1.9400   1.9883   2.0079   2.0221   2.0454
     2.0647   2.0814   2.0989   2.1274   2.1667   2.2189   2.2340   2.2593
     2.2843   2.2956   2.3293   2.3533   2.3677   2.3905   2.4412   2.4615
     2.5209   2.5695   2.6320   2.6606   2.6910   2.8241   2.9893   3.3037
     3.4646   3.5969   3.9017   4.0474   4.3161   4.6290   5.0045   5.3348
     5.4775   5.7084   5.9507   6.1149   6.2633   6.3632   6.4648   7.0300
     7.1881   7.3414   7.4256   7.5100

          k = 0.2000 0.1155 0.0000 ( 44694 PWs)   bands (ev):

    -9.9909  -6.3078  -5.0575  -4.7150  -4.5372  -4.3957  -4.1189  -4.0858
    -3.9661  -3.8874  -3.8669  -3.8053  -3.7780  -3.6801  -3.5950  -3.5148
    -3.4700  -3.4189  -3.3932  -3.3102  -3.1701  -3.0905  -3.0302  -3.0090
    -2.9663  -2.9272  -2.9007  -2.8611  -2.8284  -2.8189  -2.7765  -2.7605
    -2.7222  -2.7060  -2.6640  -2.6387  -2.5993  -2.5413  -2.5152  -2.4323
    -2.3891  -2.3510  -2.2455  -2.1970  -2.1512  -2.1356  -2.1085  -2.0771
    -2.0598  -2.0254  -1.9738  -1.8717  -1.7913  -1.7581  -1.7179  -1.6990
    -1.6605  -1.6301  -1.5401  -1.4241  -1.3899  -1.3466  -1.3446  -1.3145
    -1.2669  -1.2384  -1.2248  -1.1911  -1.1399  -1.1074  -1.0692  -1.0448
    -1.0257  -1.0060  -0.9874  -0.9543  -0.9136  -0.8848  -0.8547  -0.8253
    -0.7942  -0.7683  -0.7503  -0.7405  -0.7276  -0.6996  -0.6800  -0.6485
    -0.6328  -0.6080  -0.5718  -0.5569  -0.5407  -0.5078  -0.4871  -0.4591
    -0.4305  -0.4105  -0.3876  -0.3722  -0.3519  -0.3369  -0.3302  -0.2674
    -0.2526  -0.2079  -0.1627  -0.1165  -0.0968  -0.0812  -0.0551  -0.0424
    -0.0058   0.0362   0.0764   0.1460   0.1958   0.2204   0.3055   0.3248
     0.3483   0.3938   0.4169   0.4635   0.5435   0.5696   0.6011   0.6418
     0.6728   0.7038   0.7387   0.7539   0.7655   0.7858   0.7942   0.8230
     0.9132   0.9623   0.9796   0.9973   1.0218   1.0714   1.1009   1.1178
     1.1587   1.2011   1.2259   1.2650   1.3088   1.3492   1.3693   1.3830
     1.3966   1.4200   1.4922   1.5258   1.5480   1.5531   1.5914   1.6147
     1.6425   1.6629   1.7084   1.7394   1.7647   1.8051   1.8288   1.8482
     1.8880   1.9007   1.9267   1.9400   1.9883   2.0075   2.0214   2.0451
     2.0649   2.0801   2.0979   2.1276   2.1669   2.2181   2.2332   2.2604
     2.2860   2.2965   2.3293   2.3547   2.3687   2.3933   2.4428   2.4607
     2.5200   2.5689   2.6313   2.6607   2.6912   2.8249   2.9927   3.3023
     3.4638   3.5983   3.9002   4.0464   4.3173   4.6291   5.0038   5.3363
     5.4779   5.7069   5.9509   6.1149   6.2622   6.3646   6.4645   7.0293
     7.1859   7.3422   7.4258   7.5099

          k = 0.2000 0.3464 0.0000 ( 44714 PWs)   bands (ev):

    -9.9796  -6.0338  -4.9934  -4.8640  -4.7277  -4.3886  -4.3428  -3.8125
    -3.7585  -3.7535  -3.7158  -3.6864  -3.6604  -3.6049  -3.5830  -3.5450
    -3.4743  -3.3955  -3.2363  -3.1967  -3.1671  -3.1233  -3.1106  -3.0384
    -3.0026  -2.9736  -2.9225  -2.8865  -2.8517  -2.8358  -2.8034  -2.7943
    -2.7395  -2.7078  -2.6790  -2.6403  -2.6061  -2.5897  -2.5067  -2.4634
    -2.3550  -2.2894  -2.2186  -2.1964  -2.1655  -2.1309  -2.0940  -2.0683
    -2.0189  -1.9894  -1.9338  -1.9037  -1.8746  -1.8193  -1.7927  -1.7055
    -1.6923  -1.6563  -1.5979  -1.5677  -1.5317  -1.4829  -1.4751  -1.3958
    -1.3710  -1.3092  -1.2953  -1.2888  -1.2528  -1.2058  -1.1613  -1.1206
    -1.0992  -1.0683  -1.0442  -1.0335  -0.9555  -0.9396  -0.9077  -0.8707
    -0.8424  -0.8191  -0.7993  -0.7948  -0.7699  -0.7426  -0.7005  -0.6762
    -0.6451  -0.6284  -0.6203  -0.5917  -0.5585  -0.5430  -0.5179  -0.4811
    -0.4592  -0.4394  -0.4089  -0.3839  -0.3636  -0.3382  -0.3256  -0.3143
    -0.2862  -0.2513  -0.2386  -0.1926  -0.1689  -0.1375  -0.1015  -0.0610
    -0.0396   0.0086   0.0294   0.1245   0.1670   0.2226   0.2592   0.2754
     0.3157   0.3580   0.3886   0.4104   0.4486   0.4658   0.4788   0.5283
     0.5422   0.5678   0.6087   0.6494   0.6962   0.7628   0.7712   0.7963
     0.8373   0.9086   0.9309   0.9575   0.9739   0.9901   1.0128   1.1102
     1.1281   1.1672   1.1993   1.2179   1.2830   1.3065   1.3148   1.3465
     1.3686   1.3843   1.4147   1.4220   1.4616   1.4896   1.5595   1.6462
     1.6762   1.7197   1.7956   1.8321   1.8661   1.9060   1.9237   1.9585
     2.0015   2.0339   2.0449   2.0884   2.1065   2.1200   2.1357   2.1507
     2.1750   2.1893   2.2154   2.2523   2.2773   2.3056   2.3352   2.3821
     2.4004   2.4369   2.4906   2.5311   2.5882   2.6008   2.6509   2.6863
     2.7775   2.8113   3.1063   3.3051   3.3719   3.5269   3.5957   3.7624
     3.8868   4.0159   4.3407   4.4301   4.6072   4.8223   4.9405   4.9856
     5.1213   5.6348   5.7948   5.9441   6.0895   6.3027   6.3637   6.6443
     6.7804   6.8356   6.9231   7.2149

          k = 0.2000-0.5774 0.0000 ( 44692 PWs)   bands (ev):

    -9.9726  -5.5766  -5.4668  -4.9698  -4.6474  -4.3471  -4.1900  -4.0629
    -3.7480  -3.7350  -3.6223  -3.5616  -3.5190  -3.4548  -3.4123  -3.3947
    -3.3147  -3.2482  -3.2381  -3.2118  -3.2033  -3.1823  -3.1369  -3.1214
    -3.0564  -3.0328  -3.0081  -2.9828  -2.9639  -2.8913  -2.8308  -2.7620
    -2.7492  -2.7199  -2.6968  -2.6246  -2.5792  -2.5613  -2.5313  -2.4255
    -2.3887  -2.3556  -2.2548  -2.2090  -2.1705  -2.1215  -2.1078  -2.0593
    -2.0339  -1.9139  -1.8920  -1.8104  -1.8091  -1.7528  -1.7370  -1.7178
    -1.6917  -1.6890  -1.6398  -1.6126  -1.5813  -1.5329  -1.5151  -1.4976
    -1.4570  -1.4392  -1.3800  -1.3570  -1.2891  -1.2798  -1.2128  -1.1881
    -1.1628  -1.1333  -1.1132  -1.0877  -1.0572  -1.0443  -0.9841  -0.9566
    -0.9125  -0.8785  -0.8679  -0.8489  -0.8170  -0.7850  -0.7427  -0.7105
    -0.6785  -0.6432  -0.6388  -0.5738  -0.5332  -0.5049  -0.4880  -0.4594
    -0.4375  -0.4196  -0.4036  -0.3790  -0.3616  -0.3231  -0.3089  -0.3013
    -0.2792  -0.2514  -0.2399  -0.2161  -0.2083  -0.1825  -0.1740  -0.1399
    -0.0995  -0.0102   0.0589   0.1277   0.1578   0.1951   0.2092   0.2560
     0.2852   0.3163   0.3333   0.3455   0.3864   0.4179   0.4426   0.4720
     0.5260   0.5659   0.5986   0.6189   0.6514   0.6962   0.7701   0.8362
     0.8490   0.9073   0.9231   0.9589   0.9802   1.0124   1.0338   1.0434
     1.0752   1.1158   1.1402   1.1634   1.1732   1.2366   1.2589   1.2992
     1.3238   1.3718   1.4389   1.4551   1.4831   1.5860   1.5994   1.6860
     1.7131   1.7585   1.7763   1.8502   1.8575   1.9043   1.9419   1.9670
     2.0281   2.0340   2.0819   2.0992   2.1199   2.1520   2.1862   2.1990
     2.2252   2.2361   2.2608   2.3146   2.3295   2.3696   2.4207   2.4566
     2.5006   2.5387   2.5520   2.5719   2.5991   2.6125   2.7911   2.8640
     3.0889   3.4171   3.6815   3.7022   3.8071   3.9465   3.9682   4.1414
     4.2380   4.2897   4.5541   4.7280   4.7872   4.8633   5.1301   5.2189
     5.2634   5.4349   5.4743   5.6113   5.8446   5.8848   5.9928   6.1231
     6.3785   6.6180   6.8024   6.8507

          k = 0.2000-0.3464 0.0000 ( 44714 PWs)   bands (ev):

    -9.9796  -6.0336  -4.9901  -4.8707  -4.7253  -4.3852  -4.3442  -3.8132
    -3.7580  -3.7562  -3.7153  -3.6862  -3.6606  -3.6051  -3.5849  -3.5423
    -3.4747  -3.3938  -3.2364  -3.1937  -3.1680  -3.1235  -3.1101  -3.0401
    -3.0029  -2.9747  -2.9253  -2.8852  -2.8518  -2.8332  -2.8069  -2.7941
    -2.7365  -2.7110  -2.6770  -2.6347  -2.6112  -2.5868  -2.5078  -2.4633
    -2.3578  -2.2862  -2.2167  -2.2000  -2.1641  -2.1278  -2.0943  -2.0741
    -2.0197  -1.9891  -1.9297  -1.9047  -1.8745  -1.8209  -1.7937  -1.7058
    -1.6908  -1.6576  -1.5984  -1.5669  -1.5338  -1.4838  -1.4749  -1.3965
    -1.3705  -1.3102  -1.2950  -1.2908  -1.2530  -1.2081  -1.1598  -1.1209
    -1.0994  -1.0674  -1.0447  -1.0330  -0.9572  -0.9377  -0.9079  -0.8719
    -0.8436  -0.8195  -0.8005  -0.7953  -0.7688  -0.7430  -0.6987  -0.6785
    -0.6447  -0.6288  -0.6186  -0.5903  -0.5565  -0.5422  -0.5123  -0.4816
    -0.4595  -0.4405  -0.4055  -0.3822  -0.3641  -0.3380  -0.3256  -0.3142
    -0.2875  -0.2527  -0.2399  -0.1936  -0.1686  -0.1350  -0.1027  -0.0580
    -0.0398   0.0086   0.0289   0.1258   0.1669   0.2228   0.2596   0.2709
     0.3194   0.3553   0.3883   0.4129   0.4482   0.4653   0.4795   0.5275
     0.5436   0.5659   0.6094   0.6498   0.6970   0.7641   0.7716   0.7946
     0.8376   0.9083   0.9302   0.9610   0.9758   0.9903   1.0100   1.1100
     1.1287   1.1664   1.1981   1.2173   1.2803   1.3066   1.3161   1.3440
     1.3704   1.3846   1.4131   1.4236   1.4646   1.4877   1.5594   1.6465
     1.6777   1.7210   1.7961   1.8330   1.8658   1.9053   1.9232   1.9591
     2.0000   2.0337   2.0447   2.0883   2.1080   2.1215   2.1353   2.1503
     2.1750   2.1891   2.2159   2.2529   2.2773   2.3056   2.3352   2.3822
     2.4009   2.4363   2.4885   2.5304   2.5850   2.6005   2.6500   2.6838
     2.7768   2.8147   3.1066   3.3071   3.3714   3.5264   3.5956   3.7614
     3.8862   4.0156   4.3400   4.4302   4.6066   4.8220   4.9398   4.9859
     5.1215   5.6347   5.7946   5.9435   6.0893   6.3029   6.3648   6.6433
     6.7803   6.8352   6.9253   7.2160

          k = 0.4000-0.2309 0.0000 ( 44748 PWs)   bands (ev):

    -9.9760  -5.9058  -5.3070  -4.7860  -4.4644  -4.4357  -4.1586  -4.0537
    -3.9677  -3.8448  -3.7065  -3.5969  -3.5526  -3.5017  -3.4681  -3.4297
    -3.3271  -3.3124  -3.2794  -3.2417  -3.1922  -3.1587  -3.1071  -3.0805
    -3.0547  -3.0398  -3.0108  -2.9698  -2.9093  -2.8813  -2.8354  -2.7290
    -2.7093  -2.6582  -2.6274  -2.5828  -2.5638  -2.4893  -2.4736  -2.4276
    -2.3912  -2.3417  -2.3241  -2.2314  -2.1662  -2.1120  -2.0816  -2.0560
    -1.9855  -1.9759  -1.9442  -1.9104  -1.8800  -1.8689  -1.8254  -1.7807
    -1.7365  -1.7009  -1.6002  -1.5761  -1.5403  -1.5288  -1.5037  -1.4386
    -1.3646  -1.3548  -1.3143  -1.2926  -1.2328  -1.2123  -1.1847  -1.1543
    -1.1163  -1.0495  -1.0363  -1.0090  -0.9753  -0.9445  -0.9260  -0.8759
    -0.8565  -0.8280  -0.8114  -0.8023  -0.7824  -0.7620  -0.7266  -0.7196
    -0.7060  -0.6786  -0.6600  -0.6075  -0.5728  -0.5568  -0.5402  -0.5137
    -0.4939  -0.4596  -0.4150  -0.3976  -0.3817  -0.3522  -0.3308  -0.3022
    -0.2764  -0.2229  -0.1945  -0.1514  -0.1212  -0.0774  -0.0571  -0.0064
     0.0138   0.0694   0.0793   0.1454   0.2031   0.2290   0.2511   0.2644
     0.2913   0.3322   0.3582   0.3804   0.3966   0.4280   0.4427   0.4532
     0.4922   0.5769   0.6042   0.6245   0.6432   0.6614   0.6898   0.7459
     0.8140   0.8850   0.9095   0.9397   0.9887   1.0316   1.0441   1.1171
     1.1796   1.1934   1.2150   1.2423   1.2570   1.2714   1.3195   1.3337
     1.3847   1.4394   1.4533   1.4961   1.5197   1.5430   1.5736   1.5982
     1.6544   1.6999   1.7350   1.7765   1.8160   1.8675   1.9012   1.9288
     1.9436   1.9647   2.0028   2.0429   2.0617   2.0803   2.1116   2.1438
     2.1950   2.2164   2.2309   2.2541   2.2766   2.3253   2.3621   2.4074
     2.4595   2.4995   2.5303   2.5490   2.5994   2.6376   2.7758   2.7891
     2.9889   3.1423   3.3023   3.4959   3.5696   3.7291   3.7745   4.0081
     4.1654   4.2465   4.3451   4.5672   4.6986   4.8499   4.9052   4.9758
     5.1822   5.2455   5.3193   5.6848   5.8436   5.9763   6.1003   6.4840
     6.7233   6.8683   7.1744   7.2710

          k = 0.4000 0.0000 0.0000 ( 44714 PWs)   bands (ev):

    -9.9786  -6.0355  -5.0105  -4.8506  -4.7260  -4.3758  -4.3444  -3.8206
    -3.7719  -3.7404  -3.7005  -3.6573  -3.6532  -3.6225  -3.5990  -3.5674
    -3.4767  -3.4053  -3.2360  -3.1895  -3.1642  -3.1391  -3.0872  -3.0309
    -3.0214  -2.9831  -2.9224  -2.8938  -2.8473  -2.8296  -2.8031  -2.7600
    -2.7483  -2.7075  -2.6868  -2.6545  -2.5881  -2.5728  -2.5417  -2.5293
    -2.3469  -2.2648  -2.2045  -2.1766  -2.1666  -2.1322  -2.0858  -2.0364
    -2.0180  -1.9589  -1.9322  -1.9187  -1.8969  -1.8133  -1.7930  -1.7121
    -1.6911  -1.6706  -1.6006  -1.5751  -1.5202  -1.4813  -1.4437  -1.4102
    -1.3875  -1.3170  -1.2978  -1.2621  -1.2421  -1.2149  -1.1334  -1.1314
    -1.1006  -1.0640  -1.0512  -1.0473  -0.9801  -0.9303  -0.9137  -0.8640
    -0.8593  -0.8311  -0.7805  -0.7727  -0.7646  -0.7282  -0.7119  -0.7004
    -0.6639  -0.6272  -0.5934  -0.5749  -0.5610  -0.5385  -0.5170  -0.5055
    -0.4706  -0.4294  -0.4156  -0.3986  -0.3608  -0.3367  -0.3238  -0.2968
    -0.2920  -0.2734  -0.2491  -0.2124  -0.2000  -0.1305  -0.0816  -0.0414
    -0.0328  -0.0036   0.0537   0.1256   0.1551   0.2073   0.2353   0.2509
     0.2971   0.3255   0.3828   0.4128   0.4495   0.4830   0.5080   0.5210
     0.5317   0.5877   0.6035   0.6347   0.6990   0.7587   0.7739   0.8357
     0.8537   0.8673   0.9393   0.9498   0.9752   0.9907   1.0396   1.0809
     1.0990   1.1501   1.2328   1.2562   1.2973   1.3230   1.3341   1.3410
     1.3575   1.3896   1.4113   1.4250   1.4566   1.5279   1.5575   1.6282
     1.6836   1.7085   1.8099   1.8522   1.8861   1.9103   1.9427   1.9560
     2.0139   2.0385   2.0488   2.0625   2.1018   2.1202   2.1400   2.1453
     2.1707   2.1832   2.2201   2.2277   2.2757   2.2910   2.3451   2.3892
     2.4094   2.4802   2.5067   2.5205   2.5804   2.6088   2.6838   2.7076
     2.7729   2.8238   3.0140   3.3162   3.3467   3.5323   3.5853   3.8424
     3.8915   4.0714   4.2694   4.4936   4.6748   4.6889   4.8768   4.9816
     5.0798   5.6133   5.7880   5.9308   6.1477   6.2804   6.3336   6.5923
     6.7755   6.8782   6.9049   7.1932

          k = 0.4000 0.2309 0.0000 ( 44748 PWs)   bands (ev):

    -9.9760  -5.9061  -5.3071  -4.7845  -4.4629  -4.4392  -4.1606  -4.0518
    -3.9653  -3.8458  -3.7072  -3.5964  -3.5519  -3.5017  -3.4684  -3.4310
    -3.3275  -3.3145  -3.2812  -3.2410  -3.1904  -3.1574  -3.1066  -3.0807
    -3.0562  -3.0422  -3.0108  -2.9680  -2.9095  -2.8798  -2.8339  -2.7259
    -2.7109  -2.6606  -2.6261  -2.5824  -2.5627  -2.4937  -2.4732  -2.4272
    -2.3906  -2.3423  -2.3228  -2.2307  -2.1674  -2.1123  -2.0841  -2.0531
    -1.9852  -1.9712  -1.9449  -1.9081  -1.8823  -1.8718  -1.8257  -1.7801
    -1.7373  -1.6989  -1.5994  -1.5755  -1.5396  -1.5270  -1.5045  -1.4366
    -1.3643  -1.3547  -1.3128  -1.2910  -1.2337  -1.2151  -1.1818  -1.1549
    -1.1161  -1.0508  -1.0367  -1.0102  -0.9765  -0.9458  -0.9267  -0.8743
    -0.8543  -0.8282  -0.8080  -0.7995  -0.7830  -0.7617  -0.7237  -0.7207
    -0.7068  -0.6789  -0.6607  -0.6073  -0.5734  -0.5584  -0.5407  -0.5154
    -0.4955  -0.4606  -0.4182  -0.3984  -0.3821  -0.3536  -0.3305  -0.3029
    -0.2778  -0.2253  -0.1905  -0.1498  -0.1211  -0.0774  -0.0589  -0.0076
     0.0139   0.0682   0.0779   0.1450   0.2034   0.2275   0.2513   0.2649
     0.2913   0.3313   0.3601   0.3810   0.3997   0.4293   0.4435   0.4502
     0.4899   0.5751   0.6033   0.6259   0.6461   0.6578   0.6920   0.7461
     0.8129   0.8822   0.9102   0.9395   0.9891   1.0333   1.0430   1.1185
     1.1798   1.1911   1.2159   1.2424   1.2580   1.2714   1.3181   1.3335
     1.3843   1.4406   1.4546   1.4961   1.5179   1.5428   1.5734   1.5977
     1.6546   1.6982   1.7338   1.7757   1.8168   1.8664   1.9028   1.9296
     1.9437   1.9627   2.0027   2.0404   2.0626   2.0798   2.1101   2.1445
     2.1943   2.2164   2.2319   2.2553   2.2771   2.3276   2.3639   2.4077
     2.4605   2.5014   2.5315   2.5496   2.6009   2.6376   2.7761   2.7893
     2.9905   3.1421   3.2989   3.4961   3.5695   3.7284   3.7738   4.0092
     4.1653   4.2464   4.3461   4.5707   4.7005   4.8494   4.9033   4.9754
     5.1817   5.2484   5.3203   5.6827   5.8429   5.9775   6.1019   6.4828
     6.7234   6.8675   7.1741   7.2699

          k = 0.4000-0.6928 0.0000 ( 44692 PWs)   bands (ev):

    -9.9716  -5.5776  -5.4767  -4.9608  -4.6439  -4.3410  -4.1926  -4.0631
    -3.7698  -3.7065  -3.6347  -3.5410  -3.5086  -3.4695  -3.4143  -3.3817
    -3.3373  -3.2693  -3.2387  -3.2139  -3.2038  -3.1807  -3.1468  -3.0963
    -3.0586  -3.0199  -3.0014  -2.9862  -2.9518  -2.9114  -2.8524  -2.7834
    -2.7481  -2.7394  -2.6956  -2.6134  -2.5881  -2.5550  -2.5158  -2.4173
    -2.4047  -2.3729  -2.2395  -2.1923  -2.1739  -2.1250  -2.1050  -2.0315
    -1.9961  -1.9082  -1.8940  -1.8405  -1.8040  -1.7694  -1.7401  -1.7125
    -1.6905  -1.6648  -1.6347  -1.6179  -1.5686  -1.5288  -1.5090  -1.4921
    -1.4623  -1.4122  -1.3842  -1.3568  -1.2987  -1.2793  -1.2453  -1.1969
    -1.1772  -1.1307  -1.1134  -1.0903  -1.0795  -1.0530  -0.9734  -0.9458
    -0.9139  -0.8868  -0.8701  -0.8485  -0.7866  -0.7763  -0.7292  -0.7095
    -0.6969  -0.6476  -0.6136  -0.5758  -0.5334  -0.5262  -0.4985  -0.4690
    -0.4439  -0.4189  -0.3981  -0.3943  -0.3796  -0.3496  -0.3170  -0.2886
    -0.2717  -0.2628  -0.2428  -0.2251  -0.1988  -0.1848  -0.1627  -0.1159
    -0.0414   0.0025   0.0306   0.0983   0.1519   0.1714   0.2205   0.2479
     0.2866   0.2993   0.3232   0.3663   0.3917   0.4062   0.4424   0.4657
     0.5354   0.5599   0.6002   0.6164   0.6251   0.7304   0.7447   0.8026
     0.8211   0.9165   0.9346   0.9567   0.9798   1.0276   1.0443   1.0590
     1.0723   1.1039   1.1498   1.1613   1.2019   1.2353   1.2676   1.3106
     1.3360   1.3635   1.4284   1.4509   1.5131   1.5845   1.6296   1.6486
     1.7120   1.7552   1.7735   1.8596   1.8892   1.9083   1.9399   1.9637
     1.9984   2.0506   2.0859   2.1062   2.1335   2.1580   2.1885   2.2011
     2.2337   2.2466   2.2580   2.3042   2.3260   2.3704   2.4211   2.4564
     2.4907   2.5347   2.5578   2.5750   2.6126   2.6202   2.7784   2.9881
     3.0523   3.4014   3.6335   3.7098   3.8391   3.9089   3.9734   4.0995
     4.2682   4.4181   4.5360   4.7317   4.7945   4.8510   4.9229   5.2236
     5.3022   5.4171   5.5438   5.6245   5.6669   5.8510   6.0528   6.1913
     6.3296   6.5498   6.8006   6.9029

          k = 0.4000-0.4619 0.0000 ( 44692 PWs)   bands (ev):

    -9.9716  -5.5761  -5.4778  -4.9627  -4.6419  -4.3411  -4.1909  -4.0659
    -3.7691  -3.7061  -3.6344  -3.5401  -3.5115  -3.4691  -3.4128  -3.3817
    -3.3358  -3.2732  -3.2294  -3.2184  -3.2035  -3.1827  -3.1464  -3.0969
    -3.0588  -3.0200  -3.0018  -2.9852  -2.9500  -2.9131  -2.8526  -2.7842
    -2.7485  -2.7389  -2.6970  -2.6137  -2.5881  -2.5549  -2.5148  -2.4186
    -2.4047  -2.3723  -2.2398  -2.1926  -2.1729  -2.1244  -2.1037  -2.0314
    -1.9927  -1.9122  -1.8979  -1.8402  -1.8026  -1.7674  -1.7397  -1.7136
    -1.6923  -1.6671  -1.6328  -1.6183  -1.5708  -1.5287  -1.5077  -1.4927
    -1.4657  -1.4058  -1.3858  -1.3572  -1.2996  -1.2808  -1.2457  -1.1982
    -1.1754  -1.1317  -1.1130  -1.0907  -1.0776  -1.0529  -0.9735  -0.9463
    -0.9164  -0.8903  -0.8660  -0.8502  -0.7891  -0.7767  -0.7272  -0.7101
    -0.6965  -0.6476  -0.6103  -0.5763  -0.5334  -0.5231  -0.4983  -0.4683
    -0.4414  -0.4209  -0.3981  -0.3913  -0.3789  -0.3483  -0.3165  -0.2886
    -0.2719  -0.2635  -0.2415  -0.2253  -0.2011  -0.1852  -0.1675  -0.1127
    -0.0404   0.0034   0.0321   0.0972   0.1509   0.1769   0.2173   0.2489
     0.2892   0.2999   0.3233   0.3642   0.3899   0.4057   0.4434   0.4658
     0.5304   0.5598   0.6004   0.6171   0.6262   0.7326   0.7456   0.8023
     0.8222   0.9171   0.9366   0.9547   0.9762   1.0255   1.0447   1.0591
     1.0719   1.1053   1.1489   1.1613   1.2026   1.2348   1.2665   1.3111
     1.3372   1.3649   1.4297   1.4504   1.5131   1.5858   1.6309   1.6489
     1.7124   1.7530   1.7721   1.8618   1.8880   1.9092   1.9388   1.9641
     1.9998   2.0494   2.0868   2.1059   2.1338   2.1590   2.1883   2.2015
     2.2324   2.2468   2.2584   2.3037   2.3267   2.3715   2.4205   2.4555
     2.4884   2.5331   2.5569   2.5743   2.6123   2.6195   2.7780   2.9900
     3.0527   3.3997   3.6335   3.7102   3.8398   3.9080   3.9748   4.0996
     4.2706   4.4161   4.5371   4.7322   4.7914   4.8496   4.9237   5.2229
     5.3034   5.4146   5.5433   5.6177   5.6713   5.8515   6.0526   6.1918
     6.3288   6.5526   6.8014   6.9016

     the Fermi energy is     2.3271 ev

!    total energy              =  -27774.41143388 Ry
     total all-electron energy =  -1326718.940948 Ry
     estimated scf accuracy    <       0.00000081 Ry
     smearing contrib. (-TS)   =       0.00514534 Ry
     internal energy E=F+TS    =  -27774.41657922 Ry

     The total energy is F=E-TS. E is the sum of the following terms:
     one-electron contribution =  -22903.13933828 Ry
     hartree contribution      =   11757.03577479 Ry
     xc contribution           =    -895.68292685 Ry
     ewald contribution        =    9748.01494676 Ry
     one-center paw contrib.   =  -25480.64503564 Ry

     convergence has been achieved in  17 iterations

     negative rho (up, down):  3.367E-03 0.000E+00

     Forces acting on atoms (cartesian axes, Ry/au):

     atom    1 type  1   force =     0.00218034    0.00088314   -0.00624905
     atom    2 type  1   force =     0.00074433    0.00169842   -0.00487728
     atom    3 type  1   force =    -0.00160398    0.00148745   -0.00889011
     atom    4 type  1   force =     0.00216944   -0.00071840   -0.00480249
     atom    5 type  1   force =    -0.00036011   -0.00051957   -0.00371878
     atom    6 type  1   force =    -0.00160846    0.00006654   -0.00433260
     atom    7 type  1   force =     0.00157976   -0.00250608   -0.00621485
     atom    8 type  1   force =    -0.00046471   -0.00184334   -0.00451452
     atom    9 type  1   force =    -0.00217761   -0.00097955   -0.00550476
     atom   10 type  1   force =     0.00302712    0.00524225    0.01706950
     atom   11 type  1   force =     0.00085060    0.00148777    0.00381135
     atom   12 type  1   force =    -0.00248105    0.00240422    0.00524826
     atom   13 type  1   force =    -0.00020041   -0.00224236    0.00714287
     atom   14 type  1   force =    -0.00007319    0.00020666   -0.00086138
     atom   15 type  1   force =     0.00011604   -0.00045610    0.00809771
     atom   16 type  1   force =     0.00030356   -0.00198267    0.00361803
     atom   17 type  1   force =     0.00118872   -0.00103228    0.00319532
     atom   18 type  1   force =    -0.00300108   -0.00266020    0.00041097
     atom   19 type  1   force =     0.00018219   -0.00024545    0.00051271
     atom   20 type  1   force =    -0.00018082   -0.00023345    0.00050134
     atom   21 type  1   force =    -0.00000844   -0.00017240    0.00004794
     atom   22 type  1   force =    -0.00000490   -0.00033150   -0.00043144
     atom   23 type  1   force =     0.00001052   -0.00036362   -0.00010873
     atom   24 type  1   force =    -0.00002413   -0.00036311   -0.00010569
     atom   25 type  1   force =    -0.00002471   -0.00027933   -0.00027094
     atom   26 type  1   force =    -0.00000605   -0.00027827    0.00010737
     atom   27 type  1   force =     0.00002128   -0.00027995   -0.00027516
     atom   28 type  1   force =    -0.00015298   -0.00100072   -0.00000834
     atom   29 type  1   force =     0.00011380   -0.00099145   -0.00001670
     atom   30 type  1   force =    -0.00001432   -0.00071425   -0.00036101
     atom   31 type  1   force =    -0.00001545    0.00035590    0.00274233
     atom   32 type  1   force =    -0.00024433   -0.00082262    0.00012456
     atom   33 type  1   force =     0.00021615   -0.00081999    0.00013614
     atom   34 type  1   force =     0.00003131   -0.00076437   -0.00070081
     atom   35 type  1   force =    -0.00000914   -0.00083898   -0.00014719
     atom   36 type  1   force =    -0.00005615   -0.00075871   -0.00069666
     atom   37 type  2   force =     0.00000659    0.01023982    0.00189093
     atom   38 type  3   force =    -0.00002973    0.00012653   -0.00156878
     The non-local contrib.  to forces
     atom    1 type  1   force =     0.00274445    0.00130382   -0.01870751
     atom    2 type  1   force =     0.00009849    0.00191163   -0.01932035
     atom    3 type  1   force =    -0.00090624    0.00155440   -0.01414956
     atom    4 type  1   force =     0.00193946    0.00004484   -0.01922452
     atom    5 type  1   force =     0.00037615    0.00054617   -0.01953008
     atom    6 type  1   force =    -0.00195464    0.00075070   -0.01872344
     atom    7 type  1   force =     0.00053907   -0.00198692   -0.01703701
     atom    8 type  1   force =    -0.00060020   -0.00153443   -0.01907822
     atom    9 type  1   force =    -0.00094885   -0.00116428   -0.01680775
     atom   10 type  1   force =     0.00185635    0.00252026    0.00341722
     atom   11 type  1   force =    -0.00251368    0.00504642    0.00103304
     atom   12 type  1   force =     0.00196839    0.00538582    0.00138514
     atom   13 type  1   force =     0.00213110   -0.00315326    0.00198006
     atom   14 type  1   force =     0.00002496    0.00132300   -0.00368070
     atom   15 type  1   force =    -0.00232184   -0.00259623    0.00244697
     atom   16 type  1   force =     0.00412132   -0.00107236    0.00001580
     atom   17 type  1   force =    -0.00367199   -0.00091138    0.00009963
     atom   18 type  1   force =    -0.00196735   -0.00323853    0.00408077
     atom   19 type  1   force =    -0.01264447   -0.00613145    0.00360522
     atom   20 type  1   force =     0.01245294   -0.00591593    0.00394373
     atom   21 type  1   force =    -0.00000136    0.00242761    0.00676522
     atom   22 type  1   force =     0.00005914    0.01724403   -0.00529387
     atom   23 type  1   force =     0.00313531    0.00081429    0.00556967
     atom   24 type  1   force =    -0.00329137    0.00070462    0.00593052
     atom   25 type  1   force =    -0.00321002   -0.00507744    0.00147310
     atom   26 type  1   force =    -0.00021080   -0.00406899    0.01529706
     atom   27 type  1   force =     0.00332763   -0.00505261    0.00220220
     atom   28 type  1   force =     0.08013743    0.03955500   -0.01414962
     atom   29 type  1   force =    -0.08010989    0.03941238   -0.01415673
     atom   30 type  1   force =     0.00001360   -0.00179803    0.01046517
     atom   31 type  1   force =    -0.00004391   -0.10418380   -0.12373974
     atom   32 type  1   force =    -0.01963399   -0.00763968    0.02437406
     atom   33 type  1   force =     0.01933084   -0.00764282    0.02443686
     atom   34 type  1   force =    -0.00137981   -0.00625211    0.01470444
     atom   35 type  1   force =    -0.00012823    0.02529807    0.02260572
     atom   36 type  1   force =     0.00130266   -0.00632419    0.01470959
     atom   37 type  2   force =    -0.00004253   -0.00672979   -0.04179083
     atom   38 type  3   force =     0.00031848    0.05955624   -0.13275254
     The ionic contribution  to forces
     atom    1 type  1   force =     0.14850170    0.10330834  -96.86068662
     atom    2 type  1   force =     0.00553121    0.16638903  -96.79892300
     atom    3 type  1   force =    -0.13352994    0.21372657  -96.83587627
     atom    4 type  1   force =     0.13162918   -0.07055182  -96.77147696
     atom    5 type  1   force =    -0.01990672   -0.01210915  -96.77044017
     atom    6 type  1   force =    -0.10459448    0.06619338  -96.78144499
     atom    7 type  1   force =     0.10332919   -0.23045858  -96.83407479
     atom    8 type  1   force =     0.00555594   -0.14097568  -96.80955582
     atom    9 type  1   force =    -0.12426220   -0.08836251  -96.78372967
     atom   10 type  1   force =     0.14015638    0.23860497  -33.25555182
     atom   11 type  1   force =    -0.23119726    0.19450070  -33.47246819
     atom   12 type  1   force =     0.11092862    0.25425033  -33.39521508
     atom   13 type  1   force =    -0.07954856   -0.26880732  -33.45481580
     atom   14 type  1   force =    -0.01206725   -0.06979034  -33.84163552
     atom   15 type  1   force =     0.08727111   -0.13798782  -33.39758904
     atom   16 type  1   force =     0.11187676   -0.03449269  -33.54751799
     atom   17 type  1   force =    -0.00297392    0.04078548  -33.56807117
     atom   18 type  1   force =    -0.13054804   -0.17144581  -33.26322757
     atom   19 type  1   force =     0.48513601    0.06078615   31.87194549
     atom   20 type  1   force =    -0.47138550    0.03646179   31.75700150
     atom   21 type  1   force =    -0.01529638   -0.10202174   29.49591077
     atom   22 type  1   force =    -0.01114846   -0.34878009   30.69750165
     atom   23 type  1   force =    -0.15582541   -0.07610887   29.28469562
     atom   24 type  1   force =     0.16539662   -0.05301728   29.26930106
     atom   25 type  1   force =    -0.06939432    0.02903209   29.85205971
     atom   26 type  1   force =     0.02856502    0.39326457   30.68334288
     atom   27 type  1   force =     0.04429907    0.02988361   29.73003175
     atom   28 type  1   force =    -2.23929095   -1.19026467   93.49380958
     atom   29 type  1   force =     2.24604916   -1.18793760   93.41460024
     atom   30 type  1   force =    -0.01238248    0.28161238   93.72725458
     atom   31 type  1   force =     0.00377760    2.09713187   95.96808342
     atom   32 type  1   force =     0.42498253    0.07032684   93.18970989
     atom   33 type  1   force =    -0.43645392    0.07950803   93.21674874
     atom   34 type  1   force =     0.31096887    0.01791173   92.79183123
     atom   35 type  1   force =     0.00367339   -0.27279533   93.21765756
     atom   36 type  1   force =    -0.31745617    0.02909946   92.77551061
     atom   37 type  2   force =     0.00209566    0.47906186   12.77689687
     atom   38 type  3   force =     0.00753796   -0.42593187   45.22840731
     The local contribution  to forces
     atom    1 type  1   force =    -0.14885732   -0.10325576   96.85599923
     atom    2 type  1   force =    -0.00458920   -0.16621963   96.79638943
     atom    3 type  1   force =     0.13241657   -0.21322810   96.82365781
     atom    4 type  1   force =    -0.13123095    0.06947323   96.76884759
     atom    5 type  1   force =     0.01932923    0.01048176   96.76926411
     atom    6 type  1   force =     0.10462880   -0.06706903   96.77897520
     atom    7 type  1   force =    -0.10230137    0.22965498   96.82729309
     atom    8 type  1   force =    -0.00518143    0.14039920   96.80707648
     atom    9 type  1   force =     0.12269382    0.08853556   96.77771493
     atom   10 type  1   force =    -0.13867076   -0.23535126   33.26985152
     atom   11 type  1   force =     0.23426932   -0.19783176   33.47515240
     atom   12 type  1   force =    -0.11530862   -0.25645973   33.39925323
     atom   13 type  1   force =     0.07691929    0.26892111   33.45978210
     atom   14 type  1   force =     0.01232248    0.06820458   33.84309216
     atom   15 type  1   force =    -0.08493817    0.13977775   33.40320935
     atom   16 type  1   force =    -0.11547157    0.03384703   33.55058039
     atom   17 type  1   force =     0.00815499   -0.04074530   33.57052149
     atom   18 type  1   force =     0.12880629    0.17203605   33.26003374
     atom   19 type  1   force =    -0.47144635   -0.05506188  -31.87160934
     atom   20 type  1   force =     0.45770293   -0.03114862  -31.75693009
     atom   21 type  1   force =     0.01545820    0.09882598  -29.50118559
     atom   22 type  1   force =     0.01082506    0.33090658  -30.69075545
     atom   23 type  1   force =     0.15272232    0.07481969  -29.28879171
     atom   24 type  1   force =    -0.16190519    0.05178264  -29.27399039
     atom   25 type  1   force =     0.07206979   -0.02377904  -29.85311580
     atom   26 type  1   force =    -0.02827033   -0.38840900  -30.69568412
     atom   27 type  1   force =    -0.04718037   -0.02491015  -29.73195810
     atom   28 type  1   force =     2.13899018    1.14029344  -93.47596327
     atom   29 type  1   force =    -2.14585562    1.13809802  -93.39678455
     atom   30 type  1   force =     0.01237330   -0.27962384  -93.72167199
     atom   31 type  1   force =    -0.00379589   -1.97633148  -95.85836393
     atom   32 type  1   force =    -0.40660387   -0.06471006  -93.19786385
     atom   33 type  1   force =     0.41836899   -0.07389741  -93.22509553
     atom   34 type  1   force =    -0.30903952   -0.01297603  -92.79132745
     atom   35 type  1   force =    -0.00354663    0.24839127  -93.22374550
     atom   36 type  1   force =     0.31553942   -0.02411617  -92.77512665
     atom   37 type  2   force =    -0.00205039   -0.46209116  -12.73319254
     atom   38 type  3   force =    -0.00772031    0.36777207  -45.10014799
     The core correction contribution to forces
     atom    1 type  1   force =    -0.00044688   -0.00023854    0.01733234
     atom    2 type  1   force =     0.00001488   -0.00042609    0.01720200
     atom    3 type  1   force =     0.00032799   -0.00055764    0.01769888
     atom    4 type  1   force =    -0.00037923    0.00020215    0.01716182
     atom    5 type  1   force =    -0.00001176    0.00004335    0.01705547
     atom    6 type  1   force =     0.00035861   -0.00011217    0.01705409
     atom    7 type  1   force =    -0.00035709    0.00063023    0.01754679
     atom    8 type  1   force =     0.00003964    0.00040161    0.01703953
     atom    9 type  1   force =     0.00041328    0.00028310    0.01741341
     atom   10 type  1   force =    -0.00038661   -0.00050840   -0.00028467
     atom   11 type  1   force =     0.00049085   -0.00048341    0.00022585
     atom   12 type  1   force =    -0.00021253   -0.00066101    0.00002907
     atom   13 type  1   force =     0.00010270    0.00042858    0.00047434
     atom   14 type  1   force =     0.00000498    0.00001471    0.00173641
     atom   15 type  1   force =    -0.00007669    0.00011774    0.00031152
     atom   16 type  1   force =    -0.00021777    0.00023009    0.00073528
     atom   17 type  1   force =    -0.00005085    0.00007528    0.00077272
     atom   18 type  1   force =     0.00041660    0.00046403   -0.00057961
     atom   19 type  1   force =    -0.00093132    0.00017269   -0.00357845
     atom   20 type  1   force =     0.00093135    0.00021055   -0.00355099
     atom   21 type  1   force =    -0.00000186    0.00055066   -0.00160681
     atom   22 type  1   force =     0.00001056   -0.00015525   -0.00192883
     atom   23 type  1   force =     0.00016034   -0.00018806   -0.00148894
     atom   24 type  1   force =    -0.00016746   -0.00018594   -0.00150555
     atom   25 type  1   force =     0.00056756    0.00013195   -0.00085684
     atom   26 type  1   force =    -0.00002990   -0.00067931   -0.00302938
     atom   27 type  1   force =    -0.00055736    0.00014045   -0.00083921
     atom   28 type  1   force =     0.01972241    0.00958752   -0.00366469
     atom   29 type  1   force =    -0.01970296    0.00957426   -0.00359698
     atom   30 type  1   force =    -0.00000067   -0.00049865   -0.01612962
     atom   31 type  1   force =     0.00002168   -0.01632476    0.01645361
     atom   32 type  1   force =     0.00116553    0.00101490   -0.01586346
     atom   33 type  1   force =    -0.00114821    0.00102180   -0.01587519
     atom   34 type  1   force =    -0.00041476    0.00050228   -0.01554306
     atom   35 type  1   force =     0.00001162   -0.00194618   -0.01635182
     atom   36 type  1   force =     0.00042003    0.00049889   -0.01552640
     atom   37 type  2   force =     0.00000000    0.00000000    0.00000000
     atom   38 type  3   force =    -0.00018489   -0.00126088    0.00303769
     The Hubbard contrib.    to forces
     atom    1 type  1   force =     0.00000000    0.00000000    0.00000000
     atom    2 type  1   force =     0.00000000    0.00000000    0.00000000
     atom    3 type  1   force =     0.00000000    0.00000000    0.00000000
     atom    4 type  1   force =     0.00000000    0.00000000    0.00000000
     atom    5 type  1   force =     0.00000000    0.00000000    0.00000000
     atom    6 type  1   force =     0.00000000    0.00000000    0.00000000
     atom    7 type  1   force =     0.00000000    0.00000000    0.00000000
     atom    8 type  1   force =     0.00000000    0.00000000    0.00000000
     atom    9 type  1   force =     0.00000000    0.00000000    0.00000000
     atom   10 type  1   force =     0.00000000    0.00000000    0.00000000
     atom   11 type  1   force =     0.00000000    0.00000000    0.00000000
     atom   12 type  1   force =     0.00000000    0.00000000    0.00000000
     atom   13 type  1   force =     0.00000000    0.00000000    0.00000000
     atom   14 type  1   force =     0.00000000    0.00000000    0.00000000
     atom   15 type  1   force =     0.00000000    0.00000000    0.00000000
     atom   16 type  1   force =     0.00000000    0.00000000    0.00000000
     atom   17 type  1   force =     0.00000000    0.00000000    0.00000000
     atom   18 type  1   force =     0.00000000    0.00000000    0.00000000
     atom   19 type  1   force =     0.00000000    0.00000000    0.00000000
     atom   20 type  1   force =     0.00000000    0.00000000    0.00000000
     atom   21 type  1   force =     0.00000000    0.00000000    0.00000000
     atom   22 type  1   force =     0.00000000    0.00000000    0.00000000
     atom   23 type  1   force =     0.00000000    0.00000000    0.00000000
     atom   24 type  1   force =     0.00000000    0.00000000    0.00000000
     atom   25 type  1   force =     0.00000000    0.00000000    0.00000000
     atom   26 type  1   force =     0.00000000    0.00000000    0.00000000
     atom   27 type  1   force =     0.00000000    0.00000000    0.00000000
     atom   28 type  1   force =     0.00000000    0.00000000    0.00000000
     atom   29 type  1   force =     0.00000000    0.00000000    0.00000000
     atom   30 type  1   force =     0.00000000    0.00000000    0.00000000
     atom   31 type  1   force =     0.00000000    0.00000000    0.00000000
     atom   32 type  1   force =     0.00000000    0.00000000    0.00000000
     atom   33 type  1   force =     0.00000000    0.00000000    0.00000000
     atom   34 type  1   force =     0.00000000    0.00000000    0.00000000
     atom   35 type  1   force =     0.00000000    0.00000000    0.00000000
     atom   36 type  1   force =     0.00000000    0.00000000    0.00000000
     atom   37 type  2   force =     0.00000000    0.00000000    0.00000000
     atom   38 type  3   force =     0.00000000    0.00000000    0.00000000
     The SCF correction term to forces
     atom    1 type  1   force =     0.00000000   -0.00000000   -0.00000000
     atom    2 type  1   force =    -0.00000000    0.00000000   -0.00000000
     atom    3 type  1   force =     0.00000000   -0.00000000   -0.00000000
     atom    4 type  1   force =     0.00000000    0.00000000   -0.00000000
     atom    5 type  1   force =    -0.00000000    0.00000000   -0.00000000
     atom    6 type  1   force =    -0.00000000    0.00000000   -0.00000000
     atom    7 type  1   force =     0.00000000   -0.00000000    0.00000000
     atom    8 type  1   force =    -0.00000000   -0.00000000   -0.00000000
     atom    9 type  1   force =    -0.00000000   -0.00000000   -0.00000000
     atom   10 type  1   force =     0.00000000   -0.00000000   -0.00000000
     atom   11 type  1   force =    -0.00000000    0.00000000   -0.00000000
     atom   12 type  1   force =     0.00000000   -0.00000000   -0.00000000
     atom   13 type  1   force =     0.00000000    0.00000000   -0.00000000
     atom   14 type  1   force =    -0.00000000    0.00000000   -0.00000000
     atom   15 type  1   force =     0.00000000    0.00000000   -0.00000000
     atom   16 type  1   force =    -0.00000000   -0.00000000   -0.00000000
     atom   17 type  1   force =    -0.00000000   -0.00000000   -0.00000000
     atom   18 type  1   force =     0.00000000   -0.00000000    0.00000000
     atom   19 type  1   force =     0.00006372   -0.00001016    0.00013201
     atom   20 type  1   force =     0.00011286    0.00015956    0.00001940
     atom   21 type  1   force =    -0.00017163    0.00004591    0.00014657
     atom   22 type  1   force =     0.00024421    0.00045403    0.00002727
     atom   23 type  1   force =    -0.00018663    0.00030013   -0.00011115
     atom   24 type  1   force =    -0.00006133    0.00035366    0.00014088
     atom   25 type  1   force =    -0.00006232   -0.00058609    0.00015111
     atom   26 type  1   force =    -0.00006463   -0.00038473    0.00016315
     atom   27 type  1   force =     0.00012770   -0.00034045    0.00027041
     atom   28 type  1   force =     0.00028335   -0.00017122   -0.00005813
     atom   29 type  1   force =    -0.00027150   -0.00013772   -0.00009646
     atom   30 type  1   force =    -0.00002266   -0.00040530   -0.00029694
     atom   31 type  1   force =     0.00002047    0.00006487    0.00029120
     atom   32 type  1   force =    -0.00015913    0.00018619   -0.00024986
     atom   33 type  1   force =     0.00011385    0.00019121   -0.00009651
     atom   34 type  1   force =    -0.00010807    0.00005056   -0.00038375
     atom   35 type  1   force =    -0.00002389    0.00021398   -0.00033093
     atom   36 type  1   force =     0.00013330    0.00008410   -0.00028158
     atom   37 type  2   force =    -0.00000074   -0.00000029   -0.00004035
     atom   38 type  3   force =     0.00001443   -0.00000822   -0.00013103

     Total force =     0.011282     Total SCF correction =     0.001612
     SCF correction compared to forces is large: reduce conv_thr to get better values

     Writing all to output data dir ./pwscf.save/

     init_run     :     14.89s CPU     20.51s WALL (       1 calls)
     electrons    :    468.37s CPU    483.33s WALL (       1 calls)
     forces       :      3.92s CPU      4.54s WALL (       1 calls)

     Called by init_run:
     wfcinit      :      5.95s CPU      6.13s WALL (       1 calls)
     potinit      :      7.29s CPU     12.66s WALL (       1 calls)
     hinit0       :      1.03s CPU      1.05s WALL (       1 calls)

     Called by electrons:
     c_bands      :    400.14s CPU    407.91s WALL (      18 calls)
     sum_band     :     46.06s CPU     50.32s WALL (      18 calls)
     v_of_rho     :     12.71s CPU     19.89s WALL (      18 calls)
     newd         :      5.43s CPU      5.98s WALL (      18 calls)
     PAW_pot      :      6.39s CPU      6.50s WALL (      18 calls)
     mix_rho      :      3.72s CPU      3.86s WALL (      18 calls)
     vdW_kernel   :      2.14s CPU      6.47s WALL (       1 calls)

     Called by c_bands:
     init_us_2    :      2.61s CPU      2.65s WALL (     494 calls)
     init_us_2:cp :      2.61s CPU      2.65s WALL (     494 calls)
     cegterg      :    391.67s CPU    399.01s WALL (     234 calls)

     Called by *egterg:
     cdiaghg      :     82.73s CPU     84.04s WALL (    1261 calls)
     h_psi        :    206.35s CPU    210.23s WALL (    1287 calls)
     s_psi        :     13.91s CPU     14.22s WALL (    1287 calls)
     g_psi        :      0.43s CPU      0.44s WALL (    1040 calls)

     Called by h_psi:
     h_psi:calbec :     29.52s CPU     30.18s WALL (    1287 calls)
     vloc_psi     :    161.30s CPU    164.20s WALL (    1287 calls)
     add_vuspsi   :     14.45s CPU     14.75s WALL (    1287 calls)

     General routines
     calbec       :     38.48s CPU     40.25s WALL (    1573 calls)
     fft          :      9.05s CPU     11.78s WALL (    1194 calls)
     ffts         :      2.25s CPU      2.28s WALL (    4366 calls)
     fftw         :    175.08s CPU    179.35s WALL (  305770 calls)
     interpolate  :      0.64s CPU      0.68s WALL (      18 calls)

     Parallel routines

     PWSCF        :   8m15.26s CPU   8m41.61s WALL


   This run was terminated on:  13:54: 0   4Feb2025            

=------------------------------------------------------------------------------=
   JOB DONE.
=------------------------------------------------------------------------------=
