
     Program PWSCF v.7.1 starts on  6Dec2025 at 15:27:21 
        Git branch: heads/qe-7.1
        Last git commit: 48ba0178f8fede6d020eb786884699a9f063f55d-dirty
        Last git commit date: Fri Jan 27 14:22:33 2023 +0000
        Last git commit subject: Merge branch 'fix_hubbard' into 'develop'

     This program is part of the open-source Quantum ESPRESSO suite
     for quantum simulation of materials; please cite
         "P. Giannozzi et al., J. Phys.:Condens. Matter 21 395502 (2009);
         "P. Giannozzi et al., J. Phys.:Condens. Matter 29 465901 (2017);
         "P. Giannozzi et al., J. Chem. Phys. 152 154105 (2020);
          URL http://www.quantum-espresso.org", 
     in publications or presentations arising from this work. More details at
     http://www.quantum-espresso.org/quote

     Parallel version (MPI), running on    96 processors

     MPI processes distributed on     2 nodes
     82965 MiB available memory on the printing compute node when the environment starts

     Reading input from espresso.pwi
Warning: card &CELL ignored
Warning: card / ignored
Warning: card &FCP ignored
Warning: card / ignored
Warning: card &RISM ignored
Warning: card / ignored

     Current dimensions of program PWSCF are:
     Max number of different atomic species (ntypx) = 10
     Max number of k-points (npk) =  40000
     Max angular momentum in pseudopotentials (lmaxx) =  4
     file Co.pbe-n-kjpaw_psl.1.0.0.UPF: wavefunction(s)  4S 3D renormalized
     file C.pbe-n-kjpaw_psl.1.0.0.UPF: wavefunction(s)  2S 2P renormalized
     file O.pbe-nl-kjpaw_psl.1.0.0.UPF: wavefunction(s)  2S 2P renormalized
     file H.pbe-kjpaw_psl.1.0.0.UPF: wavefunction(s)  1S renormalized

     **************************************************************************
     Initializing libbeef V0.1.2 with the BEEF-vdW functional.
     Citation: Wellendorff et al., PRB 85, 235149 (2012).
     **************************************************************************


     IMPORTANT: XC functional enforced from input :
     Exchange-correlation= BEEF-VDW
                           (   1   4  43  14   2   0   0)
     Any further DFT definition will be discarded
     Please, verify this is what you really want


     R & G space division:  proc/nbgrp/npool/nimage =      96
     Subspace diagonalization in iterative solution of the eigenvalue problem:
     one sub-group per band group will be used
     custom distributed-memory algorithm (size of sub-group:  2*  2 procs)


     Parallelization info
     --------------------
     sticks:   dense  smooth     PW     G-vecs:    dense   smooth      PW
     Min          43      23      6                 7829     3049     440
     Max          44      24      7                 7845     3068     465
     Sum        4153    2221    613               752179   293251   42993

     Using Slab Decomposition



     bravais-lattice index     =            0
     lattice parameter (alat)  =      14.1729  a.u.
     unit-cell volume          =    8574.3059 (a.u.)^3
     number of atoms/cell      =           39
     number of atomic types    =            4
     number of electrons       =       335.00
     number of Kohn-Sham states=          202
     kinetic-energy cutoff     =      40.0000  Ry
     charge density cutoff     =     300.0000  Ry
     scf convergence threshold =      1.0E-06
     mixing beta               =       0.7000
     number of iterations used =            8  local-TF  mixing
     Exchange-correlation= BEEF-VDW
                           (   1   4  43  14   2   0   0)

     celldm(1)=  14.172946  celldm(2)=   0.000000  celldm(3)=   0.000000
     celldm(4)=   0.000000  celldm(5)=   0.000000  celldm(6)=   0.000000

     crystal axes: (cart. coord. in units of alat)
               a(1) = (   1.000000   0.000000   0.000000 )  
               a(2) = (   0.500000   0.866025   0.000000 )  
               a(3) = (   0.000000   0.000000   3.477667 )  

     reciprocal axes: (cart. coord. in units 2 pi/alat)
               b(1) = (  1.000000 -0.577350  0.000000 )  
               b(2) = (  0.000000  1.154701  0.000000 )  
               b(3) = (  0.000000  0.000000  0.287549 )  


     PseudoPot. # 1 for Co read from file:
     /users/kbadger1/espresso/pseudo/pslibrary.1.0.0/pbe/PSEUDOPOTENTIALS/Co.pbe-n-kjpaw_psl.1.0.0.UPF
     MD5 check sum: 88af6ec42553d4236c267fdfcb472151
     Pseudo is Projector augmented-wave + core cor, Zval =  9.0
     Generated using 'atomic' code by A. Dal Corso  v.7.0
     Shape of augmentation charge: PSQ
     Using radial grid of 1193 points,  6 beta functions with: 
                l(1) =   0
                l(2) =   0
                l(3) =   1
                l(4) =   1
                l(5) =   2
                l(6) =   2
     Q(r) pseudized with 0 coefficients 


     PseudoPot. # 2 for C  read from file:
     /users/kbadger1/espresso/pseudo/pslibrary.1.0.0/pbe/PSEUDOPOTENTIALS/C.pbe-n-kjpaw_psl.1.0.0.UPF
     MD5 check sum: 6408e75cdba28732cea38a4db8498ce4
     Pseudo is Projector augmented-wave + core cor, Zval =  4.0
     Generated using 'atomic' code by A. Dal Corso  v.7.0
     Shape of augmentation charge: PSQ
     Using radial grid of 1073 points,  4 beta functions with: 
                l(1) =   0
                l(2) =   0
                l(3) =   1
                l(4) =   1
     Q(r) pseudized with 0 coefficients 


     PseudoPot. # 3 for O  read from file:
     /users/kbadger1/espresso/pseudo/pslibrary.1.0.0/pbe/PSEUDOPOTENTIALS/O.pbe-nl-kjpaw_psl.1.0.0.UPF
     MD5 check sum: f0439fab3598ca4e468f064226030408
     Pseudo is Projector augmented-wave + core cor, Zval =  6.0
     Generated using 'atomic' code by A. Dal Corso  v.7.0
     Shape of augmentation charge: PSQ
     Using radial grid of 1095 points,  4 beta functions with: 
                l(1) =   0
                l(2) =   0
                l(3) =   1
                l(4) =   1
     Q(r) pseudized with 0 coefficients 


     PseudoPot. # 4 for H  read from file:
     /users/kbadger1/espresso/pseudo/pslibrary.1.0.0/pbe/PSEUDOPOTENTIALS/H.pbe-kjpaw_psl.1.0.0.UPF
     MD5 check sum: fe4c6fa958fa6d3815bf5d2419cbf1df
     Pseudo is Projector augmented-wave, Zval =  1.0
     Generated using 'atomic' code by A. Dal Corso  v.7.0
     Shape of augmentation charge: PSQ
     Using radial grid of  929 points,  2 beta functions with: 
                l(1) =   0
                l(2) =   0
     Q(r) pseudized with 0 coefficients 


     atomic species   valence    mass     pseudopotential
        Co             9.00    58.93319     Co( 1.00)
        C              4.00    12.01100     C ( 1.00)
        O              6.00    15.99900     O ( 1.00)
        H              1.00     1.00800     H ( 1.00)

     Starting magnetic structure 
     atomic species   magnetization
        Co           1.000
        C            1.000
        O            0.000
        H            0.000

     No symmetry found



   Cartesian axes

     site n.     atom                  positions (alat units)
         1           Co  tau(   1) = (   0.0000000   0.1924501   1.3333333  )
         2           Co  tau(   2) = (   0.3333333   0.1924501   1.3333333  )
         3           Co  tau(   3) = (   0.6666667   0.1924501   1.3333333  )
         4           Co  tau(   4) = (   0.1666667   0.4811252   1.3333333  )
         5           Co  tau(   5) = (   0.5000000   0.4811252   1.3333333  )
         6           Co  tau(   6) = (   0.8333333   0.4811252   1.3333333  )
         7           Co  tau(   7) = (   0.3333333   0.7698004   1.3333333  )
         8           Co  tau(   8) = (   0.6666667   0.7698004   1.3333333  )
         9           Co  tau(   9) = (   1.0000000   0.7698004   1.3333333  )
        10           Co  tau(  10) = (   0.0000000   0.0000000   1.6036667  )
        11           Co  tau(  11) = (   0.3333333   0.0000000   1.6036667  )
        12           Co  tau(  12) = (   0.6666667   0.0000000   1.6036667  )
        13           Co  tau(  13) = (   0.1666667   0.2886751   1.6036667  )
        14           Co  tau(  14) = (   0.5000000   0.2886751   1.6036667  )
        15           Co  tau(  15) = (   0.8333333   0.2886751   1.6036667  )
        16           Co  tau(  16) = (   0.3333333   0.5773503   1.6036667  )
        17           Co  tau(  17) = (   0.6666667   0.5773503   1.6036667  )
        18           Co  tau(  18) = (   1.0000000   0.5773503   1.6036667  )
        19           Co  tau(  19) = (   0.0000000   0.1924501   1.8740000  )
        20           Co  tau(  20) = (   0.3333333   0.1924501   1.8740000  )
        21           Co  tau(  21) = (   0.6666667   0.1924501   1.8740000  )
        22           Co  tau(  22) = (   0.1666667   0.4811252   1.8740000  )
        23           Co  tau(  23) = (   0.5000000   0.4811252   1.8740000  )
        24           Co  tau(  24) = (   0.8333333   0.4811252   1.8740000  )
        25           Co  tau(  25) = (   0.3333333   0.7698004   1.8740000  )
        26           Co  tau(  26) = (   0.6666667   0.7698004   1.8740000  )
        27           Co  tau(  27) = (   1.0000000   0.7698004   1.8740000  )
        28           Co  tau(  28) = (   0.0000000   0.0000000   2.1443333  )
        29           Co  tau(  29) = (   0.3333333   0.0000000   2.1443333  )
        30           Co  tau(  30) = (   0.6666667   0.0000000   2.1443333  )
        31           Co  tau(  31) = (   0.1666667   0.2886751   2.1443333  )
        32           Co  tau(  32) = (   0.5000000   0.2886751   2.1443333  )
        33           Co  tau(  33) = (   0.8333333   0.2886751   2.1443333  )
        34           Co  tau(  34) = (   0.3333333   0.5773503   2.1443333  )
        35           Co  tau(  35) = (   0.6666667   0.5773503   2.1443333  )
        36           Co  tau(  36) = (   1.0000000   0.5773503   2.1443333  )
        37           C   tau(  37) = (   0.1650660   0.0422884   2.3320036  )
        38           O   tau(  38) = (   0.1323750   0.0555655   2.4864869  )
        39           H   tau(  39) = (   0.4301129   0.0059601   2.3252311  )

     number of k points=    13  Marzari-Vanderbilt smearing, width (Ry)=  0.0010
                       cart. coord. in units 2pi/alat
        k(    1) = (   0.0000000   0.0000000   0.0000000), wk =   0.0400000
        k(    2) = (   0.0000000   0.2309401   0.0000000), wk =   0.0800000
        k(    3) = (   0.0000000   0.4618802   0.0000000), wk =   0.0800000
        k(    4) = (   0.2000000  -0.1154701   0.0000000), wk =   0.0800000
        k(    5) = (   0.2000000   0.1154701   0.0000000), wk =   0.0800000
        k(    6) = (   0.2000000   0.3464102   0.0000000), wk =   0.0800000
        k(    7) = (   0.2000000  -0.5773503   0.0000000), wk =   0.0800000
        k(    8) = (   0.2000000  -0.3464102   0.0000000), wk =   0.0800000
        k(    9) = (   0.4000000  -0.2309401   0.0000000), wk =   0.0800000
        k(   10) = (   0.4000000   0.0000000   0.0000000), wk =   0.0800000
        k(   11) = (   0.4000000   0.2309401   0.0000000), wk =   0.0800000
        k(   12) = (   0.4000000  -0.6928203   0.0000000), wk =   0.0800000
        k(   13) = (   0.4000000  -0.4618802   0.0000000), wk =   0.0800000

     Dense  grid:   752179 G-vectors     FFT dimensions: (  80,  80, 288)

     Smooth grid:   293251 G-vectors     FFT dimensions: (  60,  60, 200)

     Estimated max dynamical RAM per process >      84.82 MB

     Estimated total dynamical RAM >       7.95 GB
     Generating pointlists ...
     new r_m :   0.0847 (alat units)  1.1999 (a.u.) for type    1
     new r_m :   0.0654 (alat units)  0.9264 (a.u.) for type    2
     new r_m :   0.0654 (alat units)  0.9264 (a.u.) for type    3
     new r_m :   0.0847 (alat units)  1.1999 (a.u.) for type    4

     Initial potential from superposition of free atoms

     starting charge     334.9897, renormalised to     335.0000

     negative rho (up, down):  3.048E-03 4.589E-04


     %%%%%%%%%%%%%%%%%%%%%%%%%%%%%%%%%%%%%%%%%%%%%%%%%%%%%%%%%%%%%%%%%%%%%%%%
     %                                                                      %
     % You are using vdW-DF, which was implemented by the Thonhauser group. %
     % Please cite the following two papers that made this development      %
     % possible and the two reviews that describe the various versions:     %
     %                                                                      %
     %   T. Thonhauser et al., PRL 115, 136402 (2015).                      %
     %   T. Thonhauser et al., PRB 76, 125112 (2007).                       %
     %   K. Berland et al., Rep. Prog. Phys. 78, 066501 (2015).             %
     %   D.C. Langreth et al., J. Phys.: Condens. Matter 21, 084203 (2009). %
     %                                                                      %
     % If you are calculating stress with vdW-DF, please also cite:         %
     %                                                                      %
     %   R. Sabatini et al., J. Phys.: Condens. Matter 24, 424209 (2012).   %
     %   C.M. Frostenson et al., Electr. Struct. 4, 014001 (2022).          %
     %                                                                      %
     %%%%%%%%%%%%%%%%%%%%%%%%%%%%%%%%%%%%%%%%%%%%%%%%%%%%%%%%%%%%%%%%%%%%%%%%

     %%%%%%%%%%%%%%%%%%%%%%%%%%%%%%%%%%%%%%%%%%%%%%%%%%%%%%%%%%%%%%%%%%%%%%%%
     %                                                                      %
     %  vdW-DF NEWS:                                                        %
     %                                                                      %
     %  * vdW-DF3 is now available. DOI: 10.1021/acs.jctc.0c00471           %
     %    use with input_dft = 'vdW-DF3-opt1' or 'vdW-DF3-opt2'             %
     %                                                                      %
     %  * Unscreened and range-separated hybrid vdW-DF-cx functionals       %
     %    DOI: 10.1063/1.4986522 and 10.1088/1361-648X/ac2ad2               %
     %    use with input_dft = 'vdW-DF-cx0'    and 'vdW-DF-ahcx'            %
     %  * Unscreened and range-separated hybrid vdW-DF2-b86r functionals    %
     %    DOI: 10.1063/1.4986522 and DOI: 10.1103/PhysRevX.12.041003        %
     %    use with input_dft = 'vdW-DF2-br0' and 'vdW-DF2-ahbr'             %
     %                                                                      %
     %%%%%%%%%%%%%%%%%%%%%%%%%%%%%%%%%%%%%%%%%%%%%%%%%%%%%%%%%%%%%%%%%%%%%%%%


     Starting wfcs are  333 randomized atomic wfcs
     Checking if some PAW data can be deallocated... 

     total cpu time spent up to now is       11.5 secs

     per-process dynamical memory:   212.4 Mb

     Self-consistent Calculation

     iteration #  1     ecut=    40.00 Ry     beta= 0.70
     Davidson diagonalization with overlap
     ethr =  1.00E-02,  avg # of iterations =  2.0

     negative rho (up, down):  6.564E-05 1.411E-06

     total cpu time spent up to now is       35.5 secs

     total energy              =   -6052.96828744 Ry
     estimated scf accuracy    <      39.31100114 Ry

     total magnetization       =    69.00 Bohr mag/cell
     absolute magnetization    =    81.29 Bohr mag/cell

     iteration #  2     ecut=    40.00 Ry     beta= 0.70
     Davidson diagonalization with overlap
     ethr =  1.00E-02,  avg # of iterations =  1.0

     negative rho (up, down):  2.644E-05 8.202E-07

     total cpu time spent up to now is       47.5 secs

     total energy              =   -6052.47456064 Ry
     estimated scf accuracy    <      24.74853076 Ry

     total magnetization       =    68.80 Bohr mag/cell
     absolute magnetization    =    76.71 Bohr mag/cell

     iteration #  3     ecut=    40.00 Ry     beta= 0.70
     Davidson diagonalization with overlap
     ethr =  7.39E-03,  avg # of iterations =  1.2

     negative rho (up, down):  1.380E-06 2.722E-06

     total cpu time spent up to now is       69.2 secs

     total energy              =   -6055.00920836 Ry
     estimated scf accuracy    <      84.85081683 Ry

     total magnetization       =    66.22 Bohr mag/cell
     absolute magnetization    =    73.57 Bohr mag/cell

     iteration #  4     ecut=    40.00 Ry     beta= 0.70
     Davidson diagonalization with overlap
     ethr =  7.39E-03,  avg # of iterations =  1.0

     negative rho (up, down):  1.459E-06 6.792E-07

     total cpu time spent up to now is       90.1 secs

     total energy              =   -6056.29655209 Ry
     estimated scf accuracy    <       5.11349481 Ry

     total magnetization       =    60.47 Bohr mag/cell
     absolute magnetization    =    70.24 Bohr mag/cell

     iteration #  5     ecut=    40.00 Ry     beta= 0.70
     Davidson diagonalization with overlap
     ethr =  1.53E-03,  avg # of iterations =  1.2

     negative rho (up, down):  1.477E-06 6.054E-07

     total cpu time spent up to now is      101.8 secs

     total energy              =   -6056.30218434 Ry
     estimated scf accuracy    <       2.12661482 Ry

     total magnetization       =    60.00 Bohr mag/cell
     absolute magnetization    =    69.42 Bohr mag/cell

     iteration #  6     ecut=    40.00 Ry     beta= 0.70
     Davidson diagonalization with overlap
     ethr =  6.35E-04,  avg # of iterations =  1.7

     negative rho (up, down):  1.393E-06 6.557E-07

     total cpu time spent up to now is      124.6 secs

     total energy              =   -6056.40010473 Ry
     estimated scf accuracy    <       0.52691985 Ry

     total magnetization       =    59.83 Bohr mag/cell
     absolute magnetization    =    68.90 Bohr mag/cell

     iteration #  7     ecut=    40.00 Ry     beta= 0.70
     Davidson diagonalization with overlap
     ethr =  1.57E-04,  avg # of iterations =  6.0

     negative rho (up, down):  1.022E-06 4.739E-07

     total cpu time spent up to now is      150.5 secs

     total energy              =   -6056.44225474 Ry
     estimated scf accuracy    <       0.77736065 Ry

     total magnetization       =    59.97 Bohr mag/cell
     absolute magnetization    =    68.65 Bohr mag/cell

     iteration #  8     ecut=    40.00 Ry     beta= 0.70
     Davidson diagonalization with overlap
     ethr =  1.57E-04,  avg # of iterations =  1.5

     negative rho (up, down):  4.674E-07 1.901E-07

     total cpu time spent up to now is      162.7 secs

     total energy              =   -6056.45695923 Ry
     estimated scf accuracy    <       0.11029045 Ry

     total magnetization       =    59.98 Bohr mag/cell
     absolute magnetization    =    68.49 Bohr mag/cell

     iteration #  9     ecut=    40.00 Ry     beta= 0.70
     Davidson diagonalization with overlap
     c_bands:  1 eigenvalues not converged
     c_bands:  1 eigenvalues not converged
     ethr =  3.29E-05,  avg # of iterations = 12.3

     negative rho (up, down):  3.011E-07 1.451E-07

     total cpu time spent up to now is      209.5 secs

     total energy              =   -6056.46203538 Ry
     estimated scf accuracy    <       0.24035568 Ry

     total magnetization       =    60.28 Bohr mag/cell
     absolute magnetization    =    68.30 Bohr mag/cell

     iteration # 10     ecut=    40.00 Ry     beta= 0.70
     Davidson diagonalization with overlap
     ethr =  3.29E-05,  avg # of iterations =  2.0

     negative rho (up, down):  3.877E-07 1.948E-07

     total cpu time spent up to now is      222.1 secs

     total energy              =   -6056.47412949 Ry
     estimated scf accuracy    <       0.17908452 Ry

     total magnetization       =    60.45 Bohr mag/cell
     absolute magnetization    =    68.27 Bohr mag/cell

     iteration # 11     ecut=    40.00 Ry     beta= 0.70
     Davidson diagonalization with overlap
     ethr =  3.29E-05,  avg # of iterations =  1.1

     negative rho (up, down):  7.164E-08 2.906E-08

     total cpu time spent up to now is      242.7 secs

     total energy              =   -6056.46655553 Ry
     estimated scf accuracy    <       0.08934849 Ry

     total magnetization       =    60.33 Bohr mag/cell
     absolute magnetization    =    68.15 Bohr mag/cell

     iteration # 12     ecut=    40.00 Ry     beta= 0.70
     Davidson diagonalization with overlap
     ethr =  2.67E-05,  avg # of iterations =  1.9

     negative rho (up, down):  7.977E-07 9.592E-08

     total cpu time spent up to now is      255.1 secs

     total energy              =   -6056.46906038 Ry
     estimated scf accuracy    <       0.09110795 Ry

     total magnetization       =    60.29 Bohr mag/cell
     absolute magnetization    =    67.91 Bohr mag/cell

     iteration # 13     ecut=    40.00 Ry     beta= 0.70
     Davidson diagonalization with overlap
     ethr =  2.67E-05,  avg # of iterations =  1.0

     negative rho (up, down):  2.313E-07 5.070E-08

     total cpu time spent up to now is      275.9 secs

     total energy              =   -6056.47016449 Ry
     estimated scf accuracy    <       0.08612157 Ry

     total magnetization       =    60.29 Bohr mag/cell
     absolute magnetization    =    67.86 Bohr mag/cell

     iteration # 14     ecut=    40.00 Ry     beta= 0.70
     Davidson diagonalization with overlap
     ethr =  2.57E-05,  avg # of iterations =  1.0

     negative rho (up, down):  3.306E-08 1.743E-08

     total cpu time spent up to now is      287.0 secs

     total energy              =   -6056.47045550 Ry
     estimated scf accuracy    <       0.06766344 Ry

     total magnetization       =    60.29 Bohr mag/cell
     absolute magnetization    =    67.83 Bohr mag/cell

     iteration # 15     ecut=    40.00 Ry     beta= 0.70
     Davidson diagonalization with overlap
     ethr =  2.02E-05,  avg # of iterations =  1.3

     negative rho (up, down):  3.019E-04 8.993E-05

     total cpu time spent up to now is      308.2 secs

     total energy              =   -6056.46383483 Ry
     estimated scf accuracy    <       0.07488884 Ry

     total magnetization       =    60.31 Bohr mag/cell
     absolute magnetization    =    67.93 Bohr mag/cell

     iteration # 16     ecut=    40.00 Ry     beta= 0.70
     Davidson diagonalization with overlap
     ethr =  2.02E-05,  avg # of iterations =  1.9

     negative rho (up, down):  5.273E-03 4.004E-03

     total cpu time spent up to now is      330.0 secs

     total energy              =   -6056.46347278 Ry
     estimated scf accuracy    <       0.09817729 Ry

     total magnetization       =    60.29 Bohr mag/cell
     absolute magnetization    =    67.78 Bohr mag/cell

     iteration # 17     ecut=    40.00 Ry     beta= 0.70
     Davidson diagonalization with overlap
     ethr =  2.02E-05,  avg # of iterations =  1.0

     negative rho (up, down):  1.860E-02 1.693E-02

     total cpu time spent up to now is      341.2 secs

     total energy              =   -6056.46001804 Ry
     estimated scf accuracy    <       0.09316008 Ry

     total magnetization       =    60.29 Bohr mag/cell
     absolute magnetization    =    67.72 Bohr mag/cell

     iteration # 18     ecut=    40.00 Ry     beta= 0.70
     Davidson diagonalization with overlap
     ethr =  2.02E-05,  avg # of iterations =  1.1

     negative rho (up, down):  3.210E-03 2.470E-03

     total cpu time spent up to now is      362.3 secs

     total energy              =   -6056.46114456 Ry
     estimated scf accuracy    <       0.01990832 Ry

     total magnetization       =    60.29 Bohr mag/cell
     absolute magnetization    =    67.68 Bohr mag/cell

     iteration # 19     ecut=    40.00 Ry     beta= 0.70
     Davidson diagonalization with overlap
     c_bands:  2 eigenvalues not converged
     ethr =  5.94E-06,  avg # of iterations =  2.6

     negative rho (up, down):  1.146E-02 1.035E-02

     total cpu time spent up to now is      375.2 secs

     total energy              =   -6056.45942251 Ry
     estimated scf accuracy    <       0.05225773 Ry

     total magnetization       =    60.33 Bohr mag/cell
     absolute magnetization    =    67.76 Bohr mag/cell

     iteration # 20     ecut=    40.00 Ry     beta= 0.70
     Davidson diagonalization with overlap
     ethr =  5.94E-06,  avg # of iterations =  2.1

     negative rho (up, down):  2.124E-02 2.006E-02

     total cpu time spent up to now is      397.1 secs

     total energy              =   -6056.46038243 Ry
     estimated scf accuracy    <       0.00998748 Ry

     total magnetization       =    60.38 Bohr mag/cell
     absolute magnetization    =    67.78 Bohr mag/cell

     iteration # 21     ecut=    40.00 Ry     beta= 0.70
     Davidson diagonalization with overlap
     c_bands:  1 eigenvalues not converged
     c_bands:  1 eigenvalues not converged
     c_bands:  4 eigenvalues not converged
     ethr =  2.98E-06,  avg # of iterations =  6.5

     negative rho (up, down):  2.343E-02 2.223E-02

     total cpu time spent up to now is      423.2 secs

     total energy              =   -6056.46047243 Ry
     estimated scf accuracy    <       0.02776662 Ry

     total magnetization       =    60.49 Bohr mag/cell
     absolute magnetization    =    67.85 Bohr mag/cell

     iteration # 22     ecut=    40.00 Ry     beta= 0.70
     Davidson diagonalization with overlap
     ethr =  2.98E-06,  avg # of iterations =  2.4

     negative rho (up, down):  2.006E-02 1.896E-02

     total cpu time spent up to now is      435.8 secs

     total energy              =   -6056.46111562 Ry
     estimated scf accuracy    <       0.01040171 Ry

     total magnetization       =    60.52 Bohr mag/cell
     absolute magnetization    =    67.88 Bohr mag/cell

     iteration # 23     ecut=    40.00 Ry     beta= 0.70
     Davidson diagonalization with overlap
     ethr =  2.98E-06,  avg # of iterations =  1.2

     negative rho (up, down):  1.055E-02 9.672E-03

     total cpu time spent up to now is      456.5 secs

     total energy              =   -6056.46091845 Ry
     estimated scf accuracy    <       0.00352271 Ry

     total magnetization       =    60.58 Bohr mag/cell
     absolute magnetization    =    67.93 Bohr mag/cell

     iteration # 24     ecut=    40.00 Ry     beta= 0.70
     Davidson diagonalization with overlap
     c_bands:  1 eigenvalues not converged
     ethr =  1.05E-06,  avg # of iterations =  3.3

     negative rho (up, down):  7.258E-03 6.463E-03

     total cpu time spent up to now is      479.3 secs

     total energy              =   -6056.46113203 Ry
     estimated scf accuracy    <       0.00254391 Ry

     total magnetization       =    60.62 Bohr mag/cell
     absolute magnetization    =    68.00 Bohr mag/cell

     iteration # 25     ecut=    40.00 Ry     beta= 0.70
     Davidson diagonalization with overlap
     ethr =  7.59E-07,  avg # of iterations =  1.5

     negative rho (up, down):  6.948E-03 6.159E-03

     total cpu time spent up to now is      491.9 secs

     total energy              =   -6056.46124247 Ry
     estimated scf accuracy    <       0.00130965 Ry

     total magnetization       =    60.63 Bohr mag/cell
     absolute magnetization    =    68.02 Bohr mag/cell

     iteration # 26     ecut=    40.00 Ry     beta= 0.70
     Davidson diagonalization with overlap
     ethr =  3.91E-07,  avg # of iterations =  2.2

     negative rho (up, down):  5.132E-03 4.347E-03

     total cpu time spent up to now is      513.5 secs

     total energy              =   -6056.46132330 Ry
     estimated scf accuracy    <       0.00083515 Ry

     total magnetization       =    60.63 Bohr mag/cell
     absolute magnetization    =    68.01 Bohr mag/cell

     iteration # 27     ecut=    40.00 Ry     beta= 0.70
     Davidson diagonalization with overlap
     ethr =  2.49E-07,  avg # of iterations =  1.8

     negative rho (up, down):  4.049E-03 3.232E-03

     total cpu time spent up to now is      525.7 secs

     total energy              =   -6056.46145582 Ry
     estimated scf accuracy    <       0.00118531 Ry

     total magnetization       =    60.63 Bohr mag/cell
     absolute magnetization    =    68.02 Bohr mag/cell

     iteration # 28     ecut=    40.00 Ry     beta= 0.70
     Davidson diagonalization with overlap
     ethr =  2.49E-07,  avg # of iterations =  1.5

     negative rho (up, down):  2.348E-03 1.487E-03

     total cpu time spent up to now is      547.7 secs

     total energy              =   -6056.46150782 Ry
     estimated scf accuracy    <       0.00022130 Ry

     total magnetization       =    60.64 Bohr mag/cell
     absolute magnetization    =    68.04 Bohr mag/cell

     iteration # 29     ecut=    40.00 Ry     beta= 0.70
     Davidson diagonalization with overlap
     c_bands:  1 eigenvalues not converged
     c_bands:  1 eigenvalues not converged
     c_bands:  4 eigenvalues not converged
     ethr =  6.61E-08,  avg # of iterations =  6.7

     negative rho (up, down):  2.283E-03 1.182E-03

     total cpu time spent up to now is      573.6 secs

     total energy              =   -6056.46165773 Ry
     estimated scf accuracy    <       0.00055443 Ry

     total magnetization       =    60.64 Bohr mag/cell
     absolute magnetization    =    68.04 Bohr mag/cell

     iteration # 30     ecut=    40.00 Ry     beta= 0.70
     Davidson diagonalization with overlap
     ethr =  6.61E-08,  avg # of iterations =  2.3

     negative rho (up, down):  2.368E-03 1.254E-03

     total cpu time spent up to now is      586.4 secs

     total energy              =   -6056.46168716 Ry
     estimated scf accuracy    <       0.00008282 Ry

     total magnetization       =    60.65 Bohr mag/cell
     absolute magnetization    =    68.05 Bohr mag/cell

     iteration # 31     ecut=    40.00 Ry     beta= 0.70
     Davidson diagonalization with overlap
     ethr =  2.47E-08,  avg # of iterations =  4.4

     negative rho (up, down):  2.459E-03 1.359E-03

     total cpu time spent up to now is      610.8 secs

     total energy              =   -6056.46169007 Ry
     estimated scf accuracy    <       0.00012975 Ry

     total magnetization       =    60.65 Bohr mag/cell
     absolute magnetization    =    68.05 Bohr mag/cell

     iteration # 32     ecut=    40.00 Ry     beta= 0.70
     Davidson diagonalization with overlap
     ethr =  2.47E-08,  avg # of iterations =  1.8

     negative rho (up, down):  2.480E-03 1.401E-03
