
     Program PWSCF v.7.1 starts on 17Dec2025 at  9:42:40 
        Git branch: heads/qe-7.1
        Last git commit: 48ba0178f8fede6d020eb786884699a9f063f55d-dirty
        Last git commit date: Fri Jan 27 14:22:33 2023 +0000
        Last git commit subject: Merge branch 'fix_hubbard' into 'develop'

     This program is part of the open-source Quantum ESPRESSO suite
     for quantum simulation of materials; please cite
         "P. Giannozzi et al., J. Phys.:Condens. Matter 21 395502 (2009);
         "P. Giannozzi et al., J. Phys.:Condens. Matter 29 465901 (2017);
         "P. Giannozzi et al., J. Chem. Phys. 152 154105 (2020);
          URL http://www.quantum-espresso.org", 
     in publications or presentations arising from this work. More details at
     http://www.quantum-espresso.org/quote

     Parallel version (MPI), running on    96 processors

     MPI processes distributed on     2 nodes
     206235 MiB available memory on the printing compute node when the environment starts

     Reading input from espresso.pwi
Warning: card &CELL ignored
Warning: card / ignored
Warning: card &FCP ignored
Warning: card / ignored
Warning: card &RISM ignored
Warning: card / ignored

     Current dimensions of program PWSCF are:
     Max number of different atomic species (ntypx) = 10
     Max number of k-points (npk) =  40000
     Max angular momentum in pseudopotentials (lmaxx) =  4
     file Co.pbe-n-kjpaw_psl.1.0.0.UPF: wavefunction(s)  4S 3D renormalized
     file C.pbe-n-kjpaw_psl.1.0.0.UPF: wavefunction(s)  2S 2P renormalized
     file O.pbe-nl-kjpaw_psl.1.0.0.UPF: wavefunction(s)  2S 2P renormalized
     file H.pbe-kjpaw_psl.1.0.0.UPF: wavefunction(s)  1S renormalized

     **************************************************************************
     Initializing libbeef V0.1.2 with the BEEF-vdW functional.
     Citation: Wellendorff et al., PRB 85, 235149 (2012).
     **************************************************************************


     IMPORTANT: XC functional enforced from input :
     Exchange-correlation= BEEF-VDW
                           (   1   4  43  14   2   0   0)
     Any further DFT definition will be discarded
     Please, verify this is what you really want


     R & G space division:  proc/nbgrp/npool/nimage =      96
     Subspace diagonalization in iterative solution of the eigenvalue problem:
     one sub-group per band group will be used
     custom distributed-memory algorithm (size of sub-group:  2*  2 procs)


     Parallelization info
     --------------------
     sticks:   dense  smooth     PW     G-vecs:    dense   smooth      PW
     Min          43      28      7                 7829     4248     595
     Max          44      29      8                 7845     4281     630
     Sum        4153    2773    757               752179   409445   59217

     Using Slab Decomposition



     bravais-lattice index     =            0
     lattice parameter (alat)  =      14.1729  a.u.
     unit-cell volume          =    8574.3059 (a.u.)^3
     number of atoms/cell      =           39
     number of atomic types    =            4
     number of electrons       =       335.00
     number of Kohn-Sham states=          202
     kinetic-energy cutoff     =      50.0000  Ry
     charge density cutoff     =     300.0000  Ry
     scf convergence threshold =      1.0E-08
     mixing beta               =       0.7000
     number of iterations used =            8  local-TF  mixing
     Exchange-correlation= BEEF-VDW
                           (   1   4  43  14   2   0   0)

     celldm(1)=  14.172946  celldm(2)=   0.000000  celldm(3)=   0.000000
     celldm(4)=   0.000000  celldm(5)=   0.000000  celldm(6)=   0.000000

     crystal axes: (cart. coord. in units of alat)
               a(1) = (   1.000000   0.000000   0.000000 )  
               a(2) = (   0.500000   0.866025   0.000000 )  
               a(3) = (   0.000000   0.000000   3.477667 )  

     reciprocal axes: (cart. coord. in units 2 pi/alat)
               b(1) = (  1.000000 -0.577350  0.000000 )  
               b(2) = (  0.000000  1.154701  0.000000 )  
               b(3) = (  0.000000  0.000000  0.287549 )  


     PseudoPot. # 1 for Co read from file:
     /users/kbadger1/espresso/pseudo/pslibrary.1.0.0/pbe/PSEUDOPOTENTIALS/Co.pbe-n-kjpaw_psl.1.0.0.UPF
     MD5 check sum: 88af6ec42553d4236c267fdfcb472151
     Pseudo is Projector augmented-wave + core cor, Zval =  9.0
     Generated using 'atomic' code by A. Dal Corso  v.7.0
     Shape of augmentation charge: PSQ
     Using radial grid of 1193 points,  6 beta functions with: 
                l(1) =   0
                l(2) =   0
                l(3) =   1
                l(4) =   1
                l(5) =   2
                l(6) =   2
     Q(r) pseudized with 0 coefficients 


     PseudoPot. # 2 for C  read from file:
     /users/kbadger1/espresso/pseudo/pslibrary.1.0.0/pbe/PSEUDOPOTENTIALS/C.pbe-n-kjpaw_psl.1.0.0.UPF
     MD5 check sum: 6408e75cdba28732cea38a4db8498ce4
     Pseudo is Projector augmented-wave + core cor, Zval =  4.0
     Generated using 'atomic' code by A. Dal Corso  v.7.0
     Shape of augmentation charge: PSQ
     Using radial grid of 1073 points,  4 beta functions with: 
                l(1) =   0
                l(2) =   0
                l(3) =   1
                l(4) =   1
     Q(r) pseudized with 0 coefficients 


     PseudoPot. # 3 for O  read from file:
     /users/kbadger1/espresso/pseudo/pslibrary.1.0.0/pbe/PSEUDOPOTENTIALS/O.pbe-nl-kjpaw_psl.1.0.0.UPF
     MD5 check sum: f0439fab3598ca4e468f064226030408
     Pseudo is Projector augmented-wave + core cor, Zval =  6.0
     Generated using 'atomic' code by A. Dal Corso  v.7.0
     Shape of augmentation charge: PSQ
     Using radial grid of 1095 points,  4 beta functions with: 
                l(1) =   0
                l(2) =   0
                l(3) =   1
                l(4) =   1
     Q(r) pseudized with 0 coefficients 


     PseudoPot. # 4 for H  read from file:
     /users/kbadger1/espresso/pseudo/pslibrary.1.0.0/pbe/PSEUDOPOTENTIALS/H.pbe-kjpaw_psl.1.0.0.UPF
     MD5 check sum: fe4c6fa958fa6d3815bf5d2419cbf1df
     Pseudo is Projector augmented-wave, Zval =  1.0
     Generated using 'atomic' code by A. Dal Corso  v.7.0
     Shape of augmentation charge: PSQ
     Using radial grid of  929 points,  2 beta functions with: 
                l(1) =   0
                l(2) =   0
     Q(r) pseudized with 0 coefficients 


     atomic species   valence    mass     pseudopotential
        Co             9.00    58.93319     Co( 1.00)
        C              4.00    12.00000     C ( 1.00)
        O              6.00    15.99491     O ( 1.00)
        H              1.00     1.00783     H ( 1.00)

     Starting magnetic structure 
     atomic species   magnetization
        Co           1.000
        C            1.000
        O            0.000
        H            0.000

     No symmetry found



   Cartesian axes

     site n.     atom                  positions (alat units)
         1           Co  tau(   1) = (   0.0000000   0.1924501   1.3333333  )
         2           Co  tau(   2) = (   0.3333333   0.1924501   1.3333333  )
         3           Co  tau(   3) = (   0.6666667   0.1924501   1.3333333  )
         4           Co  tau(   4) = (   0.1666667   0.4811252   1.3333333  )
         5           Co  tau(   5) = (   0.5000000   0.4811252   1.3333333  )
         6           Co  tau(   6) = (   0.8333333   0.4811252   1.3333333  )
         7           Co  tau(   7) = (   0.3333333   0.7698004   1.3333333  )
         8           Co  tau(   8) = (   0.6666667   0.7698004   1.3333333  )
         9           Co  tau(   9) = (   1.0000000   0.7698004   1.3333333  )
        10           Co  tau(  10) = (   0.0000000   0.0000000   1.6036667  )
        11           Co  tau(  11) = (   0.3333333   0.0000000   1.6036667  )
        12           Co  tau(  12) = (   0.6666667   0.0000000   1.6036667  )
        13           Co  tau(  13) = (   0.1666667   0.2886751   1.6036667  )
        14           Co  tau(  14) = (   0.5000000   0.2886751   1.6036667  )
        15           Co  tau(  15) = (   0.8333333   0.2886751   1.6036667  )
        16           Co  tau(  16) = (   0.3333333   0.5773503   1.6036667  )
        17           Co  tau(  17) = (   0.6666667   0.5773503   1.6036667  )
        18           Co  tau(  18) = (   1.0000000   0.5773503   1.6036667  )
        19           Co  tau(  19) = (   0.0000000   0.1924501   1.8740000  )
        20           Co  tau(  20) = (   0.3333333   0.1924501   1.8740000  )
        21           Co  tau(  21) = (   0.6666667   0.1924501   1.8740000  )
        22           Co  tau(  22) = (   0.1666667   0.4811252   1.8740000  )
        23           Co  tau(  23) = (   0.5000000   0.4811252   1.8740000  )
        24           Co  tau(  24) = (   0.8333333   0.4811252   1.8740000  )
        25           Co  tau(  25) = (   0.3333333   0.7698004   1.8740000  )
        26           Co  tau(  26) = (   0.6666667   0.7698004   1.8740000  )
        27           Co  tau(  27) = (   1.0000000   0.7698004   1.8740000  )
        28           Co  tau(  28) = (   0.0000000   0.0000000   2.1443333  )
        29           Co  tau(  29) = (   0.3333333   0.0000000   2.1443333  )
        30           Co  tau(  30) = (   0.6666667   0.0000000   2.1443333  )
        31           Co  tau(  31) = (   0.1666667   0.2886751   2.1443333  )
        32           Co  tau(  32) = (   0.5000000   0.2886751   2.1443333  )
        33           Co  tau(  33) = (   0.8333333   0.2886751   2.1443333  )
        34           Co  tau(  34) = (   0.3333333   0.5773503   2.1443333  )
        35           Co  tau(  35) = (   0.6666667   0.5773503   2.1443333  )
        36           Co  tau(  36) = (   1.0000000   0.5773503   2.1443333  )
        37           C   tau(  37) = (   0.3691097   0.1731837   2.3325075  )
        38           O   tau(  38) = (   0.3524127   0.1775481   2.4906534  )
        39           H   tau(  39) = (   0.6367154   0.3918363   2.2828593  )

     number of k points=    13  Marzari-Vanderbilt smearing, width (Ry)=  0.0010
                       cart. coord. in units 2pi/alat
        k(    1) = (   0.0000000   0.0000000   0.0000000), wk =   0.0400000
        k(    2) = (   0.0000000   0.2309401   0.0000000), wk =   0.0800000
        k(    3) = (   0.0000000   0.4618802   0.0000000), wk =   0.0800000
        k(    4) = (   0.2000000  -0.1154701   0.0000000), wk =   0.0800000
        k(    5) = (   0.2000000   0.1154701   0.0000000), wk =   0.0800000
        k(    6) = (   0.2000000   0.3464102   0.0000000), wk =   0.0800000
        k(    7) = (   0.2000000  -0.5773503   0.0000000), wk =   0.0800000
        k(    8) = (   0.2000000  -0.3464102   0.0000000), wk =   0.0800000
        k(    9) = (   0.4000000  -0.2309401   0.0000000), wk =   0.0800000
        k(   10) = (   0.4000000   0.0000000   0.0000000), wk =   0.0800000
        k(   11) = (   0.4000000   0.2309401   0.0000000), wk =   0.0800000
        k(   12) = (   0.4000000  -0.6928203   0.0000000), wk =   0.0800000
        k(   13) = (   0.4000000  -0.4618802   0.0000000), wk =   0.0800000

     Dense  grid:   752179 G-vectors     FFT dimensions: (  80,  80, 288)

     Smooth grid:   409445 G-vectors     FFT dimensions: (  64,  64, 225)

     Estimated max dynamical RAM per process >      99.02 MB

     Estimated total dynamical RAM >       9.28 GB
     Generating pointlists ...
     new r_m :   0.0909 (alat units)  1.2878 (a.u.) for type    1
     new r_m :   0.0656 (alat units)  0.9301 (a.u.) for type    2
     new r_m :   0.0656 (alat units)  0.9301 (a.u.) for type    3
     new r_m :   0.0909 (alat units)  1.2878 (a.u.) for type    4

     Initial potential from superposition of free atoms

     starting charge     334.9897, renormalised to     335.0000

     negative rho (up, down):  3.055E-03 4.516E-04


     %%%%%%%%%%%%%%%%%%%%%%%%%%%%%%%%%%%%%%%%%%%%%%%%%%%%%%%%%%%%%%%%%%%%%%%%
     %                                                                      %
     % You are using vdW-DF, which was implemented by the Thonhauser group. %
     % Please cite the following two papers that made this development      %
     % possible and the two reviews that describe the various versions:     %
     %                                                                      %
     %   T. Thonhauser et al., PRL 115, 136402 (2015).                      %
     %   T. Thonhauser et al., PRB 76, 125112 (2007).                       %
     %   K. Berland et al., Rep. Prog. Phys. 78, 066501 (2015).             %
     %   D.C. Langreth et al., J. Phys.: Condens. Matter 21, 084203 (2009). %
     %                                                                      %
     % If you are calculating stress with vdW-DF, please also cite:         %
     %                                                                      %
     %   R. Sabatini et al., J. Phys.: Condens. Matter 24, 424209 (2012).   %
     %   C.M. Frostenson et al., Electr. Struct. 4, 014001 (2022).          %
     %                                                                      %
     %%%%%%%%%%%%%%%%%%%%%%%%%%%%%%%%%%%%%%%%%%%%%%%%%%%%%%%%%%%%%%%%%%%%%%%%

     %%%%%%%%%%%%%%%%%%%%%%%%%%%%%%%%%%%%%%%%%%%%%%%%%%%%%%%%%%%%%%%%%%%%%%%%
     %                                                                      %
     %  vdW-DF NEWS:                                                        %
     %                                                                      %
     %  * vdW-DF3 is now available. DOI: 10.1021/acs.jctc.0c00471           %
     %    use with input_dft = 'vdW-DF3-opt1' or 'vdW-DF3-opt2'             %
     %                                                                      %
     %  * Unscreened and range-separated hybrid vdW-DF-cx functionals       %
     %    DOI: 10.1063/1.4986522 and 10.1088/1361-648X/ac2ad2               %
     %    use with input_dft = 'vdW-DF-cx0'    and 'vdW-DF-ahcx'            %
     %  * Unscreened and range-separated hybrid vdW-DF2-b86r functionals    %
     %    DOI: 10.1063/1.4986522 and DOI: 10.1103/PhysRevX.12.041003        %
     %    use with input_dft = 'vdW-DF2-br0' and 'vdW-DF2-ahbr'             %
     %                                                                      %
     %%%%%%%%%%%%%%%%%%%%%%%%%%%%%%%%%%%%%%%%%%%%%%%%%%%%%%%%%%%%%%%%%%%%%%%%


     Starting wfcs are  333 randomized atomic wfcs
     Checking if some PAW data can be deallocated... 

     total cpu time spent up to now is       12.1 secs

     per-process dynamical memory:   231.0 Mb

     Self-consistent Calculation

     iteration #  1     ecut=    50.00 Ry     beta= 0.70
     Davidson diagonalization with overlap
     ethr =  1.00E-02,  avg # of iterations =  2.0

     negative rho (up, down):  3.552E-05 1.096E-07

     total cpu time spent up to now is       34.0 secs

     total energy              =   -6053.12270165 Ry
     estimated scf accuracy    <      39.09504290 Ry

     total magnetization       =    69.00 Bohr mag/cell
     absolute magnetization    =    81.23 Bohr mag/cell

     iteration #  2     ecut=    50.00 Ry     beta= 0.70
     Davidson diagonalization with overlap
     ethr =  1.00E-02,  avg # of iterations =  1.0

     negative rho (up, down):  5.455E-06 2.271E-08

     total cpu time spent up to now is       51.9 secs

     total energy              =   -6052.64899328 Ry
     estimated scf accuracy    <      24.58121754 Ry

     total magnetization       =    69.00 Bohr mag/cell
     absolute magnetization    =    76.83 Bohr mag/cell

     iteration #  3     ecut=    50.00 Ry     beta= 0.70
     Davidson diagonalization with overlap
     ethr =  7.34E-03,  avg # of iterations =  1.2

     negative rho (up, down):  4.584E-08 0.000E+00

     total cpu time spent up to now is       65.7 secs

     total energy              =   -6055.20708212 Ry
     estimated scf accuracy    <      85.06434158 Ry

     total magnetization       =    66.12 Bohr mag/cell
     absolute magnetization    =    73.59 Bohr mag/cell

     iteration #  4     ecut=    50.00 Ry     beta= 0.70
     Davidson diagonalization with overlap
     ethr =  7.34E-03,  avg # of iterations =  1.0

     negative rho (up, down):  1.665E-08 0.000E+00

     total cpu time spent up to now is       84.3 secs

     total energy              =   -6056.46120151 Ry
     estimated scf accuracy    <       5.57742868 Ry

     total magnetization       =    60.38 Bohr mag/cell
     absolute magnetization    =    70.19 Bohr mag/cell

     iteration #  5     ecut=    50.00 Ry     beta= 0.70
     Davidson diagonalization with overlap
     ethr =  1.66E-03,  avg # of iterations =  1.2

     total cpu time spent up to now is       97.3 secs

     total energy              =   -6056.45007976 Ry
     estimated scf accuracy    <       2.15305237 Ry

     total magnetization       =    60.44 Bohr mag/cell
     absolute magnetization    =    69.81 Bohr mag/cell

     iteration #  6     ecut=    50.00 Ry     beta= 0.70
     Davidson diagonalization with overlap
     ethr =  6.43E-04,  avg # of iterations =  2.0

     total cpu time spent up to now is      115.9 secs

     total energy              =   -6056.55582945 Ry
     estimated scf accuracy    <       0.83743410 Ry

     total magnetization       =    59.88 Bohr mag/cell
     absolute magnetization    =    69.00 Bohr mag/cell

     iteration #  7     ecut=    50.00 Ry     beta= 0.70
     Davidson diagonalization with overlap
     ethr =  2.50E-04,  avg # of iterations =  4.2

     total cpu time spent up to now is      131.9 secs

     total energy              =   -6056.58026067 Ry
     estimated scf accuracy    <       0.65084231 Ry

     total magnetization       =    60.06 Bohr mag/cell
     absolute magnetization    =    68.82 Bohr mag/cell

     iteration #  8     ecut=    50.00 Ry     beta= 0.70
     Davidson diagonalization with overlap
     ethr =  1.94E-04,  avg # of iterations =  1.8

     total cpu time spent up to now is      150.4 secs

     total energy              =   -6056.60710767 Ry
     estimated scf accuracy    <       0.15856093 Ry

     total magnetization       =    60.12 Bohr mag/cell
     absolute magnetization    =    68.71 Bohr mag/cell

     iteration #  9     ecut=    50.00 Ry     beta= 0.70
     Davidson diagonalization with overlap
     c_bands:  2 eigenvalues not converged
     c_bands:  1 eigenvalues not converged
     c_bands:  2 eigenvalues not converged
     ethr =  4.73E-05,  avg # of iterations =  9.5

     total cpu time spent up to now is      177.4 secs

     total energy              =   -6056.61377248 Ry
     estimated scf accuracy    <       0.11565293 Ry

     total magnetization       =    60.33 Bohr mag/cell
     absolute magnetization    =    68.57 Bohr mag/cell

     iteration # 10     ecut=    50.00 Ry     beta= 0.70
     Davidson diagonalization with overlap
     ethr =  3.45E-05,  avg # of iterations =  3.1

     total cpu time spent up to now is      198.7 secs

     total energy              =   -6056.61882703 Ry
     estimated scf accuracy    <       0.14690134 Ry

     total magnetization       =    60.68 Bohr mag/cell
     absolute magnetization    =    68.65 Bohr mag/cell

     iteration # 11     ecut=    50.00 Ry     beta= 0.70
     Davidson diagonalization with overlap
     ethr =  3.45E-05,  avg # of iterations =  1.5

     total cpu time spent up to now is      212.2 secs

     total energy              =   -6056.61467574 Ry
     estimated scf accuracy    <       0.10155945 Ry

     total magnetization       =    60.58 Bohr mag/cell
     absolute magnetization    =    68.51 Bohr mag/cell

     iteration # 12     ecut=    50.00 Ry     beta= 0.70
     Davidson diagonalization with overlap
     ethr =  3.03E-05,  avg # of iterations =  1.8

     total cpu time spent up to now is      230.8 secs

     total energy              =   -6056.61588959 Ry
     estimated scf accuracy    <       0.08912704 Ry

     total magnetization       =    60.45 Bohr mag/cell
     absolute magnetization    =    68.30 Bohr mag/cell

     iteration # 13     ecut=    50.00 Ry     beta= 0.70
     Davidson diagonalization with overlap
     ethr =  2.66E-05,  avg # of iterations =  1.3

     total cpu time spent up to now is      245.1 secs

     total energy              =   -6056.61531623 Ry
     estimated scf accuracy    <       0.10882697 Ry

     total magnetization       =    60.58 Bohr mag/cell
     absolute magnetization    =    68.35 Bohr mag/cell

     iteration # 14     ecut=    50.00 Ry     beta= 0.70
     Davidson diagonalization with overlap
     ethr =  2.66E-05,  avg # of iterations =  1.4

     negative rho (up, down):  3.204E-03 2.190E-03

     total cpu time spent up to now is      263.4 secs

     total energy              =   -6056.60937943 Ry
     estimated scf accuracy    <       0.08068482 Ry

     total magnetization       =    60.52 Bohr mag/cell
     absolute magnetization    =    68.27 Bohr mag/cell

     iteration # 15     ecut=    50.00 Ry     beta= 0.70
     Davidson diagonalization with overlap
     ethr =  2.41E-05,  avg # of iterations =  1.4

     negative rho (up, down):  1.169E-02 1.019E-02

     total cpu time spent up to now is      276.8 secs

     total energy              =   -6056.60643202 Ry
     estimated scf accuracy    <       0.04260687 Ry

     total magnetization       =    60.48 Bohr mag/cell
     absolute magnetization    =    68.24 Bohr mag/cell

     iteration # 16     ecut=    50.00 Ry     beta= 0.70
     Davidson diagonalization with overlap
     c_bands:  1 eigenvalues not converged
     c_bands:  2 eigenvalues not converged
     ethr =  1.27E-05,  avg # of iterations =  3.5

     negative rho (up, down):  1.542E-02 1.378E-02

     total cpu time spent up to now is      298.5 secs

     total energy              =   -6056.60668525 Ry
     estimated scf accuracy    <       0.02639509 Ry

     total magnetization       =    60.42 Bohr mag/cell
     absolute magnetization    =    68.17 Bohr mag/cell

     iteration # 17     ecut=    50.00 Ry     beta= 0.70
     Davidson diagonalization with overlap
     c_bands:  1 eigenvalues not converged
     c_bands:  1 eigenvalues not converged
     c_bands:  1 eigenvalues not converged
     c_bands:  5 eigenvalues not converged
     ethr =  7.88E-06,  avg # of iterations =  5.4

     negative rho (up, down):  1.111E-02 9.693E-03

     total cpu time spent up to now is      320.7 secs

     total energy              =   -6056.60679312 Ry
     estimated scf accuracy    <       0.01955292 Ry

     total magnetization       =    60.47 Bohr mag/cell
     absolute magnetization    =    68.17 Bohr mag/cell

     iteration # 18     ecut=    50.00 Ry     beta= 0.70
     Davidson diagonalization with overlap
     ethr =  5.84E-06,  avg # of iterations =  2.9

     negative rho (up, down):  1.360E-02 1.209E-02

     total cpu time spent up to now is      335.8 secs

     total energy              =   -6056.60630092 Ry
     estimated scf accuracy    <       0.01154105 Ry

     total magnetization       =    60.49 Bohr mag/cell
     absolute magnetization    =    68.17 Bohr mag/cell

     iteration # 19     ecut=    50.00 Ry     beta= 0.70
     Davidson diagonalization with overlap
     c_bands:  1 eigenvalues not converged
     c_bands:  1 eigenvalues not converged
     c_bands:  3 eigenvalues not converged
     c_bands:  2 eigenvalues not converged
     ethr =  3.45E-06,  avg # of iterations =  7.2

     negative rho (up, down):  1.075E-02 9.458E-03

     total cpu time spent up to now is      360.9 secs

     total energy              =   -6056.60539659 Ry
     estimated scf accuracy    <       0.02069595 Ry

     total magnetization       =    60.50 Bohr mag/cell
     absolute magnetization    =    68.15 Bohr mag/cell

     iteration # 20     ecut=    50.00 Ry     beta= 0.70
     Davidson diagonalization with overlap
     ethr =  3.45E-06,  avg # of iterations =  2.0

     negative rho (up, down):  1.344E-02 1.236E-02

     total cpu time spent up to now is      379.5 secs

     total energy              =   -6056.60390042 Ry
     estimated scf accuracy    <       0.01125695 Ry

     total magnetization       =    60.50 Bohr mag/cell
     absolute magnetization    =    68.14 Bohr mag/cell

     iteration # 21     ecut=    50.00 Ry     beta= 0.70
     Davidson diagonalization with overlap
     ethr =  3.36E-06,  avg # of iterations =  1.7

     negative rho (up, down):  1.460E-02 1.367E-02

     total cpu time spent up to now is      393.7 secs

     total energy              =   -6056.60354154 Ry
     estimated scf accuracy    <       0.01692304 Ry

     total magnetization       =    60.54 Bohr mag/cell
     absolute magnetization    =    68.15 Bohr mag/cell

     iteration # 22     ecut=    50.00 Ry     beta= 0.70
     Davidson diagonalization with overlap
     ethr =  3.36E-06,  avg # of iterations =  1.2

     negative rho (up, down):  1.536E-02 1.446E-02

     total cpu time spent up to now is      411.7 secs

     total energy              =   -6056.60409432 Ry
     estimated scf accuracy    <       0.00340401 Ry

     total magnetization       =    60.55 Bohr mag/cell
     absolute magnetization    =    68.15 Bohr mag/cell

     iteration # 23     ecut=    50.00 Ry     beta= 0.70
     Davidson diagonalization with overlap
     ethr =  1.02E-06,  avg # of iterations =  2.7

     negative rho (up, down):  9.806E-03 9.007E-03

     total cpu time spent up to now is      427.8 secs

     total energy              =   -6056.60397329 Ry
     estimated scf accuracy    <       0.00221466 Ry

     total magnetization       =    60.52 Bohr mag/cell
     absolute magnetization    =    68.13 Bohr mag/cell

     iteration # 24     ecut=    50.00 Ry     beta= 0.70
     Davidson diagonalization with overlap
     c_bands:  1 eigenvalues not converged
     ethr =  6.61E-07,  avg # of iterations =  3.3

     negative rho (up, down):  7.981E-03 7.183E-03

     total cpu time spent up to now is      448.2 secs

     total energy              =   -6056.60403390 Ry
     estimated scf accuracy    <       0.00282913 Ry

     total magnetization       =    60.54 Bohr mag/cell
     absolute magnetization    =    68.15 Bohr mag/cell

     iteration # 25     ecut=    50.00 Ry     beta= 0.70
     Davidson diagonalization with overlap
     ethr =  6.61E-07,  avg # of iterations =  1.7

     negative rho (up, down):  6.067E-03 5.331E-03

     total cpu time spent up to now is      462.0 secs

     total energy              =   -6056.60424812 Ry
     estimated scf accuracy    <       0.00070160 Ry

     total magnetization       =    60.53 Bohr mag/cell
     absolute magnetization    =    68.15 Bohr mag/cell

     iteration # 26     ecut=    50.00 Ry     beta= 0.70
     Davidson diagonalization with overlap
     c_bands:  1 eigenvalues not converged
     ethr =  2.09E-07,  avg # of iterations =  4.2

     negative rho (up, down):  6.343E-03 5.633E-03

     total cpu time spent up to now is      484.3 secs

     total energy              =   -6056.60430703 Ry
     estimated scf accuracy    <       0.00142553 Ry

     total magnetization       =    60.53 Bohr mag/cell
     absolute magnetization    =    68.14 Bohr mag/cell

     iteration # 27     ecut=    50.00 Ry     beta= 0.70
     Davidson diagonalization with overlap
     ethr =  2.09E-07,  avg # of iterations =  1.3

     negative rho (up, down):  4.906E-03 4.161E-03

     total cpu time spent up to now is      502.3 secs

     total energy              =   -6056.60428461 Ry
     estimated scf accuracy    <       0.00019712 Ry

     total magnetization       =    60.54 Bohr mag/cell
     absolute magnetization    =    68.15 Bohr mag/cell

     iteration # 28     ecut=    50.00 Ry     beta= 0.70
     Davidson diagonalization with overlap
     ethr =  5.88E-08,  avg # of iterations =  4.8

     negative rho (up, down):  4.263E-03 3.407E-03

     total cpu time spent up to now is      519.4 secs

     total energy              =   -6056.60437096 Ry
     estimated scf accuracy    <       0.00025957 Ry

     total magnetization       =    60.54 Bohr mag/cell
     absolute magnetization    =    68.14 Bohr mag/cell

     iteration # 29     ecut=    50.00 Ry     beta= 0.70
     Davidson diagonalization with overlap
     ethr =  5.88E-08,  avg # of iterations =  1.9

     negative rho (up, down):  3.477E-03 2.518E-03

     total cpu time spent up to now is      539.0 secs

     total energy              =   -6056.60437531 Ry
     estimated scf accuracy    <       0.00009562 Ry

     total magnetization       =    60.54 Bohr mag/cell
     absolute magnetization    =    68.14 Bohr mag/cell

     iteration # 30     ecut=    50.00 Ry     beta= 0.70
     Davidson diagonalization with overlap
     ethr =  2.85E-08,  avg # of iterations =  2.4

     negative rho (up, down):  3.242E-03 2.162E-03

     total cpu time spent up to now is      559.3 secs

     total energy              =   -6056.60440095 Ry
     estimated scf accuracy    <       0.00008997 Ry

     total magnetization       =    60.54 Bohr mag/cell
     absolute magnetization    =    68.14 Bohr mag/cell

     iteration # 31     ecut=    50.00 Ry     beta= 0.70
     Davidson diagonalization with overlap
     ethr =  2.69E-08,  avg # of iterations =  1.7

     negative rho (up, down):  3.112E-03 2.009E-03

     total cpu time spent up to now is      573.5 secs

     total energy              =   -6056.60440840 Ry
     estimated scf accuracy    <       0.00004023 Ry

     total magnetization       =    60.54 Bohr mag/cell
     absolute magnetization    =    68.14 Bohr mag/cell

     iteration # 32     ecut=    50.00 Ry     beta= 0.70
     Davidson diagonalization with overlap
     c_bands:  1 eigenvalues not converged
     ethr =  1.20E-08,  avg # of iterations =  5.3

     negative rho (up, down):  2.847E-03 1.739E-03

     total cpu time spent up to now is      595.4 secs

     total energy              =   -6056.60441108 Ry
     estimated scf accuracy    <       0.00003513 Ry

     total magnetization       =    60.54 Bohr mag/cell
     absolute magnetization    =    68.14 Bohr mag/cell

     iteration # 33     ecut=    50.00 Ry     beta= 0.70
     Davidson diagonalization with overlap
     ethr =  1.05E-08,  avg # of iterations =  1.7

     negative rho (up, down):  2.951E-03 1.888E-03

     total cpu time spent up to now is      610.6 secs

     total energy              =   -6056.60441335 Ry
     estimated scf accuracy    <       0.00003172 Ry

     total magnetization       =    60.53 Bohr mag/cell
     absolute magnetization    =    68.14 Bohr mag/cell

     iteration # 34     ecut=    50.00 Ry     beta= 0.70
     Davidson diagonalization with overlap
     ethr =  9.47E-09,  avg # of iterations =  1.7

     negative rho (up, down):  2.925E-03 1.858E-03

     total cpu time spent up to now is      629.3 secs

     total energy              =   -6056.60441442 Ry
     estimated scf accuracy    <       0.00001325 Ry

     total magnetization       =    60.54 Bohr mag/cell
     absolute magnetization    =    68.14 Bohr mag/cell

     iteration # 35     ecut=    50.00 Ry     beta= 0.70
     Davidson diagonalization with overlap
     ethr =  3.96E-09,  avg # of iterations =  3.5

     negative rho (up, down):  2.838E-03 1.790E-03

     total cpu time spent up to now is      649.9 secs

     total energy              =   -6056.60441517 Ry
     estimated scf accuracy    <       0.00001431 Ry

     total magnetization       =    60.54 Bohr mag/cell
     absolute magnetization    =    68.14 Bohr mag/cell

     iteration # 36     ecut=    50.00 Ry     beta= 0.70
     Davidson diagonalization with overlap
     ethr =  3.96E-09,  avg # of iterations =  1.9

     negative rho (up, down):  2.797E-03 1.752E-03

     total cpu time spent up to now is      665.5 secs

     total energy              =   -6056.60441555 Ry
     estimated scf accuracy    <       0.00000846 Ry

     total magnetization       =    60.54 Bohr mag/cell
     absolute magnetization    =    68.13 Bohr mag/cell

     iteration # 37     ecut=    50.00 Ry     beta= 0.70
     Davidson diagonalization with overlap
     ethr =  2.52E-09,  avg # of iterations =  1.8

     negative rho (up, down):  2.783E-03 1.749E-03

     total cpu time spent up to now is      684.3 secs

     total energy              =   -6056.60441549 Ry
     estimated scf accuracy    <       0.00000562 Ry

     total magnetization       =    60.54 Bohr mag/cell
     absolute magnetization    =    68.13 Bohr mag/cell

     iteration # 38     ecut=    50.00 Ry     beta= 0.70
     Davidson diagonalization with overlap
     ethr =  1.68E-09,  avg # of iterations =  2.7

     negative rho (up, down):  2.640E-03 1.594E-03

     total cpu time spent up to now is      699.6 secs

     total energy              =   -6056.60441466 Ry
     estimated scf accuracy    <       0.00000390 Ry

     total magnetization       =    60.53 Bohr mag/cell
     absolute magnetization    =    68.13 Bohr mag/cell

     iteration # 39     ecut=    50.00 Ry     beta= 0.70
     Davidson diagonalization with overlap
     ethr =  1.16E-09,  avg # of iterations =  3.1

     negative rho (up, down):  2.520E-03 1.455E-03

     total cpu time spent up to now is      719.7 secs

     total energy              =   -6056.60441446 Ry
     estimated scf accuracy    <       0.00000533 Ry

     total magnetization       =    60.53 Bohr mag/cell
     absolute magnetization    =    68.13 Bohr mag/cell

     iteration # 40     ecut=    50.00 Ry     beta= 0.70
     Davidson diagonalization with overlap
     ethr =  1.16E-09,  avg # of iterations =  1.4

     negative rho (up, down):  2.509E-03 1.440E-03

     total cpu time spent up to now is      739.5 secs

     total energy              =   -6056.60441453 Ry
     estimated scf accuracy    <       0.00000384 Ry

     total magnetization       =    60.53 Bohr mag/cell
     absolute magnetization    =    68.13 Bohr mag/cell

     iteration # 41     ecut=    50.00 Ry     beta= 0.70
     Davidson diagonalization with overlap
     ethr =  1.15E-09,  avg # of iterations =  1.5

     negative rho (up, down):  2.367E-03 1.289E-03

     total cpu time spent up to now is      753.5 secs

     total energy              =   -6056.60441450 Ry
     estimated scf accuracy    <       0.00000514 Ry

     total magnetization       =    60.53 Bohr mag/cell
     absolute magnetization    =    68.13 Bohr mag/cell

     iteration # 42     ecut=    50.00 Ry     beta= 0.70
     Davidson diagonalization with overlap
     ethr =  1.15E-09,  avg # of iterations =  1.4

     negative rho (up, down):  2.365E-03 1.290E-03

     total cpu time spent up to now is      771.8 secs

     total energy              =   -6056.60441454 Ry
     estimated scf accuracy    <       0.00000191 Ry

     total magnetization       =    60.53 Bohr mag/cell
     absolute magnetization    =    68.13 Bohr mag/cell

     iteration # 43     ecut=    50.00 Ry     beta= 0.70
     Davidson diagonalization with overlap
     ethr =  5.70E-10,  avg # of iterations =  1.7

     negative rho (up, down):  2.330E-03 1.250E-03

     total cpu time spent up to now is      787.1 secs

     total energy              =   -6056.60441469 Ry
     estimated scf accuracy    <       0.00000106 Ry

     total magnetization       =    60.53 Bohr mag/cell
     absolute magnetization    =    68.13 Bohr mag/cell

     iteration # 44     ecut=    50.00 Ry     beta= 0.70
     Davidson diagonalization with overlap
     ethr =  3.17E-10,  avg # of iterations =  2.5

     negative rho (up, down):  2.302E-03 1.218E-03

     total cpu time spent up to now is      806.9 secs

     total energy              =   -6056.60441481 Ry
     estimated scf accuracy    <       0.00000124 Ry

     total magnetization       =    60.53 Bohr mag/cell
     absolute magnetization    =    68.13 Bohr mag/cell

     iteration # 45     ecut=    50.00 Ry     beta= 0.70
     Davidson diagonalization with overlap
     ethr =  3.17E-10,  avg # of iterations =  1.7

     negative rho (up, down):  2.318E-03 1.235E-03

     total cpu time spent up to now is      821.0 secs

     total energy              =   -6056.60441485 Ry
     estimated scf accuracy    <       0.00000029 Ry

     total magnetization       =    60.53 Bohr mag/cell
     absolute magnetization    =    68.13 Bohr mag/cell

     iteration # 46     ecut=    50.00 Ry     beta= 0.70
     Davidson diagonalization with overlap
     ethr =  8.77E-11,  avg # of iterations =  5.4

     negative rho (up, down):  2.295E-03 1.209E-03

     total cpu time spent up to now is      843.8 secs

     total energy              =   -6056.60441489 Ry
     estimated scf accuracy    <       0.00000017 Ry

     total magnetization       =    60.53 Bohr mag/cell
     absolute magnetization    =    68.13 Bohr mag/cell

     iteration # 47     ecut=    50.00 Ry     beta= 0.70
     Davidson diagonalization with overlap
     ethr =  4.98E-11,  avg # of iterations =  3.0

     negative rho (up, down):  2.279E-03 1.192E-03

     total cpu time spent up to now is      864.9 secs

     total energy              =   -6056.60441488 Ry
     estimated scf accuracy    <       0.00000014 Ry

     total magnetization       =    60.53 Bohr mag/cell
     absolute magnetization    =    68.13 Bohr mag/cell

     iteration # 48     ecut=    50.00 Ry     beta= 0.70
     Davidson diagonalization with overlap
     ethr =  4.27E-11,  avg # of iterations =  1.9

     negative rho (up, down):  2.262E-03 1.173E-03

     total cpu time spent up to now is      879.3 secs

     total energy              =   -6056.60441485 Ry
     estimated scf accuracy    <       0.00000013 Ry

     total magnetization       =    60.53 Bohr mag/cell
     absolute magnetization    =    68.13 Bohr mag/cell

     iteration # 49     ecut=    50.00 Ry     beta= 0.70
     Davidson diagonalization with overlap
     ethr =  3.84E-11,  avg # of iterations =  2.0

     negative rho (up, down):  2.254E-03 1.164E-03

     total cpu time spent up to now is      898.3 secs

     total energy              =   -6056.60441483 Ry
     estimated scf accuracy    <       0.00000014 Ry

     total magnetization       =    60.53 Bohr mag/cell
     absolute magnetization    =    68.13 Bohr mag/cell

     iteration # 50     ecut=    50.00 Ry     beta= 0.70
     Davidson diagonalization with overlap
     ethr =  3.84E-11,  avg # of iterations =  1.3

     negative rho (up, down):  2.250E-03 1.161E-03

     total cpu time spent up to now is      917.2 secs

     total energy              =   -6056.60441483 Ry
     estimated scf accuracy    <       0.00000004 Ry

     total magnetization       =    60.53 Bohr mag/cell
     absolute magnetization    =    68.13 Bohr mag/cell

     iteration # 51     ecut=    50.00 Ry     beta= 0.70
     Davidson diagonalization with overlap
     ethr =  1.34E-11,  avg # of iterations =  3.7

     negative rho (up, down):  2.255E-03 1.166E-03

     total cpu time spent up to now is      933.4 secs

     total energy              =   -6056.60441484 Ry
     estimated scf accuracy    <       0.00000003 Ry

     total magnetization       =    60.53 Bohr mag/cell
     absolute magnetization    =    68.13 Bohr mag/cell

     iteration # 52     ecut=    50.00 Ry     beta= 0.70
     Davidson diagonalization with overlap
     ethr =  8.27E-12,  avg # of iterations =  1.7

     negative rho (up, down):  2.256E-03 1.167E-03

     Magnetic moment per site  (integrated on atomic sphere of radius R)
     atom   1 (R=0.091)  charge=  5.6948  magn=  1.6613
     atom   2 (R=0.091)  charge=  5.6962  magn=  1.6510
     atom   3 (R=0.091)  charge=  5.6956  magn=  1.6531
     atom   4 (R=0.091)  charge=  5.6950  magn=  1.6603
     atom   5 (R=0.091)  charge=  5.6952  magn=  1.6591
     atom   6 (R=0.091)  charge=  5.6946  magn=  1.6619
     atom   7 (R=0.091)  charge=  5.6948  magn=  1.6677
     atom   8 (R=0.091)  charge=  5.6946  magn=  1.6611
     atom   9 (R=0.091)  charge=  5.6949  magn=  1.6580
     atom  10 (R=0.091)  charge=  5.6919  magn=  1.5951
     atom  11 (R=0.091)  charge=  5.6915  magn=  1.5955
     atom  12 (R=0.091)  charge=  5.6908  magn=  1.6048
     atom  13 (R=0.091)  charge=  5.6915  magn=  1.5993
     atom  14 (R=0.091)  charge=  5.6918  magn=  1.5924
     atom  15 (R=0.091)  charge=  5.6913  magn=  1.6010
     atom  16 (R=0.091)  charge=  5.6913  magn=  1.5973
     atom  17 (R=0.091)  charge=  5.6915  magn=  1.6022
     atom  18 (R=0.091)  charge=  5.6915  magn=  1.6002
     atom  19 (R=0.091)  charge=  5.6909  magn=  1.5754
     atom  20 (R=0.091)  charge=  5.6896  magn=  1.6099
     atom  21 (R=0.091)  charge=  5.6916  magn=  1.5936
     atom  22 (R=0.091)  charge=  5.6906  magn=  1.5895
     atom  23 (R=0.091)  charge=  5.6914  magn=  1.5897
     atom  24 (R=0.091)  charge=  5.6897  magn=  1.6197
     atom  25 (R=0.091)  charge=  5.6909  magn=  1.5935
     atom  26 (R=0.091)  charge=  5.6908  magn=  1.5598
     atom  27 (R=0.091)  charge=  5.6911  magn=  1.5816
     atom  28 (R=0.091)  charge=  5.6917  magn=  1.6965
     atom  29 (R=0.091)  charge=  5.7042  magn=  1.3007
     atom  30 (R=0.091)  charge=  5.6959  magn=  1.6945
     atom  31 (R=0.091)  charge=  5.7013  magn=  1.5544
     atom  32 (R=0.091)  charge=  5.7078  magn=  1.0491
     atom  33 (R=0.091)  charge=  5.6949  magn=  1.6281
     atom  34 (R=0.091)  charge=  5.6943  magn=  1.7038
     atom  35 (R=0.091)  charge=  5.6933  magn=  1.5591
     atom  36 (R=0.091)  charge=  5.6928  magn=  1.6835
     atom  37 (R=0.066)  charge=  1.0497  magn= -0.0212
     atom  38 (R=0.066)  charge=  2.9315  magn= -0.0408
     atom  39 (R=0.091)  charge=  0.8534  magn= -0.0161

     total cpu time spent up to now is      951.9 secs

     End of self-consistent calculation

 ------ SPIN UP ------------


          k = 0.0000 0.0000 0.0000 ( 51087 PWs)   bands (ev):

   -21.9051  -9.1796  -7.6673  -6.5274  -5.8116  -5.6173  -5.3606  -5.1281
    -4.8375  -4.8295  -4.8248  -4.8104  -4.7940  -4.7803  -4.6314  -4.3843
    -4.2957  -4.2948  -4.2708  -4.2579  -4.2419  -4.0900  -3.7797  -3.7785
    -3.7687  -3.7564  -3.7321  -3.6969  -3.6458  -3.6441  -3.6400  -3.6351
    -3.6147  -3.5662  -3.5643  -3.4625  -3.2641  -3.2564  -3.2538  -3.2513
    -3.1963  -3.1923  -3.1870  -3.1844  -3.1797  -3.1732  -3.1658  -3.1065
    -3.0269  -3.0229  -2.9593  -2.9529  -2.9509  -2.9438  -2.9369  -2.9224
    -2.9177  -2.9123  -2.8914  -2.8718  -2.8209  -2.8119  -2.8096  -2.8037
    -2.7426  -2.5982  -2.3198  -2.2812  -2.2783  -2.2756  -2.2740  -2.1720
    -2.1502  -2.1387  -2.1328  -2.1194  -2.1082  -2.1037  -2.0958  -2.0902
    -2.0523  -2.0469  -2.0181  -2.0087  -1.9963  -1.9933  -1.9745  -1.9668
    -1.9655  -1.9545  -1.9510  -1.9441  -1.9344  -1.9238  -1.9197  -1.9084
    -1.9060  -1.9032  -1.9016  -1.8992  -1.8973  -1.8953  -1.8916  -1.8782
    -1.8682  -1.8588  -1.8420  -1.8309  -1.8274  -1.7503  -1.7460  -1.6556
    -1.5378  -1.4613  -1.4551  -1.4535  -1.4498  -1.4408  -1.4251  -1.4129
    -1.4071  -1.4053  -1.3942  -1.3628  -1.3600  -1.2339  -1.2238  -1.2138
    -1.2009  -1.1549  -1.0898  -1.0623  -1.0450  -1.0214  -0.9888  -0.9751
    -0.9719  -0.9688  -0.9612  -0.9444  -0.9101  -0.8977  -0.8453  -0.8248
    -0.7494  -0.7156  -0.7112  -0.7074  -0.6910  -0.6706  -0.6586  -0.6479
    -0.6444  -0.6416  -0.6385  -0.6342  -0.6334  -0.6257  -0.6197  -0.6105
    -0.6073  -0.6004  -0.5881  -0.5774  -0.5735  -0.5683  -0.5570  -0.5521
    -0.5409  -0.5357  -0.5278  -0.5160  -0.5120  -0.5043  -0.5009  -0.4945
    -0.4915  -0.4847  -0.4694  -0.4550  -0.4366  -0.4160  -0.4101  -0.4031
    -0.4008  -0.3934  -0.3880  -0.3818  -0.3724  -0.3364  -0.3252  -0.3168
    -0.3131  -0.3081  -0.2526  -0.2477  -0.2428  -0.2344  -0.2182  -0.2021
     0.4996   0.7190

          k = 0.0000 0.2309 0.0000 ( 51134 PWs)   bands (ev):

   -21.9051  -9.1681  -7.5271  -6.4320  -5.8487  -5.6641  -5.5097  -5.3230
    -5.1076  -5.0515  -5.0125  -4.6196  -4.5136  -4.4822  -4.4721  -4.4152
    -4.3421  -4.2940  -4.2250  -4.1938  -4.1538  -4.0600  -3.8942  -3.7807
    -3.7702  -3.7038  -3.6658  -3.6511  -3.6455  -3.6414  -3.6314  -3.6109
    -3.5886  -3.5467  -3.5216  -3.5016  -3.4960  -3.4321  -3.2869  -3.2746
    -3.2658  -3.2187  -3.2134  -3.1993  -3.1771  -3.1186  -3.0841  -3.0641
    -3.0485  -3.0415  -3.0349  -3.0024  -2.9628  -2.9111  -2.9026  -2.8788
    -2.8370  -2.8320  -2.8063  -2.8012  -2.7767  -2.7394  -2.7342  -2.7270
    -2.6921  -2.6011  -2.4021  -2.3893  -2.3637  -2.3489  -2.3347  -2.2500
    -2.2425  -2.2283  -2.2226  -2.2102  -2.2041  -2.1900  -2.1665  -2.1139
    -2.1105  -2.0927  -2.0765  -2.0417  -2.0368  -2.0307  -2.0155  -2.0081
    -1.9990  -1.9977  -1.9901  -1.9854  -1.9720  -1.9661  -1.9293  -1.8885
    -1.8851  -1.8672  -1.8197  -1.8090  -1.8029  -1.7927  -1.7866  -1.7848
    -1.7750  -1.7662  -1.7612  -1.7510  -1.7485  -1.7261  -1.7104  -1.6968
    -1.6870  -1.6711  -1.6399  -1.5972  -1.5759  -1.5025  -1.4783  -1.4731
    -1.4592  -1.4555  -1.4439  -1.4387  -1.4187  -1.3896  -1.3319  -1.2878
    -1.2495  -1.2048  -1.1909  -1.1760  -1.1546  -1.1236  -1.0999  -1.0851
    -1.0367  -1.0050  -0.9932  -0.9764  -0.9497  -0.9440  -0.9107  -0.9013
    -0.8820  -0.8613  -0.8454  -0.8256  -0.8189  -0.8032  -0.7956  -0.7824
    -0.7229  -0.7163  -0.7098  -0.7048  -0.6802  -0.6615  -0.6465  -0.6398
    -0.6332  -0.6305  -0.6229  -0.6122  -0.5986  -0.5852  -0.5743  -0.5533
    -0.5168  -0.5016  -0.4913  -0.4739  -0.4556  -0.4445  -0.4093  -0.3919
    -0.3810  -0.3722  -0.3641  -0.3573  -0.3399  -0.3313  -0.3234  -0.2840
    -0.2613  -0.2473  -0.2386  -0.2191  -0.2087  -0.1973  -0.1863  -0.1642
    -0.1160  -0.0472   0.0953   0.1362   0.1729   0.2652   0.3815   0.4113
     0.4498   0.8065

          k = 0.0000 0.4619 0.0000 ( 51204 PWs)   bands (ev):

   -21.9051  -9.1498  -7.1143  -6.4749  -6.1649  -5.8367  -5.5323  -5.3569
    -5.1987  -5.1445  -5.0828  -4.8845  -4.3477  -4.3176  -4.2817  -4.2443
    -4.2028  -4.1265  -4.1221  -4.0287  -3.9941  -3.9870  -3.9607  -3.8298
    -3.8096  -3.8005  -3.7960  -3.7942  -3.7240  -3.6941  -3.6852  -3.6084
    -3.5245  -3.5154  -3.4988  -3.4805  -3.4701  -3.4326  -3.3701  -3.3616
    -3.3500  -3.3380  -3.3062  -3.2213  -3.1355  -3.1083  -3.0433  -3.0294
    -3.0069  -2.9846  -2.9656  -2.9513  -2.9396  -2.9310  -2.9142  -2.8648
    -2.8512  -2.8301  -2.7883  -2.7630  -2.6582  -2.6429  -2.6228  -2.5978
    -2.5624  -2.5348  -2.5124  -2.4974  -2.4866  -2.4235  -2.3688  -2.3659
    -2.3640  -2.3508  -2.3412  -2.3213  -2.3082  -2.3000  -2.2745  -2.2498
    -2.2369  -2.2057  -2.1869  -2.1620  -2.1356  -2.1251  -2.0675  -2.0512
    -2.0333  -2.0199  -2.0040  -1.9767  -1.9739  -1.9322  -1.9232  -1.9138
    -1.9059  -1.8887  -1.8795  -1.8572  -1.8515  -1.8476  -1.8401  -1.8084
    -1.7940  -1.7574  -1.7433  -1.7322  -1.6685  -1.6499  -1.6262  -1.6155
    -1.5975  -1.5784  -1.5615  -1.5241  -1.5182  -1.5025  -1.4981  -1.4899
    -1.4792  -1.4733  -1.4678  -1.4568  -1.4506  -1.4413  -1.4226  -1.4134
    -1.3942  -1.3724  -1.3126  -1.2825  -1.2705  -1.2620  -1.2363  -1.2151
    -1.1948  -1.1456  -1.1217  -1.1081  -1.0764  -1.0686  -1.0322  -1.0089
    -0.9886  -0.9574  -0.9359  -0.9249  -0.9006  -0.8717  -0.8450  -0.7985
    -0.7562  -0.7334  -0.7209  -0.7096  -0.7068  -0.6991  -0.6923  -0.6826
    -0.6656  -0.6420  -0.5629  -0.5560  -0.5496  -0.5370  -0.5292  -0.5118
    -0.5057  -0.4885  -0.4807  -0.4727  -0.4587  -0.4375  -0.3734  -0.3610
    -0.3480  -0.3396  -0.3121  -0.2651  -0.2576  -0.2293  -0.2224  -0.1843
    -0.1565  -0.1442  -0.1370  -0.1194  -0.1146  -0.1115  -0.1039  -0.0607
    -0.0108   0.0081   0.3978   0.5932   0.9168   1.0772   1.1190   1.2577
     1.4607   1.5045

          k = 0.2000-0.1155 0.0000 ( 51134 PWs)   bands (ev):

   -21.9051  -9.1695  -7.5262  -6.4313  -5.8352  -5.6596  -5.5134  -5.3332
    -5.1240  -5.0387  -5.0103  -4.6451  -4.4968  -4.4830  -4.4688  -4.4151
    -4.3263  -4.2986  -4.2384  -4.1726  -4.1541  -4.0893  -3.8820  -3.7843
    -3.7754  -3.7042  -3.6618  -3.6493  -3.6465  -3.6362  -3.6319  -3.6105
    -3.5975  -3.5383  -3.5212  -3.5003  -3.4978  -3.4272  -3.2779  -3.2721
    -3.2604  -3.2174  -3.2129  -3.2060  -3.1776  -3.1109  -3.0830  -3.0679
    -3.0493  -3.0460  -3.0290  -3.0075  -2.9675  -2.9085  -2.9035  -2.8736
    -2.8433  -2.8334  -2.8076  -2.8027  -2.7777  -2.7408  -2.7354  -2.7245
    -2.6999  -2.5965  -2.3998  -2.3899  -2.3701  -2.3506  -2.3360  -2.2498
    -2.2413  -2.2245  -2.2185  -2.2112  -2.2044  -2.1945  -2.1710  -2.1167
    -2.1084  -2.0937  -2.0746  -2.0394  -2.0333  -2.0261  -2.0196  -2.0098
    -1.9977  -1.9957  -1.9885  -1.9845  -1.9762  -1.9667  -1.9417  -1.8952
    -1.8805  -1.8749  -1.8156  -1.8061  -1.7972  -1.7950  -1.7877  -1.7826
    -1.7727  -1.7658  -1.7564  -1.7518  -1.7465  -1.7227  -1.7130  -1.6948
    -1.6853  -1.6768  -1.6331  -1.5882  -1.5764  -1.4849  -1.4796  -1.4777
    -1.4686  -1.4486  -1.4420  -1.4346  -1.4093  -1.4018  -1.3798  -1.2792
    -1.2590  -1.2012  -1.1906  -1.1731  -1.1636  -1.1055  -1.0909  -1.0826
    -1.0622  -0.9907  -0.9797  -0.9694  -0.9468  -0.9398  -0.9057  -0.9005
    -0.8767  -0.8644  -0.8566  -0.8354  -0.8213  -0.7991  -0.7926  -0.7896
    -0.7262  -0.7175  -0.7119  -0.7068  -0.6898  -0.6705  -0.6499  -0.6363
    -0.6328  -0.6274  -0.6229  -0.6090  -0.5955  -0.5838  -0.5716  -0.5597
    -0.5260  -0.5087  -0.4977  -0.4721  -0.4490  -0.4382  -0.4176  -0.3894
    -0.3860  -0.3721  -0.3678  -0.3558  -0.3384  -0.3308  -0.3237  -0.2913
    -0.2593  -0.2498  -0.2375  -0.2183  -0.2107  -0.1930  -0.1876  -0.1693
    -0.1142  -0.0398   0.1097   0.1375   0.1954   0.2728   0.3961   0.4130
     0.4511   0.7571

          k = 0.2000 0.1155 0.0000 ( 51134 PWs)   bands (ev):

   -21.9051  -9.1674  -7.5280  -6.4340  -5.8774  -5.6554  -5.4461  -5.3716
    -5.0905  -5.0452  -5.0358  -4.5900  -4.5165  -4.4797  -4.4744  -4.4131
    -4.3436  -4.3133  -4.2266  -4.1946  -4.1574  -4.0454  -3.8964  -3.7867
    -3.7611  -3.6961  -3.6588  -3.6521  -3.6472  -3.6444  -3.6321  -3.6243
    -3.5633  -3.5546  -3.5334  -3.5017  -3.4962  -3.4335  -3.2928  -3.2719
    -3.2694  -3.2184  -3.2168  -3.2032  -3.1711  -3.1181  -3.0875  -3.0597
    -3.0463  -3.0432  -3.0358  -3.0111  -2.9584  -2.9111  -2.9019  -2.8792
    -2.8443  -2.8198  -2.8078  -2.8010  -2.7869  -2.7382  -2.7365  -2.7235
    -2.6753  -2.6037  -2.4006  -2.3866  -2.3636  -2.3494  -2.3374  -2.2497
    -2.2432  -2.2358  -2.2203  -2.2126  -2.2049  -2.1928  -2.1464  -2.1153
    -2.1101  -2.0949  -2.0723  -2.0398  -2.0337  -2.0313  -2.0278  -2.0069
    -2.0006  -1.9964  -1.9914  -1.9864  -1.9723  -1.9601  -1.9412  -1.8908
    -1.8785  -1.8667  -1.8195  -1.8138  -1.8043  -1.7959  -1.7883  -1.7831
    -1.7740  -1.7684  -1.7626  -1.7506  -1.7475  -1.7383  -1.7021  -1.7000
    -1.6845  -1.6787  -1.6380  -1.5998  -1.5811  -1.5149  -1.4808  -1.4711
    -1.4596  -1.4528  -1.4444  -1.4386  -1.4208  -1.3802  -1.3035  -1.2918
    -1.2475  -1.2014  -1.1926  -1.1776  -1.1548  -1.1366  -1.0983  -1.0915
    -1.0312  -1.0001  -0.9927  -0.9696  -0.9515  -0.9443  -0.9106  -0.9060
    -0.8820  -0.8634  -0.8468  -0.8264  -0.8207  -0.8043  -0.7996  -0.7820
    -0.7195  -0.7151  -0.7085  -0.7007  -0.6894  -0.6597  -0.6473  -0.6380
    -0.6359  -0.6285  -0.6216  -0.6043  -0.5959  -0.5861  -0.5764  -0.5636
    -0.5155  -0.4943  -0.4867  -0.4751  -0.4607  -0.4461  -0.4085  -0.3922
    -0.3834  -0.3732  -0.3640  -0.3547  -0.3391  -0.3293  -0.3247  -0.2828
    -0.2543  -0.2482  -0.2371  -0.2177  -0.2101  -0.1868  -0.1699  -0.1623
    -0.1141  -0.0741   0.1028   0.1359   0.1742   0.2570   0.3871   0.4085
     0.4434   0.7387

          k = 0.2000 0.3464 0.0000 ( 51202 PWs)   bands (ev):

   -21.9051  -9.1519  -7.2522  -6.2867  -6.0603  -5.9226  -5.6790  -5.4464
    -5.3393  -5.0470  -4.7661  -4.6070  -4.4911  -4.4864  -4.3319  -4.2717
    -4.2591  -4.1706  -4.1640  -4.0926  -4.0389  -3.9507  -3.8989  -3.8766
    -3.8196  -3.7802  -3.6890  -3.6775  -3.6472  -3.6386  -3.6310  -3.6133
    -3.5890  -3.5796  -3.5504  -3.5233  -3.4771  -3.4530  -3.4418  -3.3894
    -3.3052  -3.2560  -3.2141  -3.1850  -3.1659  -3.1564  -3.0971  -3.0525
    -3.0219  -2.9820  -2.9780  -2.9668  -2.9414  -2.9163  -2.9011  -2.8888
    -2.8743  -2.8489  -2.7658  -2.7030  -2.6911  -2.6685  -2.6453  -2.6300
    -2.6133  -2.5567  -2.5055  -2.4345  -2.4153  -2.3902  -2.3773  -2.3479
    -2.3335  -2.3239  -2.3186  -2.3002  -2.2758  -2.2650  -2.2595  -2.2468
    -2.2243  -2.1918  -2.1670  -2.1151  -2.0703  -2.0598  -2.0494  -2.0306
    -2.0142  -1.9949  -1.9670  -1.9590  -1.9485  -1.9256  -1.9061  -1.9006
    -1.8952  -1.8925  -1.8846  -1.8637  -1.8609  -1.8447  -1.8266  -1.8211
    -1.8024  -1.7755  -1.7504  -1.7243  -1.7164  -1.6882  -1.6736  -1.6677
    -1.6559  -1.6452  -1.6205  -1.5857  -1.5687  -1.5572  -1.5346  -1.5150
    -1.5062  -1.4957  -1.4825  -1.4730  -1.4529  -1.4386  -1.4215  -1.3702
    -1.3577  -1.3370  -1.3260  -1.2283  -1.2121  -1.1950  -1.1795  -1.1062
    -1.0696  -1.0643  -1.0572  -1.0475  -1.0356  -1.0276  -1.0034  -0.9993
    -0.9801  -0.9568  -0.9409  -0.8993  -0.8818  -0.8678  -0.8633  -0.8464
    -0.8165  -0.8046  -0.7948  -0.7801  -0.7699  -0.7499  -0.6281  -0.6146
    -0.5887  -0.5801  -0.5716  -0.5598  -0.5482  -0.5305  -0.5262  -0.5180
    -0.4974  -0.4729  -0.4467  -0.4324  -0.4107  -0.3946  -0.3524  -0.3403
    -0.3353  -0.3304  -0.3250  -0.3029  -0.2940  -0.2856  -0.2819  -0.2637
    -0.2537  -0.1760  -0.1671  -0.1642  -0.1210  -0.1183  -0.0907   0.0346
     0.1961   0.2274   0.2644   0.3625   0.5232   0.6172   0.9296   1.1241
     1.2187   1.4497

          k = 0.2000-0.5774 0.0000 ( 51262 PWs)   bands (ev):

   -21.9051  -9.1447  -6.7578  -6.6736  -6.1619  -5.9914  -5.7811  -5.4515
    -5.2281  -5.1651  -4.9398  -4.6758  -4.4700  -4.2317  -4.1880  -4.0630
    -4.0537  -4.0429  -4.0250  -4.0145  -3.9677  -3.9477  -3.9425  -3.9387
    -3.9214  -3.8458  -3.7950  -3.7886  -3.7665  -3.7643  -3.7131  -3.6226
    -3.6095  -3.6007  -3.5788  -3.5490  -3.5010  -3.4504  -3.3554  -3.3148
    -3.3082  -3.2905  -3.2255  -3.2085  -3.1818  -3.1287  -3.0972  -3.0919
    -3.0547  -3.0259  -2.9961  -2.9317  -2.9053  -2.8807  -2.8591  -2.8203
    -2.7953  -2.7357  -2.7313  -2.7214  -2.7083  -2.6974  -2.6700  -2.6208
    -2.5651  -2.5159  -2.5063  -2.4986  -2.4710  -2.4346  -2.4274  -2.3715
    -2.3640  -2.3289  -2.3174  -2.3091  -2.3012  -2.2796  -2.2618  -2.2532
    -2.2335  -2.2258  -2.2099  -2.1861  -2.1794  -2.1429  -2.1074  -2.0988
    -2.0857  -2.0596  -2.0129  -1.9842  -1.9637  -1.9423  -1.9317  -1.9248
    -1.9040  -1.8958  -1.8866  -1.8797  -1.8598  -1.8416  -1.8340  -1.7781
    -1.7701  -1.7478  -1.7403  -1.7341  -1.7152  -1.7103  -1.7034  -1.6901
    -1.6845  -1.6784  -1.6539  -1.6379  -1.5955  -1.5807  -1.5674  -1.5204
    -1.5001  -1.4936  -1.4733  -1.4354  -1.4234  -1.4110  -1.4056  -1.3808
    -1.3408  -1.3369  -1.3128  -1.2587  -1.2085  -1.2026  -1.1803  -1.1673
    -1.1431  -1.1334  -1.1269  -1.1097  -1.0862  -1.0697  -1.0566  -1.0303
    -0.9882  -0.9866  -0.9613  -0.9430  -0.9278  -0.8895  -0.8761  -0.8652
    -0.8554  -0.8361  -0.8306  -0.8086  -0.7817  -0.7648  -0.7457  -0.5909
    -0.5706  -0.5653  -0.5554  -0.5495  -0.5378  -0.5331  -0.5216  -0.4847
    -0.4806  -0.4718  -0.4586  -0.4413  -0.3971  -0.3489  -0.3342  -0.3268
    -0.3109  -0.3022  -0.2910  -0.2736  -0.2447  -0.2322  -0.2269  -0.2123
    -0.2034  -0.1726  -0.1347  -0.1301  -0.1169  -0.1060  -0.0840  -0.0554
     0.1304   0.2577   0.5039   0.8725   0.9829   1.1719   1.2338   1.5389
     1.6523   1.7216

          k = 0.2000-0.3464 0.0000 ( 51202 PWs)   bands (ev):

   -21.9051  -9.1554  -7.2472  -6.2918  -5.9984  -5.9362  -5.6793  -5.5141
    -5.3122  -5.0508  -4.7094  -4.6959  -4.4871  -4.4748  -4.3261  -4.2711
    -4.2636  -4.1697  -4.1647  -4.0610  -4.0293  -4.0180  -3.9010  -3.8755
    -3.8260  -3.7801  -3.6849  -3.6665  -3.6603  -3.6382  -3.6297  -3.6052
    -3.5889  -3.5830  -3.5410  -3.5190  -3.4801  -3.4369  -3.4266  -3.3944
    -3.3007  -3.2387  -3.2138  -3.1897  -3.1715  -3.1486  -3.0808  -3.0536
    -3.0060  -3.0001  -2.9739  -2.9584  -2.9559  -2.9221  -2.8988  -2.8879
    -2.8681  -2.8453  -2.7568  -2.7326  -2.6930  -2.6763  -2.6515  -2.6341
    -2.6146  -2.5628  -2.4997  -2.4374  -2.4081  -2.3912  -2.3772  -2.3447
    -2.3363  -2.3227  -2.3170  -2.2900  -2.2768  -2.2635  -2.2541  -2.2444
    -2.2368  -2.1945  -2.1603  -2.1418  -2.0724  -2.0648  -2.0399  -2.0246
    -2.0180  -1.9943  -1.9763  -1.9600  -1.9418  -1.9258  -1.9094  -1.9069
    -1.8991  -1.8908  -1.8817  -1.8635  -1.8527  -1.8476  -1.8277  -1.8120
    -1.8056  -1.7983  -1.7731  -1.7232  -1.7198  -1.6841  -1.6731  -1.6646
    -1.6611  -1.6448  -1.5930  -1.5867  -1.5700  -1.5433  -1.5253  -1.5108
    -1.5009  -1.4948  -1.4869  -1.4630  -1.4450  -1.4311  -1.4258  -1.3710
    -1.3597  -1.3252  -1.3112  -1.2515  -1.2164  -1.1884  -1.1646  -1.1057
    -1.0829  -1.0604  -1.0519  -1.0464  -1.0392  -1.0304  -1.0013  -0.9901
    -0.9780  -0.9679  -0.9463  -0.9032  -0.8910  -0.8789  -0.8601  -0.8464
    -0.8225  -0.8075  -0.7849  -0.7760  -0.7641  -0.7509  -0.6297  -0.6193
    -0.5959  -0.5858  -0.5707  -0.5580  -0.5520  -0.5329  -0.5291  -0.5075
    -0.4982  -0.4747  -0.4430  -0.4271  -0.4115  -0.4010  -0.3643  -0.3434
    -0.3347  -0.3312  -0.3271  -0.3044  -0.2944  -0.2864  -0.2788  -0.2673
    -0.2535  -0.1801  -0.1682  -0.1630  -0.1177  -0.1148  -0.1066   0.0497
     0.1209   0.2297   0.2447   0.4505   0.5086   0.6280   1.0048   1.1229
     1.2289   1.3856

          k = 0.4000-0.2309 0.0000 ( 51204 PWs)   bands (ev):

   -21.9051  -9.1535  -7.1103  -6.4729  -6.1609  -5.7920  -5.5687  -5.3552
    -5.2203  -5.1374  -5.0981  -4.8718  -4.3307  -4.3152  -4.2926  -4.2482
    -4.2074  -4.1252  -4.1221  -4.0487  -3.9924  -3.9863  -3.9780  -3.8259
    -3.8096  -3.8063  -3.7959  -3.7942  -3.7313  -3.6922  -3.6855  -3.5588
    -3.5228  -3.5137  -3.4960  -3.4800  -3.4719  -3.4363  -3.3671  -3.3618
    -3.3477  -3.3418  -3.2727  -3.2146  -3.1436  -3.1041  -3.0510  -3.0366
    -3.0099  -2.9864  -2.9647  -2.9464  -2.9440  -2.9312  -2.9098  -2.8603
    -2.8500  -2.8275  -2.7956  -2.7778  -2.6585  -2.6474  -2.6245  -2.6156
    -2.5567  -2.5350  -2.5089  -2.4981  -2.4833  -2.4189  -2.3679  -2.3659
    -2.3605  -2.3497  -2.3458  -2.3231  -2.3104  -2.2935  -2.2767  -2.2622
    -2.2378  -2.2033  -2.1848  -2.1636  -2.1407  -2.1120  -2.0695  -2.0466
    -2.0337  -2.0178  -1.9972  -1.9821  -1.9758  -1.9367  -1.9234  -1.9161
    -1.9075  -1.8957  -1.8786  -1.8572  -1.8492  -1.8415  -1.8388  -1.8152
    -1.7977  -1.7667  -1.7415  -1.7352  -1.6661  -1.6469  -1.6299  -1.6267
    -1.6105  -1.5807  -1.5483  -1.5302  -1.5200  -1.4979  -1.4932  -1.4870
    -1.4844  -1.4743  -1.4621  -1.4523  -1.4494  -1.4429  -1.4293  -1.4202
    -1.4155  -1.3584  -1.2978  -1.2922  -1.2722  -1.2601  -1.2310  -1.2235
    -1.1938  -1.1377  -1.1206  -1.1104  -1.0672  -1.0536  -1.0233  -0.9836
    -0.9746  -0.9632  -0.9337  -0.9182  -0.9045  -0.8863  -0.8625  -0.7825
    -0.7539  -0.7432  -0.7271  -0.7140  -0.7087  -0.7008  -0.6947  -0.6850
    -0.6761  -0.6425  -0.5653  -0.5602  -0.5479  -0.5406  -0.5325  -0.5239
    -0.5115  -0.4978  -0.4759  -0.4676  -0.4616  -0.4336  -0.3824  -0.3629
    -0.3569  -0.3381  -0.3204  -0.2633  -0.2572  -0.2318  -0.2244  -0.1835
    -0.1533  -0.1483  -0.1400  -0.1276  -0.1141  -0.1095  -0.1039  -0.0587
    -0.0116   0.0100   0.4735   0.5735   0.8887   1.0947   1.1250   1.3056
     1.4755   1.4865

          k = 0.4000 0.0000 0.0000 ( 51202 PWs)   bands (ev):

   -21.9051  -9.1542  -7.2499  -6.2900  -6.0364  -5.9261  -5.6789  -5.4607
    -5.3324  -5.0639  -4.7451  -4.6323  -4.4920  -4.4763  -4.3316  -4.2695
    -4.2633  -4.1697  -4.1632  -4.0736  -4.0386  -3.9931  -3.8976  -3.8740
    -3.8245  -3.7787  -3.6860  -3.6707  -3.6453  -3.6365  -3.6285  -3.6203
    -3.5882  -3.5810  -3.5397  -3.5179  -3.4778  -3.4441  -3.4367  -3.3868
    -3.2985  -3.2422  -3.2143  -3.1902  -3.1689  -3.1564  -3.0990  -3.0534
    -3.0164  -2.9889  -2.9784  -2.9621  -2.9457  -2.9178  -2.9078  -2.8860
    -2.8730  -2.8452  -2.7591  -2.7210  -2.6897  -2.6687  -2.6550  -2.6373
    -2.6097  -2.5622  -2.5015  -2.4353  -2.4190  -2.3910  -2.3772  -2.3444
    -2.3317  -2.3227  -2.3167  -2.2945  -2.2779  -2.2647  -2.2545  -2.2473
    -2.2374  -2.1868  -2.1629  -2.1233  -2.0703  -2.0642  -2.0407  -2.0261
    -2.0185  -1.9972  -1.9684  -1.9610  -1.9476  -1.9265  -1.9094  -1.9066
    -1.9005  -1.8901  -1.8853  -1.8625  -1.8547  -1.8466  -1.8318  -1.8209
    -1.8046  -1.7892  -1.7632  -1.7259  -1.7179  -1.6793  -1.6743  -1.6692
    -1.6582  -1.6489  -1.6143  -1.5803  -1.5652  -1.5573  -1.5400  -1.5080
    -1.5036  -1.4942  -1.4792  -1.4619  -1.4414  -1.4323  -1.4226  -1.3705
    -1.3597  -1.3342  -1.3164  -1.2404  -1.2201  -1.1931  -1.1766  -1.1012
    -1.0782  -1.0581  -1.0471  -1.0430  -1.0367  -1.0305  -1.0001  -0.9953
    -0.9774  -0.9633  -0.9414  -0.9016  -0.8934  -0.8718  -0.8633  -0.8488
    -0.8217  -0.8035  -0.7919  -0.7774  -0.7669  -0.7500  -0.6299  -0.6101
    -0.6040  -0.5869  -0.5717  -0.5599  -0.5447  -0.5373  -0.5194  -0.5119
    -0.4949  -0.4715  -0.4448  -0.4349  -0.4111  -0.3998  -0.3610  -0.3442
    -0.3340  -0.3325  -0.3273  -0.3033  -0.2935  -0.2848  -0.2814  -0.2670
    -0.2525  -0.1795  -0.1656  -0.1624  -0.1191  -0.1122  -0.0976   0.0348
     0.1438   0.2297   0.2525   0.4161   0.5172   0.6359   0.9866   1.1233
     1.2278   1.4400

          k = 0.4000 0.2309 0.0000 ( 51204 PWs)   bands (ev):

   -21.9051  -9.1479  -7.1188  -6.4800  -6.1739  -5.8710  -5.4383  -5.3931
    -5.1998  -5.1426  -5.0807  -4.8858  -4.3496  -4.3112  -4.3018  -4.2420
    -4.1973  -4.1274  -4.1227  -4.0136  -3.9934  -3.9874  -3.9213  -3.8396
    -3.8090  -3.7980  -3.7965  -3.7924  -3.7055  -3.6908  -3.6732  -3.6580
    -3.5267  -3.5233  -3.5085  -3.4803  -3.4772  -3.4275  -3.3689  -3.3630
    -3.3491  -3.3403  -3.3058  -3.2232  -3.1406  -3.0985  -3.0470  -3.0221
    -3.0132  -2.9790  -2.9658  -2.9621  -2.9493  -2.9239  -2.9016  -2.8667
    -2.8541  -2.8316  -2.7985  -2.7483  -2.6530  -2.6417  -2.6307  -2.5947
    -2.5680  -2.5320  -2.5091  -2.5068  -2.4913  -2.4229  -2.3697  -2.3662
    -2.3612  -2.3547  -2.3384  -2.3224  -2.3078  -2.3019  -2.2760  -2.2412
    -2.2256  -2.2079  -2.1923  -2.1747  -2.1309  -2.1167  -2.0643  -2.0507
    -2.0325  -2.0232  -2.0064  -1.9915  -1.9666  -1.9306  -1.9248  -1.9157
    -1.9046  -1.8918  -1.8747  -1.8664  -1.8536  -1.8457  -1.8399  -1.8107
    -1.7941  -1.7779  -1.7415  -1.7315  -1.6701  -1.6527  -1.6260  -1.6140
    -1.5897  -1.5791  -1.5520  -1.5211  -1.5188  -1.5048  -1.4978  -1.4918
    -1.4848  -1.4764  -1.4649  -1.4576  -1.4513  -1.4387  -1.4127  -1.4052
    -1.3881  -1.3779  -1.3309  -1.2831  -1.2679  -1.2561  -1.2343  -1.2181
    -1.1917  -1.1436  -1.1237  -1.1062  -1.0883  -1.0597  -1.0463  -1.0074
    -0.9858  -0.9586  -0.9357  -0.9263  -0.8973  -0.8706  -0.8483  -0.8098
    -0.7367  -0.7307  -0.7189  -0.7105  -0.7072  -0.6943  -0.6861  -0.6767
    -0.6690  -0.6623  -0.5630  -0.5569  -0.5496  -0.5375  -0.5288  -0.5082
    -0.4989  -0.4948  -0.4798  -0.4692  -0.4528  -0.4384  -0.3730  -0.3583
    -0.3503  -0.3400  -0.3061  -0.2617  -0.2600  -0.2248  -0.2227  -0.1833
    -0.1629  -0.1422  -0.1385  -0.1166  -0.1148  -0.1085  -0.0883  -0.0701
    -0.0107   0.0099   0.3888   0.6522   0.8635   1.0275   1.1249   1.2001
     1.4685   1.5499

          k = 0.4000-0.6928 0.0000 ( 51262 PWs)   bands (ev):

   -21.9051  -9.1435  -6.7700  -6.6698  -6.1653  -5.9316  -5.8808  -5.3872
    -5.2042  -5.1629  -4.9837  -4.6762  -4.4708  -4.2327  -4.1854  -4.0585
    -4.0538  -4.0294  -4.0231  -3.9981  -3.9678  -3.9470  -3.9415  -3.9384
    -3.9246  -3.8150  -3.7992  -3.7892  -3.7727  -3.7576  -3.7346  -3.6339
    -3.6093  -3.6023  -3.5861  -3.5648  -3.5024  -3.4450  -3.3498  -3.3157
    -3.3129  -3.2849  -3.2184  -3.2097  -3.1816  -3.1348  -3.0974  -3.0953
    -3.0678  -3.0134  -3.0015  -2.9318  -2.9035  -2.8768  -2.8638  -2.8150
    -2.7945  -2.7370  -2.7297  -2.7227  -2.7094  -2.7027  -2.6540  -2.6381
    -2.5606  -2.5160  -2.5095  -2.4923  -2.4815  -2.4437  -2.4242  -2.3690
    -2.3602  -2.3290  -2.3235  -2.3070  -2.2999  -2.2765  -2.2608  -2.2483
    -2.2321  -2.2210  -2.1936  -2.1915  -2.1797  -2.1644  -2.1130  -2.0979
    -2.0853  -2.0541  -2.0165  -1.9808  -1.9658  -1.9457  -1.9306  -1.9224
    -1.9052  -1.8978  -1.8941  -1.8699  -1.8553  -1.8498  -1.8347  -1.7739
    -1.7593  -1.7514  -1.7394  -1.7244  -1.7141  -1.7107  -1.6970  -1.6921
    -1.6880  -1.6757  -1.6573  -1.6484  -1.5951  -1.5790  -1.5720  -1.5309
    -1.5106  -1.4906  -1.4654  -1.4357  -1.4236  -1.4142  -1.4023  -1.3871
    -1.3399  -1.3362  -1.3065  -1.2627  -1.2091  -1.1997  -1.1871  -1.1661
    -1.1449  -1.1334  -1.1265  -1.1016  -1.0956  -1.0721  -1.0517  -1.0231
    -0.9901  -0.9824  -0.9601  -0.9408  -0.9304  -0.8915  -0.8774  -0.8744
    -0.8533  -0.8376  -0.8223  -0.8079  -0.7796  -0.7690  -0.7444  -0.5833
    -0.5731  -0.5683  -0.5592  -0.5492  -0.5444  -0.5282  -0.5230  -0.4853
    -0.4770  -0.4679  -0.4624  -0.4388  -0.3964  -0.3432  -0.3338  -0.3216
    -0.3145  -0.3022  -0.2872  -0.2500  -0.2433  -0.2351  -0.2264  -0.2182
    -0.2095  -0.1945  -0.1359  -0.1298  -0.1157  -0.1080  -0.0838  -0.0531
     0.1446   0.2639   0.5545   0.7566   1.0167   1.1713   1.2227   1.5662
     1.6753   1.7108

          k = 0.4000-0.4619 0.0000 ( 51262 PWs)   bands (ev):

   -21.9051  -9.1470  -6.7436  -6.6828  -6.1518  -6.0155  -5.7223  -5.4984
    -5.2327  -5.1785  -4.9141  -4.6796  -4.4715  -4.2340  -4.1848  -4.0768
    -4.0554  -4.0453  -4.0245  -4.0196  -3.9697  -3.9515  -3.9421  -3.9400
    -3.9171  -3.8575  -3.7939  -3.7866  -3.7659  -3.7629  -3.7107  -3.6176
    -3.6081  -3.6010  -3.5784  -3.5288  -3.4793  -3.4476  -3.3734  -3.3160
    -3.3087  -3.2638  -3.2286  -3.2105  -3.1832  -3.1293  -3.0976  -3.0897
    -3.0523  -3.0292  -2.9982  -2.9355  -2.9037  -2.8729  -2.8620  -2.8221
    -2.8077  -2.7352  -2.7295  -2.7184  -2.7058  -2.6950  -2.6725  -2.6413
    -2.5672  -2.5203  -2.5079  -2.4945  -2.4655  -2.4349  -2.4138  -2.3715
    -2.3680  -2.3277  -2.3170  -2.3114  -2.3029  -2.2831  -2.2586  -2.2579
    -2.2376  -2.2280  -2.2118  -2.1846  -2.1823  -2.1502  -2.1075  -2.0919
    -2.0748  -2.0449  -2.0155  -1.9882  -1.9672  -1.9449  -1.9332  -1.9235
    -1.9060  -1.8955  -1.8892  -1.8798  -1.8665  -1.8423  -1.8386  -1.7931
    -1.7734  -1.7511  -1.7421  -1.7332  -1.7145  -1.7093  -1.7025  -1.6905
    -1.6806  -1.6740  -1.6557  -1.6268  -1.5938  -1.5828  -1.5578  -1.5391
    -1.4894  -1.4842  -1.4605  -1.4415  -1.4267  -1.4139  -1.4042  -1.3827
    -1.3466  -1.3339  -1.3094  -1.2737  -1.2143  -1.1931  -1.1847  -1.1639
    -1.1497  -1.1354  -1.1306  -1.0989  -1.0802  -1.0653  -1.0507  -1.0338
    -0.9880  -0.9755  -0.9575  -0.9490  -0.9341  -0.8845  -0.8782  -0.8605
    -0.8562  -0.8355  -0.8310  -0.8140  -0.7855  -0.7654  -0.7386  -0.5947
    -0.5752  -0.5724  -0.5591  -0.5472  -0.5398  -0.5314  -0.5200  -0.4906
    -0.4777  -0.4640  -0.4560  -0.4460  -0.4053  -0.3563  -0.3351  -0.3293
    -0.3173  -0.3048  -0.2889  -0.2764  -0.2410  -0.2330  -0.2268  -0.2156
    -0.2107  -0.1427  -0.1361  -0.1279  -0.1163  -0.1058  -0.0853  -0.0558
     0.1195   0.2477   0.4797   0.8709   1.0647   1.1678   1.2650   1.5160
     1.6608   1.7148

 ------ SPIN DOWN ----------


          k = 0.0000 0.0000 0.0000 ( 51087 PWs)   bands (ev):

   -21.9943  -9.2649  -7.8007  -6.5982  -5.8009  -5.6178  -5.3983  -5.0355
    -4.6440  -4.6326  -4.6309  -4.6019  -4.5977  -4.5760  -4.2243  -3.7632
    -3.7611  -3.7424  -3.7289  -3.7191  -3.6627  -3.3323  -2.8241  -2.8162
    -2.8041  -2.8015  -2.7256  -2.5963  -2.3592  -2.3475  -2.3413  -2.3389
    -2.3144  -2.2245  -2.1494  -2.1448  -2.0778  -2.0580  -2.0488  -2.0486
    -1.9655  -1.9596  -1.9143  -1.9106  -1.8449  -1.8252  -1.8094  -1.8014
    -1.7628  -1.7305  -1.5611  -1.5538  -1.5431  -1.5358  -1.5281  -1.5257
    -1.5107  -1.5095  -1.4799  -1.4674  -1.4398  -1.4354  -1.4323  -1.4301
    -1.3633  -1.2619  -0.9136  -0.8792  -0.8542  -0.8523  -0.8052  -0.7365
    -0.6557  -0.6454  -0.5512  -0.5437  -0.5338  -0.5269  -0.5152  -0.4958
    -0.4799  -0.4709  -0.4520  -0.4459  -0.4361  -0.4352  -0.3915  -0.3741
    -0.3601  -0.3360  -0.3252  -0.3075  -0.2962  -0.2943  -0.2771  -0.2741
    -0.2666  -0.2619  -0.2512  -0.2466  -0.2453  -0.2374  -0.2178  -0.1609
    -0.1451  -0.1283  -0.1093  -0.0630  -0.0440  -0.0308  -0.0204  -0.0158
    -0.0141  -0.0123  -0.0053   0.0560   0.0635   0.0640   0.1113   0.1400
     0.1490   0.1554   0.1653   0.2020   0.2544   0.3724   0.3849   0.4284
     0.4473   0.4561   0.4631   0.4713   0.6140   0.6693   0.7515   0.7908
     0.8056   0.8525   0.9646   1.0078   1.0174   1.0239   1.0336   1.0388
     1.0795   1.1562   1.1810   1.2011   1.2059   1.2138   1.2192   1.2444
     1.2528   1.2640   1.2736   1.2907   1.3057   1.3166   1.3211   1.3492
     1.3529   1.3630   1.3672   1.3772   1.3964   1.4213   1.4252   1.4340
     1.4470   1.4495   1.4656   1.4772   1.4843   1.4934   1.4971   1.5316
     1.5397   1.5551   1.5574   1.5618   1.5698   1.5757   1.5827   1.6208
     1.6261   1.6280   1.6306   1.6355   1.6388   1.6505   1.6594   1.6649
     1.6665   1.7122   1.7134   1.8551   1.8614   1.8626   1.8678   1.8694
     1.8709   2.0604

          k = 0.0000 0.2309 0.0000 ( 51134 PWs)   bands (ev):

   -21.9943  -9.2535  -7.6596  -6.4962  -5.8701  -5.6660  -5.5218  -5.3637
    -5.0555  -4.9891  -4.8963  -4.4239  -4.1843  -4.0788  -4.0647  -3.9340
    -3.8387  -3.7833  -3.4748  -3.4014  -3.3377  -3.2668  -2.9745  -2.7977
    -2.7770  -2.7454  -2.6864  -2.5966  -2.4588  -2.3788  -2.3747  -2.3655
    -2.3312  -2.2987  -2.2913  -2.2880  -2.2374  -2.1950  -2.1097  -2.1073
    -2.0222  -2.0191  -1.9704  -1.8558  -1.8394  -1.8253  -1.8067  -1.7148
    -1.6830  -1.6559  -1.6150  -1.5795  -1.5644  -1.5427  -1.5319  -1.5288
    -1.5081  -1.5011  -1.4233  -1.4042  -1.3916  -1.3708  -1.3404  -1.3010
    -1.2440  -1.1644  -0.9713  -0.9231  -0.9092  -0.9002  -0.8427  -0.7838
    -0.7723  -0.7241  -0.6879  -0.6504  -0.6284  -0.5898  -0.5604  -0.5487
    -0.5170  -0.5090  -0.4883  -0.4796  -0.4747  -0.4600  -0.4338  -0.3916
    -0.3498  -0.3300  -0.3223  -0.3188  -0.3143  -0.2740  -0.2640  -0.2542
    -0.2460  -0.2348  -0.2320  -0.2254  -0.2221  -0.2196  -0.1921  -0.1708
    -0.1449  -0.1404  -0.1195  -0.1141  -0.1064  -0.0906  -0.0651  -0.0424
    -0.0299  -0.0121   0.0249   0.0597   0.0840   0.1011   0.1091   0.1302
     0.2336   0.2558   0.2877   0.3360   0.3544   0.3649   0.3996   0.4196
     0.4279   0.4350   0.4413   0.4503   0.5813   0.7000   0.7469   0.7716
     0.7845   0.7935   0.8059   0.8223   0.8612   0.8830   0.9275   0.9578
     1.0026   1.0281   1.0479   1.0781   1.0902   1.1136   1.1340   1.1371
     1.2037   1.2257   1.2449   1.2525   1.2655   1.2794   1.3175   1.3253
     1.3405   1.3594   1.3994   1.4177   1.4325   1.4392   1.4643   1.4889
     1.5075   1.5179   1.5230   1.5269   1.5476   1.5961   1.6076   1.6154
     1.6202   1.6450   1.6526   1.6830   1.6914   1.6958   1.7034   1.7088
     1.7276   1.7727   1.7776   1.7918   1.7928   1.8025   1.8111   1.8306
     1.8459   1.8538   1.8594   1.8838   1.9492   1.9623   1.9657   2.0261
     2.0425   2.0987

          k = 0.0000 0.4619 0.0000 ( 51204 PWs)   bands (ev):

   -21.9943  -9.2355  -7.2409  -6.5745  -6.2135  -5.8510  -5.5669  -5.3914
    -5.2206  -5.1540  -5.0819  -4.7303  -4.1293  -4.0411  -3.8061  -3.4684
    -3.4595  -3.3996  -3.3387  -3.1591  -3.1064  -3.0187  -2.9855  -2.8649
    -2.8599  -2.7927  -2.7541  -2.7121  -2.6526  -2.6236  -2.6031  -2.5678
    -2.5423  -2.4436  -2.3374  -2.3221  -2.2486  -2.2232  -2.1301  -2.1259
    -2.1182  -2.0888  -2.0535  -1.8351  -1.8149  -1.8073  -1.7628  -1.7290
    -1.6145  -1.6046  -1.5893  -1.5747  -1.5668  -1.5373  -1.5331  -1.5026
    -1.4939  -1.4248  -1.4198  -1.3966  -1.3732  -1.3562  -1.2171  -1.1893
    -1.0822  -1.0580  -0.9629  -0.9427  -0.9268  -0.8932  -0.8771  -0.8683
    -0.8473  -0.8154  -0.7901  -0.7745  -0.7298  -0.7026  -0.6871  -0.6413
    -0.6277  -0.6090  -0.5853  -0.5725  -0.5398  -0.4974  -0.4712  -0.4210
    -0.4068  -0.3961  -0.3734  -0.3336  -0.2982  -0.2801  -0.2634  -0.2420
    -0.2174  -0.2097  -0.1972  -0.1788  -0.1743  -0.1670  -0.1442  -0.1334
    -0.1083  -0.0978  -0.0819  -0.0635  -0.0566  -0.0545  -0.0424  -0.0190
    -0.0032   0.0194   0.0718   0.1239   0.1439   0.1468   0.1569   0.1955
     0.2086   0.2125   0.2403   0.2763   0.3032   0.3096   0.3264   0.3489
     0.3824   0.3908   0.4056   0.4164   0.4562   0.5487   0.5696   0.5920
     0.6446   0.6666   0.7246   0.7849   0.8131   0.8434   0.8628   0.8817
     0.9038   0.9271   0.9472   0.9641   0.9904   1.0942   1.1157   1.1639
     1.1753   1.2061   1.2387   1.2401   1.2773   1.2938   1.3180   1.3375
     1.3656   1.3808   1.3875   1.4504   1.4785   1.4953   1.5218   1.5299
     1.5389   1.5436   1.5666   1.5812   1.6075   1.6152   1.6280   1.6568
     1.6628   1.6969   1.7598   1.7644   1.7836   1.7867   1.8016   1.8181
     1.8265   1.8558   1.8615   1.8731   1.8892   1.8945   1.9036   1.9076
     1.9523   2.0024   2.0430   2.1129   2.1335   2.2149   2.5381   2.6008
     2.6429   2.6859

          k = 0.2000-0.1155 0.0000 ( 51134 PWs)   bands (ev):

   -21.9943  -9.2548  -7.6588  -6.4950  -5.8534  -5.6645  -5.5383  -5.3622
    -5.0688  -4.9826  -4.8879  -4.4613  -4.1249  -4.0811  -4.0597  -3.9531
    -3.8574  -3.7752  -3.4612  -3.4052  -3.3771  -3.2618  -2.9407  -2.8130
    -2.7770  -2.7294  -2.6847  -2.6187  -2.4442  -2.3802  -2.3764  -2.3600
    -2.3343  -2.2934  -2.2906  -2.2826  -2.2363  -2.2049  -2.1121  -2.1064
    -2.0208  -2.0177  -1.9558  -1.8767  -1.8392  -1.8278  -1.8146  -1.7120
    -1.6842  -1.6587  -1.6123  -1.5842  -1.5605  -1.5409  -1.5346  -1.5246
    -1.5157  -1.5045  -1.4182  -1.4058  -1.3931  -1.3750  -1.3371  -1.2939
    -1.2506  -1.1584  -0.9741  -0.9277  -0.9057  -0.9028  -0.8403  -0.8004
    -0.7430  -0.7189  -0.6900  -0.6507  -0.6291  -0.5831  -0.5629  -0.5501
    -0.5187  -0.5073  -0.4931  -0.4873  -0.4781  -0.4534  -0.4219  -0.3936
    -0.3587  -0.3252  -0.3214  -0.3113  -0.3013  -0.2810  -0.2597  -0.2521
    -0.2435  -0.2413  -0.2335  -0.2270  -0.2230  -0.2212  -0.1880  -0.1690
    -0.1534  -0.1400  -0.1261  -0.1146  -0.0944  -0.0817  -0.0638  -0.0405
    -0.0349  -0.0081   0.0154   0.0464   0.0894   0.0993   0.1181   0.1305
     0.2273   0.2497   0.2834   0.3347   0.3530   0.3558   0.4118   0.4180
     0.4282   0.4365   0.4404   0.4469   0.5855   0.6898   0.7625   0.7725
     0.7820   0.7858   0.8038   0.8128   0.8661   0.8785   0.9273   0.9548
     1.0037   1.0237   1.0474   1.0623   1.0873   1.1068   1.1318   1.1906
     1.2036   1.2184   1.2401   1.2481   1.2683   1.2751   1.3173   1.3248
     1.3426   1.3639   1.4029   1.4130   1.4293   1.4375   1.4613   1.4709
     1.5069   1.5182   1.5212   1.5257   1.5533   1.6058   1.6097   1.6187
     1.6232   1.6497   1.6515   1.6821   1.6880   1.6950   1.7016   1.7070
     1.7296   1.7726   1.7764   1.7893   1.7926   1.8030   1.8147   1.8310
     1.8515   1.8555   1.8590   1.8977   1.9505   1.9639   1.9648   2.0190
     2.0459   2.1087

          k = 0.2000 0.1155 0.0000 ( 51134 PWs)   bands (ev):

   -21.9943  -9.2528  -7.6605  -6.4983  -5.8982  -5.6546  -5.4644  -5.4038
    -5.0425  -4.9870  -4.9200  -4.3640  -4.2113  -4.0826  -4.0648  -3.9725
    -3.8238  -3.7815  -3.4786  -3.4114  -3.3131  -3.2495  -2.9842  -2.8270
    -2.7755  -2.7270  -2.7091  -2.5688  -2.4652  -2.3813  -2.3731  -2.3557
    -2.3424  -2.3058  -2.2932  -2.2890  -2.2520  -2.1750  -2.1082  -2.1068
    -2.0216  -2.0199  -1.9700  -1.8706  -1.8301  -1.8226  -1.8022  -1.7060
    -1.6903  -1.6628  -1.6055  -1.5937  -1.5623  -1.5439  -1.5291  -1.5239
    -1.5218  -1.4748  -1.4432  -1.3994  -1.3906  -1.3709  -1.3395  -1.2985
    -1.2384  -1.1730  -0.9752  -0.9265  -0.9100  -0.8971  -0.8389  -0.8127
    -0.7832  -0.6956  -0.6738  -0.6562  -0.6372  -0.5868  -0.5698  -0.5428
    -0.5215  -0.5066  -0.4897  -0.4798  -0.4744  -0.4551  -0.4475  -0.3767
    -0.3450  -0.3299  -0.3243  -0.3175  -0.3083  -0.2699  -0.2603  -0.2540
    -0.2478  -0.2366  -0.2316  -0.2281  -0.2228  -0.2210  -0.1894  -0.1733
    -0.1523  -0.1386  -0.1202  -0.1158  -0.1092  -0.0860  -0.0633  -0.0511
    -0.0273  -0.0062   0.0325   0.0697   0.0774   0.1004   0.1042   0.1299
     0.2039   0.2778   0.2981   0.3308   0.3488   0.3706   0.3997   0.4149
     0.4298   0.4319   0.4452   0.4508   0.6101   0.6783   0.7470   0.7694
     0.7874   0.7938   0.8082   0.8205   0.8572   0.8798   0.9292   0.9570
     0.9745   1.0386   1.0573   1.0736   1.0905   1.1204   1.1328   1.1401
     1.1976   1.2306   1.2420   1.2584   1.2744   1.2753   1.3161   1.3242
     1.3375   1.3656   1.4042   1.4210   1.4292   1.4396   1.4605   1.4879
     1.5029   1.5189   1.5251   1.5363   1.5409   1.5918   1.6007   1.6140
     1.6246   1.6464   1.6513   1.6830   1.6914   1.6985   1.7014   1.7096
     1.7290   1.7731   1.7781   1.7903   1.7919   1.8029   1.8137   1.8293
     1.8477   1.8522   1.8600   1.8726   1.9485   1.9606   1.9675   2.0199
     2.0482   2.0938

          k = 0.2000 0.3464 0.0000 ( 51202 PWs)   bands (ev):

   -21.9943  -9.2376  -7.3814  -6.3362  -6.1236  -6.0029  -5.6899  -5.4666
    -5.3838  -4.9830  -4.7115  -4.4387  -4.2730  -4.2670  -3.9147  -3.4472
    -3.4338  -3.4282  -3.4081  -3.2598  -3.1589  -3.1321  -3.1251  -2.9253
    -2.7651  -2.6891  -2.6802  -2.6764  -2.5967  -2.5675  -2.5382  -2.4817
    -2.4735  -2.4638  -2.4398  -2.3382  -2.3201  -2.2501  -2.0923  -2.0814
    -2.0465  -2.0040  -1.9689  -1.9532  -1.9267  -1.8012  -1.7472  -1.7300
    -1.6233  -1.6127  -1.5745  -1.5630  -1.5588  -1.5424  -1.5261  -1.5083
    -1.4995  -1.4848  -1.4183  -1.3849  -1.3389  -1.3037  -1.2102  -1.1674
    -1.1155  -1.0717  -1.0059  -0.9659  -0.9045  -0.8800  -0.8595  -0.8332
    -0.8089  -0.7812  -0.7740  -0.7193  -0.7022  -0.6876  -0.6779  -0.6535
    -0.6423  -0.6193  -0.5977  -0.5714  -0.5478  -0.4785  -0.4332  -0.4193
    -0.4090  -0.3891  -0.3556  -0.3344  -0.3295  -0.3010  -0.2937  -0.2733
    -0.2642  -0.2452  -0.2322  -0.2172  -0.2067  -0.1817  -0.1678  -0.1385
    -0.1266  -0.1165  -0.1069  -0.0965  -0.0886  -0.0739  -0.0637  -0.0468
     0.0157   0.0333   0.0477   0.0632   0.1534   0.1725   0.1918   0.2200
     0.2436   0.2552   0.2904   0.2938   0.3462   0.3587   0.3759   0.3792
     0.3889   0.4136   0.4665   0.4766   0.5234   0.5845   0.6605   0.6876
     0.7399   0.7746   0.7980   0.8240   0.8304   0.8376   0.8520   0.8871
     0.8913   0.9112   0.9155   0.9347   0.9701   1.0335   1.0717   1.0884
     1.1244   1.1390   1.1451   1.1688   1.1920   1.2391   1.2529   1.2870
     1.3312   1.4054   1.4382   1.4849   1.4974   1.5110   1.5300   1.5444
     1.5573   1.5652   1.5831   1.5943   1.6466   1.6672   1.6701   1.6771
     1.6904   1.7175   1.7315   1.7473   1.7496   1.7667   1.7718   1.8006
     1.8076   1.8135   1.8266   1.8427   1.8487   1.8697   1.9011   1.9302
     1.9482   1.9562   2.0346   2.0735   2.1802   2.2126   2.2839   2.5113
     2.5330   2.5429

          k = 0.2000-0.5774 0.0000 ( 51262 PWs)   bands (ev):

   -21.9943  -9.2305  -6.8685  -6.7937  -6.2276  -6.0355  -5.8111  -5.4894
    -5.2408  -5.2342  -4.8676  -4.5228  -4.3118  -3.7425  -3.5274  -3.4659
    -3.4632  -3.3658  -3.2169  -3.1306  -3.0584  -3.0443  -3.0378  -2.9114
    -2.9047  -2.8933  -2.8715  -2.8591  -2.7347  -2.6493  -2.5311  -2.5111
    -2.4977  -2.4771  -2.4390  -2.4298  -2.3909  -2.3256  -2.2016  -2.0630
    -1.9823  -1.9748  -1.9553  -1.9129  -1.8831  -1.7993  -1.7352  -1.7187
    -1.6919  -1.6768  -1.6645  -1.5734  -1.5284  -1.5009  -1.4887  -1.4759
    -1.4461  -1.3935  -1.3474  -1.3299  -1.2918  -1.2650  -1.2530  -1.1475
    -1.0990  -1.0447  -0.9687  -0.9521  -0.9364  -0.8836  -0.8747  -0.8367
[...]
     atom    8 type  1   force =    -0.00048340   -0.00319631   -0.10366393
     atom    9 type  1   force =    -0.00087252    0.00183949   -0.10470008
     atom   10 type  1   force =     0.00028263   -0.00104365   -0.01670740
     atom   11 type  1   force =     0.00054816   -0.00168421   -0.01067638
     atom   12 type  1   force =    -0.00058527    0.00177057   -0.01189548
     atom   13 type  1   force =    -0.00015161    0.00220918   -0.01066224
     atom   14 type  1   force =     0.00105082    0.00059477   -0.00646730
     atom   15 type  1   force =    -0.00108613   -0.00040456   -0.01036830
     atom   16 type  1   force =     0.00111863   -0.00215239   -0.01337331
     atom   17 type  1   force =     0.00040361    0.00023869   -0.00963049
     atom   18 type  1   force =    -0.00085038   -0.00041477   -0.01358687
     atom   19 type  1   force =    -0.00119880   -0.00167789    0.00778478
     atom   20 type  1   force =    -0.00624380    0.00077805    0.00012193
     atom   21 type  1   force =     0.00825045   -0.00735161   -0.00105050
     atom   22 type  1   force =     0.00062752    0.00070004    0.01207097
     atom   23 type  1   force =    -0.00303031    0.00818287    0.00022326
     atom   24 type  1   force =     0.00126581   -0.00064832    0.01381872
     atom   25 type  1   force =     0.00047744    0.00040432    0.02033085
     atom   26 type  1   force =    -0.00563939    0.00035836   -0.00096814
     atom   27 type  1   force =     0.00540920   -0.00078589    0.00852547
     atom   28 type  1   force =     0.00009528    0.00178949    0.11731086
     atom   29 type  1   force =     0.01132488    0.05118927    0.08767436
     atom   30 type  1   force =    -0.01474572    0.01423709    0.13544360
     atom   31 type  1   force =     0.04347632   -0.02256390    0.13586594
     atom   32 type  1   force =    -0.04629143   -0.04170056    0.05508681
     atom   33 type  1   force =    -0.01673162    0.00967042    0.11095974
     atom   34 type  1   force =     0.00672003   -0.00710006    0.12568279
     atom   35 type  1   force =     0.00440073    0.00247587    0.07956471
     atom   36 type  1   force =    -0.00216367   -0.00281151    0.10971397
     atom   37 type  2   force =    -0.08973577    0.03571406    0.42002167
     atom   38 type  3   force =     0.27519118   -0.07280794   -2.68736275
     atom   39 type  4   force =    -0.00328394   -0.00009330   -0.02207849
     The ionic contribution  to forces
     atom    1 type  1   force =    -0.00581551   -0.00026615 -111.13588910
     atom    2 type  1   force =    -0.00341769    0.00003852 -111.15443000
     atom    3 type  1   force =     0.00923314   -0.00159992 -111.14270264
     atom    4 type  1   force =    -0.00434564    0.00629663 -111.13558939
     atom    5 type  1   force =     0.00150178    0.00861237 -111.14128028
     atom    6 type  1   force =     0.00284385    0.00048532 -111.13264574
     atom    7 type  1   force =     0.00056354   -0.00048930 -111.12939515
     atom    8 type  1   force =    -0.00485823   -0.00473983 -111.13790368
     atom    9 type  1   force =     0.00429475   -0.00833764 -111.13904591
     atom   10 type  1   force =    -0.03835557   -0.01824834  -40.06678379
     atom   11 type  1   force =    -0.01263622   -0.06059470  -40.16986014
     atom   12 type  1   force =     0.05097981   -0.04065303  -40.09104445
     atom   13 type  1   force =    -0.06149280    0.03128593  -40.14530290
     atom   14 type  1   force =     0.03548584    0.03066742  -40.19800668
     atom   15 type  1   force =     0.02601400    0.00475673  -40.07609076
     atom   16 type  1   force =    -0.01325474    0.05226278  -40.07428130
     atom   17 type  1   force =     0.00897004    0.01155326  -40.08254674
     atom   18 type  1   force =     0.00428993   -0.01103114  -40.05618070
     atom   19 type  1   force =    -0.28686622   -0.01002273   31.52285392
     atom   20 type  1   force =    -0.18231029    0.01735636   30.49443010
     atom   21 type  1   force =     0.46617473   -0.09569067   31.19667420
     atom   22 type  1   force =    -0.20550484    0.29941114   31.53604475
     atom   23 type  1   force =     0.05754474    0.43247102   31.25566633
     atom   24 type  1   force =     0.14677103    0.03345685   31.63549557
     atom   25 type  1   force =     0.02492853   -0.01948800   31.78902511
     atom   26 type  1   force =    -0.23546357   -0.24155122   31.43254121
     atom   27 type  1   force =     0.21153521   -0.41428450   31.36938403
     atom   28 type  1   force =    -1.31046451   -0.62505560  104.15238102
     atom   29 type  1   force =    -0.84950500   -4.51729894   99.51875960
     atom   30 type  1   force =     1.91710404   -1.39012990  103.64219150
     atom   31 type  1   force =    -3.45428955    1.91493829  101.28964361
     atom   32 type  1   force =     2.44653059    2.16710047   98.50469320
     atom   33 type  1   force =     1.22853168   -0.15022416  103.94042491
     atom   34 type  1   force =    -0.41190045    1.69804191  104.07242569
     atom   35 type  1   force =     0.35991723    1.11400933  103.63171231
     atom   36 type  1   force =     0.13152296   -0.33601569  104.44837808
     atom   37 type  2   force =     0.56214927   -0.30571489   51.13814531
     atom   38 type  3   force =    -1.13662624    0.14570633   89.57616731
     atom   39 type  4   force =     0.52022039    0.28298567   15.06194159
     The local contribution  to forces
     atom    1 type  1   force =     0.00628969   -0.00046129  111.24187280
     atom    2 type  1   force =     0.00423090   -0.00183707  111.26229793
     atom    3 type  1   force =    -0.01051070    0.00383117  111.25089750
     atom    4 type  1   force =     0.00295975   -0.00393195  111.24382182
     atom    5 type  1   force =    -0.00054683   -0.01136777  111.25068425
     atom    6 type  1   force =    -0.00209904   -0.00033406  111.23604113
     atom    7 type  1   force =    -0.00181440   -0.00004664  111.23422147
     atom    8 type  1   force =     0.00612491    0.00724847  111.24511951
     atom    9 type  1   force =    -0.00414255    0.00652948  111.24527301
     atom   10 type  1   force =     0.03897784    0.01847923   40.06444554
     atom   11 type  1   force =     0.01023581    0.06131051   40.16069971
     atom   12 type  1   force =    -0.04952098    0.03784833   40.08565872
     atom   13 type  1   force =     0.06041733   -0.03347399   40.13774048
     atom   14 type  1   force =    -0.03568116   -0.02980610   40.18402066
     atom   15 type  1   force =    -0.02449038   -0.00522023   40.06620494
     atom   16 type  1   force =     0.01278408   -0.04961972   40.06881759
     atom   17 type  1   force =    -0.00913816   -0.01129641   40.07170845
     atom   18 type  1   force =    -0.00235006    0.01164246   40.04829192
     atom   19 type  1   force =     0.28547806    0.01115935  -31.50883647
     atom   20 type  1   force =     0.18952236   -0.01789858  -30.47856793
     atom   21 type  1   force =    -0.47278306    0.09930649  -31.18213616
     atom   22 type  1   force =     0.20513052   -0.29766435  -31.52775786
     atom   23 type  1   force =    -0.05671362   -0.44000248  -31.24296171
     atom   24 type  1   force =    -0.14735422   -0.03172416  -31.62726386
     atom   25 type  1   force =    -0.02657158    0.01878298  -31.78395989
     atom   26 type  1   force =     0.23952790    0.24094170  -31.41649744
     atom   27 type  1   force =    -0.21339598    0.41469425  -31.36160388
     atom   28 type  1   force =     1.30775813    0.62189976 -104.27794098
     atom   29 type  1   force =     0.83215491    4.44983411  -99.60149034
     atom   30 type  1   force =    -1.89487215    1.36587409 -103.78685269
     atom   31 type  1   force =     3.40179120   -1.88845798 -101.42861754
     atom   32 type  1   force =    -2.40384620   -2.12302155  -98.54617916
     atom   33 type  1   force =    -1.20769247    0.13930802 -104.05469371
     atom   34 type  1   force =     0.39966626   -1.68290008 -104.20748334
     atom   35 type  1   force =    -0.36176811   -1.10458166 -103.71669279
     atom   36 type  1   force =    -0.12715193    0.34083898 -104.56817846
     atom   37 type  2   force =    -0.47614375    0.27370084  -51.54943298
     atom   38 type  3   force =     0.86448268   -0.07407825  -86.92040743
     atom   39 type  4   force =    -0.50529965   -0.28208856  -15.04542660
     The core correction contribution to forces
     atom    1 type  1   force =     0.00006399    0.00007513    0.01000036
     atom    2 type  1   force =     0.00034596   -0.00009673    0.00942875
     atom    3 type  1   force =    -0.00015736    0.00011045    0.01015361
     atom    4 type  1   force =    -0.00013065   -0.00005983    0.00987305
     atom    5 type  1   force =    -0.00015362   -0.00008245    0.01020202
     atom    6 type  1   force =     0.00010047    0.00017244    0.00987516
     atom    7 type  1   force =     0.00003468    0.00014614    0.01016947
     atom    8 type  1   force =    -0.00013644    0.00002893    0.01004044
     atom    9 type  1   force =    -0.00011261   -0.00008732    0.00987832
     atom   10 type  1   force =    -0.00009553   -0.00007651   -0.00187889
     atom   11 type  1   force =    -0.00007776   -0.00004731   -0.00195643
     atom   12 type  1   force =     0.00018966   -0.00044664   -0.00174886
     atom   13 type  1   force =    -0.00011448   -0.00017325   -0.00191138
     atom   14 type  1   force =     0.00024894    0.00008808   -0.00177268
     atom   15 type  1   force =     0.00007592    0.00013362   -0.00192658
     atom   16 type  1   force =    -0.00014934    0.00032341   -0.00166417
     atom   17 type  1   force =     0.00011854   -0.00019406   -0.00188799
     atom   18 type  1   force =     0.00013998    0.00011203   -0.00166482
     atom   19 type  1   force =     0.00016450   -0.00056301    0.00155982
     atom   20 type  1   force =    -0.00126733   -0.00044381    0.00115399
     atom   21 type  1   force =     0.00079868   -0.00071859    0.00038928
     atom   22 type  1   force =    -0.00019255    0.00069679    0.00142191
     atom   23 type  1   force =    -0.00005410    0.00092191    0.00097254
     atom   24 type  1   force =     0.00033323    0.00033285    0.00200310
     atom   25 type  1   force =     0.00012759   -0.00000458    0.00197199
     atom   26 type  1   force =    -0.00043611    0.00061946    0.00129882
     atom   27 type  1   force =     0.00080811   -0.00049761    0.00089950
     atom   28 type  1   force =     0.00184388    0.00042313   -0.00928337
     atom   29 type  1   force =     0.00234053    0.01020002   -0.00533001
     atom   30 type  1   force =    -0.00382692    0.00330285   -0.00773639
     atom   31 type  1   force =     0.00688849   -0.00415672   -0.00537648
     atom   32 type  1   force =     0.00010044   -0.00214371    0.00031685
     atom   33 type  1   force =    -0.00786634    0.00403156   -0.00609540
     atom   34 type  1   force =     0.00264206   -0.00309947   -0.00790163
     atom   35 type  1   force =    -0.00174747   -0.01022427   -0.00552011
     atom   36 type  1   force =    -0.00138828    0.00018521   -0.00999523
     atom   37 type  2   force =     0.00081403   -0.00055776   -0.00119654
     atom   38 type  3   force =    -0.00201653    0.00054312    0.01969458
     atom   39 type  4   force =     0.00000000    0.00000000    0.00000000
     The Hubbard contrib.    to forces
     atom    1 type  1   force =     0.00000000    0.00000000    0.00000000
     atom    2 type  1   force =     0.00000000    0.00000000    0.00000000
     atom    3 type  1   force =     0.00000000    0.00000000    0.00000000
     atom    4 type  1   force =     0.00000000    0.00000000    0.00000000
     atom    5 type  1   force =     0.00000000    0.00000000    0.00000000
     atom    6 type  1   force =     0.00000000    0.00000000    0.00000000
     atom    7 type  1   force =     0.00000000    0.00000000    0.00000000
     atom    8 type  1   force =     0.00000000    0.00000000    0.00000000
     atom    9 type  1   force =     0.00000000    0.00000000    0.00000000
     atom   10 type  1   force =     0.00000000    0.00000000    0.00000000
     atom   11 type  1   force =     0.00000000    0.00000000    0.00000000
     atom   12 type  1   force =     0.00000000    0.00000000    0.00000000
     atom   13 type  1   force =     0.00000000    0.00000000    0.00000000
     atom   14 type  1   force =     0.00000000    0.00000000    0.00000000
     atom   15 type  1   force =     0.00000000    0.00000000    0.00000000
     atom   16 type  1   force =     0.00000000    0.00000000    0.00000000
     atom   17 type  1   force =     0.00000000    0.00000000    0.00000000
     atom   18 type  1   force =     0.00000000    0.00000000    0.00000000
     atom   19 type  1   force =     0.00000000    0.00000000    0.00000000
     atom   20 type  1   force =     0.00000000    0.00000000    0.00000000
     atom   21 type  1   force =     0.00000000    0.00000000    0.00000000
     atom   22 type  1   force =     0.00000000    0.00000000    0.00000000
     atom   23 type  1   force =     0.00000000    0.00000000    0.00000000
     atom   24 type  1   force =     0.00000000    0.00000000    0.00000000
     atom   25 type  1   force =     0.00000000    0.00000000    0.00000000
     atom   26 type  1   force =     0.00000000    0.00000000    0.00000000
     atom   27 type  1   force =     0.00000000    0.00000000    0.00000000
     atom   28 type  1   force =     0.00000000    0.00000000    0.00000000
     atom   29 type  1   force =     0.00000000    0.00000000    0.00000000
     atom   30 type  1   force =     0.00000000    0.00000000    0.00000000
     atom   31 type  1   force =     0.00000000    0.00000000    0.00000000
     atom   32 type  1   force =     0.00000000    0.00000000    0.00000000
     atom   33 type  1   force =     0.00000000    0.00000000    0.00000000
     atom   34 type  1   force =     0.00000000    0.00000000    0.00000000
     atom   35 type  1   force =     0.00000000    0.00000000    0.00000000
     atom   36 type  1   force =     0.00000000    0.00000000    0.00000000
     atom   37 type  2   force =     0.00000000    0.00000000    0.00000000
     atom   38 type  3   force =     0.00000000    0.00000000    0.00000000
     atom   39 type  4   force =     0.00000000    0.00000000    0.00000000
     The SCF correction term to forces
     atom    1 type  1   force =     0.00000000    0.00000000    0.00000000
     atom    2 type  1   force =    -0.00000000    0.00000000    0.00000000
     atom    3 type  1   force =     0.00000000    0.00000000    0.00000000
     atom    4 type  1   force =    -0.00000000   -0.00000000    0.00000000
     atom    5 type  1   force =     0.00000000    0.00000000    0.00000000
     atom    6 type  1   force =     0.00000000    0.00000000    0.00000000
     atom    7 type  1   force =     0.00000000   -0.00000000    0.00000000
     atom    8 type  1   force =    -0.00000000   -0.00000000    0.00000000
     atom    9 type  1   force =    -0.00000000   -0.00000000    0.00000000
     atom   10 type  1   force =    -0.00000000    0.00000000   -0.00000000
     atom   11 type  1   force =     0.00000000   -0.00000000   -0.00000000
     atom   12 type  1   force =     0.00000000   -0.00000000    0.00000000
     atom   13 type  1   force =    -0.00000000    0.00000000   -0.00000000
     atom   14 type  1   force =     0.00000000    0.00000000    0.00000000
     atom   15 type  1   force =     0.00000000    0.00000000   -0.00000000
     atom   16 type  1   force =    -0.00000000    0.00000000   -0.00000000
     atom   17 type  1   force =     0.00000000   -0.00000000   -0.00000000
     atom   18 type  1   force =    -0.00000000    0.00000000   -0.00000000
     atom   19 type  1   force =    -0.00000000    0.00000000   -0.00000000
     atom   20 type  1   force =     0.00000000    0.00000000   -0.00000000
     atom   21 type  1   force =     0.00000000   -0.00000000   -0.00000000
     atom   22 type  1   force =    -0.00000000    0.00000000   -0.00000000
     atom   23 type  1   force =     0.00000000   -0.00000000   -0.00000000
     atom   24 type  1   force =     0.00000000   -0.00000000   -0.00000000
     atom   25 type  1   force =    -0.00000000    0.00000000   -0.00000000
     atom   26 type  1   force =    -0.00000000   -0.00000000   -0.00000000
     atom   27 type  1   force =     0.00000000   -0.00000000   -0.00000000
     atom   28 type  1   force =     0.00000000   -0.00000000   -0.00000000
     atom   29 type  1   force =    -0.00000000   -0.00000000   -0.00000000
     atom   30 type  1   force =     0.00000000    0.00000000   -0.00000000
     atom   31 type  1   force =    -0.00000000    0.00000000   -0.00000000
     atom   32 type  1   force =     0.00000000    0.00000000   -0.00000000
     atom   33 type  1   force =    -0.00000000    0.00000000   -0.00000000
     atom   34 type  1   force =     0.00000000   -0.00000000   -0.00000000
     atom   35 type  1   force =     0.00000000   -0.00000000   -0.00000000
     atom   36 type  1   force =    -0.00000000   -0.00000000   -0.00000000
     atom   37 type  2   force =    -0.00000079    0.00001184    0.00000233
     atom   38 type  3   force =    -0.00000018    0.00000459   -0.00000130
     atom   39 type  4   force =     0.00000075    0.00000493   -0.00000286

     Total force =     0.019646     Total SCF correction =     0.000014

     Writing all to output data dir ./pwscf.save/

     init_run     :     11.33s CPU     11.77s WALL (       1 calls)
     electrons    :    920.70s CPU    940.03s WALL (       1 calls)
     forces       :      3.47s CPU      3.57s WALL (       1 calls)

     Called by init_run:
     wfcinit      :      8.15s CPU      8.48s WALL (       1 calls)
     potinit      :      2.01s CPU      2.08s WALL (       1 calls)
     hinit0       :      0.92s CPU      0.94s WALL (       1 calls)

     Called by electrons:
     c_bands      :    774.09s CPU    790.80s WALL (      52 calls)
     sum_band     :    102.94s CPU    104.37s WALL (      52 calls)
     v_of_rho     :      8.92s CPU      9.33s WALL (      53 calls)
     newd         :      3.35s CPU      3.41s WALL (      53 calls)
     PAW_pot      :     16.72s CPU     16.89s WALL (      53 calls)
     mix_rho      :     15.82s CPU     16.13s WALL (      52 calls)
     vdW_kernel   :      1.11s CPU      1.13s WALL (       1 calls)

     Called by c_bands:
     init_us_2    :      8.99s CPU      9.15s WALL (    2756 calls)
     init_us_2:cp :      8.98s CPU      9.14s WALL (    2756 calls)
     cegterg      :    748.70s CPU    764.69s WALL (    1352 calls)

     Called by *egterg:
     cdiaghg      :    207.89s CPU    210.53s WALL (    4808 calls)
     h_psi        :    357.24s CPU    366.66s WALL (    4834 calls)
     s_psi        :     38.48s CPU     39.32s WALL (    4834 calls)
     g_psi        :      0.96s CPU      0.98s WALL (    3456 calls)

     Called by h_psi:
     h_psi:calbec :     58.49s CPU     59.87s WALL (    4834 calls)
     vloc_psi     :    257.05s CPU    263.71s WALL (    4834 calls)
     add_vuspsi   :     39.37s CPU     40.52s WALL (    4834 calls)

     General routines
     calbec       :     86.12s CPU     87.80s WALL (    6290 calls)
     fft          :      5.88s CPU      6.31s WALL (    4794 calls)
     ffts         :      9.57s CPU      9.78s WALL (   22007 calls)
     fftw         :    300.79s CPU    308.00s WALL ( 1401772 calls)
     interpolate  :      0.56s CPU      0.58s WALL (     106 calls)

     Parallel routines

     PWSCF        :  15m40.99s CPU  16m 6.20s WALL


   This run was terminated on:   9:58:46  17Dec2025            

=------------------------------------------------------------------------------=
   JOB DONE.
=------------------------------------------------------------------------------=
