
     Program PWSCF v.7.1 starts on 22Feb2025 at 21:55: 3 
        Git branch: heads/qe-7.1
        Last git commit: 48ba0178f8fede6d020eb786884699a9f063f55d-dirty
        Last git commit date: Fri Jan 27 14:22:33 2023 +0000
        Last git commit subject: Merge branch 'fix_hubbard' into 'develop'

     This program is part of the open-source Quantum ESPRESSO suite
     for quantum simulation of materials; please cite
         "P. Giannozzi et al., J. Phys.:Condens. Matter 21 395502 (2009);
         "P. Giannozzi et al., J. Phys.:Condens. Matter 29 465901 (2017);
         "P. Giannozzi et al., J. Chem. Phys. 152 154105 (2020);
          URL http://www.quantum-espresso.org", 
     in publications or presentations arising from this work. More details at
     http://www.quantum-espresso.org/quote

     Parallel version (MPI), running on    48 processors

     MPI processes distributed on     1 nodes
     16920 MiB available memory on the printing compute node when the environment starts

     Reading input from espresso.pwi
Warning: card &CELL ignored
Warning: card / ignored
Warning: card &FCP ignored
Warning: card / ignored
Warning: card &RISM ignored
Warning: card / ignored

     Current dimensions of program PWSCF are:
     Max number of different atomic species (ntypx) = 10
     Max number of k-points (npk) =  40000
     Max angular momentum in pseudopotentials (lmaxx) =  4
     file Pt.pbe-n-kjpaw_psl.1.0.0.UPF: wavefunction(s)  6S 5D renormalized
     file H.pbe-kjpaw_psl.1.0.0.UPF: wavefunction(s)  1S renormalized

     **************************************************************************
     Initializing libbeef V0.1.2 with the BEEF-vdW functional.
     Citation: Wellendorff et al., PRB 85, 235149 (2012).
     **************************************************************************


     IMPORTANT: XC functional enforced from input :
     Exchange-correlation= BEEF-VDW
                           (   1   4  43  14   2   0   0)
     Any further DFT definition will be discarded
     Please, verify this is what you really want


     R & G space division:  proc/nbgrp/npool/nimage =      48
     Subspace diagonalization in iterative solution of the eigenvalue problem:
     one sub-group per band group will be used
     custom distributed-memory algorithm (size of sub-group:  2*  2 procs)


     Parallelization info
     --------------------
     sticks:   dense  smooth     PW     G-vecs:    dense   smooth      PW
     Min         151      59     16                29407     7165    1028
     Max         152      60     17                29420     7176    1042
     Sum        7267    2839    769              1411785   344073   49691

     Using Slab Decomposition



     bravais-lattice index     =            0
     lattice parameter (alat)  =      16.0349  a.u.
     unit-cell volume          =   10068.6169 (a.u.)^3
     number of atoms/cell      =           37
     number of atomic types    =            2
     number of electrons       =       361.00
     number of Kohn-Sham states=          217
     kinetic-energy cutoff     =      40.0000  Ry
     charge density cutoff     =     410.0000  Ry
     scf convergence threshold =      1.0E-06
     mixing beta               =       0.7000
     number of iterations used =            8  local-TF  mixing
     Exchange-correlation= BEEF-VDW
                           (   1   4  43  14   2   0   0)

     celldm(1)=  16.034858  celldm(2)=   0.000000  celldm(3)=   0.000000
     celldm(4)=   0.000000  celldm(5)=   0.000000  celldm(6)=   0.000000

     crystal axes: (cart. coord. in units of alat)
               a(1) = (   1.000000   0.000000   0.000000 )  
               a(2) = (   0.500000   0.866025   0.000000 )  
               a(3) = (   0.000000   0.000000   2.819966 )  

     reciprocal axes: (cart. coord. in units 2 pi/alat)
               b(1) = (  1.000000 -0.577350  0.000000 )  
               b(2) = (  0.000000  1.154701  0.000000 )  
               b(3) = (  0.000000  0.000000  0.354614 )  


     PseudoPot. # 1 for Pt read from file:
     /users/kbadger1/espresso/pseudo/pslibrary.1.0.0/pbe/PSEUDOPOTENTIALS/Pt.pbe-n-kjpaw_psl.1.0.0.UPF
     MD5 check sum: 2e24a0b5bf98a4ed1a57fa81bca8c143
     Pseudo is Projector augmented-wave + core cor, Zval = 10.0
     Generated using 'atomic' code by A. Dal Corso  v.7.0
     Shape of augmentation charge: PSQ
     Using radial grid of 1277 points,  6 beta functions with: 
                l(1) =   0
                l(2) =   0
                l(3) =   1
                l(4) =   1
                l(5) =   2
                l(6) =   2
     Q(r) pseudized with 0 coefficients 


     PseudoPot. # 2 for H  read from file:
     /users/kbadger1/espresso/pseudo/pslibrary.1.0.0/pbe/PSEUDOPOTENTIALS/H.pbe-kjpaw_psl.1.0.0.UPF
     MD5 check sum: fe4c6fa958fa6d3815bf5d2419cbf1df
     Pseudo is Projector augmented-wave, Zval =  1.0
     Generated using 'atomic' code by A. Dal Corso  v.7.0
     Shape of augmentation charge: PSQ
     Using radial grid of  929 points,  2 beta functions with: 
                l(1) =   0
                l(2) =   0
     Q(r) pseudized with 0 coefficients 


     atomic species   valence    mass     pseudopotential
        Pt            10.00   195.08400     Pt( 1.00)
        H              1.00     1.00800     H ( 1.00)

     No symmetry found



   Cartesian axes

     site n.     atom                  positions (alat units)
         1           Pt  tau(   1) = (   0.0000000   0.0000000   1.0017346  )
         2           Pt  tau(   2) = (   0.3333333   0.0000000   1.0017346  )
         3           Pt  tau(   3) = (   0.6666667   0.0000000   1.0017346  )
         4           Pt  tau(   4) = (   0.1666667   0.2886751   1.0017346  )
         5           Pt  tau(   5) = (   0.5000000   0.2886751   1.0017346  )
         6           Pt  tau(   6) = (   0.8333333   0.2886751   1.0017346  )
         7           Pt  tau(   7) = (   0.3333333   0.5773503   1.0017346  )
         8           Pt  tau(   8) = (   0.6666667   0.5773503   1.0017346  )
         9           Pt  tau(   9) = (   1.0000000   0.5773503   1.0017346  )
        10           Pt  tau(  10) = (   0.1666667   0.0962250   1.2739001  )
        11           Pt  tau(  11) = (   0.5000000   0.0962250   1.2739001  )
        12           Pt  tau(  12) = (   0.8333333   0.0962250   1.2739001  )
        13           Pt  tau(  13) = (   0.3333333   0.3849002   1.2739001  )
        14           Pt  tau(  14) = (   0.6666667   0.3849002   1.2739001  )
        15           Pt  tau(  15) = (   1.0000000   0.3849002   1.2739001  )
        16           Pt  tau(  16) = (   0.5000000   0.6735753   1.2739001  )
        17           Pt  tau(  17) = (   0.8333333   0.6735753   1.2739001  )
        18           Pt  tau(  18) = (   1.1666667   0.6735753   1.2739001  )
        19           Pt  tau(  19) = (   0.0011431   0.1929238   1.5437501  )
        20           Pt  tau(  20) = (   0.3333291   0.1924836   1.5452067  )
        21           Pt  tau(  21) = (   0.6673476   0.1925909   1.5422496  )
        22           Pt  tau(  22) = (   0.1667914   0.4799215   1.5445174  )
        23           Pt  tau(  23) = (   0.5004359   0.4816972   1.5422412  )
        24           Pt  tau(  24) = (   0.8338052   0.4814309   1.5426391  )
        25           Pt  tau(  25) = (   0.3331374   0.7697229   1.5417371  )
        26           Pt  tau(  26) = (   0.6676199   0.7706042   1.5437475  )
        27           Pt  tau(  27) = (   0.9989892   0.7705622   1.5445194  )
        28           Pt  tau(  28) = (  -0.0022799  -0.0012448   1.8155423  )
        29           Pt  tau(  29) = (   0.3368294  -0.0004177   1.8258864  )
        30           Pt  tau(  30) = (   0.6682218   0.0007325   1.8168775  )
        31           Pt  tau(  31) = (   0.1679858   0.2920226   1.8258873  )
        32           Pt  tau(  32) = (   0.5053041   0.2918155   1.8160099  )
        33           Pt  tau(  33) = (   0.8348123   0.2896128   1.8168931  )
        34           Pt  tau(  34) = (   0.3346923   0.5784439   1.8168652  )
        35           Pt  tau(  35) = (   0.6681569   0.5782704   1.8168866  )
        36           Pt  tau(  36) = (   1.0012824   0.5781610   1.8172500  )
        37           H   tau(  37) = (   0.2491310   0.1439057   1.9461944  )

     number of k points=    13  Marzari-Vanderbilt smearing, width (Ry)=  0.0200
                       cart. coord. in units 2pi/alat
        k(    1) = (   0.0000000   0.0000000   0.0000000), wk =   0.0800000
        k(    2) = (   0.0000000   0.2309401   0.0000000), wk =   0.1600000
        k(    3) = (   0.0000000   0.4618802   0.0000000), wk =   0.1600000
        k(    4) = (   0.2000000  -0.1154701   0.0000000), wk =   0.1600000
        k(    5) = (   0.2000000   0.1154701   0.0000000), wk =   0.1600000
        k(    6) = (   0.2000000   0.3464102   0.0000000), wk =   0.1600000
        k(    7) = (   0.2000000  -0.5773503   0.0000000), wk =   0.1600000
        k(    8) = (   0.2000000  -0.3464102   0.0000000), wk =   0.1600000
        k(    9) = (   0.4000000  -0.2309401   0.0000000), wk =   0.1600000
        k(   10) = (   0.4000000  -0.0000000   0.0000000), wk =   0.1600000
        k(   11) = (   0.4000000   0.2309401   0.0000000), wk =   0.1600000
        k(   12) = (   0.4000000  -0.6928203   0.0000000), wk =   0.1600000
        k(   13) = (   0.4000000  -0.4618802   0.0000000), wk =   0.1600000

     Dense  grid:  1411785 G-vectors     FFT dimensions: ( 108, 108, 300)

     Smooth grid:   344073 G-vectors     FFT dimensions: (  72,  72, 192)

     Estimated max dynamical RAM per process >     203.68 MB

     Estimated total dynamical RAM >       9.55 GB

     Initial potential from superposition of free atoms

     starting charge     360.9939, renormalised to     361.0000

     negative rho (up, down):  3.367E-03 0.000E+00


     %%%%%%%%%%%%%%%%%%%%%%%%%%%%%%%%%%%%%%%%%%%%%%%%%%%%%%%%%%%%%%%%%%%%%%%%
     %                                                                      %
     % You are using vdW-DF, which was implemented by the Thonhauser group. %
     % Please cite the following two papers that made this development      %
     % possible and the two reviews that describe the various versions:     %
     %                                                                      %
     %   T. Thonhauser et al., PRL 115, 136402 (2015).                      %
     %   T. Thonhauser et al., PRB 76, 125112 (2007).                       %
     %   K. Berland et al., Rep. Prog. Phys. 78, 066501 (2015).             %
     %   D.C. Langreth et al., J. Phys.: Condens. Matter 21, 084203 (2009). %
     %                                                                      %
     % If you are calculating stress with vdW-DF, please also cite:         %
     %                                                                      %
     %   R. Sabatini et al., J. Phys.: Condens. Matter 24, 424209 (2012).   %
     %                                                                      %
     %%%%%%%%%%%%%%%%%%%%%%%%%%%%%%%%%%%%%%%%%%%%%%%%%%%%%%%%%%%%%%%%%%%%%%%%

     %%%%%%%%%%%%%%%%%%%%%%%%%%%%%%%%%%%%%%%%%%%%%%%%%%%%%%%%%%%%%%%%%%%%%%%%
     %                                                                      %
     %  vdW-DF NEWS:                                                        %
     %                                                                      %
     %  * vdW-DF3 is now available. DOI: 10.1021/acs.jctc.0c00471           %
     %    use with input_dft = 'vdW-DF3-opt1' or 'vdW-DF3-opt2'             %
     %                                                                      %
     %  * Unscreened and range-separated hybrid vdW-DF-cx functionals       %
     %    DOI: 10.1063/1.4986522 and 10.1088/1361-648X/ac2ad2               %
     %    use with input_dft = 'vdW-DF-cx0'    and 'vdW-DF-ahcx'            %
     %  * Unscreened and range-separated hybrid vdW-DF2-b86r functionals    %
     %    DOI: 10.1063/1.4986522 and DOI: 10.1103/PhysRevX.12.041003        %
     %    use with input_dft = 'vdW-DF2-br0' and 'vdW-DF2-ahbr'             %
     %                                                                      %
     %%%%%%%%%%%%%%%%%%%%%%%%%%%%%%%%%%%%%%%%%%%%%%%%%%%%%%%%%%%%%%%%%%%%%%%%


     Starting wfcs are  325 randomized atomic wfcs
     Checking if some PAW data can be deallocated... 

     total cpu time spent up to now is       10.6 secs

     per-process dynamical memory:   207.7 Mb

     Self-consistent Calculation

     iteration #  1     ecut=    40.00 Ry     beta= 0.70
     Davidson diagonalization with overlap
     ethr =  1.00E-02,  avg # of iterations =  2.0

     Threshold (ethr) on eigenvalues was too large:
     Diagonalizing with lowered threshold

     Davidson diagonalization with overlap
     ethr =  3.75E-04,  avg # of iterations =  3.6

     negative rho (up, down):  1.775E-02 0.000E+00

     total cpu time spent up to now is       45.8 secs

     total energy              =  -27755.28371033 Ry
     estimated scf accuracy    <       1.55441170 Ry

     iteration #  2     ecut=    40.00 Ry     beta= 0.70
     Davidson diagonalization with overlap
     ethr =  4.31E-04,  avg # of iterations =  2.0

     negative rho (up, down):  1.591E-02 0.000E+00

     total cpu time spent up to now is       64.1 secs

     total energy              =  -27755.38209815 Ry
     estimated scf accuracy    <       0.81339792 Ry

     iteration #  3     ecut=    40.00 Ry     beta= 0.70
     Davidson diagonalization with overlap
     ethr =  2.25E-04,  avg # of iterations =  2.0

     negative rho (up, down):  1.054E-02 0.000E+00

     total cpu time spent up to now is       77.6 secs

     total energy              =  -27755.43394926 Ry
     estimated scf accuracy    <       0.09437997 Ry

     iteration #  4     ecut=    40.00 Ry     beta= 0.70
     Davidson diagonalization with overlap
     c_bands:  1 eigenvalues not converged
     ethr =  2.61E-05,  avg # of iterations = 13.6

     negative rho (up, down):  7.734E-03 0.000E+00

     total cpu time spent up to now is      118.5 secs

     total energy              =  -27755.48367874 Ry
     estimated scf accuracy    <       0.08517647 Ry

     iteration #  5     ecut=    40.00 Ry     beta= 0.70
     Davidson diagonalization with overlap
     c_bands:  1 eigenvalues not converged
     ethr =  2.36E-05,  avg # of iterations =  3.8

     negative rho (up, down):  3.453E-03 0.000E+00

     total cpu time spent up to now is      133.2 secs

     total energy              =  -27755.48354745 Ry
     estimated scf accuracy    <       0.03013288 Ry

     iteration #  6     ecut=    40.00 Ry     beta= 0.70
     Davidson diagonalization with overlap
     c_bands:  1 eigenvalues not converged
     c_bands:  1 eigenvalues not converged
     ethr =  8.35E-06,  avg # of iterations =  8.2

     negative rho (up, down):  1.653E-03 0.000E+00

     total cpu time spent up to now is      154.0 secs

     total energy              =  -27755.48573093 Ry
     estimated scf accuracy    <       0.00252177 Ry

     iteration #  7     ecut=    40.00 Ry     beta= 0.70
     Davidson diagonalization with overlap
     c_bands:  1 eigenvalues not converged
     ethr =  6.99E-07,  avg # of iterations = 12.5

     negative rho (up, down):  1.269E-03 0.000E+00

     total cpu time spent up to now is      191.0 secs

     total energy              =  -27755.48626662 Ry
     estimated scf accuracy    <       0.00193567 Ry

     iteration #  8     ecut=    40.00 Ry     beta= 0.70
     Davidson diagonalization with overlap
     ethr =  5.36E-07,  avg # of iterations =  1.8

     negative rho (up, down):  1.103E-03 0.000E+00

     total cpu time spent up to now is      209.3 secs

     total energy              =  -27755.48641530 Ry
     estimated scf accuracy    <       0.00021521 Ry

     iteration #  9     ecut=    40.00 Ry     beta= 0.70
     Davidson diagonalization with overlap
     ethr =  5.96E-08,  avg # of iterations =  5.2

     negative rho (up, down):  8.912E-04 0.000E+00

     total cpu time spent up to now is      242.5 secs

     total energy              =  -27755.48653373 Ry
     estimated scf accuracy    <       0.00008725 Ry

     iteration # 10     ecut=    40.00 Ry     beta= 0.70
     Davidson diagonalization with overlap
     c_bands:  1 eigenvalues not converged
     ethr =  2.42E-08,  avg # of iterations =  6.6

     negative rho (up, down):  8.716E-04 0.000E+00

     total cpu time spent up to now is      273.2 secs

     total energy              =  -27755.48655299 Ry
     estimated scf accuracy    <       0.00008647 Ry

     iteration # 11     ecut=    40.00 Ry     beta= 0.70
     Davidson diagonalization with overlap
     ethr =  2.40E-08,  avg # of iterations =  1.2

     negative rho (up, down):  9.549E-04 0.000E+00

     total cpu time spent up to now is      286.4 secs

     total energy              =  -27755.48655694 Ry
     estimated scf accuracy    <       0.00005694 Ry

     iteration # 12     ecut=    40.00 Ry     beta= 0.70
     Davidson diagonalization with overlap
     ethr =  1.58E-08,  avg # of iterations =  1.5

     negative rho (up, down):  1.177E-03 0.000E+00

     total cpu time spent up to now is      304.3 secs

     total energy              =  -27755.48656347 Ry
     estimated scf accuracy    <       0.00001977 Ry

     iteration # 13     ecut=    40.00 Ry     beta= 0.70
     Davidson diagonalization with overlap
     ethr =  5.48E-09,  avg # of iterations =  2.0

     negative rho (up, down):  1.637E-03 0.000E+00

     total cpu time spent up to now is      320.8 secs

     total energy              =  -27755.48656864 Ry
     estimated scf accuracy    <       0.00001182 Ry

     iteration # 14     ecut=    40.00 Ry     beta= 0.70
     Davidson diagonalization with overlap
     ethr =  3.27E-09,  avg # of iterations =  2.1

     negative rho (up, down):  1.983E-03 0.000E+00

     total cpu time spent up to now is      336.2 secs

     total energy              =  -27755.48657202 Ry
     estimated scf accuracy    <       0.00000664 Ry

     iteration # 15     ecut=    40.00 Ry     beta= 0.70
     Davidson diagonalization with overlap
     ethr =  1.84E-09,  avg # of iterations =  2.0

     negative rho (up, down):  2.709E-03 0.000E+00

     total cpu time spent up to now is      354.9 secs

     total energy              =  -27755.48656959 Ry
     estimated scf accuracy    <       0.00000595 Ry

     iteration # 16     ecut=    40.00 Ry     beta= 0.70
     Davidson diagonalization with overlap
     ethr =  1.65E-09,  avg # of iterations =  1.3

     negative rho (up, down):  2.857E-03 0.000E+00

     total cpu time spent up to now is      369.3 secs

     total energy              =  -27755.48656935 Ry
     estimated scf accuracy    <       0.00000113 Ry

     iteration # 17     ecut=    40.00 Ry     beta= 0.70
     Davidson diagonalization with overlap
     ethr =  3.13E-10,  avg # of iterations =  4.2

     negative rho (up, down):  3.158E-03 0.000E+00

     total cpu time spent up to now is      396.1 secs

     End of self-consistent calculation

          k = 0.0000 0.0000 0.0000 ( 42913 PWs)   bands (ev):

    -6.3065  -5.1396  -4.3888  -3.8906  -3.8835  -3.8707  -3.8706  -3.8588
    -3.8491  -3.8487  -3.5343  -3.3200  -3.3181  -3.3139  -3.3034  -3.3030
    -3.2234  -2.8560  -2.8522  -2.8494  -2.8407  -2.8386  -2.7412  -2.6333
    -2.6310  -2.6291  -2.6270  -2.6170  -2.5134  -2.4085  -2.4064  -2.4035
    -2.3966  -2.3923  -2.3910  -2.3779  -2.3670  -2.3650  -2.3460  -2.3363
    -1.9785  -1.7865  -1.7859  -1.7619  -1.7463  -1.7224  -1.7098  -1.6978
    -1.6906  -1.6891  -1.5548  -1.5468  -1.5323  -1.4494  -1.4393  -0.9811
    -0.9703  -0.9660  -0.9588  -0.9472  -0.8972  -0.8825  -0.7854  -0.7851
    -0.7842  -0.7719  -0.7632  -0.7625  -0.7514  -0.7312  -0.7201  -0.7196
    -0.7172  -0.7121  -0.6842  -0.6785  -0.6699  -0.5570  -0.5516  -0.5463
    -0.5386  -0.5358  -0.5228  -0.3849  -0.3662  -0.3656  -0.3478  -0.3449
    -0.3388  -0.2991  -0.2860  -0.2278  -0.2092  -0.1930  -0.1706  -0.1259
    -0.1238  -0.0858  -0.0856  -0.0726  -0.0104   0.0682   0.0726   0.0802
     0.0843   0.0924   0.0982   0.3451   0.5503   0.5745   0.5779   0.5820
     0.5840   0.6005   0.6207   0.6326   0.6407   0.6460   0.6638   0.7202
     0.7342   0.7842   0.8640   0.8731   0.8815   0.8838   0.9013   0.9850
     1.0094   1.0490   1.0578   1.0590   1.0646   1.2791   1.2978   1.3063
     1.3207   1.3265   1.3272   1.3783   1.3981   1.5224   1.5415   1.5657
     1.5701   1.5710   1.5736   1.6801   1.7110   1.7265   1.7448   1.7545
     1.7553   1.7569   1.7675   1.7784   1.7837   1.7865   1.7886   1.8544
     1.8864   1.8947   1.8985   1.9174   1.9196   1.9438   1.9449   1.9880
     2.0010   2.0237   2.0262   2.0270   2.0471   2.0632   2.0643   2.1264
     2.1355   2.1376   2.1542   2.1581   2.1581   2.2056   2.2346   2.2469
     2.2566   2.2569   2.2700   2.2742   2.4620   2.4636   2.5582   2.5637
     2.5732   2.5855   2.5893   2.5913   3.1038   3.4139   3.4272   3.4672
     3.4697   3.4818   3.4834   5.3795   5.7159   5.7705   5.7854   5.8129
     5.8172   7.1220   7.3143   7.3813   7.3976   7.4024   7.4048   7.5366
     7.6313

          k = 0.0000 0.2309 0.0000 ( 42996 PWs)   bands (ev):

    -6.1595  -5.0073  -4.4025  -4.2911  -3.9803  -3.9629  -3.7478  -3.6733
    -3.6380  -3.6279  -3.5005  -3.4080  -3.3866  -3.2515  -3.2407  -3.2342
    -3.1310  -2.9446  -2.8196  -2.8110  -2.8035  -2.7890  -2.7281  -2.6996
    -2.6686  -2.6400  -2.6319  -2.5960  -2.5668  -2.5333  -2.5257  -2.4334
    -2.4231  -2.4038  -2.3855  -2.2604  -2.2023  -2.1927  -2.1791  -2.1453
    -1.9897  -1.9062  -1.9003  -1.8507  -1.8236  -1.8015  -1.7863  -1.6997
    -1.6075  -1.5593  -1.5330  -1.5120  -1.4784  -1.4574  -1.4343  -1.2419
    -1.1482  -1.1436  -1.0825  -1.0584  -1.0244  -0.9912  -0.9607  -0.9505
    -0.9305  -0.9212  -0.8642  -0.8561  -0.8032  -0.7736  -0.7643  -0.7388
    -0.6791  -0.6690  -0.6546  -0.5999  -0.5944  -0.5747  -0.5361  -0.4959
    -0.4884  -0.4773  -0.4697  -0.3908  -0.3830  -0.3724  -0.3657  -0.3534
    -0.3120  -0.2878  -0.2643  -0.2325  -0.2065  -0.1996  -0.1810  -0.1597
    -0.1386  -0.1099  -0.0966  -0.0911  -0.0078   0.0449   0.0680   0.0787
     0.0871   0.0913   0.1004   0.1252   0.1598   0.1657   0.1819   0.1992
     0.3865   0.5009   0.5434   0.5769   0.5865   0.5992   0.6084   0.6297
     0.6369   0.7411   0.7968   0.8077   0.8856   0.9390   0.9471   0.9652
     0.9884   1.0130   1.0441   1.0650   1.0794   1.1506   1.1760   1.1891
     1.2011   1.2098   1.2907   1.3927   1.4143   1.4186   1.4314   1.4467
     1.4649   1.5158   1.5509   1.5794   1.5948   1.6067   1.6524   1.6740
     1.6848   1.6954   1.7634   1.7918   1.8075   1.8276   1.8574   1.9311
     1.9588   1.9641   1.9815   1.9919   2.0169   2.0317   2.1013   2.1134
     2.1567   2.1716   2.1778   2.1940   2.2208   2.2261   2.2382   2.2423
     2.2467   2.3066   2.3103   2.4435   2.4609   2.4738   2.4886   2.5054
     2.5083   2.5402   2.5610   2.5786   2.5910   2.6594   2.6963   2.7182
     2.7707   2.8773   2.8890   2.8996   2.9315   3.2667   3.3309   3.8296
     4.0523   4.0784   4.1881   4.9787   5.3666   5.4967   6.1223   6.2118
     6.2321   6.3420   6.5916   6.9870   7.1730   7.3356   7.5229   7.5798
     7.6326

          k = 0.0000 0.4619 0.0000 ( 43046 PWs)   bands (ev):

    -5.7363  -5.1020  -4.6625  -4.1917  -4.0145  -3.9890  -3.7838  -3.6424
    -3.4911  -3.3647  -3.2932  -3.2874  -3.2349  -3.1263  -3.0792  -3.0655
    -3.0600  -3.0339  -2.9129  -2.9013  -2.8851  -2.8528  -2.8422  -2.8193
    -2.7334  -2.7177  -2.7125  -2.6826  -2.4552  -2.4509  -2.4419  -2.4380
    -2.4271  -2.3450  -2.2055  -2.1941  -2.1709  -2.1531  -2.1386  -2.0565
    -1.9434  -1.8714  -1.8651  -1.8425  -1.8083  -1.7906  -1.7453  -1.7250
    -1.7082  -1.6790  -1.6470  -1.5863  -1.5009  -1.4945  -1.4621  -1.3988
    -1.3473  -1.3185  -1.2833  -1.2686  -1.2311  -1.1236  -1.0621  -1.0564
    -1.0427  -1.0175  -0.9551  -0.9390  -0.8966  -0.8128  -0.8077  -0.8015
    -0.7461  -0.6858  -0.6808  -0.6661  -0.6585  -0.6252  -0.5887  -0.5772
    -0.5601  -0.5517  -0.5423  -0.5406  -0.5289  -0.4995  -0.4493  -0.4037
    -0.3975  -0.3790  -0.3698  -0.3601  -0.3252  -0.2378  -0.2134  -0.1803
    -0.1474  -0.1368  -0.1116  -0.0908  -0.0603  -0.0547   0.0273   0.0689
     0.0869   0.1100   0.1438   0.1753   0.2157   0.3179   0.3413   0.4095
     0.4308   0.4721   0.4918   0.5251   0.5289   0.5373   0.5393   0.5930
     0.6225   0.6464   0.6512   0.6628   0.6820   0.7029   0.7133   0.7408
     0.7486   0.8653   0.8841   0.8973   0.9564   0.9804   1.0688   1.0794
     1.1610   1.1905   1.2315   1.2844   1.3484   1.3643   1.4095   1.4180
     1.4492   1.4668   1.4900   1.5155   1.5624   1.5704   1.6154   1.6561
     1.6774   1.7124   1.7328   1.7403   1.7539   1.7942   1.8812   1.9278
     1.9893   2.0065   2.0227   2.0316   2.0721   2.1274   2.1404   2.1932
     2.2121   2.2337   2.2409   2.2892   2.3172   2.3371   2.3432   2.4503
     2.4611   2.4752   2.4893   2.4958   2.4999   2.5186   2.5222   2.7014
     2.7228   2.7316   2.7443   2.7483   2.9060   2.9571   3.1705   3.3372
     3.3822   3.5739   3.7752   3.7892   4.0720   4.1722   4.2825   4.4800
     4.7632   4.9981   5.0049   5.0911   5.2171   5.2605   5.3454   5.3924
     5.6063   5.6557   6.1893   6.2864   6.6933   6.8247   7.1486   7.3066
     7.7015

          k = 0.2000-0.1155 0.0000 ( 42996 PWs)   bands (ev):

    -6.1595  -5.0073  -4.4026  -4.2912  -3.9802  -3.9629  -3.7478  -3.6735
    -3.6380  -3.6277  -3.5005  -3.4080  -3.3866  -3.2516  -3.2408  -3.2342
    -3.1310  -2.9446  -2.8196  -2.8110  -2.8035  -2.7891  -2.7280  -2.6996
    -2.6685  -2.6401  -2.6319  -2.5960  -2.5669  -2.5332  -2.5257  -2.4336
    -2.4231  -2.4038  -2.3854  -2.2604  -2.2023  -2.1926  -2.1791  -2.1452
    -1.9897  -1.9061  -1.9003  -1.8507  -1.8236  -1.8015  -1.7863  -1.6996
    -1.6075  -1.5593  -1.5331  -1.5120  -1.4784  -1.4574  -1.4343  -1.2417
    -1.1482  -1.1436  -1.0823  -1.0582  -1.0243  -0.9910  -0.9609  -0.9507
    -0.9306  -0.9213  -0.8643  -0.8561  -0.8031  -0.7736  -0.7642  -0.7388
    -0.6792  -0.6695  -0.6551  -0.5999  -0.5943  -0.5746  -0.5361  -0.4958
    -0.4882  -0.4770  -0.4696  -0.3909  -0.3833  -0.3724  -0.3656  -0.3534
    -0.3119  -0.2878  -0.2643  -0.2328  -0.2063  -0.1995  -0.1809  -0.1598
    -0.1387  -0.1099  -0.0966  -0.0911  -0.0078   0.0449   0.0681   0.0786
     0.0868   0.0912   0.1004   0.1252   0.1598   0.1657   0.1819   0.1992
     0.3867   0.5011   0.5434   0.5768   0.5865   0.5992   0.6083   0.6296
     0.6368   0.7411   0.7968   0.8076   0.8855   0.9389   0.9471   0.9655
     0.9881   1.0130   1.0441   1.0649   1.0794   1.1505   1.1760   1.1891
     1.2011   1.2099   1.2907   1.3926   1.4143   1.4186   1.4314   1.4467
     1.4649   1.5158   1.5509   1.5794   1.5948   1.6068   1.6525   1.6741
     1.6848   1.6954   1.7634   1.7918   1.8075   1.8277   1.8573   1.9311
     1.9588   1.9641   1.9815   1.9918   2.0168   2.0317   2.1013   2.1134
     2.1567   2.1716   2.1778   2.1941   2.2208   2.2262   2.2382   2.2422
     2.2467   2.3065   2.3102   2.4434   2.4609   2.4739   2.4887   2.5055
     2.5084   2.5403   2.5611   2.5787   2.5911   2.6594   2.6963   2.7183
     2.7706   2.8773   2.8891   2.8996   2.9314   3.2668   3.3312   3.8296
     4.0523   4.0783   4.1880   4.9785   5.3667   5.4970   6.1223   6.2118
     6.2321   6.3421   6.5915   6.9869   7.1730   7.3353   7.5229   7.5799
     7.6326

          k = 0.2000 0.1155 0.0000 ( 42996 PWs)   bands (ev):

    -6.1606  -5.0185  -4.4541  -4.2352  -3.9826  -3.9755  -3.7483  -3.6784
    -3.6284  -3.6276  -3.5492  -3.4048  -3.2819  -3.2537  -3.2393  -3.2370
    -3.2012  -2.9410  -2.8167  -2.8163  -2.7993  -2.7344  -2.7270  -2.6862
    -2.6679  -2.6591  -2.6431  -2.6322  -2.5315  -2.5287  -2.4949  -2.4278
    -2.4218  -2.3882  -2.3823  -2.2285  -2.2011  -2.1874  -2.1855  -2.1678
    -1.9701  -1.9035  -1.9006  -1.8554  -1.8228  -1.8191  -1.7888  -1.7187
    -1.6110  -1.5689  -1.5331  -1.5252  -1.4699  -1.4482  -1.4156  -1.2390
    -1.1451  -1.1415  -1.0758  -1.0627  -1.0285  -0.9865  -0.9722  -0.9500
    -0.9312  -0.9179  -0.8933  -0.8495  -0.7873  -0.7792  -0.7647  -0.7532
    -0.6837  -0.6778  -0.6639  -0.6007  -0.5857  -0.5766  -0.5360  -0.4827
    -0.4814  -0.4765  -0.4703  -0.3905  -0.3882  -0.3674  -0.3561  -0.3537
    -0.2978  -0.2956  -0.2637  -0.2412  -0.2074  -0.1988  -0.1943  -0.1540
    -0.1526  -0.1151  -0.1004  -0.0918  -0.0092   0.0524   0.0569   0.0613
     0.0772   0.0891   0.1072   0.1094   0.1483   0.1716   0.1733   0.1895
     0.4136   0.4975   0.5353   0.5635   0.5925   0.6028   0.6066   0.6316
     0.6493   0.6846   0.7776   0.8042   0.8896   0.9347   0.9471   0.9759
     0.9775   0.9978   1.0421   1.0660   1.0661   1.1623   1.1838   1.1928
     1.2057   1.2133   1.3771   1.3844   1.4127   1.4134   1.4236   1.4467
     1.4686   1.5273   1.5372   1.5572   1.5989   1.5999   1.6577   1.6672
     1.6826   1.6862   1.7632   1.7826   1.8154   1.8298   1.8811   1.9183
     1.9270   1.9621   1.9753   1.9807   2.0231   2.0364   2.0984   2.1122
     2.1642   2.1689   2.1834   2.2142   2.2150   2.2327   2.2375   2.2433
     2.2458   2.3037   2.3096   2.4493   2.4592   2.4674   2.4996   2.5121
     2.5158   2.5421   2.5781   2.5808   2.5926   2.6797   2.6915   2.7170
     2.7737   2.8822   2.8844   2.8952   2.9366   3.2838   3.3178   3.8435
     4.0348   4.0765   4.1979   4.9374   5.4481   5.4926   6.0791   6.2139
     6.2655   6.3295   6.5307   6.9736   7.1771   7.3238   7.5561   7.5854
     7.6335

          k = 0.2000 0.3464 0.0000 ( 43046 PWs)   bands (ev):

    -5.8759  -4.8260  -4.6320  -4.6182  -4.1558  -3.5522  -3.5500  -3.5415
    -3.5214  -3.4830  -3.4809  -3.4666  -3.3701  -3.3571  -3.1656  -2.9846
    -2.9767  -2.9644  -2.9593  -2.8946  -2.8744  -2.7405  -2.7237  -2.7171
    -2.7096  -2.6304  -2.6157  -2.5718  -2.5643  -2.5528  -2.4902  -2.4797
    -2.4551  -2.4045  -2.3960  -2.3161  -2.1272  -2.0509  -1.9712  -1.9624
    -1.9401  -1.9180  -1.9087  -1.9009  -1.8448  -1.8260  -1.7740  -1.6808
    -1.6742  -1.6272  -1.5723  -1.5449  -1.4943  -1.4876  -1.4489  -1.3967
    -1.3746  -1.2366  -1.2103  -1.1981  -1.1271  -1.1086  -1.0907  -1.0846
    -1.0620  -1.0142  -0.9844  -0.8691  -0.8488  -0.8349  -0.8278  -0.7842
    -0.7665  -0.7242  -0.7078  -0.6874  -0.6497  -0.5668  -0.5505  -0.5326
    -0.5193  -0.5136  -0.5050  -0.4811  -0.4579  -0.4419  -0.4045  -0.3886
    -0.3577  -0.3464  -0.2756  -0.2682  -0.2329  -0.2061  -0.1784  -0.1685
    -0.1490  -0.1234  -0.1088  -0.1017  -0.0970  -0.0802  -0.0690  -0.0548
    -0.0133   0.0019   0.0819   0.1041   0.1506   0.2078   0.2280   0.2321
     0.2496   0.4198   0.4372   0.4566   0.5631   0.5749   0.6112   0.6178
     0.6455   0.6500   0.6860   0.6935   0.7255   0.7367   0.7588   0.8246
     0.9284   0.9556   1.0010   1.0098   1.0435   1.0572   1.0826   1.1335
     1.1903   1.2355   1.2533   1.2976   1.3157   1.3578   1.3921   1.4390
     1.4527   1.4688   1.5222   1.5319   1.5472   1.5612   1.5709   1.5790
     1.5954   1.6021   1.6171   1.7023   1.7668   1.8052   1.9207   1.9429
     1.9653   2.0922   2.1046   2.1206   2.1282   2.1942   2.2319   2.2520
     2.2586   2.2776   2.3021   2.3151   2.3267   2.3332   2.3465   2.3868
     2.3992   2.4168   2.4862   2.5125   2.5198   2.5454   2.5542   2.6005
     2.7161   2.7481   2.7863   2.8058   2.8576   2.8684   2.8758   2.9719
     3.0194   3.3459   3.5385   3.5476   3.9518   4.0836   4.0949   4.1028
     4.5684   4.7921   4.8166   4.9956   5.0156   5.0614   5.6626   6.0840
     6.2076   6.2237   6.3976   6.6356   6.9284   6.9894   7.0031   7.0270
     7.0517

          k = 0.2000-0.5774 0.0000 ( 43014 PWs)   bands (ev):

    -5.3540  -5.3246  -4.7581  -4.4689  -4.0867  -3.8467  -3.5460  -3.4856
    -3.4066  -3.3739  -3.2661  -3.2558  -3.1588  -3.1539  -3.0570  -3.0341
    -3.0254  -2.9984  -2.9954  -2.9796  -2.8654  -2.8294  -2.8239  -2.7972
    -2.7794  -2.7606  -2.7102  -2.6243  -2.5672  -2.4714  -2.4319  -2.4274
    -2.4060  -2.3893  -2.3480  -2.2948  -2.1868  -2.1720  -2.1072  -1.9966
    -1.9854  -1.9152  -1.8486  -1.8291  -1.7914  -1.7419  -1.6646  -1.6214
    -1.5890  -1.5720  -1.5570  -1.5151  -1.5075  -1.4686  -1.3870  -1.3718
    -1.3510  -1.3460  -1.3367  -1.3316  -1.2767  -1.2619  -1.2396  -1.1370
    -1.1035  -1.0673  -1.0439  -0.9551  -0.9203  -0.9059  -0.8771  -0.8517
    -0.8231  -0.8021  -0.7457  -0.7359  -0.7151  -0.6974  -0.6608  -0.6099
    -0.5989  -0.5613  -0.5142  -0.4890  -0.4827  -0.4734  -0.4042  -0.3447
    -0.3096  -0.2939  -0.2789  -0.2480  -0.2282  -0.2222  -0.2147  -0.1803
    -0.1682  -0.1481  -0.1366  -0.1050  -0.0830  -0.0726  -0.0615  -0.0581
    -0.0504  -0.0338   0.0091   0.0283   0.0500   0.2139   0.2655   0.3354
     0.3501   0.3817   0.4500   0.4727   0.4856   0.5061   0.5506   0.5639
     0.5702   0.5788   0.6406   0.6811   0.7048   0.7213   0.7721   0.7810
     0.8416   0.8537   0.9018   1.0362   1.0491   1.0978   1.1164   1.1368
     1.1760   1.2086   1.2338   1.2512   1.2610   1.2750   1.2953   1.3051
     1.3978   1.4206   1.4340   1.4612   1.4915   1.5124   1.5331   1.5463
     1.5521   1.6869   1.7205   1.7734   1.8417   1.8610   1.9439   1.9584
     1.9961   2.0627   2.0788   2.0895   2.1703   2.1796   2.2564   2.2763
     2.3029   2.3079   2.3141   2.3433   2.3585   2.3968   2.4658   2.4713
     2.4926   2.5075   2.5205   2.5248   2.5332   2.6002   2.6993   2.7317
     2.7364   2.7463   2.7503   2.8104   2.8469   2.9335   3.0531   3.7392
     3.8979   3.9124   4.0882   4.1550   4.2251   4.2833   4.2911   4.6279
     4.8753   4.9062   5.1012   5.3580   5.3743   5.4654   5.4990   5.6537
     5.7685   5.8421   5.8900   6.1594   6.3012   6.3329   6.7676   6.9684
     6.9914

          k = 0.2000-0.3464 0.0000 ( 43046 PWs)   bands (ev):

    -5.8726  -4.7891  -4.6377  -4.6160  -4.1487  -3.5519  -3.5454  -3.5425
    -3.5307  -3.4934  -3.4815  -3.4584  -3.3674  -3.3580  -3.2019  -2.9724
    -2.9694  -2.9625  -2.9424  -2.8948  -2.8685  -2.7384  -2.7271  -2.7193
    -2.7074  -2.6859  -2.6156  -2.5786  -2.5613  -2.5497  -2.5265  -2.4828
    -2.4553  -2.4220  -2.4026  -2.3141  -2.2620  -2.0561  -1.9688  -1.9661
    -1.9270  -1.9175  -1.9023  -1.8959  -1.8430  -1.8184  -1.7755  -1.6784
    -1.6677  -1.5982  -1.5607  -1.5116  -1.4961  -1.4897  -1.4410  -1.3980
    -1.3931  -1.2223  -1.2148  -1.2010  -1.1289  -1.1097  -1.0915  -1.0764
    -1.0480  -1.0088  -1.0031  -0.8549  -0.8366  -0.8334  -0.8239  -0.7871
    -0.7693  -0.7228  -0.6974  -0.6878  -0.6409  -0.5741  -0.5481  -0.5375
    -0.5207  -0.5098  -0.5038  -0.4706  -0.4488  -0.4374  -0.3914  -0.3754
    -0.3562  -0.3143  -0.2705  -0.2515  -0.2383  -0.2046  -0.1804  -0.1687
    -0.1564  -0.1148  -0.1047  -0.0917  -0.0855  -0.0744  -0.0688  -0.0666
    -0.0308   0.0137   0.0930   0.1354   0.1489   0.1771   0.2284   0.2379
     0.2518   0.4218   0.4349   0.5046   0.5677   0.5769   0.6018   0.6116
     0.6282   0.6503   0.6720   0.7011   0.7246   0.7387   0.7664   0.8244
     0.8747   0.9598   1.0037   1.0081   1.0342   1.0662   1.1037   1.1321
     1.1904   1.2239   1.2393   1.2650   1.3242   1.3395   1.3940   1.4515
     1.4661   1.4777   1.5112   1.5234   1.5525   1.5588   1.5702   1.5865
     1.5975   1.6010   1.6237   1.7191   1.7786   1.8117   1.9252   1.9360
     1.9645   2.0674   2.1198   2.1240   2.1265   2.2117   2.2226   2.2505
     2.2649   2.2823   2.3009   2.3130   2.3303   2.3352   2.3470   2.3864
     2.4058   2.4116   2.4853   2.5133   2.5175   2.5441   2.5562   2.6003
     2.7249   2.7625   2.7899   2.7949   2.8575   2.8707   2.8790   2.9988
     3.0195   3.2947   3.5070   3.5588   3.8954   4.0854   4.0947   4.1107
     4.5813   4.8004   4.8094   4.9594   5.0078   5.0677   5.6348   6.0497
     6.2043   6.2497   6.4459   6.7015   6.9373   6.9829   7.0108   7.0217
     7.0521

          k = 0.4000-0.2309 0.0000 ( 43046 PWs)   bands (ev):

    -5.7363  -5.1020  -4.6625  -4.1917  -4.0145  -3.9890  -3.7838  -3.6426
    -3.4911  -3.3647  -3.2932  -3.2873  -3.2350  -3.1264  -3.0792  -3.0655
    -3.0600  -3.0340  -2.9129  -2.9013  -2.8851  -2.8528  -2.8423  -2.8193
    -2.7335  -2.7176  -2.7124  -2.6826  -2.4551  -2.4509  -2.4418  -2.4379
    -2.4270  -2.3450  -2.2054  -2.1940  -2.1709  -2.1531  -2.1386  -2.0565
    -1.9434  -1.8714  -1.8651  -1.8425  -1.8083  -1.7905  -1.7453  -1.7248
    -1.7083  -1.6791  -1.6470  -1.5862  -1.5009  -1.4945  -1.4620  -1.3987
    -1.3471  -1.3182  -1.2831  -1.2685  -1.2310  -1.1236  -1.0621  -1.0564
    -1.0428  -1.0176  -0.9551  -0.9388  -0.8967  -0.8132  -0.8079  -0.8018
    -0.7462  -0.6857  -0.6808  -0.6660  -0.6585  -0.6252  -0.5887  -0.5771
    -0.5600  -0.5516  -0.5423  -0.5406  -0.5289  -0.4996  -0.4494  -0.4036
    -0.3975  -0.3789  -0.3697  -0.3599  -0.3254  -0.2378  -0.2136  -0.1803
    -0.1477  -0.1370  -0.1114  -0.0908  -0.0607  -0.0550   0.0273   0.0689
     0.0870   0.1100   0.1437   0.1753   0.2157   0.3179   0.3413   0.4095
     0.4308   0.4720   0.4918   0.5251   0.5290   0.5375   0.5395   0.5931
     0.6225   0.6464   0.6511   0.6627   0.6820   0.7027   0.7130   0.7407
     0.7488   0.8652   0.8839   0.8972   0.9564   0.9804   1.0687   1.0793
     1.1610   1.1905   1.2316   1.2845   1.3484   1.3643   1.4094   1.4179
     1.4493   1.4670   1.4900   1.5156   1.5625   1.5705   1.6154   1.6562
     1.6775   1.7124   1.7329   1.7403   1.7539   1.7940   1.8811   1.9277
     1.9893   2.0065   2.0227   2.0316   2.0721   2.1274   2.1405   2.1931
     2.2120   2.2336   2.2408   2.2893   2.3170   2.3369   2.3432   2.4502
     2.4612   2.4753   2.4894   2.4958   2.5000   2.5188   2.5224   2.7014
     2.7229   2.7318   2.7445   2.7485   2.9060   2.9571   3.1705   3.3375
     3.3821   3.5737   3.7752   3.7891   4.0719   4.1722   4.2824   4.4802
     4.7634   4.9981   5.0049   5.0911   5.2171   5.2605   5.3455   5.3926
     5.6063   5.6558   6.1892   6.2866   6.6932   6.8247   7.1485   7.3066
     7.7016

          k = 0.4000-0.0000 0.0000 ( 43046 PWs)   bands (ev):

    -5.8760  -4.8260  -4.6321  -4.6182  -4.1558  -3.5523  -3.5501  -3.5415
    -3.5214  -3.4829  -3.4809  -3.4664  -3.3701  -3.3571  -3.1656  -2.9848
    -2.9768  -2.9644  -2.9593  -2.8947  -2.8743  -2.7404  -2.7237  -2.7171
    -2.7096  -2.6304  -2.6155  -2.5718  -2.5642  -2.5528  -2.4903  -2.4797
    -2.4552  -2.4044  -2.3959  -2.3164  -2.1272  -2.0509  -1.9712  -1.9623
    -1.9401  -1.9179  -1.9087  -1.9009  -1.8449  -1.8260  -1.7740  -1.6808
    -1.6742  -1.6272  -1.5723  -1.5450  -1.4942  -1.4877  -1.4490  -1.3967
    -1.3746  -1.2365  -1.2102  -1.1980  -1.1268  -1.1084  -1.0907  -1.0846
    -1.0619  -1.0142  -0.9844  -0.8691  -0.8489  -0.8351  -0.8280  -0.7842
    -0.7666  -0.7242  -0.7078  -0.6874  -0.6498  -0.5666  -0.5505  -0.5325
    -0.5192  -0.5135  -0.5051  -0.4812  -0.4580  -0.4418  -0.4047  -0.3888
    -0.3578  -0.3465  -0.2756  -0.2682  -0.2329  -0.2062  -0.1785  -0.1686
    -0.1491  -0.1233  -0.1088  -0.1017  -0.0968  -0.0801  -0.0690  -0.0549
    -0.0133   0.0019   0.0819   0.1041   0.1506   0.2078   0.2278   0.2320
     0.2496   0.4198   0.4372   0.4566   0.5629   0.5749   0.6111   0.6176
     0.6455   0.6500   0.6861   0.6936   0.7256   0.7366   0.7587   0.8249
     0.9282   0.9555   1.0009   1.0098   1.0434   1.0572   1.0826   1.1334
     1.1903   1.2354   1.2533   1.2976   1.3157   1.3577   1.3921   1.4391
     1.4527   1.4688   1.5222   1.5319   1.5472   1.5612   1.5710   1.5791
     1.5954   1.6021   1.6173   1.7022   1.7668   1.8053   1.9206   1.9429
     1.9653   2.0922   2.1046   2.1206   2.1282   2.1942   2.2318   2.2521
     2.2587   2.2776   2.3020   2.3151   2.3267   2.3331   2.3464   2.3867
     2.3992   2.4170   2.4861   2.5125   2.5196   2.5454   2.5542   2.6005
     2.7163   2.7483   2.7866   2.8059   2.8577   2.8685   2.8758   2.9718
     3.0193   3.3458   3.5384   3.5476   3.9519   4.0837   4.0951   4.1029
     4.5684   4.7920   4.8166   4.9956   5.0156   5.0614   5.6626   6.0842
     6.2076   6.2239   6.3976   6.6356   6.9284   6.9893   7.0031   7.0269
     7.0517

          k = 0.4000 0.2309 0.0000 ( 43046 PWs)   bands (ev):

    -5.7417  -5.1232  -4.6949  -4.1905  -4.0176  -4.0096  -3.7712  -3.6210
    -3.4904  -3.3635  -3.2873  -3.2858  -3.2105  -3.1210  -3.1065  -3.0703
    -3.0666  -3.0541  -2.9164  -2.9027  -2.8980  -2.8554  -2.8469  -2.7998
    -2.7374  -2.7140  -2.7133  -2.4631  -2.4542  -2.4459  -2.4459  -2.4276
    -2.4272  -2.2503  -2.2027  -2.1754  -2.1709  -2.1444  -2.1409  -2.0548
    -1.9554  -1.8722  -1.8609  -1.8483  -1.8399  -1.7879  -1.7743  -1.7152
    -1.7122  -1.6755  -1.6423  -1.6240  -1.5045  -1.4857  -1.4626  -1.4369
    -1.3402  -1.3113  -1.2736  -1.2691  -1.2278  -1.1213  -1.0657  -1.0505
    -1.0503  -1.0225  -0.9552  -0.9417  -0.9243  -0.8267  -0.8160  -0.8093
    -0.7729  -0.6906  -0.6852  -0.6614  -0.6600  -0.6370  -0.6004  -0.5668
    -0.5647  -0.5506  -0.5462  -0.5424  -0.5264  -0.4933  -0.4416  -0.3989
    -0.3903  -0.3896  -0.3720  -0.3461  -0.3286  -0.2907  -0.2197  -0.1879
    -0.1614  -0.1287  -0.1038  -0.0922  -0.0851  -0.0725   0.0255   0.0583
     0.0864   0.0865   0.1533   0.1601   0.1818   0.3156   0.3557   0.3772
     0.4193   0.4658   0.5069   0.5182   0.5355   0.5432   0.5517   0.5699
     0.6167   0.6463   0.6490   0.6717   0.6753   0.7011   0.7184   0.7453
     0.7710   0.8551   0.8700   0.8876   0.9634   1.0034   1.0769   1.0839
     1.1748   1.1962   1.2351   1.2976   1.3379   1.3698   1.3784   1.4186
     1.4581   1.4595   1.4983   1.5164   1.5571   1.5716   1.6036   1.6642
     1.6660   1.7060   1.7253   1.7398   1.7494   1.8050   1.8767   1.9076
     1.9520   2.0035   2.0076   2.0349   2.0878   2.1233   2.1355   2.2068
     2.2175   2.2337   2.2364   2.3062   2.3160   2.3323   2.3418   2.4480
     2.4632   2.4808   2.4824   2.4955   2.5030   2.5235   2.5287   2.7029
     2.7316   2.7389   2.7449   2.7474   2.9122   2.9580   3.2390   3.3273
     3.3995   3.5437   3.7837   3.7857   4.0933   4.1753   4.2747   4.5203
     4.8257   5.0027   5.0038   5.0655   5.2147   5.2390   5.3863   5.3975
     5.6001   5.6594   6.1520   6.3001   6.6594   6.8109   7.2123   7.2842
     7.7528

          k = 0.4000-0.6928 0.0000 ( 43014 PWs)   bands (ev):

    -5.3658  -5.3301  -4.7345  -4.5339  -4.0843  -3.8024  -3.5578  -3.4916
    -3.4038  -3.3774  -3.2702  -3.2608  -3.1623  -3.1535  -3.0600  -3.0358
    -3.0190  -3.0020  -2.9924  -2.9778  -2.8511  -2.8302  -2.8177  -2.8059
    -2.7857  -2.7806  -2.6672  -2.5794  -2.5490  -2.4375  -2.4237  -2.4190
    -2.4057  -2.3781  -2.3114  -2.2835  -2.1875  -2.1819  -2.0879  -1.9932
    -1.9900  -1.9414  -1.8450  -1.8081  -1.7844  -1.7727  -1.6699  -1.6247
    -1.5999  -1.5714  -1.5581  -1.5121  -1.4922  -1.4568  -1.3872  -1.3846
    -1.3636  -1.3435  -1.3340  -1.3265  -1.2997  -1.2576  -1.2182  -1.1427
    -1.1225  -1.0766  -1.0362  -0.9713  -0.9121  -0.9056  -0.9037  -0.8491
    -0.8324  -0.8188  -0.7624  -0.7287  -0.7210  -0.6974  -0.6612  -0.6282
    -0.5849  -0.5669  -0.5315  -0.4829  -0.4826  -0.4685  -0.4181  -0.3550
    -0.3117  -0.3008  -0.2794  -0.2733  -0.2262  -0.2206  -0.2058  -0.1931
    -0.1786  -0.1656  -0.1355  -0.1026  -0.0796  -0.0790  -0.0674  -0.0602
    -0.0464  -0.0376  -0.0131   0.0369   0.0448   0.2322   0.2523   0.3405
     0.3592   0.4066   0.4546   0.4727   0.4913   0.5100   0.5522   0.5696
     0.5814   0.5851   0.6375   0.6922   0.7042   0.7457   0.7683   0.7735
     0.8362   0.8491   0.8768   0.9578   1.0543   1.1054   1.1109   1.1444
     1.1862   1.2118   1.2310   1.2423   1.2659   1.2685   1.2966   1.3066
     1.3953   1.4350   1.4425   1.4698   1.4836   1.5030   1.5268   1.5347
     1.5483   1.7021   1.7379   1.7715   1.8110   1.8762   1.9482   1.9608
     2.0350   2.0534   2.0750   2.0929   2.1541   2.1934   2.2551   2.2799
     2.2871   2.3022   2.3141   2.3323   2.3638   2.3964   2.4665   2.4732
     2.4906   2.5033   2.5211   2.5270   2.5339   2.5996   2.7129   2.7319
     2.7427   2.7449   2.7484   2.8075   2.8496   2.9210   3.0128   3.7834
     3.8959   3.9109   4.1040   4.1470   4.2679   4.2819   4.2951   4.6475
     4.8530   4.9128   5.1614   5.3494   5.3857   5.4340   5.5100   5.7146
     5.7395   5.8091   5.9070   6.1479   6.2562   6.3494   6.7896   6.9392
     6.9899

          k = 0.4000-0.4619 0.0000 ( 43014 PWs)   bands (ev):

    -5.3540  -5.3246  -4.7580  -4.4689  -4.0867  -3.8467  -3.5462  -3.4856
    -3.4066  -3.3739  -3.2660  -3.2558  -3.1589  -3.1539  -3.0570  -3.0341
    -3.0254  -2.9983  -2.9955  -2.9795  -2.8656  -2.8294  -2.8239  -2.7973
    -2.7794  -2.7607  -2.7102  -2.6243  -2.5671  -2.4713  -2.4319  -2.4274
    -2.4060  -2.3892  -2.3480  -2.2948  -2.1867  -2.1719  -2.1072  -1.9967
    -1.9853  -1.9153  -1.8486  -1.8291  -1.7914  -1.7419  -1.6648  -1.6214
    -1.5890  -1.5720  -1.5569  -1.5148  -1.5072  -1.4686  -1.3869  -1.3718
    -1.3509  -1.3459  -1.3367  -1.3316  -1.2767  -1.2620  -1.2396  -1.1370
    -1.1036  -1.0672  -1.0439  -0.9551  -0.9200  -0.9061  -0.8772  -0.8517
    -0.8234  -0.8023  -0.7457  -0.7359  -0.7151  -0.6973  -0.6608  -0.6098
    -0.5989  -0.5613  -0.5143  -0.4888  -0.4828  -0.4734  -0.4041  -0.3449
    -0.3097  -0.2937  -0.2788  -0.2479  -0.2283  -0.2222  -0.2148  -0.1807
    -0.1683  -0.1482  -0.1367  -0.1046  -0.0829  -0.0726  -0.0615  -0.0582
    -0.0504  -0.0337   0.0091   0.0282   0.0500   0.2138   0.2654   0.3354
     0.3501   0.3817   0.4500   0.4727   0.4857   0.5062   0.5505   0.5639
     0.5702   0.5789   0.6407   0.6811   0.7048   0.7212   0.7720   0.7812
     0.8416   0.8536   0.9015   1.0362   1.0491   1.0979   1.1164   1.1369
     1.1760   1.2086   1.2339   1.2511   1.2610   1.2750   1.2953   1.3051
     1.3978   1.4207   1.4341   1.4612   1.4915   1.5125   1.5331   1.5462
     1.5520   1.6869   1.7204   1.7733   1.8417   1.8610   1.9440   1.9584
     1.9962   2.0627   2.0789   2.0895   2.1703   2.1796   2.2563   2.2763
     2.3028   2.3078   2.3141   2.3432   2.3585   2.3969   2.4658   2.4714
     2.4925   2.5075   2.5204   2.5248   2.5333   2.6002   2.6992   2.7318
     2.7365   2.7465   2.7505   2.8104   2.8471   2.9335   3.0531   3.7391
     3.8979   3.9124   4.0881   4.1551   4.2250   4.2833   4.2910   4.6280
     4.8754   4.9062   5.1012   5.3580   5.3743   5.4654   5.4991   5.6543
     5.7686   5.8421   5.8899   6.1595   6.3011   6.3328   6.7677   6.9680
     6.9910

     the Fermi energy is     2.5134 ev

!    total energy              =  -27755.48656790 Ry
     total all-electron energy =  -1326642.251985 Ry
     estimated scf accuracy    <       0.00000052 Ry
     smearing contrib. (-TS)   =       0.00309193 Ry
     internal energy E=F+TS    =  -27755.48965983 Ry

     The total energy is F=E-TS. E is the sum of the following terms:
     one-electron contribution =  -20682.27225704 Ry
     hartree contribution      =   10648.24917992 Ry
     xc contribution           =    -890.71856466 Ry
     ewald contribution        =    8643.23348722 Ry
     one-center paw contrib.   =  -25473.98150527 Ry

     convergence has been achieved in  17 iterations

     negative rho (up, down):  3.158E-03 0.000E+00

     Forces acting on atoms (cartesian axes, Ry/au):

     atom    1 type  1   force =    -0.00018848   -0.00012073   -0.00315512
     atom    2 type  1   force =     0.00016513   -0.00004750   -0.00308751
     atom    3 type  1   force =    -0.00023105    0.00082800   -0.00377974
     atom    4 type  1   force =     0.00005514    0.00016178   -0.00308902
     atom    5 type  1   force =    -0.00023502   -0.00013373   -0.00350513
     atom    6 type  1   force =    -0.00025312   -0.00021454   -0.00354800
     atom    7 type  1   force =     0.00060940   -0.00062691   -0.00378349
     atom    8 type  1   force =    -0.00031293   -0.00011845   -0.00354898
     atom    9 type  1   force =     0.00016986    0.00009303   -0.00293849
     atom   10 type  1   force =     0.00027846    0.00016579    0.00629575
     atom   11 type  1   force =    -0.00020427   -0.00116362    0.00447202
     atom   12 type  1   force =     0.00015349   -0.00010321    0.00163279
     atom   13 type  1   force =    -0.00111226    0.00042229    0.00445517
     atom   14 type  1   force =     0.00003792    0.00003452    0.00237597
     atom   15 type  1   force =     0.00116121    0.00031051    0.00525538
     atom   16 type  1   force =    -0.00002427    0.00020638    0.00162095
     atom   17 type  1   force =     0.00084174    0.00087637    0.00526189
     atom   18 type  1   force =    -0.00017933   -0.00008392    0.00035694
     atom   19 type  1   force =     0.00001860    0.00001525   -0.00001901
     atom   20 type  1   force =    -0.00003003   -0.00003120   -0.00000681
     atom   21 type  1   force =    -0.00008879    0.00000915   -0.00003241
     atom   22 type  1   force =     0.00003350    0.00006181   -0.00004527
     atom   23 type  1   force =    -0.00002508   -0.00008796   -0.00002382
     atom   24 type  1   force =     0.00006353    0.00003885   -0.00004009
     atom   25 type  1   force =     0.00007962    0.00004568   -0.00003284
     atom   26 type  1   force =     0.00003198    0.00000497   -0.00001745
     atom   27 type  1   force =     0.00006321   -0.00000007   -0.00005457
     atom   28 type  1   force =     0.00010357    0.00005739   -0.00002898
     atom   29 type  1   force =     0.00001441    0.00005723   -0.00001598
     atom   30 type  1   force =     0.00005503    0.00012216   -0.00020722
     atom   31 type  1   force =     0.00006508   -0.00003018   -0.00000876
     atom   32 type  1   force =     0.00000737   -0.00000664   -0.00003271
     atom   33 type  1   force =    -0.00000945   -0.00008118   -0.00021870
     atom   34 type  1   force =     0.00012306   -0.00002256   -0.00018640
     atom   35 type  1   force =    -0.00006612    0.00003583   -0.00021489
     atom   36 type  1   force =     0.00011308    0.00006983   -0.00018416
     atom   37 type  2   force =    -0.00128417   -0.00074441    0.00007870
     The non-local contrib.  to forces
     atom    1 type  1   force =    -0.00031834   -0.00018677   -0.01757522
     atom    2 type  1   force =    -0.00053007    0.00061432   -0.01819697
     atom    3 type  1   force =     0.00111853   -0.00095793   -0.01844402
     atom    4 type  1   force =     0.00027442   -0.00076244   -0.01819862
     atom    5 type  1   force =    -0.00016445   -0.00008685   -0.01753453
     atom    6 type  1   force =    -0.00013187    0.00024881   -0.01807382
     atom    7 type  1   force =    -0.00026692    0.00144721   -0.01845071
     atom    8 type  1   force =     0.00014238   -0.00023711   -0.01807370
     atom    9 type  1   force =    -0.00019654   -0.00011196   -0.01856278
     atom   10 type  1   force =    -0.00008559   -0.00004287    0.00052055
     atom   11 type  1   force =    -0.00050076    0.00065026    0.00112682
     atom   12 type  1   force =     0.00149376    0.00108708   -0.00015200
     atom   13 type  1   force =     0.00031022   -0.00073480    0.00111387
     atom   14 type  1   force =     0.00050809    0.00031287   -0.00058399
     atom   15 type  1   force =    -0.00046209   -0.00007792    0.00042816
     atom   16 type  1   force =     0.00167655    0.00077295   -0.00015749
     atom   17 type  1   force =    -0.00031137   -0.00033206    0.00043643
     atom   18 type  1   force =    -0.00161118   -0.00091136    0.00045505
     atom   19 type  1   force =    -0.00285565   -0.00107806    0.00133981
     atom   20 type  1   force =     0.00126773    0.00071884    0.00638833
     atom   21 type  1   force =     0.00122110    0.00093373    0.00226863
     atom   22 type  1   force =     0.00126896    0.00378565   -0.00124144
     atom   23 type  1   force =     0.00142642    0.00059201    0.00227954
     atom   24 type  1   force =    -0.00136314   -0.00077773    0.00324279
     atom   25 type  1   force =     0.00086073    0.00049605    0.00439671
     atom   26 type  1   force =    -0.00235566   -0.00193745    0.00134110
     atom   27 type  1   force =     0.00390681   -0.00079542   -0.00125310
     atom   28 type  1   force =     0.02634650    0.01519249    0.02851840
     atom   29 type  1   force =    -0.01389726    0.01921016   -0.00857775
     atom   30 type  1   force =     0.00068733    0.00007853    0.01559404
     atom   31 type  1   force =     0.00971730   -0.02166864   -0.00856197
     atom   32 type  1   force =    -0.02231096   -0.01290580    0.02624813
     atom   33 type  1   force =    -0.00052052    0.00000800    0.01609461
     atom   34 type  1   force =     0.00041120    0.00052756    0.01559718
     atom   35 type  1   force =    -0.00023605   -0.00046827    0.01608938
     atom   36 type  1   force =    -0.00072609   -0.00042404    0.01682174
     atom   37 type  2   force =     0.00031900    0.00018085   -0.02343008
     The ionic contribution  to forces
     atom    1 type  1   force =     0.00775704    0.00450861  -93.42074735
     atom    2 type  1   force =     0.00152153    0.00483243  -93.40479206
     atom    3 type  1   force =    -0.00933554   -0.00475493  -93.41944030
     atom    4 type  1   force =     0.00491961   -0.00111341  -93.40479213
     atom    5 type  1   force =    -0.01185117   -0.00687487  -93.41744420
     atom    6 type  1   force =     0.00697849    0.00037135  -93.42664120
     atom    7 type  1   force =    -0.00881413   -0.00568977  -93.41949134
     atom    8 type  1   force =     0.00383935    0.00584533  -93.42669681
     atom    9 type  1   force =     0.00501721    0.00289778  -93.41013139
     atom   10 type  1   force =     0.05373531    0.03127217  -31.48596802
     atom   11 type  1   force =    -0.08340788   -0.01945785  -31.48913105
     atom   12 type  1   force =     0.04448332    0.01723960  -31.58526744
     atom   13 type  1   force =    -0.05881883   -0.06248429  -31.48935385
     atom   14 type  1   force =    -0.00577231   -0.00352402  -31.61569645
     atom   15 type  1   force =     0.06720064    0.01043936  -31.53749900
     atom   16 type  1   force =     0.03689898    0.03044462  -31.58558974
     atom   17 type  1   force =     0.04273606    0.05323390  -31.53758966
     atom   18 type  1   force =    -0.08510100   -0.04884848  -31.47871871
     atom   19 type  1   force =     0.13941069    0.00470089   31.19756365
     atom   20 type  1   force =    -0.08022757   -0.04642450   31.54520269
     atom   21 type  1   force =    -0.04383272   -0.05742554   30.74276065
     atom   22 type  1   force =     0.01220975   -0.00257646   31.22038551
     atom   23 type  1   force =    -0.07172093   -0.00963076   30.74095086
     atom   24 type  1   force =     0.05333140    0.03048852   30.85622309
     atom   25 type  1   force =    -0.05110611   -0.02914549   30.61145268
     atom   26 type  1   force =     0.07379954    0.11879813   31.19709431
     atom   27 type  1   force =     0.00409512    0.01199209   31.22066003
     atom   28 type  1   force =     0.02952805    0.01709369   92.19165735
     atom   29 type  1   force =     0.32432201   -0.78881014   92.85187411
     atom   30 type  1   force =     0.05152849    0.01022853   92.62278144
     atom   31 type  1   force =    -0.52049597    0.67511679   92.85215200
     atom   32 type  1   force =     0.05266724    0.02990942   92.26122127
     atom   33 type  1   force =     0.03587573   -0.01908625   92.64710744
     atom   34 type  1   force =     0.03392465    0.03900478   92.62103801
     atom   35 type  1   force =     0.00206948    0.04057078   92.64632787
     atom   36 type  1   force =    -0.02554635   -0.01485773   92.60550254
     atom   37 type  2   force =    -0.03181917   -0.01828427   11.92303519
     The local contribution  to forces
     atom    1 type  1   force =    -0.00757064   -0.00438679   93.41736592
     atom    2 type  1   force =    -0.00088954   -0.00552126   93.40208111
     atom    3 type  1   force =     0.00800307    0.00658977   93.41619356
     atom    4 type  1   force =    -0.00521442    0.00198458   93.40209657
     atom    5 type  1   force =     0.01184164    0.00683632   93.41365138
     atom    6 type  1   force =    -0.00705813   -0.00074470   93.42341628
     atom    7 type  1   force =     0.00971948    0.00362070   93.41626178
     atom    8 type  1   force =    -0.00417162   -0.00574508   93.42346652
     atom    9 type  1   force =    -0.00469947   -0.00272042   93.40803978
     atom   10 type  1   force =    -0.05329911   -0.03099167   31.49016863
     atom   11 type  1   force =     0.08359906    0.01759011   31.49087265
     atom   12 type  1   force =    -0.04574567   -0.01831529   31.58507065
     atom   13 type  1   force =     0.05725410    0.06357489   31.49113015
     atom   14 type  1   force =     0.00537058    0.00326626   31.61664130
     atom   15 type  1   force =    -0.06552889   -0.01006856   31.54058833
     atom   16 type  1   force =    -0.03847982   -0.03098969   31.58539698
     atom   17 type  1   force =    -0.04157668   -0.05200262   31.54064853
     atom   18 type  1   force =     0.08635272    0.04955046   31.47722227
     atom   19 type  1   force =    -0.13629961   -0.00353806  -31.19676640
     atom   20 type  1   force =     0.07881466    0.04565238  -31.54930703
     atom   21 type  1   force =     0.04257379    0.05645180  -30.74339578
     atom   22 type  1   force =    -0.01341995   -0.00109478  -31.21739190
     atom   23 type  1   force =     0.07020856    0.00899753  -30.74159543
     atom   24 type  1   force =    -0.05187618   -0.02970196  -30.85791728
     atom   25 type  1   force =     0.05014895    0.02858978  -30.61426201
     atom   26 type  1   force =    -0.07127498   -0.11665917  -31.19629091
     atom   27 type  1   force =    -0.00784556   -0.01122262  -31.21765156
     atom   28 type  1   force =    -0.05488689   -0.03170633  -92.20363610
     atom   29 type  1   force =    -0.30670390    0.76230674  -92.83287343
     atom   30 type  1   force =    -0.05244880   -0.01000997  -92.62138089
     atom   31 type  1   force =     0.50632027   -0.64657634  -92.83318687
     atom   32 type  1   force =    -0.03102525   -0.01740840  -92.27086180
     atom   33 type  1   force =    -0.03480792    0.01894971  -92.64628000
     atom   34 type  1   force =    -0.03423389   -0.03990543  -92.61963258
     atom   35 type  1   force =    -0.00166108   -0.03957208  -92.64547632
     atom   36 type  1   force =     0.02628393    0.01526507  -92.60524689
     atom   37 type  2   force =     0.03021433    0.01735694  -11.89941221
     The core correction contribution to forces
     atom    1 type  1   force =    -0.00002344   -0.00001358    0.01728291
     atom    2 type  1   force =     0.00002684   -0.00001782    0.01725478
     atom    3 type  1   force =    -0.00001325   -0.00000181    0.01739762
     atom    4 type  1   force =    -0.00000189    0.00003249    0.01725461
     atom    5 type  1   force =    -0.00000565   -0.00000308    0.01730467
     atom    6 type  1   force =    -0.00002197   -0.00003629    0.01725375
     atom    7 type  1   force =    -0.00000828   -0.00001029    0.01739758
     atom    8 type  1   force =    -0.00004227   -0.00000050    0.01725384
     atom    9 type  1   force =    -0.00005209   -0.00002986    0.01718751
     atom   10 type  1   force =    -0.00012697   -0.00007418    0.00101749
     atom   11 type  1   force =     0.00013893    0.00009359    0.00104258
     atom   12 type  1   force =    -0.00005840   -0.00004485    0.00142044
     atom   13 type  1   force =     0.00015177    0.00007275    0.00104334
     atom   14 type  1   force =     0.00000593    0.00000367    0.00145025
     atom   15 type  1   force =    -0.00013151    0.00002009    0.00118218
     atom   16 type  1   force =    -0.00006705   -0.00002987    0.00142139
     atom   17 type  1   force =    -0.00004811   -0.00012453    0.00118254
     atom   18 type  1   force =     0.00016951    0.00009694    0.00085173
     atom   19 type  1   force =    -0.00024748   -0.00001410   -0.00238575
     atom   20 type  1   force =     0.00008060    0.00004635   -0.00249283
     atom   21 type  1   force =    -0.00000237    0.00010604   -0.00192930
     atom   22 type  1   force =    -0.00007455   -0.00012260   -0.00198978
     atom   23 type  1   force =     0.00009180   -0.00005494   -0.00193007
     atom   24 type  1   force =    -0.00001165   -0.00000616   -0.00186676
     atom   25 type  1   force =     0.00021854    0.00012560   -0.00185827
     atom   26 type  1   force =    -0.00013498   -0.00020876   -0.00238661
     atom   27 type  1   force =    -0.00014391   -0.00000347   -0.00198901
     atom   28 type  1   force =    -0.00094416   -0.00054552   -0.01597252
     atom   29 type  1   force =    -0.00364337    0.00720307   -0.00995496
     atom   30 type  1   force =     0.00031631   -0.00018653   -0.01656472
     atom   31 type  1   force =     0.00441394   -0.00675501   -0.00995669
     atom   32 type  1   force =     0.00073841    0.00042845   -0.01605199
     atom   33 type  1   force =    -0.00053229    0.00006820   -0.01654167
     atom   34 type  1   force =     0.00000009    0.00036918   -0.01656484
     atom   35 type  1   force =    -0.00020969   -0.00049542   -0.01654188
     atom   36 type  1   force =     0.00009271    0.00005387   -0.01665186
     atom   37 type  2   force =     0.00000000    0.00000000    0.00000000
     The Hubbard contrib.    to forces
     atom    1 type  1   force =     0.00000000    0.00000000    0.00000000
     atom    2 type  1   force =     0.00000000    0.00000000    0.00000000
     atom    3 type  1   force =     0.00000000    0.00000000    0.00000000
     atom    4 type  1   force =     0.00000000    0.00000000    0.00000000
     atom    5 type  1   force =     0.00000000    0.00000000    0.00000000
     atom    6 type  1   force =     0.00000000    0.00000000    0.00000000
     atom    7 type  1   force =     0.00000000    0.00000000    0.00000000
     atom    8 type  1   force =     0.00000000    0.00000000    0.00000000
     atom    9 type  1   force =     0.00000000    0.00000000    0.00000000
     atom   10 type  1   force =     0.00000000    0.00000000    0.00000000
     atom   11 type  1   force =     0.00000000    0.00000000    0.00000000
     atom   12 type  1   force =     0.00000000    0.00000000    0.00000000
     atom   13 type  1   force =     0.00000000    0.00000000    0.00000000
     atom   14 type  1   force =     0.00000000    0.00000000    0.00000000
     atom   15 type  1   force =     0.00000000    0.00000000    0.00000000
     atom   16 type  1   force =     0.00000000    0.00000000    0.00000000
     atom   17 type  1   force =     0.00000000    0.00000000    0.00000000
     atom   18 type  1   force =     0.00000000    0.00000000    0.00000000
     atom   19 type  1   force =     0.00000000    0.00000000    0.00000000
     atom   20 type  1   force =     0.00000000    0.00000000    0.00000000
     atom   21 type  1   force =     0.00000000    0.00000000    0.00000000
     atom   22 type  1   force =     0.00000000    0.00000000    0.00000000
     atom   23 type  1   force =     0.00000000    0.00000000    0.00000000
     atom   24 type  1   force =     0.00000000    0.00000000    0.00000000
     atom   25 type  1   force =     0.00000000    0.00000000    0.00000000
     atom   26 type  1   force =     0.00000000    0.00000000    0.00000000
     atom   27 type  1   force =     0.00000000    0.00000000    0.00000000
     atom   28 type  1   force =     0.00000000    0.00000000    0.00000000
     atom   29 type  1   force =     0.00000000    0.00000000    0.00000000
     atom   30 type  1   force =     0.00000000    0.00000000    0.00000000
     atom   31 type  1   force =     0.00000000    0.00000000    0.00000000
     atom   32 type  1   force =     0.00000000    0.00000000    0.00000000
     atom   33 type  1   force =     0.00000000    0.00000000    0.00000000
     atom   34 type  1   force =     0.00000000    0.00000000    0.00000000
     atom   35 type  1   force =     0.00000000    0.00000000    0.00000000
     atom   36 type  1   force =     0.00000000    0.00000000    0.00000000
     atom   37 type  2   force =     0.00000000    0.00000000    0.00000000
     The SCF correction term to forces
     atom    1 type  1   force =    -0.00000000   -0.00000000    0.00000000
     atom    2 type  1   force =     0.00000000    0.00000000    0.00000000
     atom    3 type  1   force =    -0.00000000   -0.00000000    0.00000000
     atom    4 type  1   force =     0.00000000    0.00000000    0.00000000
     atom    5 type  1   force =    -0.00000000   -0.00000000    0.00000000
     atom    6 type  1   force =    -0.00000000   -0.00000000    0.00000000
     atom    7 type  1   force =    -0.00000000    0.00000000    0.00000000
     atom    8 type  1   force =    -0.00000000    0.00000000    0.00000000
     atom    9 type  1   force =     0.00000000    0.00000000    0.00000000
     atom   10 type  1   force =     0.00000000    0.00000000    0.00000000
     atom   11 type  1   force =    -0.00000000   -0.00000000    0.00000000
     atom   12 type  1   force =    -0.00000000   -0.00000000    0.00000000
     atom   13 type  1   force =    -0.00000000   -0.00000000    0.00000000
     atom   14 type  1   force =    -0.00000000   -0.00000000    0.00000000
     atom   15 type  1   force =     0.00000000   -0.00000000    0.00000000
     atom   16 type  1   force =    -0.00000000    0.00000000    0.00000000
     atom   17 type  1   force =     0.00000000    0.00000000    0.00000000
     atom   18 type  1   force =     0.00000000    0.00000000    0.00000000
     atom   19 type  1   force =     0.00001051   -0.00005530    0.00028859
     atom   20 type  1   force =     0.00003440   -0.00002414    0.00026093
     atom   21 type  1   force =    -0.00004873   -0.00005676    0.00032230
     atom   22 type  1   force =     0.00004914    0.00007013    0.00025124
     atom   23 type  1   force =    -0.00003108    0.00000833    0.00033018
     atom   24 type  1   force =    -0.00001705    0.00003631    0.00033698
     atom   25 type  1   force =    -0.00004264   -0.00002013    0.00029694
     atom   26 type  1   force =    -0.00000209    0.00001235    0.00028355
     atom   27 type  1   force =     0.00005059    0.00002947    0.00023797
     atom   28 type  1   force =     0.00005991    0.00002318   -0.00053722
     atom   29 type  1   force =    -0.00006322    0.00014754   -0.00042505
     atom   30 type  1   force =    -0.00002844    0.00001173   -0.00057818
     atom   31 type  1   force =     0.00010938   -0.00014686   -0.00039633
     atom   32 type  1   force =    -0.00006222   -0.00003018   -0.00052941
     atom   33 type  1   force =    -0.00002460   -0.00002071   -0.00054018
     atom   34 type  1   force =     0.00002087   -0.00001851   -0.00056527
     atom   35 type  1   force =    -0.00002894    0.00000094   -0.00055503
     atom   36 type  1   force =     0.00000873    0.00003280   -0.00055080
     atom   37 type  2   force =     0.00000152    0.00000220   -0.00005530

     Total force =     0.001599     Total SCF correction =     0.001825
     SCF correction compared to forces is large: reduce conv_thr to get better values

     Writing all to output data dir ./pwscf.save/

     init_run     :     10.09s CPU     10.42s WALL (       1 calls)
     electrons    :    356.25s CPU    385.76s WALL (       1 calls)
     forces       :      4.09s CPU      5.13s WALL (       1 calls)

     Called by init_run:
     wfcinit      :      5.62s CPU      5.81s WALL (       1 calls)
     potinit      :      3.01s CPU      3.08s WALL (       1 calls)
     hinit0       :      0.89s CPU      0.91s WALL (       1 calls)

     Called by electrons:
     c_bands      :    302.93s CPU    323.08s WALL (      18 calls)
     sum_band     :     32.00s CPU     35.12s WALL (      18 calls)
     v_of_rho     :     10.63s CPU     13.53s WALL (      18 calls)
     newd         :      4.37s CPU      6.76s WALL (      18 calls)
     PAW_pot      :      3.99s CPU      4.66s WALL (      18 calls)
     mix_rho      :      4.23s CPU      4.30s WALL (      18 calls)
     vdW_kernel   :      1.67s CPU      1.68s WALL (       1 calls)

     Called by c_bands:
     init_us_2    :      2.44s CPU      2.48s WALL (     494 calls)
     init_us_2:cp :      2.44s CPU      2.48s WALL (     494 calls)
     cegterg      :    296.39s CPU    316.20s WALL (     234 calls)

     Called by *egterg:
     cdiaghg      :     67.45s CPU     71.37s WALL (    1204 calls)
     h_psi        :    131.49s CPU    139.76s WALL (    1230 calls)
     s_psi        :     17.25s CPU     18.61s WALL (    1230 calls)
     g_psi        :      0.72s CPU      0.74s WALL (     983 calls)

     Called by h_psi:
     h_psi:calbec :     20.26s CPU     21.45s WALL (    1230 calls)
     vloc_psi     :     91.89s CPU     97.32s WALL (    1230 calls)
     add_vuspsi   :     17.63s CPU     19.25s WALL (    1230 calls)

     General routines
     calbec       :     28.38s CPU     29.74s WALL (    1516 calls)
     fft          :      7.67s CPU     10.23s WALL (    1194 calls)
     ffts         :      2.42s CPU      2.44s WALL (    4520 calls)
     fftw         :     91.85s CPU     98.27s WALL (  310448 calls)
     interpolate  :      0.80s CPU      0.86s WALL (      18 calls)

     Parallel routines

     PWSCF        :   6m12.14s CPU   6m45.85s WALL


   This run was terminated on:  22: 1:49  22Feb2025            

=------------------------------------------------------------------------------=
   JOB DONE.
=------------------------------------------------------------------------------=
