
     Program PWSCF v.7.1 starts on  7Dec2025 at 19:18:45 
        Git branch: heads/qe-7.1
        Last git commit: 48ba0178f8fede6d020eb786884699a9f063f55d-dirty
        Last git commit date: Fri Jan 27 14:22:33 2023 +0000
        Last git commit subject: Merge branch 'fix_hubbard' into 'develop'

     This program is part of the open-source Quantum ESPRESSO suite
     for quantum simulation of materials; please cite
         "P. Giannozzi et al., J. Phys.:Condens. Matter 21 395502 (2009);
         "P. Giannozzi et al., J. Phys.:Condens. Matter 29 465901 (2017);
         "P. Giannozzi et al., J. Chem. Phys. 152 154105 (2020);
          URL http://www.quantum-espresso.org", 
     in publications or presentations arising from this work. More details at
     http://www.quantum-espresso.org/quote

     Parallel version (MPI), running on    96 processors

     MPI processes distributed on     2 nodes
     11261 MiB available memory on the printing compute node when the environment starts

     Reading input from espresso.pwi
Warning: card &CELL ignored
Warning: card / ignored
Warning: card &FCP ignored
Warning: card / ignored
Warning: card &RISM ignored
Warning: card / ignored

     Current dimensions of program PWSCF are:
     Max number of different atomic species (ntypx) = 10
     Max number of k-points (npk) =  40000
     Max angular momentum in pseudopotentials (lmaxx) =  4
     file Co.pbe-n-kjpaw_psl.1.0.0.UPF: wavefunction(s)  4S 3D renormalized
     file C.pbe-n-kjpaw_psl.1.0.0.UPF: wavefunction(s)  2S 2P renormalized
     file O.pbe-nl-kjpaw_psl.1.0.0.UPF: wavefunction(s)  2S 2P renormalized
     file H.pbe-kjpaw_psl.1.0.0.UPF: wavefunction(s)  1S renormalized

     **************************************************************************
     Initializing libbeef V0.1.2 with the BEEF-vdW functional.
     Citation: Wellendorff et al., PRB 85, 235149 (2012).
     **************************************************************************


     IMPORTANT: XC functional enforced from input :
     Exchange-correlation= BEEF-VDW
                           (   1   4  43  14   2   0   0)
     Any further DFT definition will be discarded
     Please, verify this is what you really want


     R & G space division:  proc/nbgrp/npool/nimage =      96
     Subspace diagonalization in iterative solution of the eigenvalue problem:
     one sub-group per band group will be used
     custom distributed-memory algorithm (size of sub-group:  2*  2 procs)


     Parallelization info
     --------------------
     sticks:   dense  smooth     PW     G-vecs:    dense   smooth      PW
     Min          43      28      7                 7829     4248     595
     Max          44      29      8                 7845     4281     630
     Sum        4153    2773    757               752179   409445   59217

     Using Slab Decomposition



     bravais-lattice index     =            0
     lattice parameter (alat)  =      14.1729  a.u.
     unit-cell volume          =    8574.3059 (a.u.)^3
     number of atoms/cell      =           39
     number of atomic types    =            4
     number of electrons       =       335.00
     number of Kohn-Sham states=          202
     kinetic-energy cutoff     =      50.0000  Ry
     charge density cutoff     =     300.0000  Ry
     scf convergence threshold =      1.0E-08
     mixing beta               =       0.7000
     number of iterations used =            8  local-TF  mixing
     Exchange-correlation= BEEF-VDW
                           (   1   4  43  14   2   0   0)

     celldm(1)=  14.172946  celldm(2)=   0.000000  celldm(3)=   0.000000
     celldm(4)=   0.000000  celldm(5)=   0.000000  celldm(6)=   0.000000

     crystal axes: (cart. coord. in units of alat)
               a(1) = (   1.000000   0.000000   0.000000 )  
               a(2) = (   0.500000   0.866025   0.000000 )  
               a(3) = (   0.000000   0.000000   3.477667 )  

     reciprocal axes: (cart. coord. in units 2 pi/alat)
               b(1) = (  1.000000 -0.577350  0.000000 )  
               b(2) = (  0.000000  1.154701  0.000000 )  
               b(3) = (  0.000000  0.000000  0.287549 )  


     PseudoPot. # 1 for Co read from file:
     /users/kbadger1/espresso/pseudo/pslibrary.1.0.0/pbe/PSEUDOPOTENTIALS/Co.pbe-n-kjpaw_psl.1.0.0.UPF
     MD5 check sum: 88af6ec42553d4236c267fdfcb472151
     Pseudo is Projector augmented-wave + core cor, Zval =  9.0
     Generated using 'atomic' code by A. Dal Corso  v.7.0
     Shape of augmentation charge: PSQ
     Using radial grid of 1193 points,  6 beta functions with: 
                l(1) =   0
                l(2) =   0
                l(3) =   1
                l(4) =   1
                l(5) =   2
                l(6) =   2
     Q(r) pseudized with 0 coefficients 


     PseudoPot. # 2 for C  read from file:
     /users/kbadger1/espresso/pseudo/pslibrary.1.0.0/pbe/PSEUDOPOTENTIALS/C.pbe-n-kjpaw_psl.1.0.0.UPF
     MD5 check sum: 6408e75cdba28732cea38a4db8498ce4
     Pseudo is Projector augmented-wave + core cor, Zval =  4.0
     Generated using 'atomic' code by A. Dal Corso  v.7.0
     Shape of augmentation charge: PSQ
     Using radial grid of 1073 points,  4 beta functions with: 
                l(1) =   0
                l(2) =   0
                l(3) =   1
                l(4) =   1
     Q(r) pseudized with 0 coefficients 


     PseudoPot. # 3 for O  read from file:
     /users/kbadger1/espresso/pseudo/pslibrary.1.0.0/pbe/PSEUDOPOTENTIALS/O.pbe-nl-kjpaw_psl.1.0.0.UPF
     MD5 check sum: f0439fab3598ca4e468f064226030408
     Pseudo is Projector augmented-wave + core cor, Zval =  6.0
     Generated using 'atomic' code by A. Dal Corso  v.7.0
     Shape of augmentation charge: PSQ
     Using radial grid of 1095 points,  4 beta functions with: 
                l(1) =   0
                l(2) =   0
                l(3) =   1
                l(4) =   1
     Q(r) pseudized with 0 coefficients 


     PseudoPot. # 4 for H  read from file:
     /users/kbadger1/espresso/pseudo/pslibrary.1.0.0/pbe/PSEUDOPOTENTIALS/H.pbe-kjpaw_psl.1.0.0.UPF
     MD5 check sum: fe4c6fa958fa6d3815bf5d2419cbf1df
     Pseudo is Projector augmented-wave, Zval =  1.0
     Generated using 'atomic' code by A. Dal Corso  v.7.0
     Shape of augmentation charge: PSQ
     Using radial grid of  929 points,  2 beta functions with: 
                l(1) =   0
                l(2) =   0
     Q(r) pseudized with 0 coefficients 


     atomic species   valence    mass     pseudopotential
        Co             9.00    58.93319     Co( 1.00)
        C              4.00    12.00000     C ( 1.00)
        O              6.00    15.99491     O ( 1.00)
        H              1.00     1.00783     H ( 1.00)

     Starting magnetic structure 
     atomic species   magnetization
        Co           1.000
        C            1.000
        O            0.000
        H            0.000

     No symmetry found



   Cartesian axes

     site n.     atom                  positions (alat units)
         1           Co  tau(   1) = (   0.0000000   0.1924501   1.3333333  )
         2           Co  tau(   2) = (   0.3333333   0.1924501   1.3333333  )
         3           Co  tau(   3) = (   0.6666667   0.1924501   1.3333333  )
         4           Co  tau(   4) = (   0.1666667   0.4811252   1.3333333  )
         5           Co  tau(   5) = (   0.5000000   0.4811252   1.3333333  )
         6           Co  tau(   6) = (   0.8333333   0.4811252   1.3333333  )
         7           Co  tau(   7) = (   0.3333333   0.7698004   1.3333333  )
         8           Co  tau(   8) = (   0.6666667   0.7698004   1.3333333  )
         9           Co  tau(   9) = (   1.0000000   0.7698004   1.3333333  )
        10           Co  tau(  10) = (   0.0000000   0.0000000   1.6036667  )
        11           Co  tau(  11) = (   0.3333333   0.0000000   1.6036667  )
        12           Co  tau(  12) = (   0.6666667   0.0000000   1.6036667  )
        13           Co  tau(  13) = (   0.1666667   0.2886751   1.6036667  )
        14           Co  tau(  14) = (   0.5000000   0.2886751   1.6036667  )
        15           Co  tau(  15) = (   0.8333333   0.2886751   1.6036667  )
        16           Co  tau(  16) = (   0.3333333   0.5773503   1.6036667  )
        17           Co  tau(  17) = (   0.6666667   0.5773503   1.6036667  )
        18           Co  tau(  18) = (   1.0000000   0.5773503   1.6036667  )
        19           Co  tau(  19) = (   0.0000000   0.1924501   1.8740000  )
        20           Co  tau(  20) = (   0.3333333   0.1924501   1.8740000  )
        21           Co  tau(  21) = (   0.6666667   0.1924501   1.8740000  )
        22           Co  tau(  22) = (   0.1666667   0.4811252   1.8740000  )
        23           Co  tau(  23) = (   0.5000000   0.4811252   1.8740000  )
        24           Co  tau(  24) = (   0.8333333   0.4811252   1.8740000  )
        25           Co  tau(  25) = (   0.3333333   0.7698004   1.8740000  )
        26           Co  tau(  26) = (   0.6666667   0.7698004   1.8740000  )
        27           Co  tau(  27) = (   1.0000000   0.7698004   1.8740000  )
        28           Co  tau(  28) = (   0.0000000   0.0000000   2.1443333  )
        29           Co  tau(  29) = (   0.3333333   0.0000000   2.1443333  )
        30           Co  tau(  30) = (   0.6666667   0.0000000   2.1443333  )
        31           Co  tau(  31) = (   0.1666667   0.2886751   2.1443333  )
        32           Co  tau(  32) = (   0.5000000   0.2886751   2.1443333  )
        33           Co  tau(  33) = (   0.8333333   0.2886751   2.1443333  )
        34           Co  tau(  34) = (   0.3333333   0.5773503   2.1443333  )
        35           Co  tau(  35) = (   0.6666667   0.5773503   2.1443333  )
        36           Co  tau(  36) = (   1.0000000   0.5773503   2.1443333  )
        37           C   tau(  37) = (   0.4297106   0.2075757   2.3685869  )
        38           O   tau(  38) = (   0.3312897   0.0794095   2.4158996  )
        39           H   tau(  39) = (   0.4920209   0.2880542   2.4747341  )

     number of k points=    13  Marzari-Vanderbilt smearing, width (Ry)=  0.0010
                       cart. coord. in units 2pi/alat
        k(    1) = (   0.0000000   0.0000000   0.0000000), wk =   0.0400000
        k(    2) = (   0.0000000   0.2309401   0.0000000), wk =   0.0800000
        k(    3) = (   0.0000000   0.4618802   0.0000000), wk =   0.0800000
        k(    4) = (   0.2000000  -0.1154701   0.0000000), wk =   0.0800000
        k(    5) = (   0.2000000   0.1154701   0.0000000), wk =   0.0800000
        k(    6) = (   0.2000000   0.3464102   0.0000000), wk =   0.0800000
        k(    7) = (   0.2000000  -0.5773503   0.0000000), wk =   0.0800000
        k(    8) = (   0.2000000  -0.3464102   0.0000000), wk =   0.0800000
        k(    9) = (   0.4000000  -0.2309401   0.0000000), wk =   0.0800000
        k(   10) = (   0.4000000   0.0000000   0.0000000), wk =   0.0800000
        k(   11) = (   0.4000000   0.2309401   0.0000000), wk =   0.0800000
        k(   12) = (   0.4000000  -0.6928203   0.0000000), wk =   0.0800000
        k(   13) = (   0.4000000  -0.4618802   0.0000000), wk =   0.0800000

     Dense  grid:   752179 G-vectors     FFT dimensions: (  80,  80, 288)

     Smooth grid:   409445 G-vectors     FFT dimensions: (  64,  64, 225)

     Estimated max dynamical RAM per process >      99.02 MB

     Estimated total dynamical RAM >       9.28 GB
     Generating pointlists ...
     new r_m :   0.1026 (alat units)  1.4535 (a.u.) for type    1
     new r_m :   0.0607 (alat units)  0.8598 (a.u.) for type    2
     new r_m :   0.0695 (alat units)  0.9844 (a.u.) for type    3
     new r_m :   0.0607 (alat units)  0.8598 (a.u.) for type    4

     Initial potential from superposition of free atoms

     starting charge     334.9897, renormalised to     335.0000

     negative rho (up, down):  2.998E-03 4.702E-04


     %%%%%%%%%%%%%%%%%%%%%%%%%%%%%%%%%%%%%%%%%%%%%%%%%%%%%%%%%%%%%%%%%%%%%%%%
     %                                                                      %
     % You are using vdW-DF, which was implemented by the Thonhauser group. %
     % Please cite the following two papers that made this development      %
     % possible and the two reviews that describe the various versions:     %
     %                                                                      %
     %   T. Thonhauser et al., PRL 115, 136402 (2015).                      %
     %   T. Thonhauser et al., PRB 76, 125112 (2007).                       %
     %   K. Berland et al., Rep. Prog. Phys. 78, 066501 (2015).             %
     %   D.C. Langreth et al., J. Phys.: Condens. Matter 21, 084203 (2009). %
     %                                                                      %
     % If you are calculating stress with vdW-DF, please also cite:         %
     %                                                                      %
     %   R. Sabatini et al., J. Phys.: Condens. Matter 24, 424209 (2012).   %
     %   C.M. Frostenson et al., Electr. Struct. 4, 014001 (2022).          %
     %                                                                      %
     %%%%%%%%%%%%%%%%%%%%%%%%%%%%%%%%%%%%%%%%%%%%%%%%%%%%%%%%%%%%%%%%%%%%%%%%

     %%%%%%%%%%%%%%%%%%%%%%%%%%%%%%%%%%%%%%%%%%%%%%%%%%%%%%%%%%%%%%%%%%%%%%%%
     %                                                                      %
     %  vdW-DF NEWS:                                                        %
     %                                                                      %
     %  * vdW-DF3 is now available. DOI: 10.1021/acs.jctc.0c00471           %
     %    use with input_dft = 'vdW-DF3-opt1' or 'vdW-DF3-opt2'             %
     %                                                                      %
     %  * Unscreened and range-separated hybrid vdW-DF-cx functionals       %
     %    DOI: 10.1063/1.4986522 and 10.1088/1361-648X/ac2ad2               %
     %    use with input_dft = 'vdW-DF-cx0'    and 'vdW-DF-ahcx'            %
     %  * Unscreened and range-separated hybrid vdW-DF2-b86r functionals    %
     %    DOI: 10.1063/1.4986522 and DOI: 10.1103/PhysRevX.12.041003        %
     %    use with input_dft = 'vdW-DF2-br0' and 'vdW-DF2-ahbr'             %
     %                                                                      %
     %%%%%%%%%%%%%%%%%%%%%%%%%%%%%%%%%%%%%%%%%%%%%%%%%%%%%%%%%%%%%%%%%%%%%%%%


     Starting wfcs are  333 randomized atomic wfcs
     Checking if some PAW data can be deallocated... 

     total cpu time spent up to now is       16.6 secs

     per-process dynamical memory:   230.2 Mb

     Self-consistent Calculation

     iteration #  1     ecut=    50.00 Ry     beta= 0.70
     Davidson diagonalization with overlap
     ethr =  1.00E-02,  avg # of iterations =  2.0

     negative rho (up, down):  2.251E-05 4.946E-08

     total cpu time spent up to now is       33.7 secs

     total energy              =   -6053.06196186 Ry
     estimated scf accuracy    <      39.79780935 Ry

     total magnetization       =    69.00 Bohr mag/cell
     absolute magnetization    =    81.17 Bohr mag/cell

     iteration #  2     ecut=    50.00 Ry     beta= 0.70
     Davidson diagonalization with overlap
     ethr =  1.00E-02,  avg # of iterations =  1.0

     negative rho (up, down):  2.539E-06 4.208E-09

     total cpu time spent up to now is       51.8 secs

     total energy              =   -6052.46015443 Ry
     estimated scf accuracy    <      25.41763218 Ry

     total magnetization       =    68.85 Bohr mag/cell
     absolute magnetization    =    76.72 Bohr mag/cell

     iteration #  3     ecut=    50.00 Ry     beta= 0.70
     Davidson diagonalization with overlap
     ethr =  7.59E-03,  avg # of iterations =  1.0

     negative rho (up, down):  1.981E-08 0.000E+00

     total cpu time spent up to now is       69.7 secs

     total energy              =   -6055.15100401 Ry
     estimated scf accuracy    <      84.90039294 Ry

     total magnetization       =    66.13 Bohr mag/cell
     absolute magnetization    =    73.26 Bohr mag/cell

     iteration #  4     ecut=    50.00 Ry     beta= 0.70
     Davidson diagonalization with overlap
     ethr =  7.59E-03,  avg # of iterations =  1.0

     total cpu time spent up to now is       82.9 secs

     total energy              =   -6056.34708155 Ry
     estimated scf accuracy    <       5.74968301 Ry

     total magnetization       =    60.65 Bohr mag/cell
     absolute magnetization    =    70.46 Bohr mag/cell

     iteration #  5     ecut=    50.00 Ry     beta= 0.70
     Davidson diagonalization with overlap
     ethr =  1.72E-03,  avg # of iterations =  1.2

     total cpu time spent up to now is      100.5 secs

     total energy              =   -6056.37495351 Ry
     estimated scf accuracy    <       3.36467443 Ry

     total magnetization       =    60.38 Bohr mag/cell
     absolute magnetization    =    69.79 Bohr mag/cell

     iteration #  6     ecut=    50.00 Ry     beta= 0.70
     Davidson diagonalization with overlap
     ethr =  1.00E-03,  avg # of iterations =  1.4

     total cpu time spent up to now is      114.5 secs

     total energy              =   -6056.48065411 Ry
     estimated scf accuracy    <       0.55145013 Ry

     total magnetization       =    60.43 Bohr mag/cell
     absolute magnetization    =    69.61 Bohr mag/cell

     iteration #  7     ecut=    50.00 Ry     beta= 0.70
     Davidson diagonalization with overlap
     ethr =  1.65E-04,  avg # of iterations =  5.3

     total cpu time spent up to now is      137.2 secs

     total energy              =   -6056.51090778 Ry
     estimated scf accuracy    <       0.76689142 Ry

     total magnetization       =    60.49 Bohr mag/cell
     absolute magnetization    =    69.36 Bohr mag/cell

     iteration #  8     ecut=    50.00 Ry     beta= 0.70
     Davidson diagonalization with overlap
     ethr =  1.65E-04,  avg # of iterations =  2.2

     total cpu time spent up to now is      151.3 secs

     total energy              =   -6056.52675381 Ry
     estimated scf accuracy    <       0.17334115 Ry

     total magnetization       =    60.66 Bohr mag/cell
     absolute magnetization    =    69.31 Bohr mag/cell

     iteration #  9     ecut=    50.00 Ry     beta= 0.70
     Davidson diagonalization with overlap
     c_bands:  3 eigenvalues not converged
     c_bands:  1 eigenvalues not converged
     c_bands:  1 eigenvalues not converged
     ethr =  5.17E-05,  avg # of iterations = 10.9

     total cpu time spent up to now is      179.3 secs

     total energy              =   -6056.54119939 Ry
     estimated scf accuracy    <       0.16434940 Ry

     total magnetization       =    61.31 Bohr mag/cell
     absolute magnetization    =    69.46 Bohr mag/cell

     iteration # 10     ecut=    50.00 Ry     beta= 0.70
     Davidson diagonalization with overlap
     ethr =  4.91E-05,  avg # of iterations =  2.1

     total cpu time spent up to now is      198.3 secs

     total energy              =   -6056.54115703 Ry
     estimated scf accuracy    <       0.16379160 Ry

     total magnetization       =    61.33 Bohr mag/cell
     absolute magnetization    =    69.31 Bohr mag/cell

     iteration # 11     ecut=    50.00 Ry     beta= 0.70
     Davidson diagonalization with overlap
     ethr =  4.89E-05,  avg # of iterations =  1.3

     total cpu time spent up to now is      211.5 secs

     total energy              =   -6056.53614005 Ry
     estimated scf accuracy    <       0.09925820 Ry

     total magnetization       =    61.34 Bohr mag/cell
     absolute magnetization    =    69.20 Bohr mag/cell

     iteration # 12     ecut=    50.00 Ry     beta= 0.70
     Davidson diagonalization with overlap
     ethr =  2.96E-05,  avg # of iterations =  3.0

     negative rho (up, down):  1.376E-06 0.000E+00

     total cpu time spent up to now is      231.2 secs

     total energy              =   -6056.53832484 Ry
     estimated scf accuracy    <       0.07995106 Ry

     total magnetization       =    61.26 Bohr mag/cell
     absolute magnetization    =    68.97 Bohr mag/cell

     iteration # 13     ecut=    50.00 Ry     beta= 0.70
     Davidson diagonalization with overlap
     ethr =  2.39E-05,  avg # of iterations =  1.5

     total cpu time spent up to now is      249.5 secs

     total energy              =   -6056.53656380 Ry
     estimated scf accuracy    <       0.08890502 Ry

     total magnetization       =    61.32 Bohr mag/cell
     absolute magnetization    =    68.95 Bohr mag/cell

     iteration # 14     ecut=    50.00 Ry     beta= 0.70
     Davidson diagonalization with overlap
     ethr =  2.39E-05,  avg # of iterations =  1.6

     negative rho (up, down):  3.231E-03 2.278E-03

     total cpu time spent up to now is      263.3 secs

     total energy              =   -6056.52993892 Ry
     estimated scf accuracy    <       0.06136892 Ry

     total magnetization       =    61.34 Bohr mag/cell
     absolute magnetization    =    69.00 Bohr mag/cell

     iteration # 15     ecut=    50.00 Ry     beta= 0.70
     Davidson diagonalization with overlap
     ethr =  1.83E-05,  avg # of iterations =  3.2

     negative rho (up, down):  8.430E-03 7.113E-03

     total cpu time spent up to now is      283.0 secs

     total energy              =   -6056.52820060 Ry
     estimated scf accuracy    <       0.06830615 Ry

     total magnetization       =    61.33 Bohr mag/cell
     absolute magnetization    =    68.93 Bohr mag/cell

     iteration # 16     ecut=    50.00 Ry     beta= 0.70
     Davidson diagonalization with overlap
     ethr =  1.83E-05,  avg # of iterations =  1.4

     negative rho (up, down):  1.684E-02 1.527E-02

     total cpu time spent up to now is      297.1 secs

     total energy              =   -6056.52751573 Ry
     estimated scf accuracy    <       0.03443898 Ry

     total magnetization       =    61.34 Bohr mag/cell
     absolute magnetization    =    68.91 Bohr mag/cell

     iteration # 17     ecut=    50.00 Ry     beta= 0.70
     Davidson diagonalization with overlap
     c_bands:  2 eigenvalues not converged
     c_bands:  1 eigenvalues not converged
     ethr =  1.03E-05,  avg # of iterations =  3.7

     negative rho (up, down):  2.584E-02 2.409E-02

     total cpu time spent up to now is      317.6 secs

     total energy              =   -6056.52555356 Ry
     estimated scf accuracy    <       0.02944427 Ry

     total magnetization       =    61.34 Bohr mag/cell
     absolute magnetization    =    68.89 Bohr mag/cell

     iteration # 18     ecut=    50.00 Ry     beta= 0.70
     Davidson diagonalization with overlap
     c_bands:  1 eigenvalues not converged
     c_bands:  3 eigenvalues not converged
     ethr =  8.79E-06,  avg # of iterations =  4.9

     negative rho (up, down):  1.511E-02 1.365E-02

     total cpu time spent up to now is      339.4 secs

     total energy              =   -6056.52621395 Ry
     estimated scf accuracy    <       0.03889954 Ry

     total magnetization       =    61.33 Bohr mag/cell
     absolute magnetization    =    68.86 Bohr mag/cell

     iteration # 19     ecut=    50.00 Ry     beta= 0.70
     Davidson diagonalization with overlap
     ethr =  8.79E-06,  avg # of iterations =  1.2

     negative rho (up, down):  2.095E-02 1.935E-02

     total cpu time spent up to now is      352.9 secs

     total energy              =   -6056.52533282 Ry
     estimated scf accuracy    <       0.01298491 Ry

     total magnetization       =    61.33 Bohr mag/cell
     absolute magnetization    =    68.87 Bohr mag/cell

     iteration # 20     ecut=    50.00 Ry     beta= 0.70
     Davidson diagonalization with overlap
     c_bands:  2 eigenvalues not converged
     ethr =  3.88E-06,  avg # of iterations =  3.6

     negative rho (up, down):  1.555E-02 1.427E-02

     total cpu time spent up to now is      373.3 secs

     total energy              =   -6056.52358484 Ry
     estimated scf accuracy    <       0.01193260 Ry

     total magnetization       =    61.33 Bohr mag/cell
     absolute magnetization    =    68.85 Bohr mag/cell

     iteration # 21     ecut=    50.00 Ry     beta= 0.70
     Davidson diagonalization with overlap
     ethr =  3.56E-06,  avg # of iterations =  2.3

     negative rho (up, down):  1.580E-02 1.462E-02

     total cpu time spent up to now is      387.8 secs

     total energy              =   -6056.52272633 Ry
     estimated scf accuracy    <       0.02870582 Ry

     total magnetization       =    61.33 Bohr mag/cell
     absolute magnetization    =    68.85 Bohr mag/cell

     iteration # 22     ecut=    50.00 Ry     beta= 0.70
     Davidson diagonalization with overlap
     ethr =  3.56E-06,  avg # of iterations =  1.3

     negative rho (up, down):  2.069E-02 1.967E-02

     total cpu time spent up to now is      405.4 secs

     total energy              =   -6056.52336176 Ry
     estimated scf accuracy    <       0.00798026 Ry

     total magnetization       =    61.33 Bohr mag/cell
     absolute magnetization    =    68.85 Bohr mag/cell

     iteration # 23     ecut=    50.00 Ry     beta= 0.70
     Davidson diagonalization with overlap
     ethr =  2.38E-06,  avg # of iterations =  1.6

     negative rho (up, down):  1.534E-02 1.448E-02

     total cpu time spent up to now is      419.7 secs

     total energy              =   -6056.52332732 Ry
     estimated scf accuracy    <       0.00124652 Ry

     total magnetization       =    61.33 Bohr mag/cell
     absolute magnetization    =    68.85 Bohr mag/cell

     iteration # 24     ecut=    50.00 Ry     beta= 0.70
     Davidson diagonalization with overlap
     ethr =  3.72E-07,  avg # of iterations =  6.7

     negative rho (up, down):  8.986E-03 8.229E-03

     total cpu time spent up to now is      443.4 secs

     total energy              =   -6056.52331443 Ry
     estimated scf accuracy    <       0.00233171 Ry

     total magnetization       =    61.34 Bohr mag/cell
     absolute magnetization    =    68.85 Bohr mag/cell

     iteration # 25     ecut=    50.00 Ry     beta= 0.70
     Davidson diagonalization with overlap
     ethr =  3.72E-07,  avg # of iterations =  1.9

     negative rho (up, down):  7.794E-03 7.065E-03

     total cpu time spent up to now is      462.3 secs

     total energy              =   -6056.52346121 Ry
     estimated scf accuracy    <       0.00070169 Ry

     total magnetization       =    61.33 Bohr mag/cell
     absolute magnetization    =    68.86 Bohr mag/cell

     iteration # 26     ecut=    50.00 Ry     beta= 0.70
     Davidson diagonalization with overlap
     ethr =  2.09E-07,  avg # of iterations =  2.6

     negative rho (up, down):  6.619E-03 5.853E-03

     total cpu time spent up to now is      477.9 secs

     total energy              =   -6056.52352465 Ry
     estimated scf accuracy    <       0.00184243 Ry

     total magnetization       =    61.33 Bohr mag/cell
     absolute magnetization    =    68.85 Bohr mag/cell

     iteration # 27     ecut=    50.00 Ry     beta= 0.70
     Davidson diagonalization with overlap
     ethr =  2.09E-07,  avg # of iterations =  1.3

     negative rho (up, down):  5.202E-03 4.367E-03

     total cpu time spent up to now is      496.3 secs

     total energy              =   -6056.52356839 Ry
     estimated scf accuracy    <       0.00027952 Ry

     total magnetization       =    61.33 Bohr mag/cell
     absolute magnetization    =    68.86 Bohr mag/cell

     iteration # 28     ecut=    50.00 Ry     beta= 0.70
     Davidson diagonalization with overlap
     ethr =  8.34E-08,  avg # of iterations =  2.5

     negative rho (up, down):  5.227E-03 4.394E-03

     total cpu time spent up to now is      511.1 secs

     total energy              =   -6056.52357669 Ry
     estimated scf accuracy    <       0.00021844 Ry

     total magnetization       =    61.33 Bohr mag/cell
     absolute magnetization    =    68.86 Bohr mag/cell

     iteration # 29     ecut=    50.00 Ry     beta= 0.70
     Davidson diagonalization with overlap
     ethr =  6.52E-08,  avg # of iterations =  1.6

     negative rho (up, down):  3.234E-03 2.250E-03

     total cpu time spent up to now is      529.4 secs

     total energy              =   -6056.52354489 Ry
     estimated scf accuracy    <       0.00009072 Ry

     total magnetization       =    61.33 Bohr mag/cell
     absolute magnetization    =    68.86 Bohr mag/cell

     iteration # 30     ecut=    50.00 Ry     beta= 0.70
     Davidson diagonalization with overlap
     ethr =  2.71E-08,  avg # of iterations =  3.4

     negative rho (up, down):  2.515E-03 1.416E-03

     total cpu time spent up to now is      550.3 secs

     total energy              =   -6056.52355667 Ry
     estimated scf accuracy    <       0.00020862 Ry

     total magnetization       =    61.33 Bohr mag/cell
     absolute magnetization    =    68.86 Bohr mag/cell

     iteration # 31     ecut=    50.00 Ry     beta= 0.70
     Davidson diagonalization with overlap
     ethr =  2.71E-08,  avg # of iterations =  2.1

     negative rho (up, down):  2.803E-03 1.699E-03

     total cpu time spent up to now is      564.9 secs

     total energy              =   -6056.52356280 Ry
     estimated scf accuracy    <       0.00004327 Ry

     total magnetization       =    61.33 Bohr mag/cell
     absolute magnetization    =    68.86 Bohr mag/cell

     iteration # 32     ecut=    50.00 Ry     beta= 0.70
     Davidson diagonalization with overlap
     ethr =  1.29E-08,  avg # of iterations =  3.4

     negative rho (up, down):  2.679E-03 1.634E-03

     total cpu time spent up to now is      585.2 secs

     total energy              =   -6056.52356342 Ry
     estimated scf accuracy    <       0.00015354 Ry

     total magnetization       =    61.33 Bohr mag/cell
     absolute magnetization    =    68.86 Bohr mag/cell

     iteration # 33     ecut=    50.00 Ry     beta= 0.70
     Davidson diagonalization with overlap
     ethr =  1.29E-08,  avg # of iterations =  1.9

     negative rho (up, down):  2.599E-03 1.543E-03

     total cpu time spent up to now is      600.2 secs

     total energy              =   -6056.52356927 Ry
     estimated scf accuracy    <       0.00001722 Ry

     total magnetization       =    61.33 Bohr mag/cell
     absolute magnetization    =    68.86 Bohr mag/cell

     iteration # 34     ecut=    50.00 Ry     beta= 0.70
     Davidson diagonalization with overlap
     ethr =  5.14E-09,  avg # of iterations =  2.8

     negative rho (up, down):  2.477E-03 1.412E-03

     total cpu time spent up to now is      619.8 secs

     total energy              =   -6056.52356924 Ry
     estimated scf accuracy    <       0.00001068 Ry

     total magnetization       =    61.33 Bohr mag/cell
     absolute magnetization    =    68.86 Bohr mag/cell

     iteration # 35     ecut=    50.00 Ry     beta= 0.70
     Davidson diagonalization with overlap
     ethr =  3.19E-09,  avg # of iterations =  3.7

     negative rho (up, down):  2.469E-03 1.394E-03

     total cpu time spent up to now is      640.3 secs

     total energy              =   -6056.52356984 Ry
     estimated scf accuracy    <       0.00000918 Ry

     total magnetization       =    61.33 Bohr mag/cell
     absolute magnetization    =    68.86 Bohr mag/cell

     iteration # 36     ecut=    50.00 Ry     beta= 0.70
     Davidson diagonalization with overlap
     ethr =  2.74E-09,  avg # of iterations =  1.5

     negative rho (up, down):  2.485E-03 1.391E-03

     total cpu time spent up to now is      654.2 secs

     total energy              =   -6056.52357017 Ry
     estimated scf accuracy    <       0.00000483 Ry

     total magnetization       =    61.33 Bohr mag/cell
     absolute magnetization    =    68.86 Bohr mag/cell

     iteration # 37     ecut=    50.00 Ry     beta= 0.70
     Davidson diagonalization with overlap
     ethr =  1.44E-09,  avg # of iterations =  3.4

     negative rho (up, down):  2.399E-03 1.326E-03

     total cpu time spent up to now is      674.7 secs

     total energy              =   -6056.52356990 Ry
     estimated scf accuracy    <       0.00000605 Ry

     total magnetization       =    61.33 Bohr mag/cell
     absolute magnetization    =    68.85 Bohr mag/cell

     iteration # 38     ecut=    50.00 Ry     beta= 0.70
     Davidson diagonalization with overlap
     ethr =  1.44E-09,  avg # of iterations =  1.9

     negative rho (up, down):  2.391E-03 1.302E-03

     total cpu time spent up to now is      689.2 secs

     total energy              =   -6056.52357038 Ry
     estimated scf accuracy    <       0.00000231 Ry

     total magnetization       =    61.33 Bohr mag/cell
     absolute magnetization    =    68.85 Bohr mag/cell

     iteration # 39     ecut=    50.00 Ry     beta= 0.70
     Davidson diagonalization with overlap
     c_bands:  1 eigenvalues not converged
     ethr =  6.90E-10,  avg # of iterations =  3.0

     negative rho (up, down):  2.342E-03 1.246E-03

     total cpu time spent up to now is      709.2 secs

     total energy              =   -6056.52357054 Ry
     estimated scf accuracy    <       0.00000079 Ry

     total magnetization       =    61.33 Bohr mag/cell
     absolute magnetization    =    68.85 Bohr mag/cell

     iteration # 40     ecut=    50.00 Ry     beta= 0.70
     Davidson diagonalization with overlap
     ethr =  2.37E-10,  avg # of iterations =  6.5

     negative rho (up, down):  2.333E-03 1.238E-03

     total cpu time spent up to now is      733.3 secs

     total energy              =   -6056.52357053 Ry
     estimated scf accuracy    <       0.00000261 Ry

     total magnetization       =    61.33 Bohr mag/cell
     absolute magnetization    =    68.85 Bohr mag/cell

     iteration # 41     ecut=    50.00 Ry     beta= 0.70
     Davidson diagonalization with overlap
     ethr =  2.37E-10,  avg # of iterations =  1.5

     negative rho (up, down):  2.328E-03 1.232E-03

     total cpu time spent up to now is      747.1 secs

     total energy              =   -6056.52357060 Ry
     estimated scf accuracy    <       0.00000058 Ry

     total magnetization       =    61.33 Bohr mag/cell
     absolute magnetization    =    68.85 Bohr mag/cell

     iteration # 42     ecut=    50.00 Ry     beta= 0.70
     Davidson diagonalization with overlap
     ethr =  1.72E-10,  avg # of iterations =  1.7

     negative rho (up, down):  2.269E-03 1.170E-03

     total cpu time spent up to now is      765.7 secs

     total energy              =   -6056.52357056 Ry
     estimated scf accuracy    <       0.00000067 Ry

     total magnetization       =    61.33 Bohr mag/cell
     absolute magnetization    =    68.85 Bohr mag/cell

     iteration # 43     ecut=    50.00 Ry     beta= 0.70
     Davidson diagonalization with overlap
     ethr =  1.72E-10,  avg # of iterations =  1.7

     negative rho (up, down):  2.262E-03 1.163E-03

     total cpu time spent up to now is      780.5 secs

     total energy              =   -6056.52357057 Ry
     estimated scf accuracy    <       0.00000032 Ry

     total magnetization       =    61.33 Bohr mag/cell
     absolute magnetization    =    68.85 Bohr mag/cell

     iteration # 44     ecut=    50.00 Ry     beta= 0.70
     Davidson diagonalization with overlap
     ethr =  9.60E-11,  avg # of iterations =  1.5

     negative rho (up, down):  2.251E-03 1.151E-03

     total cpu time spent up to now is      799.0 secs

     total energy              =   -6056.52357058 Ry
     estimated scf accuracy    <       0.00000013 Ry

     total magnetization       =    61.33 Bohr mag/cell
     absolute magnetization    =    68.85 Bohr mag/cell

     iteration # 45     ecut=    50.00 Ry     beta= 0.70
     Davidson diagonalization with overlap
     ethr =  4.02E-11,  avg # of iterations =  4.2

     negative rho (up, down):  2.222E-03 1.122E-03

     total cpu time spent up to now is      820.0 secs

     total energy              =   -6056.52357052 Ry
     estimated scf accuracy    <       0.00000012 Ry

     total magnetization       =    61.33 Bohr mag/cell
     absolute magnetization    =    68.85 Bohr mag/cell

     iteration # 46     ecut=    50.00 Ry     beta= 0.70
     Davidson diagonalization with overlap
     ethr =  3.49E-11,  avg # of iterations =  2.3

     negative rho (up, down):  2.234E-03 1.134E-03

     total cpu time spent up to now is      835.0 secs

     total energy              =   -6056.52357055 Ry
     estimated scf accuracy    <       0.00000039 Ry

     total magnetization       =    61.33 Bohr mag/cell
     absolute magnetization    =    68.85 Bohr mag/cell

     iteration # 47     ecut=    50.00 Ry     beta= 0.70
     Davidson diagonalization with overlap
     ethr =  3.49E-11,  avg # of iterations =  1.1

     negative rho (up, down):  2.238E-03 1.138E-03

     total cpu time spent up to now is      853.7 secs

     total energy              =   -6056.52357057 Ry
     estimated scf accuracy    <       0.00000004 Ry

     total magnetization       =    61.33 Bohr mag/cell
     absolute magnetization    =    68.85 Bohr mag/cell

     iteration # 48     ecut=    50.00 Ry     beta= 0.70
     Davidson diagonalization with overlap
     ethr =  1.12E-11,  avg # of iterations =  3.6

     negative rho (up, down):  2.235E-03 1.135E-03

     total cpu time spent up to now is      869.6 secs

     total energy              =   -6056.52357056 Ry
     estimated scf accuracy    <       0.00000003 Ry

     total magnetization       =    61.33 Bohr mag/cell
     absolute magnetization    =    68.85 Bohr mag/cell

     iteration # 49     ecut=    50.00 Ry     beta= 0.70
     Davidson diagonalization with overlap
     ethr =  8.85E-12,  avg # of iterations =  1.9

     negative rho (up, down):  2.231E-03 1.131E-03

     total cpu time spent up to now is      888.6 secs

     total energy              =   -6056.52357056 Ry
     estimated scf accuracy    <       0.00000004 Ry

     total magnetization       =    61.33 Bohr mag/cell
     absolute magnetization    =    68.85 Bohr mag/cell

     iteration # 50     ecut=    50.00 Ry     beta= 0.70
     Davidson diagonalization with overlap
     ethr =  8.85E-12,  avg # of iterations =  1.6

     negative rho (up, down):  2.224E-03 1.124E-03

     total cpu time spent up to now is      903.4 secs

     total energy              =   -6056.52357054 Ry
     estimated scf accuracy    <       0.00000001 Ry

     total magnetization       =    61.33 Bohr mag/cell
     absolute magnetization    =    68.85 Bohr mag/cell

     iteration # 51     ecut=    50.00 Ry     beta= 0.70
     Davidson diagonalization with overlap
     ethr =  4.14E-12,  avg # of iterations =  3.2

     negative rho (up, down):  2.225E-03 1.125E-03

     total cpu time spent up to now is      923.8 secs

     total energy              =   -6056.52357054 Ry
     estimated scf accuracy    <       0.00000006 Ry

     total magnetization       =    61.33 Bohr mag/cell
     absolute magnetization    =    68.85 Bohr mag/cell

     iteration # 52     ecut=    50.00 Ry     beta= 0.70
     Davidson diagonalization with overlap
     ethr =  4.14E-12,  avg # of iterations =  1.3

     negative rho (up, down):  2.221E-03 1.121E-03

     Magnetic moment per site  (integrated on atomic sphere of radius R)
     atom   1 (R=0.103)  charge=  6.2254  magn=  1.7706
     atom   2 (R=0.103)  charge=  6.2251  magn=  1.7632
     atom   3 (R=0.103)  charge=  6.2252  magn=  1.7672
     atom   4 (R=0.103)  charge=  6.2253  magn=  1.7700
     atom   5 (R=0.103)  charge=  6.2255  magn=  1.7656
     atom   6 (R=0.103)  charge=  6.2250  magn=  1.7692
     atom   7 (R=0.103)  charge=  6.2258  magn=  1.7714
     atom   8 (R=0.103)  charge=  6.2251  magn=  1.7706
     atom   9 (R=0.103)  charge=  6.2249  magn=  1.7646
     atom  10 (R=0.103)  charge=  6.2308  magn=  1.6917
     atom  11 (R=0.103)  charge=  6.2312  magn=  1.7065
     atom  12 (R=0.103)  charge=  6.2309  magn=  1.7014
     atom  13 (R=0.103)  charge=  6.2314  magn=  1.7023
     atom  14 (R=0.103)  charge=  6.2318  magn=  1.6864
     atom  15 (R=0.103)  charge=  6.2315  magn=  1.6949
     atom  16 (R=0.103)  charge=  6.2312  magn=  1.6967
     atom  17 (R=0.103)  charge=  6.2317  magn=  1.7023
     atom  18 (R=0.103)  charge=  6.2318  magn=  1.6928
     atom  19 (R=0.103)  charge=  6.2309  magn=  1.6875
     atom  20 (R=0.103)  charge=  6.2274  magn=  1.7234
     atom  21 (R=0.103)  charge=  6.2320  magn=  1.6715
     atom  22 (R=0.103)  charge=  6.2315  magn=  1.7017
     atom  23 (R=0.103)  charge=  6.2333  magn=  1.6614
     atom  24 (R=0.103)  charge=  6.2304  magn=  1.7061
     atom  25 (R=0.103)  charge=  6.2310  magn=  1.6947
     atom  26 (R=0.103)  charge=  6.2300  magn=  1.6862
     atom  27 (R=0.103)  charge=  6.2310  magn=  1.6850
     atom  28 (R=0.103)  charge=  6.2287  magn=  1.7899
     atom  29 (R=0.103)  charge=  6.2316  magn=  1.6716
     atom  30 (R=0.103)  charge=  6.2289  magn=  1.7653
     atom  31 (R=0.103)  charge=  6.2340  magn=  1.7518
     atom  32 (R=0.103)  charge=  6.2549  magn=  1.1229
     atom  33 (R=0.103)  charge=  6.2249  magn=  1.7729
     atom  34 (R=0.103)  charge=  6.2258  magn=  1.7636
     atom  35 (R=0.103)  charge=  6.2267  magn=  1.7726
     atom  36 (R=0.103)  charge=  6.2253  magn=  1.7888
     atom  37 (R=0.061)  charge=  0.8412  magn= -0.0197
     atom  38 (R=0.069)  charge=  3.2068  magn= -0.0091
     atom  39 (R=0.061)  charge=  0.5055  magn= -0.0028

     total cpu time spent up to now is      941.7 secs

     End of self-consistent calculation

 ------ SPIN UP ------------


          k = 0.0000 0.0000 0.0000 ( 51087 PWs)   bands (ev):

   -21.3808  -9.9876  -7.4894  -6.6482  -6.1473  -5.5781  -5.0873  -4.6160
    -4.5857  -4.5830  -4.5809  -4.5792  -4.5655  -4.5268  -4.2284  -4.0584
    -4.0525  -4.0510  -4.0459  -4.0253  -3.9882  -3.5431  -3.5387  -3.5346
    -3.5281  -3.5143  -3.4869  -3.4081  -3.4043  -3.3964  -3.3942  -3.3920
    -3.3667  -3.3317  -3.3271  -3.0197  -3.0140  -3.0127  -3.0113  -2.9688
    -2.9534  -2.9480  -2.9472  -2.9410  -2.9394  -2.9375  -2.9296  -2.7858
    -2.7817  -2.7384  -2.7250  -2.7162  -2.7075  -2.7017  -2.6965  -2.6804
    -2.6777  -2.6723  -2.6643  -2.5792  -2.5768  -2.5736  -2.5652  -2.5530
    -2.5097  -2.1158  -2.0532  -2.0357  -2.0352  -2.0324  -2.0266  -1.9287
    -1.9073  -1.9059  -1.8865  -1.8751  -1.8587  -1.8550  -1.8513  -1.8403
    -1.8229  -1.8031  -1.7971  -1.7563  -1.7526  -1.7406  -1.7306  -1.7231
    -1.7215  -1.7110  -1.7079  -1.6954  -1.6825  -1.6799  -1.6753  -1.6714
    -1.6700  -1.6662  -1.6628  -1.6604  -1.6584  -1.6546  -1.6501  -1.6486
    -1.6451  -1.5965  -1.5855  -1.5752  -1.5664  -1.4990  -1.4942  -1.4342
    -1.3018  -1.2183  -1.2145  -1.2087  -1.2072  -1.2038  -1.1845  -1.1670
    -1.1654  -1.1571  -1.1283  -1.1157  -1.1130  -1.0480  -1.0009  -0.9887
    -0.9789  -0.9638  -0.8699  -0.8065  -0.7948  -0.7852  -0.7773  -0.7516
    -0.7424  -0.7234  -0.7183  -0.7162  -0.7137  -0.6933  -0.6313  -0.5977
    -0.5364  -0.4767  -0.4731  -0.4698  -0.4459  -0.4232  -0.4094  -0.4059
    -0.4009  -0.3984  -0.3958  -0.3894  -0.3863  -0.3832  -0.3821  -0.3722
    -0.3638  -0.3626  -0.3384  -0.3313  -0.3267  -0.3242  -0.3217  -0.3155
    -0.2984  -0.2966  -0.2733  -0.2722  -0.2685  -0.2566  -0.2500  -0.2459
    -0.2441  -0.2400  -0.2143  -0.1949  -0.1851  -0.1706  -0.1680  -0.1656
    -0.1611  -0.1558  -0.1478  -0.1357  -0.1279  -0.1178  -0.0769  -0.0764
    -0.0733  -0.0687  -0.0110  -0.0062  -0.0028   0.0011   0.0192   0.0483
     0.4012   0.9558

          k = 0.0000 0.2309 0.0000 ( 51134 PWs)   bands (ev):

   -21.3808  -9.9881  -7.3425  -6.6187  -6.0656  -5.5693  -5.3188  -5.0801
    -4.8298  -4.8147  -4.4712  -4.3407  -4.2447  -4.2399  -4.1781  -4.1314
    -4.0918  -4.0505  -3.9810  -3.9281  -3.9075  -3.6612  -3.5505  -3.5383
    -3.4641  -3.4415  -3.4180  -3.4108  -3.4082  -3.4010  -3.3853  -3.3653
    -3.3350  -3.2894  -3.2866  -3.2611  -3.2581  -3.0694  -3.0368  -3.0279
    -2.9817  -2.9771  -2.9697  -2.9597  -2.8960  -2.8537  -2.8413  -2.8142
    -2.8054  -2.8006  -2.7700  -2.7609  -2.6835  -2.6678  -2.6447  -2.6054
    -2.5975  -2.5719  -2.5635  -2.5466  -2.5287  -2.5147  -2.4958  -2.4894
    -2.4352  -2.1917  -2.1575  -2.1406  -2.1252  -2.1015  -2.0577  -2.0069
    -2.0033  -1.9933  -1.9872  -1.9685  -1.9594  -1.9347  -1.9120  -1.8782
    -1.8584  -1.8452  -1.8377  -1.8032  -1.7948  -1.7881  -1.7831  -1.7699
    -1.7590  -1.7525  -1.7487  -1.7455  -1.7414  -1.7069  -1.6744  -1.6521
    -1.6408  -1.6164  -1.5802  -1.5657  -1.5633  -1.5559  -1.5480  -1.5375
    -1.5280  -1.5188  -1.5067  -1.5052  -1.4920  -1.4791  -1.4631  -1.4505
    -1.4329  -1.4228  -1.4023  -1.3689  -1.3250  -1.2932  -1.2455  -1.2322
    -1.2278  -1.2203  -1.2050  -1.2000  -1.1906  -1.1763  -1.0793  -1.0411
    -1.0246  -1.0111  -0.9719  -0.9454  -0.9260  -0.8878  -0.8663  -0.8391
    -0.8106  -0.7755  -0.7494  -0.7354  -0.7118  -0.6980  -0.6709  -0.6609
    -0.6571  -0.6363  -0.6163  -0.5832  -0.5723  -0.5624  -0.5478  -0.5456
    -0.5247  -0.4875  -0.4704  -0.4694  -0.4508  -0.4293  -0.4053  -0.3970
    -0.3927  -0.3828  -0.3805  -0.3774  -0.3576  -0.3446  -0.3417  -0.3132
    -0.2761  -0.2606  -0.2573  -0.2272  -0.2157  -0.1946  -0.1753  -0.1526
    -0.1434  -0.1384  -0.1311  -0.1172  -0.1103  -0.0955  -0.0869  -0.0641
    -0.0478  -0.0111   0.0032   0.0084   0.0277   0.0325   0.0755   0.0837
     0.1010   0.1403   0.3758   0.3815   0.4511   0.5523   0.6347   0.6693
     0.6882   0.8324

          k = 0.0000 0.4619 0.0000 ( 51204 PWs)   bands (ev):

   -21.3808  -9.9889  -6.9345  -6.5748  -6.1631  -5.8631  -5.4128  -5.1105
    -4.9741  -4.9349  -4.8348  -4.1469  -4.0898  -4.0749  -4.0320  -4.0029
    -3.8860  -3.8839  -3.8477  -3.7561  -3.7504  -3.7430  -3.6598  -3.5716
    -3.5659  -3.5596  -3.5566  -3.5069  -3.4601  -3.4520  -3.4420  -3.2860
    -3.2834  -3.2764  -3.2541  -3.2393  -3.2334  -3.1358  -3.1313  -3.1182
    -3.1101  -3.1029  -3.0001  -2.9062  -2.8965  -2.8136  -2.8023  -2.7756
    -2.7614  -2.7284  -2.7229  -2.7167  -2.6956  -2.6856  -2.6273  -2.6178
    -2.5923  -2.5578  -2.5495  -2.4260  -2.4126  -2.4007  -2.3776  -2.3473
    -2.2996  -2.2901  -2.2730  -2.2539  -2.2071  -2.1642  -2.1277  -2.1236
    -2.1206  -2.1076  -2.0924  -2.0841  -2.0776  -2.0584  -2.0268  -2.0069
    -1.9899  -1.9641  -1.9483  -1.9187  -1.9083  -1.8799  -1.8174  -1.8018
    -1.7981  -1.7874  -1.7668  -1.7573  -1.7192  -1.6920  -1.6904  -1.6798
    -1.6680  -1.6459  -1.6427  -1.6155  -1.6112  -1.6000  -1.5898  -1.5661
    -1.5561  -1.5483  -1.4949  -1.4494  -1.4322  -1.4140  -1.3891  -1.3805
    -1.3618  -1.3496  -1.3094  -1.2834  -1.2692  -1.2586  -1.2538  -1.2489
    -1.2391  -1.2345  -1.2260  -1.2159  -1.2088  -1.1991  -1.1825  -1.1695
    -1.1525  -1.1234  -1.0832  -1.0502  -1.0119  -1.0085  -0.9886  -0.9746
    -0.9465  -0.9112  -0.8996  -0.8827  -0.8620  -0.8378  -0.8195  -0.7674
    -0.7413  -0.7129  -0.6930  -0.6782  -0.6627  -0.6443  -0.6318  -0.5851
    -0.5454  -0.4925  -0.4809  -0.4735  -0.4647  -0.4612  -0.4470  -0.4431
    -0.4276  -0.4188  -0.3425  -0.3301  -0.3149  -0.2938  -0.2922  -0.2806
    -0.2748  -0.2606  -0.2518  -0.2437  -0.2217  -0.2057  -0.1386  -0.1202
    -0.1134  -0.1000  -0.0796  -0.0644  -0.0215  -0.0016   0.0147   0.0467
     0.0600   0.1026   0.1059   0.1235   0.1279   0.1329   0.1524   0.1690
     0.2319   0.2650   0.3426   0.9625   1.1362   1.3083   1.3713   1.3885
     1.6107   1.7688

          k = 0.2000-0.1155 0.0000 ( 51134 PWs)   bands (ev):

   -21.3808  -9.9873  -7.3438  -6.6190  -6.0717  -5.5854  -5.2952  -5.0773
    -4.8352  -4.8244  -4.4662  -4.3147  -4.2461  -4.2415  -4.1739  -4.1253
    -4.0999  -4.0713  -3.9688  -3.9321  -3.9137  -3.6597  -3.5518  -3.5371
    -3.4612  -3.4333  -3.4240  -3.4121  -3.4090  -3.3951  -3.3891  -3.3687
    -3.3349  -3.2905  -3.2870  -3.2638  -3.2582  -3.0642  -3.0337  -3.0290
    -2.9840  -2.9781  -2.9688  -2.9621  -2.8856  -2.8512  -2.8415  -2.8140
    -2.8041  -2.8012  -2.7777  -2.7579  -2.6803  -2.6693  -2.6402  -2.6091
    -2.5920  -2.5768  -2.5652  -2.5539  -2.5320  -2.5191  -2.4949  -2.4912
    -2.4271  -2.1917  -2.1569  -2.1419  -2.1231  -2.1003  -2.0568  -2.0059
    -2.0018  -1.9962  -1.9776  -1.9763  -1.9595  -1.9350  -1.9046  -1.8800
    -1.8623  -1.8518  -1.8404  -1.8038  -1.7929  -1.7892  -1.7855  -1.7716
    -1.7571  -1.7533  -1.7490  -1.7454  -1.7306  -1.6940  -1.6729  -1.6645
    -1.6455  -1.6092  -1.5801  -1.5708  -1.5592  -1.5520  -1.5446  -1.5391
    -1.5204  -1.5138  -1.5098  -1.5034  -1.4952  -1.4740  -1.4646  -1.4554
    -1.4354  -1.4266  -1.3911  -1.3473  -1.3338  -1.3127  -1.2554  -1.2346
    -1.2251  -1.2113  -1.2071  -1.1990  -1.1977  -1.1842  -1.1017  -1.0502
    -1.0394  -1.0186  -0.9662  -0.9460  -0.9294  -0.8760  -0.8627  -0.8453
    -0.8213  -0.7501  -0.7401  -0.7218  -0.7019  -0.6940  -0.6793  -0.6669
    -0.6595  -0.6394  -0.6300  -0.5823  -0.5704  -0.5630  -0.5489  -0.5413
    -0.5100  -0.4954  -0.4737  -0.4667  -0.4431  -0.4269  -0.4083  -0.4002
    -0.3935  -0.3847  -0.3774  -0.3720  -0.3581  -0.3423  -0.3386  -0.3260
    -0.2804  -0.2623  -0.2577  -0.2242  -0.2085  -0.2027  -0.1785  -0.1538
    -0.1482  -0.1353  -0.1289  -0.1183  -0.1053  -0.0960  -0.0885  -0.0575
    -0.0514  -0.0104  -0.0010   0.0063   0.0280   0.0324   0.0717   0.0819
     0.0927   0.1373   0.3710   0.3816   0.4874   0.5843   0.6328   0.6552
     0.7421   0.8036

          k = 0.2000 0.1155 0.0000 ( 51134 PWs)   bands (ev):

   -21.3808  -9.9883  -7.3423  -6.6188  -6.0635  -5.5672  -5.3142  -5.0963
    -4.8226  -4.8122  -4.4736  -4.3489  -4.2454  -4.2386  -4.1782  -4.1317
    -4.0830  -4.0520  -3.9835  -3.9248  -3.9082  -3.6628  -3.5473  -3.5419
    -3.4634  -3.4444  -3.4156  -3.4134  -3.4067  -3.3997  -3.3833  -3.3647
    -3.3346  -3.2916  -3.2855  -3.2604  -3.2583  -3.0629  -3.0327  -3.0275
    -2.9800  -2.9748  -2.9694  -2.9662  -2.8869  -2.8549  -2.8432  -2.8194
    -2.8055  -2.8020  -2.7765  -2.7653  -2.6814  -2.6688  -2.6486  -2.6050
    -2.5999  -2.5704  -2.5640  -2.5397  -2.5313  -2.5152  -2.4986  -2.4909
    -2.4360  -2.1834  -2.1600  -2.1442  -2.1214  -2.1005  -2.0577  -2.0053
    -1.9988  -1.9942  -1.9828  -1.9718  -1.9643  -1.9406  -1.8954  -1.8777
    -1.8650  -1.8540  -1.8301  -1.8040  -1.7939  -1.7901  -1.7865  -1.7669
    -1.7576  -1.7557  -1.7494  -1.7439  -1.7354  -1.7102  -1.6760  -1.6559
    -1.6378  -1.6080  -1.5875  -1.5712  -1.5580  -1.5562  -1.5436  -1.5382
    -1.5240  -1.5203  -1.5111  -1.5059  -1.4966  -1.4735  -1.4549  -1.4485
    -1.4353  -1.4296  -1.4115  -1.3690  -1.3288  -1.2869  -1.2480  -1.2320
    -1.2211  -1.2170  -1.2103  -1.1997  -1.1972  -1.1855  -1.0880  -1.0546
    -1.0202  -1.0005  -0.9713  -0.9464  -0.9195  -0.8909  -0.8674  -0.8484
    -0.7963  -0.7684  -0.7485  -0.7249  -0.7102  -0.6998  -0.6788  -0.6671
    -0.6544  -0.6380  -0.6163  -0.5714  -0.5644  -0.5596  -0.5483  -0.5423
    -0.5286  -0.4953  -0.4732  -0.4664  -0.4479  -0.4245  -0.4099  -0.3991
    -0.3943  -0.3863  -0.3807  -0.3700  -0.3535  -0.3476  -0.3350  -0.3156
    -0.2807  -0.2629  -0.2546  -0.2334  -0.2081  -0.2020  -0.1723  -0.1527
    -0.1424  -0.1407  -0.1272  -0.1177  -0.1044  -0.0938  -0.0886  -0.0605
    -0.0457  -0.0083   0.0027   0.0060   0.0308   0.0327   0.0716   0.0781
     0.1066   0.1301   0.3657   0.3805   0.4661   0.5449   0.6347   0.6482
     0.6993   0.8450

          k = 0.2000 0.3464 0.0000 ( 51202 PWs)   bands (ev):

   -21.3808  -9.9892  -7.0602  -6.5835  -5.9330  -5.6754  -5.6680  -5.3995
    -5.0862  -4.5376  -4.5058  -4.2551  -4.2476  -4.2031  -4.0346  -4.0274
    -3.9372  -3.9330  -3.9268  -3.7974  -3.7765  -3.6618  -3.6511  -3.5848
    -3.5415  -3.4502  -3.4426  -3.4267  -3.4089  -3.3987  -3.3853  -3.3630
    -3.3470  -3.3237  -3.3134  -3.2766  -3.2364  -3.1939  -3.1882  -3.0720
    -3.0570  -2.9749  -2.9604  -2.9361  -2.9229  -2.9119  -2.8260  -2.7766
    -2.7706  -2.7366  -2.7324  -2.7183  -2.6776  -2.6636  -2.6558  -2.6431
    -2.6239  -2.5214  -2.5091  -2.4538  -2.4450  -2.4389  -2.3931  -2.3893
    -2.3773  -2.2688  -2.2102  -2.1854  -2.1697  -2.1426  -2.1193  -2.1046
    -2.0855  -2.0799  -2.0714  -2.0558  -2.0400  -2.0236  -2.0204  -2.0003
    -1.9792  -1.9517  -1.9080  -1.8857  -1.8305  -1.8184  -1.8061  -1.7883
    -1.7682  -1.7553  -1.7331  -1.7209  -1.6951  -1.6772  -1.6672  -1.6636
    -1.6538  -1.6491  -1.6361  -1.6185  -1.6128  -1.6074  -1.5877  -1.5686
    -1.5594  -1.5318  -1.5092  -1.4908  -1.4751  -1.4645  -1.4510  -1.4267
    -1.4140  -1.3939  -1.3823  -1.3589  -1.3475  -1.3166  -1.3031  -1.2662
    -1.2594  -1.2490  -1.2447  -1.2255  -1.2116  -1.1970  -1.1831  -1.1485
    -1.0995  -1.0843  -1.0702  -1.0298  -0.9924  -0.9584  -0.9388  -0.8897
    -0.8374  -0.8216  -0.8174  -0.7944  -0.7872  -0.7739  -0.7670  -0.7575
    -0.7296  -0.7198  -0.6866  -0.6683  -0.6605  -0.6408  -0.6223  -0.6160
    -0.6010  -0.5838  -0.5528  -0.5354  -0.5228  -0.5090  -0.4385  -0.4053
    -0.3690  -0.3470  -0.3354  -0.3237  -0.3179  -0.2918  -0.2851  -0.2773
    -0.2606  -0.2512  -0.1953  -0.1766  -0.1651  -0.1627  -0.1235  -0.1181
    -0.0945  -0.0905  -0.0857  -0.0761  -0.0566  -0.0506  -0.0438  -0.0249
    -0.0155   0.0413   0.0665   0.0784   0.0867   0.1262   0.1296   0.1542
     0.4597   0.4718   0.5351   0.5684   0.8071   0.8203   1.1327   1.3413
     1.3660   1.5734

          k = 0.2000-0.5774 0.0000 ( 51262 PWs)   bands (ev):

   -21.3808  -9.9888  -6.7278  -6.4371  -6.3472  -5.8725  -5.6980  -5.2608
    -5.0672  -4.9411  -4.5559  -4.2326  -3.9965  -3.9502  -3.8539  -3.8166
    -3.8137  -3.7961  -3.7868  -3.7661  -3.7116  -3.7026  -3.7000  -3.6957
    -3.6181  -3.5961  -3.5547  -3.5504  -3.5233  -3.5177  -3.4087  -3.3839
    -3.3676  -3.3656  -3.3372  -3.2970  -3.2129  -3.1969  -3.0980  -3.0739
    -3.0689  -2.9917  -2.9843  -2.9718  -2.9398  -2.8594  -2.8541  -2.8485
    -2.7857  -2.7751  -2.6986  -2.6679  -2.6427  -2.6286  -2.5800  -2.5722
    -2.5008  -2.4870  -2.4795  -2.4685  -2.4599  -2.4311  -2.4134  -2.3506
    -2.2928  -2.2713  -2.2643  -2.2547  -2.2186  -2.1982  -2.1568  -2.1342
    -2.1135  -2.0910  -2.0827  -2.0718  -2.0569  -2.0323  -2.0160  -2.0003
    -1.9905  -1.9783  -1.9599  -1.9415  -1.9380  -1.8955  -1.8703  -1.8548
    -1.8415  -1.7987  -1.7747  -1.7576  -1.7192  -1.7038  -1.6884  -1.6818
    -1.6625  -1.6544  -1.6452  -1.6370  -1.6244  -1.6109  -1.5864  -1.5685
    -1.5292  -1.5055  -1.4983  -1.4906  -1.4859  -1.4709  -1.4640  -1.4579
    -1.4477  -1.4393  -1.4208  -1.3964  -1.3846  -1.3485  -1.3359  -1.3159
    -1.2719  -1.2472  -1.2150  -1.1936  -1.1828  -1.1708  -1.1613  -1.1110
    -1.0911  -1.0792  -1.0729  -1.0230  -1.0043  -0.9544  -0.9315  -0.9241
    -0.9104  -0.9025  -0.8920  -0.8684  -0.8521  -0.8315  -0.7999  -0.7710
    -0.7627  -0.7352  -0.7281  -0.7178  -0.6881  -0.6678  -0.6492  -0.6286
    -0.6102  -0.5947  -0.5870  -0.5769  -0.5394  -0.5273  -0.4934  -0.4231
    -0.3635  -0.3270  -0.3184  -0.3083  -0.3064  -0.2955  -0.2849  -0.2764
    -0.2433  -0.2351  -0.2231  -0.2177  -0.1702  -0.1586  -0.1000  -0.0892
    -0.0819  -0.0622  -0.0492  -0.0406  -0.0009   0.0086   0.0135   0.0203
     0.0354   0.0768   0.1051   0.1134   0.1265   0.1363   0.1605   0.1961
     0.2754   0.5083   0.6174   0.8546   1.3192   1.4184   1.4658   1.7925
     1.8960   1.9439

          k = 0.2000-0.3464 0.0000 ( 51202 PWs)   bands (ev):

   -21.3808  -9.9876  -7.0648  -6.5831  -5.9486  -5.6938  -5.6609  -5.3888
    -5.0660  -4.5738  -4.4671  -4.2515  -4.2468  -4.2021  -4.0315  -4.0279
    -3.9372  -3.9303  -3.9121  -3.8022  -3.7918  -3.6573  -3.6534  -3.5887
    -3.5431  -3.4537  -3.4470  -3.4209  -3.4091  -3.3940  -3.3887  -3.3617
    -3.3522  -3.3277  -3.3099  -3.2774  -3.2402  -3.1996  -3.1827  -3.0705
    -3.0617  -2.9723  -2.9645  -2.9381  -2.9268  -2.9002  -2.8139  -2.7763
    -2.7572  -2.7425  -2.7336  -2.7134  -2.6829  -2.6726  -2.6504  -2.6359
    -2.6274  -2.5166  -2.5028  -2.4556  -2.4473  -2.4235  -2.4012  -2.3859
    -2.3727  -2.2827  -2.2159  -2.1906  -2.1754  -2.1411  -2.1266  -2.1072
    -2.0968  -2.0766  -2.0595  -2.0488  -2.0362  -2.0290  -2.0158  -2.0021
    -1.9897  -1.9680  -1.9030  -1.8545  -1.8280  -1.8185  -1.7970  -1.7843
    -1.7722  -1.7459  -1.7444  -1.7143  -1.6980  -1.6799  -1.6715  -1.6641
    -1.6612  -1.6463  -1.6346  -1.6218  -1.6087  -1.6020  -1.5833  -1.5723
    -1.5513  -1.5459  -1.5269  -1.4962  -1.4790  -1.4624  -1.4324  -1.4258
    -1.4168  -1.4028  -1.3920  -1.3433  -1.3281  -1.3156  -1.2985  -1.2769
    -1.2624  -1.2534  -1.2434  -1.2286  -1.2160  -1.2051  -1.1804  -1.1438
    -1.1170  -1.0842  -1.0759  -1.0378  -0.9909  -0.9572  -0.9380  -0.8822
    -0.8389  -0.8237  -0.8161  -0.8021  -0.7936  -0.7828  -0.7606  -0.7477
    -0.7346  -0.7123  -0.6897  -0.6787  -0.6547  -0.6377  -0.6278  -0.6103
    -0.6046  -0.5843  -0.5456  -0.5344  -0.5267  -0.5060  -0.4440  -0.3838
    -0.3744  -0.3539  -0.3333  -0.3253  -0.3200  -0.2942  -0.2880  -0.2784
    -0.2612  -0.2485  -0.1893  -0.1810  -0.1726  -0.1624  -0.1260  -0.1148
    -0.0986  -0.0906  -0.0867  -0.0726  -0.0599  -0.0508  -0.0441  -0.0323
    -0.0129   0.0470   0.0709   0.0811   0.0873   0.1245   0.1327   0.1639
     0.4555   0.4706   0.4884   0.6678   0.7676   0.8248   1.1335   1.3459
     1.3665   1.5852

          k = 0.4000-0.2309 0.0000 ( 51204 PWs)   bands (ev):

   -21.3808  -9.9867  -6.9404  -6.5762  -6.1715  -5.8726  -5.4268  -5.0732
    -4.9727  -4.9647  -4.7975  -4.1276  -4.1004  -4.0741  -4.0586  -3.9908
    -3.8891  -3.8846  -3.8440  -3.7591  -3.7511  -3.7415  -3.6488  -3.5731
    -3.5660  -3.5624  -3.5570  -3.5049  -3.4576  -3.4452  -3.4411  -3.2954
    -3.2811  -3.2790  -3.2653  -3.2415  -3.2333  -3.1345  -3.1265  -3.1160
    -3.1092  -3.1030  -2.9863  -2.9115  -2.8944  -2.8142  -2.7981  -2.7779
    -2.7613  -2.7283  -2.7220  -2.7149  -2.7022  -2.6828  -2.6291  -2.6172
    -2.5856  -2.5610  -2.5466  -2.4220  -2.4114  -2.4041  -2.3749  -2.3460
    -2.2960  -2.2840  -2.2669  -2.2550  -2.2107  -2.1722  -2.1402  -2.1219
    -2.1199  -2.1094  -2.1067  -2.0879  -2.0791  -2.0573  -2.0203  -2.0025
    -1.9846  -1.9700  -1.9488  -1.9347  -1.9066  -1.8800  -1.8198  -1.8085
    -1.8000  -1.7730  -1.7603  -1.7466  -1.7095  -1.6926  -1.6875  -1.6788
    -1.6629  -1.6469  -1.6368  -1.6188  -1.6001  -1.5976  -1.5888  -1.5717
    -1.5590  -1.5353  -1.5045  -1.4899  -1.4276  -1.4104  -1.3982  -1.3792
    -1.3639  -1.3427  -1.3227  -1.2911  -1.2710  -1.2563  -1.2511  -1.2486
    -1.2423  -1.2384  -1.2218  -1.2149  -1.2040  -1.2015  -1.1879  -1.1790
    -1.1537  -1.1269  -1.0643  -1.0584  -1.0167  -1.0119  -0.9898  -0.9722
    -0.9395  -0.9320  -0.8910  -0.8834  -0.8672  -0.8269  -0.8076  -0.7656
    -0.7474  -0.7260  -0.6934  -0.6783  -0.6595  -0.6512  -0.6325  -0.5714
    -0.5250  -0.4998  -0.4853  -0.4699  -0.4680  -0.4603  -0.4519  -0.4412
    -0.4260  -0.4199  -0.3498  -0.3295  -0.3090  -0.3049  -0.2935  -0.2917
    -0.2791  -0.2614  -0.2495  -0.2332  -0.2187  -0.2014  -0.1442  -0.1204
    -0.1164  -0.1001  -0.0878  -0.0444  -0.0214   0.0035   0.0147   0.0514
     0.0595   0.0998   0.1050   0.1250   0.1268   0.1329   0.1552   0.1627
     0.2319   0.2631   0.3897   0.8954   1.1633   1.3492   1.3715   1.3979
     1.6510   1.7446

          k = 0.4000 0.0000 0.0000 ( 51202 PWs)   bands (ev):

   -21.3808  -9.9879  -7.0640  -6.5832  -5.9451  -5.6923  -5.6597  -5.3901
    -5.0742  -4.5685  -4.4724  -4.2498  -4.2468  -4.2048  -4.0322  -4.0271
    -3.9384  -3.9303  -3.9148  -3.7985  -3.7905  -3.6624  -3.6499  -3.5874
    -3.5432  -3.4515  -3.4475  -3.4229  -3.4069  -3.3972  -3.3855  -3.3622
    -3.3502  -3.3240  -3.3167  -3.2744  -3.2379  -3.1939  -3.1865  -3.0663
    -3.0575  -2.9729  -2.9622  -2.9404  -2.9114  -2.9094  -2.8194  -2.7721
    -2.7662  -2.7437  -2.7321  -2.7195  -2.6812  -2.6726  -2.6548  -2.6435
    -2.6236  -2.5216  -2.5079  -2.4535  -2.4496  -2.4305  -2.3944  -2.3887
    -2.3757  -2.2840  -2.1996  -2.1859  -2.1665  -2.1375  -2.1269  -2.1002
    -2.0954  -2.0784  -2.0677  -2.0513  -2.0400  -2.0252  -2.0128  -2.0000
    -1.9864  -1.9569  -1.9112  -1.8705  -1.8308  -1.8218  -1.8034  -1.7847
    -1.7773  -1.7571  -1.7218  -1.7172  -1.6974  -1.6759  -1.6725  -1.6631
    -1.6562  -1.6429  -1.6387  -1.6246  -1.6154  -1.6082  -1.5822  -1.5668
    -1.5594  -1.5459  -1.5128  -1.4918  -1.4775  -1.4525  -1.4407  -1.4255
    -1.4173  -1.4081  -1.3879  -1.3612  -1.3339  -1.3214  -1.3012  -1.2768
    -1.2581  -1.2539  -1.2445  -1.2258  -1.2144  -1.1967  -1.1886  -1.1469
    -1.1015  -1.0902  -1.0691  -1.0579  -0.9886  -0.9494  -0.9364  -0.8865
    -0.8316  -0.8233  -0.8163  -0.8017  -0.7934  -0.7759  -0.7669  -0.7349
    -0.7322  -0.7190  -0.6887  -0.6685  -0.6507  -0.6442  -0.6206  -0.6121
    -0.5919  -0.5739  -0.5522  -0.5382  -0.5281  -0.5125  -0.4605  -0.3889
    -0.3688  -0.3494  -0.3362  -0.3239  -0.3185  -0.2946  -0.2845  -0.2783
    -0.2694  -0.2479  -0.1945  -0.1749  -0.1667  -0.1603  -0.1298  -0.1057
    -0.0985  -0.0912  -0.0851  -0.0650  -0.0602  -0.0497  -0.0436  -0.0361
    -0.0142   0.0449   0.0672   0.0784   0.0930   0.1267   0.1343   0.1478
     0.4454   0.4730   0.4976   0.6562   0.7833   0.8266   1.1243   1.3416
     1.3787   1.5622

          k = 0.4000 0.2309 0.0000 ( 51204 PWs)   bands (ev):

   -21.3808  -9.9893  -6.9338  -6.5750  -6.1587  -5.8595  -5.4070  -5.1289
    -4.9732  -4.9231  -4.8521  -4.1492  -4.0787  -4.0733  -4.0329  -4.0059
    -3.8872  -3.8824  -3.8466  -3.7552  -3.7491  -3.7439  -3.6663  -3.5703
    -3.5670  -3.5577  -3.5566  -3.5074  -3.4652  -3.4502  -3.4404  -3.2842
    -3.2824  -3.2717  -3.2527  -3.2382  -3.2303  -3.1317  -3.1228  -3.1146
    -3.1092  -3.1051  -2.9897  -2.9070  -2.9010  -2.8221  -2.8048  -2.7819
    -2.7680  -2.7345  -2.7245  -2.7149  -2.6943  -2.6903  -2.6218  -2.6184
    -2.5937  -2.5620  -2.5520  -2.4305  -2.4102  -2.3989  -2.3872  -2.3481
    -2.3025  -2.2852  -2.2765  -2.2568  -2.1998  -2.1582  -2.1384  -2.1244
    -2.1224  -2.1099  -2.0940  -2.0859  -2.0744  -2.0560  -2.0489  -2.0021
    -1.9741  -1.9611  -1.9463  -1.9163  -1.8913  -1.8758  -1.8291  -1.8039
    -1.7951  -1.7864  -1.7636  -1.7540  -1.7108  -1.6909  -1.6824  -1.6748
    -1.6598  -1.6541  -1.6389  -1.6158  -1.6096  -1.5987  -1.5841  -1.5691
    -1.5551  -1.5394  -1.4994  -1.4810  -1.4298  -1.4115  -1.3900  -1.3806
    -1.3579  -1.3415  -1.3241  -1.2937  -1.2688  -1.2604  -1.2540  -1.2498
    -1.2422  -1.2388  -1.2258  -1.2184  -1.2121  -1.1995  -1.1792  -1.1713
    -1.1610  -1.1192  -1.0838  -1.0458  -1.0138  -1.0075  -0.9966  -0.9746
    -0.9548  -0.9106  -0.8915  -0.8846  -0.8647  -0.8233  -0.8083  -0.7724
    -0.7473  -0.7049  -0.6832  -0.6687  -0.6606  -0.6437  -0.6105  -0.6031
    -0.5488  -0.4915  -0.4837  -0.4708  -0.4656  -0.4593  -0.4487  -0.4445
    -0.4323  -0.4169  -0.3474  -0.3223  -0.3102  -0.3019  -0.2955  -0.2899
    -0.2739  -0.2525  -0.2460  -0.2365  -0.2217  -0.2120  -0.1373  -0.1211
    -0.1129  -0.1067  -0.0792  -0.0568  -0.0219  -0.0020   0.0167   0.0476
     0.0600   0.1020   0.1043   0.1253   0.1280   0.1311   0.1482   0.1774
     0.2319   0.2570   0.3497   0.9472   1.1425   1.3044   1.3651   1.3840
     1.6746   1.7229

          k = 0.4000-0.6928 0.0000 ( 51262 PWs)   bands (ev):

   -21.3808  -9.9891  -6.7279  -6.4356  -6.3443  -5.8794  -5.6921  -5.2325
    -5.0974  -4.9565  -4.5421  -4.2320  -3.9965  -3.9524  -3.8556  -3.8199
    -3.8115  -3.7958  -3.7845  -3.7685  -3.7101  -3.7044  -3.7011  -3.6941
    -3.6170  -3.5997  -3.5532  -3.5491  -3.5217  -3.5192  -3.4051  -3.3855
    -3.3681  -3.3635  -3.3352  -3.2976  -3.2113  -3.1942  -3.0916  -3.0706
    -3.0687  -2.9938  -2.9867  -2.9647  -2.9360  -2.8728  -2.8594  -2.8423
    -2.7931  -2.7788  -2.6941  -2.6726  -2.6396  -2.6283  -2.5793  -2.5738
    -2.5045  -2.4869  -2.4763  -2.4719  -2.4597  -2.4393  -2.4182  -2.3506
    -2.2919  -2.2715  -2.2669  -2.2563  -2.2126  -2.1943  -2.1468  -2.1395
    -2.1120  -2.0891  -2.0825  -2.0687  -2.0661  -2.0411  -2.0166  -1.9945
    -1.9873  -1.9846  -1.9629  -1.9415  -1.9334  -1.8998  -1.8693  -1.8505
    -1.8342  -1.7991  -1.7680  -1.7567  -1.7326  -1.6992  -1.6882  -1.6795
    -1.6597  -1.6555  -1.6480  -1.6344  -1.6266  -1.5958  -1.5873  -1.5607
    -1.5310  -1.5062  -1.4944  -1.4911  -1.4774  -1.4701  -1.4663  -1.4559
    -1.4441  -1.4342  -1.4189  -1.4052  -1.3823  -1.3676  -1.3343  -1.3251
    -1.2853  -1.2496  -1.2113  -1.1917  -1.1854  -1.1790  -1.1657  -1.1043
    -1.0927  -1.0877  -1.0704  -1.0397  -0.9762  -0.9558  -0.9373  -0.9252
    -0.9151  -0.9041  -0.8832  -0.8753  -0.8434  -0.8221  -0.7945  -0.7838
    -0.7628  -0.7363  -0.7232  -0.7170  -0.6898  -0.6542  -0.6435  -0.6214
    -0.6082  -0.5988  -0.5822  -0.5755  -0.5368  -0.5246  -0.5083  -0.4327
    -0.3624  -0.3272  -0.3178  -0.3136  -0.3063  -0.2967  -0.2876  -0.2673
    -0.2494  -0.2368  -0.2232  -0.2127  -0.1717  -0.1556  -0.0999  -0.0885
    -0.0714  -0.0613  -0.0552  -0.0341  -0.0059   0.0092   0.0166   0.0201
     0.0321   0.0746   0.1077   0.1095   0.1269   0.1392   0.1580   0.1900
     0.2828   0.5087   0.6111   0.8662   1.2963   1.4175   1.4709   1.8033
     1.8930   1.9417

          k = 0.4000-0.4619 0.0000 ( 51262 PWs)   bands (ev):

   -21.3808  -9.9875  -6.7335  -6.4433  -6.3460  -5.8529  -5.7180  -5.3201
    -4.9740  -4.9344  -4.5911  -4.2371  -3.9934  -3.9455  -3.8347  -3.8184
    -3.8162  -3.7893  -3.7835  -3.7654  -3.7224  -3.7031  -3.7020  -3.6978
    -3.6144  -3.5968  -3.5529  -3.5515  -3.5235  -3.5163  -3.4210  -3.3808
    -3.3680  -3.3605  -3.3421  -3.2977  -3.2209  -3.1976  -3.0854  -3.0721
    -3.0677  -2.9999  -2.9835  -2.9644  -2.9411  -2.8627  -2.8552  -2.8487
    -2.7849  -2.7747  -2.6997  -2.6673  -2.6374  -2.6303  -2.5794  -2.5719
    -2.4952  -2.4851  -2.4810  -2.4686  -2.4557  -2.4311  -2.4122  -2.3507
    -2.2862  -2.2772  -2.2603  -2.2537  -2.2086  -2.1984  -2.1695  -2.1361
    -2.1261  -2.0900  -2.0835  -2.0753  -2.0521  -2.0256  -2.0119  -2.0033
    -1.9957  -1.9861  -1.9584  -1.9419  -1.9390  -1.9133  -1.8698  -1.8521
    -1.8338  -1.7913  -1.7732  -1.7462  -1.7244  -1.6983  -1.6947  -1.6754
    -1.6626  -1.6557  -1.6451  -1.6386  -1.6236  -1.6192  -1.5930  -1.5848
    -1.5360  -1.5089  -1.4966  -1.4925  -1.4753  -1.4680  -1.4656  -1.4542
    -1.4487  -1.4365  -1.4203  -1.3939  -1.3765  -1.3506  -1.3332  -1.3147
    -1.2546  -1.2496  -1.2322  -1.1964  -1.1815  -1.1726  -1.1607  -1.1122
    -1.0895  -1.0775  -1.0627  -1.0448  -1.0064  -0.9517  -0.9455  -0.9235
    -0.9093  -0.9039  -0.8904  -0.8735  -0.8443  -0.8309  -0.8039  -0.7740
    -0.7647  -0.7377  -0.7170  -0.7102  -0.7023  -0.6670  -0.6347  -0.6293
    -0.6129  -0.5964  -0.5844  -0.5731  -0.5410  -0.5123  -0.4995  -0.4363
    -0.3592  -0.3289  -0.3220  -0.3110  -0.3049  -0.2983  -0.2909  -0.2741
    -0.2480  -0.2326  -0.2231  -0.2159  -0.1648  -0.1614  -0.0993  -0.0946
    -0.0737  -0.0628  -0.0568  -0.0419   0.0019   0.0080   0.0147   0.0231
     0.0336   0.0980   0.1073   0.1164   0.1282   0.1359   0.1602   0.1954
     0.2986   0.5058   0.5755   0.8568   1.3736   1.4120   1.5004   1.7069
     1.8931   1.9611

 ------ SPIN DOWN ----------


          k = 0.0000 0.0000 0.0000 ( 51087 PWs)   bands (ev):

   -21.4083 -10.0743  -7.6196  -6.6781  -6.2047  -5.5773  -5.1061  -4.4142
    -4.3869  -4.3840  -4.3811  -4.3787  -4.3618  -4.2584  -3.5224  -3.5101
    -3.5088  -3.5069  -3.4819  -3.4699  -3.3579  -2.5731  -2.5645  -2.5595
    -2.5557  -2.5353  -2.4860  -2.1039  -2.0956  -2.0927  -2.0913  -2.0848
    -2.0809  -1.9057  -1.8917  -1.8228  -1.8113  -1.8072  -1.7990  -1.7262
    -1.7014  -1.6785  -1.6532  -1.6327  -1.5800  -1.5535  -1.5468  -1.5429
    -1.5274  -1.4955  -1.3168  -1.2881  -1.2774  -1.2744  -1.2703  -1.2625
    -1.2623  -1.2521  -1.2399  -1.2020  -1.1991  -1.1859  -1.1824  -1.1710
    -1.1362  -0.9833  -0.6446  -0.6152  -0.5990  -0.5959  -0.5788  -0.4531
    -0.4040  -0.3023  -0.2802  -0.2775  -0.2674  -0.2652  -0.2599  -0.2226
    -0.2101  -0.2018  -0.1866  -0.1856  -0.1846  -0.1734  -0.1358  -0.0952
    -0.0894  -0.0767  -0.0744  -0.0648  -0.0456  -0.0236  -0.0207  -0.0161
    -0.0159  -0.0099   0.0084   0.0108   0.0179   0.0215   0.0708   0.1049
     0.1537   0.1725   0.1973   0.2258   0.2293   0.2399   0.2425   0.2450
     0.2459   0.2470   0.2486   0.2667   0.3164   0.3174   0.3658   0.3996
     0.4104   0.4250   0.4382   0.4537   0.5843   0.6285   0.6341   0.6847
     0.7134   0.7168   0.7234   0.7272   0.7434   0.8953   1.0305   1.0511
     1.0725   1.0768   1.2236   1.2522   1.2723   1.2862   1.2876   1.2923
     1.2949   1.4416   1.4505   1.4562   1.4621   1.4687   1.4860   1.4924
     1.4973   1.5217   1.5410   1.5497   1.5671   1.5970   1.6038   1.6096
     1.6160   1.6185   1.6195   1.6394   1.6709   1.6899   1.6979   1.7112
     1.7233   1.7365   1.7386   1.7402   1.7432   1.7491   1.7519   1.7894
     1.7935   1.8173   1.8213   1.8264   1.8362   1.8411   1.8420   1.8724
     1.8777   1.8811   1.8886   1.8904   1.8938   1.9006   1.9037   1.9099
     1.9129   1.9598   1.9676   1.9901   2.1164   2.1190   2.1233   2.1259
     2.1286   2.1302

          k = 0.0000 0.2309 0.0000 ( 51134 PWs)   bands (ev):

   -21.4083 -10.0748  -7.4709  -6.6429  -6.1227  -5.5855  -5.3379  -5.1009
    -4.7653  -4.7471  -4.2500  -4.1374  -3.8402  -3.8318  -3.7465  -3.6889
    -3.5457  -3.2988  -3.1700  -3.1412  -3.0651  -2.7961  -2.5780  -2.5462
    -2.5077  -2.4623  -2.4344  -2.2214  -2.1382  -2.1273  -2.1238  -2.0921
    -2.0819  -2.0478  -2.0363  -2.0038  -1.9936  -1.8710  -1.8499  -1.7815
    -1.7681  -1.7444  -1.6550  -1.5970  -1.5823  -1.5689  -1.5231  -1.4594
    -1.4236  -1.4043  -1.3532  -1.3257  -1.3193  -1.2947  -1.2743  -1.2679
    -1.2583  -1.2076  -1.1776  -1.1598  -1.1309  -1.0977  -1.0817  -1.0594
    -0.9998  -0.9206  -0.7198  -0.6615  -0.6500  -0.6241  -0.5976  -0.5580
    -0.4967  -0.4839  -0.4302  -0.4137  -0.3161  -0.2965  -0.2876  -0.2679
    -0.2618  -0.2439  -0.2356  -0.2140  -0.2036  -0.1910  -0.1541  -0.1082
    -0.0882  -0.0746  -0.0689  -0.0434  -0.0282  -0.0113  -0.0061   0.0137
     0.0152   0.0221   0.0290   0.0322   0.0354   0.0481   0.0727   0.0889
     0.1121   0.1272   0.1341   0.1423   0.1687   0.1889   0.1986   0.2130
     0.2456   0.2677   0.3093   0.3161   0.3344   0.3566   0.3598   0.3839
     0.4398   0.5244   0.5688   0.5964   0.6001   0.6425   0.6563   0.6793
     0.6817   0.7019   0.7047   0.7078   0.7868   0.9209   1.0098   1.0317
     1.0405   1.0554   1.0631   1.0785   1.0946   1.1399   1.1934   1.2288
     1.2414   1.2759   1.3178   1.3245   1.3498   1.3791   1.4000   1.4081
     1.4656   1.4889   1.5054   1.5222   1.5310   1.5441   1.5632   1.5723
     1.6024   1.6279   1.6530   1.6777   1.6981   1.7114   1.7194   1.7521
     1.7664   1.7780   1.7832   1.7923   1.8065   1.8335   1.8622   1.8709
     1.8771   1.8796   1.9146   1.9264   1.9358   1.9494   1.9608   1.9773
     1.9842   2.0217   2.0238   2.0289   2.0494   2.0540   2.0634   2.0816
     2.0889   2.1147   2.1214   2.1383   2.2068   2.2197   2.2302   2.2462
     2.3043   2.3165

          k = 0.0000 0.4619 0.0000 ( 51204 PWs)   bands (ev):

   -21.4083 -10.0756  -7.0466  -6.6107  -6.2566  -5.8987  -5.4554  -5.1381
    -4.9865  -4.9347  -4.8268  -3.9090  -3.8667  -3.7620  -3.2981  -3.2189
    -3.2103  -3.0972  -2.9603  -2.9069  -2.7771  -2.7617  -2.6174  -2.6127
    -2.5573  -2.5357  -2.4910  -2.4721  -2.3819  -2.3664  -2.3207  -2.2995
    -2.2849  -2.0881  -2.0771  -2.0050  -1.9951  -1.8926  -1.8776  -1.8713
    -1.8579  -1.8495  -1.6720  -1.5663  -1.5589  -1.5264  -1.5167  -1.4654
    -1.3552  -1.3424  -1.3234  -1.3115  -1.2963  -1.2849  -1.2740  -1.2603
    -1.2084  -1.1609  -1.1586  -1.1466  -1.1216  -1.0756  -0.9794  -0.9478
    -0.8331  -0.8045  -0.7358  -0.6904  -0.6695  -0.6378  -0.6169  -0.5990
    -0.5907  -0.5632  -0.5320  -0.4986  -0.4818  -0.4438  -0.4215  -0.3963
    -0.3727  -0.3373  -0.3231  -0.3134  -0.3034  -0.2408  -0.2054  -0.1665
    -0.1300  -0.1095  -0.0884  -0.0526  -0.0402  -0.0151   0.0050   0.0301
     0.0509   0.0673   0.0745   0.0847   0.0914   0.1051   0.1294   0.1430
     0.1524   0.1792   0.1885   0.1915   0.2028   0.2134   0.2239   0.2471
     0.2597   0.2755   0.3211   0.3651   0.4045   0.4102   0.4409   0.4573
     0.4593   0.4821   0.4899   0.5075   0.5650   0.5678   0.5721   0.6093
     0.6256   0.6437   0.6738   0.6765   0.7016   0.7125   0.7990   0.8602
     0.8980   0.9284   0.9905   1.0448   1.0975   1.1204   1.1355   1.1414
     1.1588   1.1726   1.2035   1.2368   1.2503   1.2918   1.3842   1.4224
     1.4330   1.4397   1.4924   1.5127   1.5389   1.5517   1.5737   1.5935
     1.6233   1.6371   1.6596   1.7106   1.7421   1.7606   1.7720   1.7935
     1.7976   1.8021   1.8198   1.8384   1.8659   1.8759   1.8859   1.9090
     1.9242   1.9657   2.0078   2.0180   2.0296   2.0577   2.0646   2.0752
     2.0831   2.0906   2.1179   2.1239   2.1335   2.1466   2.1540   2.1572
     2.1750   2.2032   2.3090   2.3665   2.3864   2.4738   2.5681   2.8189
     2.9009   2.9387

          k = 0.2000-0.1155 0.0000 ( 51134 PWs)   bands (ev):

   -21.4083 -10.0740  -7.4719  -6.6432  -6.1289  -5.6060  -5.3126  -5.0894
    -4.7732  -4.7604  -4.2439  -4.0997  -3.8400  -3.8332  -3.7569  -3.7190
    -3.5401  -3.2974  -3.1744  -3.1525  -3.0497  -2.7736  -2.5875  -2.5597
    -2.4950  -2.4675  -2.4407  -2.2191  -2.1359  -2.1338  -2.1207  -2.0883
    -2.0820  -2.0493  -2.0359  -2.0018  -1.9972  -1.8806  -1.8489  -1.7738
    -1.7675  -1.7282  -1.6430  -1.6076  -1.5784  -1.5686  -1.5137  -1.4507
    -1.4304  -1.4045  -1.3608  -1.3409  -1.3179  -1.2925  -1.2772  -1.2685
    -1.2559  -1.2225  -1.1768  -1.1582  -1.1299  -1.0967  -1.0842  -1.0599
    -0.9855  -0.9294  -0.7226  -0.6623  -0.6476  -0.6276  -0.5924  -0.5512
    -0.5042  -0.4810  -0.4372  -0.4198  -0.3205  -0.2976  -0.2865  -0.2708
    -0.2597  -0.2453  -0.2355  -0.2147  -0.2081  -0.1860  -0.1570  -0.1063
    -0.0787  -0.0755  -0.0623  -0.0431  -0.0386  -0.0171  -0.0060   0.0097
     0.0186   0.0243   0.0304   0.0334   0.0358   0.0398   0.0774   0.0877
     0.1144   0.1295   0.1384   0.1405   0.1728   0.1863   0.2010   0.2077
     0.2390   0.2561   0.2822   0.3099   0.3438   0.3539   0.3591   0.3837
     0.4579   0.5404   0.5876   0.5966   0.6089   0.6401   0.6556   0.6781
     0.6925   0.7033   0.7040   0.7082   0.7626   0.9145   1.0146   1.0360
     1.0428   1.0517   1.0676   1.0780   1.1015   1.1477   1.1985   1.2292
     1.2499   1.2664   1.3175   1.3263   1.3556   1.3778   1.4040   1.4252
     1.4646   1.4706   1.5079   1.5218   1.5312   1.5452   1.5648   1.5729
     1.5992   1.6174   1.6656   1.6736   1.6979   1.7086   1.7194   1.7268
     1.7740   1.7756   1.7848   1.7872   1.8073   1.8417   1.8632   1.8711
     1.8748   1.8820   1.9117   1.9257   1.9347   1.9473   1.9652   1.9739
     1.9855   2.0216   2.0252   2.0296   2.0503   2.0563   2.0619   2.0867
     2.1029   2.1129   2.1177   2.1405   2.1949   2.2206   2.2279   2.2615
     2.2958   2.3141

          k = 0.2000 0.1155 0.0000 ( 51134 PWs)   bands (ev):

   -21.4083 -10.0750  -7.4706  -6.6431  -6.1206  -5.5817  -5.3361  -5.1167
    -4.7545  -4.7469  -4.2530  -4.1481  -3.8383  -3.8329  -3.7341  -3.6876
    -3.5483  -3.2985  -3.1660  -3.1437  -3.0680  -2.8001  -2.5712  -2.5465
    -2.5067  -2.4613  -2.4377  -2.2218  -2.1358  -2.1251  -2.1212  -2.0873
    -2.0829  -2.0489  -2.0364  -2.0010  -1.9970  -1.8745  -1.8480  -1.7801
    -1.7674  -1.7338  -1.6806  -1.6110  -1.5888  -1.5693  -1.4869  -1.4520
    -1.4316  -1.4077  -1.3553  -1.3402  -1.3125  -1.2927  -1.2753  -1.2709
    -1.2588  -1.2064  -1.1867  -1.1612  -1.1326  -1.0941  -1.0825  -1.0591
    -0.9767  -0.9216  -0.7316  -0.6621  -0.6492  -0.6246  -0.5936  -0.5600
    -0.5082  -0.4829  -0.4279  -0.4110  -0.3256  -0.2926  -0.2843  -0.2802
    -0.2455  -0.2361  -0.2323  -0.2189  -0.2123  -0.1838  -0.1647  -0.1080
    -0.0878  -0.0752  -0.0645  -0.0515  -0.0434  -0.0066  -0.0036   0.0077
     0.0186   0.0199   0.0288   0.0334   0.0380   0.0510   0.0781   0.0893
     0.1142   0.1275   0.1400   0.1423   0.1550   0.1906   0.2050   0.2140
     0.2450   0.2604   0.3064   0.3136   0.3424   0.3522   0.3580   0.3832
     0.4632   0.5342   0.5680   0.5964   0.6045   0.6507   0.6542   0.6802
     0.6932   0.6972   0.7042   0.7065   0.7570   0.9185   1.0143   1.0235
     1.0413   1.0618   1.0723   1.0785   1.0999   1.1596   1.2023   1.2249
     1.2403   1.2614   1.3199   1.3254   1.3521   1.3753   1.3893   1.4072
     1.4695   1.4847   1.5117   1.5257   1.5321   1.5451   1.5614   1.5742
     1.5966   1.6270   1.6605   1.6703   1.6901   1.7117   1.7219   1.7471
     1.7695   1.7790   1.7828   1.7922   1.8033   1.8381   1.8631   1.8713
     1.8756   1.8812   1.9097   1.9268   1.9369   1.9496   1.9603   1.9770
     1.9827   2.0218   2.0238   2.0318   2.0504   2.0542   2.0617   2.0833
     2.0904   2.1160   2.1190   2.1384   2.2054   2.2193   2.2313   2.2442
     2.3042   2.3188

          k = 0.2000 0.3464 0.0000 ( 51202 PWs)   bands (ev):

   -21.4083 -10.0760  -7.1811  -6.6075  -5.9708  -5.7535  -5.7470  -5.4211
    -5.1084  -4.4873  -4.4287  -4.0351  -4.0221  -3.9221  -3.1960  -3.1897
    -3.1823  -3.1742  -3.0745  -2.9777  -2.8953  -2.8883  -2.8762  -2.5157
    -2.4412  -2.4299  -2.4246  -2.3448  -2.3354  -2.3136  -2.2332  -2.2213
    -2.2159  -2.2080  -2.1966  -2.0728  -2.0134  -1.8620  -1.8383  -1.8308
    -1.7751  -1.7607  -1.7085  -1.6920  -1.6221  -1.5209  -1.4913  -1.4394
    -1.3740  -1.3544  -1.3148  -1.3100  -1.3084  -1.2857  -1.2627  -1.2492
    -1.2375  -1.2012  -1.1617  -1.1274  -1.0989  -0.9984  -0.9623  -0.9325
    -0.8662  -0.8356  -0.7285  -0.7180  -0.6388  -0.6133  -0.5847  -0.5596
    -0.5498  -0.5225  -0.5097  -0.5054  -0.4518  -0.4274  -0.3980  -0.3856
    -0.3716  -0.3572  -0.3389  -0.3264  -0.2840  -0.2219  -0.1757  -0.1666
    -0.1433  -0.1262  -0.0849  -0.0672  -0.0455  -0.0391  -0.0253  -0.0159
     0.0046   0.0222   0.0337   0.0479   0.0596   0.0690   0.1058   0.1196
     0.1322   0.1424   0.1617   0.1710   0.1851   0.1895   0.2113   0.2156
     0.2564   0.2973   0.3132   0.3346   0.3792   0.4452   0.4591   0.4668
     0.4971   0.5054   0.5418   0.5937   0.6120   0.6209   0.6269   0.6350
     0.6507   0.6625   0.6914   0.7250   0.7793   0.7942   0.9079   0.9436
     0.9850   1.0427   1.0523   1.0740   1.1028   1.1172   1.1314   1.1456
     1.1611   1.1772   1.1859   1.2034   1.2265   1.2641   1.3199   1.3566
     1.3825   1.3973   1.4185   1.4370   1.4615   1.4741   1.5144   1.5304
     1.5833   1.6329   1.7006   1.7472   1.7502   1.7677   1.7897   1.8080
     1.8197   1.8269   1.8450   1.8567   1.8648   1.9033   1.9232   1.9267
     1.9368   1.9758   1.9828   1.9891   2.0038   2.0265   2.0298   2.0577
     2.0639   2.0700   2.0761   2.1062   2.1088   2.1278   2.1481   2.1769
     2.2049   2.2093   2.3168   2.3341   2.4221   2.4538   2.4860   2.6589
     2.7063   2.7967

          k = 0.2000-0.5774 0.0000 ( 51262 PWs)   bands (ev):

   -21.4083 -10.0756  -6.7794  -6.5581  -6.4198  -5.9260  -5.7516  -5.3120
    -5.0966  -4.9572  -4.5195  -4.0818  -3.5624  -3.4464  -3.2217  -3.2167
    -3.1860  -2.9928  -2.9608  -2.8212  -2.8000  -2.7939  -2.6741  -2.6624
    -2.6561  -2.6408  -2.6232  -2.6031  -2.4127  -2.2887  -2.2566  -2.2472
    -2.2392  -2.2216  -2.1922  -2.1810  -2.0769  -2.0576  -1.8472  -1.7496
    -1.7252  -1.7180  -1.7092  -1.6430  -1.6023  -1.5083  -1.4749  -1.4520
    -1.4279  -1.4174  -1.3815  -1.2937  -1.2544  -1.2428  -1.2356  -1.2084
    -1.1818  -1.1184  -1.0892  -1.0603  -1.0292  -1.0093  -0.9792  -0.8927
    -0.8735  -0.7978  -0.7126  -0.7008  -0.6796  -0.6359  -0.6172  -0.6100
    -0.5689  -0.5385  -0.5144  -0.4914  -0.4687  -0.4393  -0.4079  -0.3977
    -0.3732  -0.3588  -0.3443  -0.3306  -0.3281  -0.3164  -0.2824  -0.2714
    -0.2576  -0.2419  -0.2009  -0.1725  -0.1486  -0.1046  -0.0740  -0.0515
    -0.0111   0.0240   0.0419   0.0647   0.0838   0.0978   0.1028   0.1267
[...]
     atom    8 type  1   force =    -0.00063794   -0.00413788   -0.09921312
     atom    9 type  1   force =     0.00160985    0.00253341   -0.10232166
     atom   10 type  1   force =     0.00008781    0.00116005   -0.01720789
     atom   11 type  1   force =     0.00081526    0.00097863   -0.00864083
     atom   12 type  1   force =    -0.00000711    0.00125106   -0.01136082
     atom   13 type  1   force =    -0.00037542   -0.00028489   -0.01039427
     atom   14 type  1   force =     0.00056265    0.00087727   -0.01259795
     atom   15 type  1   force =    -0.00069966    0.00074855   -0.01013736
     atom   16 type  1   force =     0.00136433   -0.00115386   -0.01156679
     atom   17 type  1   force =    -0.00055159   -0.00266283   -0.00972685
     atom   18 type  1   force =    -0.00039413   -0.00070872   -0.01332504
     atom   19 type  1   force =    -0.00025089    0.00184054    0.01341795
     atom   20 type  1   force =    -0.00692754    0.00357730   -0.00067382
     atom   21 type  1   force =     0.00511672   -0.00685042    0.01136157
     atom   22 type  1   force =    -0.00010765   -0.00036864    0.01792634
     atom   23 type  1   force =    -0.00029756    0.00785609    0.01029758
     atom   24 type  1   force =     0.00029883    0.00167316    0.01771479
     atom   25 type  1   force =    -0.00045834    0.00059842    0.01851500
     atom   26 type  1   force =    -0.00730991   -0.00684731    0.00482684
     atom   27 type  1   force =     0.00924107   -0.00379204    0.00230259
     atom   28 type  1   force =     0.02108634    0.00218402    0.12920976
     atom   29 type  1   force =     0.02051240    0.05733639    0.11520176
     atom   30 type  1   force =    -0.02843108    0.00690409    0.13634632
     atom   31 type  1   force =     0.04106734   -0.04827850    0.17241475
     atom   32 type  1   force =    -0.00041609    0.00078473    0.02704646
     atom   33 type  1   force =    -0.00004321    0.00094789    0.10572039
     atom   34 type  1   force =    -0.00109593   -0.00246038    0.10798623
     atom   35 type  1   force =     0.00110113    0.00457899    0.11818109
     atom   36 type  1   force =    -0.00427015    0.00435152    0.10792349
     atom   37 type  2   force =    -0.24566177   -0.30646474    0.20828817
     atom   38 type  3   force =     1.35050799    1.69401780   -1.18575548
     atom   39 type  4   force =    -0.03360199   -0.04311220   -0.05446019
     The ionic contribution  to forces
     atom    1 type  1   force =    -0.00631344    0.00135137 -111.17742184
     atom    2 type  1   force =    -0.00321069    0.00272406 -111.19651402
     atom    3 type  1   force =     0.00952405    0.00100294 -111.18379974
     atom    4 type  1   force =    -0.00357417    0.00484518 -111.17657663
     atom    5 type  1   force =     0.00169894    0.00744359 -111.18035522
     atom    6 type  1   force =     0.00187526   -0.00145941 -111.17324488
     atom    7 type  1   force =     0.00128089   -0.00122746 -111.17265062
     atom    8 type  1   force =    -0.00592404   -0.00587462 -111.18186283
     atom    9 type  1   force =     0.00464317   -0.00880564 -111.18445022
     atom   10 type  1   force =    -0.04168459   -0.01591764  -40.11792087
     atom   11 type  1   force =    -0.01599401   -0.05341125  -40.23412427
     atom   12 type  1   force =     0.05767079   -0.03267971  -40.14842139
     atom   13 type  1   force =    -0.06050082    0.03997862  -40.17872406
     atom   14 type  1   force =     0.03867216    0.04596734  -40.22433629
     atom   15 type  1   force =     0.02184147    0.01248278  -40.10378685
     atom   16 type  1   force =    -0.00642172    0.03864186  -40.10928476
     atom   17 type  1   force =     0.00205825   -0.00683174  -40.11666323
     atom   18 type  1   force =     0.00436150   -0.02822962  -40.10484630
     atom   19 type  1   force =    -0.30335831    0.06546490   31.49761881
     atom   20 type  1   force =    -0.18558548    0.15267439   30.47745770
     atom   21 type  1   force =     0.48615031    0.04443733   31.18532946
     atom   22 type  1   force =    -0.16958673    0.23010169   31.53781777
     atom   23 type  1   force =     0.08789151    0.37050154   31.35561139
     atom   24 type  1   force =     0.08239279   -0.06566097   31.67162418
     atom   25 type  1   force =     0.05387499   -0.05361236   31.69844892
     atom   26 type  1   force =    -0.29399750   -0.29799907   31.27644550
     atom   27 type  1   force =     0.24058798   -0.44535576   31.15689029
     atom   28 type  1   force =    -1.61569206   -0.53430019  103.80958604
     atom   29 type  1   force =    -0.91333484   -3.72871248   97.55924746
     atom   30 type  1   force =     2.41437519   -1.37096723  103.06367898
     atom   31 type  1   force =    -3.00499817    2.02906409  101.84790737
     atom   32 type  1   force =     2.74202190    3.24044293   98.03189205
     atom   33 type  1   force =     0.77232991    0.35175722  104.25575680
     atom   34 type  1   force =    -0.26828382    1.33328902  104.11888138
     atom   35 type  1   force =     0.02504994   -0.27450878  103.97754803
     atom   36 type  1   force =     0.23384640   -0.96706489  104.21421372
     atom   37 type  2   force =     3.65532536    4.83982626   55.93153668
     atom   38 type  3   force =    -5.23726277   -6.47119613   88.20632662
     atom   39 type  4   force =     1.19825039    1.55181786   15.09116487
     The local contribution  to forces
     atom    1 type  1   force =     0.00763840   -0.00411474  111.28437791
     atom    2 type  1   force =     0.00386886   -0.00386909  111.30073260
     atom    3 type  1   force =    -0.01135502    0.00103857  111.29083250
     atom    4 type  1   force =     0.00126399   -0.00308787  111.28352299
     atom    5 type  1   force =    -0.00153909   -0.01147556  111.28861752
     atom    6 type  1   force =     0.00004574    0.00265168  111.27927391
     atom    7 type  1   force =    -0.00082518    0.00182534  111.28048523
     atom    8 type  1   force =     0.00694787    0.00993789  111.28394949
     atom    9 type  1   force =    -0.00662957    0.00648918  111.28879874
     atom   10 type  1   force =     0.04209354    0.01472867   40.11246806
     atom   11 type  1   force =     0.01448784    0.05174437   40.22181616
     atom   12 type  1   force =    -0.05702203    0.03145847   40.13944663
     atom   13 type  1   force =     0.06027600   -0.04069881   40.16830824
     atom   14 type  1   force =    -0.03889872   -0.04586344   40.21491873
     atom   15 type  1   force =    -0.02070981   -0.01385329   40.09316340
     atom   16 type  1   force =     0.00543602   -0.03720553   40.09938293
     atom   17 type  1   force =    -0.00138097    0.00970729   40.10529371
     atom   18 type  1   force =    -0.00358034    0.02927748   40.09632342
     atom   19 type  1   force =     0.30327050   -0.06682775  -31.48818865
     atom   20 type  1   force =     0.19375481   -0.15728375  -30.45621950
     atom   21 type  1   force =    -0.49093551   -0.03764217  -31.17828247
     atom   22 type  1   force =     0.16974604   -0.22880106  -31.53190793
     atom   23 type  1   force =    -0.08698107   -0.37701194  -31.34994754
     atom   24 type  1   force =    -0.08295103    0.06449689  -31.66672527
     atom   25 type  1   force =    -0.05382116    0.05298494  -31.69119318
     atom   26 type  1   force =     0.30470877    0.30556543  -31.25824795
     atom   27 type  1   force =    -0.25145038    0.44983727  -31.13846845
     atom   28 type  1   force =     1.58696267    0.52967279 -103.94872854
     atom   29 type  1   force =     0.88280558    3.64984855  -97.68137486
     atom   30 type  1   force =    -2.37574362    1.36138644 -103.20979520
     atom   31 type  1   force =     2.95428584   -1.97118958 -102.03167773
     atom   32 type  1   force =    -2.73955206   -3.24053374  -98.04726164
     atom   33 type  1   force =    -0.76896247   -0.35109914 -104.36891812
     atom   34 type  1   force =     0.26780987   -1.32472071 -104.23399331
     atom   35 type  1   force =    -0.02634315    0.26756370 -104.10709952
     atom   36 type  1   force =    -0.22876649    0.95827336 -104.33148481
     atom   37 type  2   force =    -3.40791441   -4.53183874  -56.13359462
     atom   38 type  3   force =     3.90087485    4.79241806  -87.03640523
     atom   39 type  4   force =    -1.16613422   -1.50790647  -15.02717180
     The core correction contribution to forces
     atom    1 type  1   force =     0.00020640   -0.00015251    0.01032215
     atom    2 type  1   force =     0.00000855   -0.00011254    0.01020987
     atom    3 type  1   force =    -0.00018947    0.00008302    0.01048228
     atom    4 type  1   force =    -0.00015623   -0.00002199    0.01010793
     atom    5 type  1   force =     0.00010735   -0.00021632    0.01043080
     atom    6 type  1   force =    -0.00001227   -0.00010231    0.01001910
     atom    7 type  1   force =    -0.00004599   -0.00006178    0.01000952
     atom    8 type  1   force =     0.00015102    0.00037852    0.01052528
     atom    9 type  1   force =    -0.00031710   -0.00002710    0.01020523
     atom   10 type  1   force =     0.00007872    0.00012208   -0.00190139
     atom   11 type  1   force =    -0.00018427    0.00004087   -0.00147806
     atom   12 type  1   force =     0.00018374    0.00004882   -0.00186875
     atom   13 type  1   force =     0.00004147   -0.00006911   -0.00175527
     atom   14 type  1   force =     0.00003973    0.00002840   -0.00187547
     atom   15 type  1   force =    -0.00007083   -0.00007227   -0.00162415
     atom   16 type  1   force =    -0.00003742   -0.00002261   -0.00176419
     atom   17 type  1   force =     0.00010894    0.00001432   -0.00162699
     atom   18 type  1   force =    -0.00004256   -0.00009862   -0.00191080
     atom   19 type  1   force =    -0.00020365   -0.00029252    0.00152157
     atom   20 type  1   force =    -0.00016402   -0.00019944    0.00109627
     atom   21 type  1   force =     0.00073723   -0.00091133    0.00041148
     atom   22 type  1   force =    -0.00029042   -0.00001008    0.00198222
     atom   23 type  1   force =    -0.00014277    0.00149672    0.00019553
     atom   24 type  1   force =     0.00002536    0.00017326    0.00173605
     atom   25 type  1   force =     0.00014415    0.00024444    0.00216014
     atom   26 type  1   force =    -0.00012239    0.00001415    0.00145264
     atom   27 type  1   force =     0.00019286   -0.00018695    0.00065470
     atom   28 type  1   force =     0.00057373    0.00027629   -0.00918395
     atom   29 type  1   force =     0.00286600    0.01000992    0.00448556
     atom   30 type  1   force =    -0.00258852    0.00383536   -0.00764932
     atom   31 type  1   force =     0.00637777   -0.00160934   -0.00527365
     atom   32 type  1   force =    -0.00283073   -0.00295002   -0.00477403
     atom   33 type  1   force =    -0.00257082   -0.00066218   -0.00960670
     atom   34 type  1   force =     0.00077032   -0.00319642   -0.00903310
     atom   35 type  1   force =    -0.00040069   -0.00078776   -0.00959551
     atom   36 type  1   force =    -0.00006621    0.00000799   -0.01052608
     atom   37 type  2   force =     0.00257773    0.00366357   -0.00280743
     atom   38 type  3   force =    -0.01098363   -0.01369690    0.01059652
     atom   39 type  4   force =     0.00000000    0.00000000    0.00000000
     The Hubbard contrib.    to forces
     atom    1 type  1   force =     0.00000000    0.00000000    0.00000000
     atom    2 type  1   force =     0.00000000    0.00000000    0.00000000
     atom    3 type  1   force =     0.00000000    0.00000000    0.00000000
     atom    4 type  1   force =     0.00000000    0.00000000    0.00000000
     atom    5 type  1   force =     0.00000000    0.00000000    0.00000000
     atom    6 type  1   force =     0.00000000    0.00000000    0.00000000
     atom    7 type  1   force =     0.00000000    0.00000000    0.00000000
     atom    8 type  1   force =     0.00000000    0.00000000    0.00000000
     atom    9 type  1   force =     0.00000000    0.00000000    0.00000000
     atom   10 type  1   force =     0.00000000    0.00000000    0.00000000
     atom   11 type  1   force =     0.00000000    0.00000000    0.00000000
     atom   12 type  1   force =     0.00000000    0.00000000    0.00000000
     atom   13 type  1   force =     0.00000000    0.00000000    0.00000000
     atom   14 type  1   force =     0.00000000    0.00000000    0.00000000
     atom   15 type  1   force =     0.00000000    0.00000000    0.00000000
     atom   16 type  1   force =     0.00000000    0.00000000    0.00000000
     atom   17 type  1   force =     0.00000000    0.00000000    0.00000000
     atom   18 type  1   force =     0.00000000    0.00000000    0.00000000
     atom   19 type  1   force =     0.00000000    0.00000000    0.00000000
     atom   20 type  1   force =     0.00000000    0.00000000    0.00000000
     atom   21 type  1   force =     0.00000000    0.00000000    0.00000000
     atom   22 type  1   force =     0.00000000    0.00000000    0.00000000
     atom   23 type  1   force =     0.00000000    0.00000000    0.00000000
     atom   24 type  1   force =     0.00000000    0.00000000    0.00000000
     atom   25 type  1   force =     0.00000000    0.00000000    0.00000000
     atom   26 type  1   force =     0.00000000    0.00000000    0.00000000
     atom   27 type  1   force =     0.00000000    0.00000000    0.00000000
     atom   28 type  1   force =     0.00000000    0.00000000    0.00000000
     atom   29 type  1   force =     0.00000000    0.00000000    0.00000000
     atom   30 type  1   force =     0.00000000    0.00000000    0.00000000
     atom   31 type  1   force =     0.00000000    0.00000000    0.00000000
     atom   32 type  1   force =     0.00000000    0.00000000    0.00000000
     atom   33 type  1   force =     0.00000000    0.00000000    0.00000000
     atom   34 type  1   force =     0.00000000    0.00000000    0.00000000
     atom   35 type  1   force =     0.00000000    0.00000000    0.00000000
     atom   36 type  1   force =     0.00000000    0.00000000    0.00000000
     atom   37 type  2   force =     0.00000000    0.00000000    0.00000000
     atom   38 type  3   force =     0.00000000    0.00000000    0.00000000
     atom   39 type  4   force =     0.00000000    0.00000000    0.00000000
     The SCF correction term to forces
     atom    1 type  1   force =    -0.00000000    0.00000000    0.00000000
     atom    2 type  1   force =     0.00000000    0.00000000    0.00000000
     atom    3 type  1   force =    -0.00000000    0.00000000    0.00000000
     atom    4 type  1   force =    -0.00000000    0.00000000    0.00000000
     atom    5 type  1   force =     0.00000000   -0.00000000    0.00000000
     atom    6 type  1   force =     0.00000000    0.00000000    0.00000000
     atom    7 type  1   force =    -0.00000000   -0.00000000    0.00000000
     atom    8 type  1   force =     0.00000000   -0.00000000    0.00000000
     atom    9 type  1   force =     0.00000000   -0.00000000    0.00000000
     atom   10 type  1   force =     0.00000000   -0.00000000    0.00000000
     atom   11 type  1   force =     0.00000000   -0.00000000    0.00000000
     atom   12 type  1   force =    -0.00000000   -0.00000000    0.00000000
     atom   13 type  1   force =     0.00000000    0.00000000    0.00000000
     atom   14 type  1   force =     0.00000000    0.00000000    0.00000000
     atom   15 type  1   force =    -0.00000000    0.00000000    0.00000000
     atom   16 type  1   force =    -0.00000000   -0.00000000    0.00000000
     atom   17 type  1   force =     0.00000000   -0.00000000    0.00000000
     atom   18 type  1   force =    -0.00000000    0.00000000    0.00000000
     atom   19 type  1   force =     0.00000000   -0.00000000    0.00000000
     atom   20 type  1   force =    -0.00000000   -0.00000000    0.00000000
     atom   21 type  1   force =    -0.00000000    0.00000000    0.00000000
     atom   22 type  1   force =     0.00000000   -0.00000000    0.00000000
     atom   23 type  1   force =     0.00000000   -0.00000000    0.00000000
     atom   24 type  1   force =    -0.00000000    0.00000000    0.00000000
     atom   25 type  1   force =     0.00000000    0.00000000    0.00000000
     atom   26 type  1   force =    -0.00000000    0.00000000    0.00000000
     atom   27 type  1   force =    -0.00000000    0.00000000    0.00000000
     atom   28 type  1   force =     0.00000000    0.00000000   -0.00000000
     atom   29 type  1   force =    -0.00000000    0.00000000   -0.00000000
     atom   30 type  1   force =     0.00000000    0.00000000   -0.00000000
     atom   31 type  1   force =    -0.00000000   -0.00000000   -0.00000000
     atom   32 type  1   force =    -0.00000000    0.00000000   -0.00000000
     atom   33 type  1   force =     0.00000000    0.00000000   -0.00000000
     atom   34 type  1   force =     0.00000000   -0.00000000   -0.00000000
     atom   35 type  1   force =     0.00000000    0.00000000   -0.00000000
     atom   36 type  1   force =    -0.00000000   -0.00000000   -0.00000000
     atom   37 type  2   force =    -0.00000376   -0.00000022   -0.00001095
     atom   38 type  3   force =    -0.00000750   -0.00000343   -0.00002267
     atom   39 type  4   force =     0.00000025    0.00000064   -0.00000172

     Total force =     0.013802     Total SCF correction =     0.000027

     Writing all to output data dir ./pwscf.save/

     init_run     :     15.84s CPU     16.32s WALL (       1 calls)
     electrons    :    904.10s CPU    925.21s WALL (       1 calls)
     forces       :      3.36s CPU      3.42s WALL (       1 calls)

     Called by init_run:
     wfcinit      :     12.76s CPU     13.13s WALL (       1 calls)
     potinit      :      1.99s CPU      2.07s WALL (       1 calls)
     hinit0       :      0.84s CPU      0.85s WALL (       1 calls)

     Called by electrons:
     c_bands      :    752.36s CPU    770.64s WALL (      52 calls)
     sum_band     :    107.29s CPU    109.33s WALL (      52 calls)
     v_of_rho     :      8.25s CPU      8.41s WALL (      53 calls)
     newd         :      2.87s CPU      2.91s WALL (      53 calls)
     PAW_pot      :     13.25s CPU     13.40s WALL (      53 calls)
     mix_rho      :     21.45s CPU     21.77s WALL (      52 calls)
     vdW_kernel   :      1.08s CPU      1.09s WALL (       1 calls)

     Called by c_bands:
     init_us_2    :      9.09s CPU      9.25s WALL (    2756 calls)
     init_us_2:cp :      9.08s CPU      9.24s WALL (    2756 calls)
     cegterg      :    727.21s CPU    744.76s WALL (    1352 calls)

     Called by *egterg:
     cdiaghg      :    209.09s CPU    211.68s WALL (    4852 calls)
     h_psi        :    344.71s CPU    355.71s WALL (    4878 calls)
     s_psi        :     38.69s CPU     40.19s WALL (    4878 calls)
     g_psi        :      0.98s CPU      1.00s WALL (    3500 calls)

     Called by h_psi:
     h_psi:calbec :     54.28s CPU     56.02s WALL (    4878 calls)
     vloc_psi     :    249.29s CPU    257.43s WALL (    4878 calls)
     add_vuspsi   :     38.71s CPU     39.81s WALL (    4878 calls)

     General routines
     calbec       :     83.80s CPU     85.94s WALL (    6334 calls)
     fft          :      4.97s CPU      5.07s WALL (    4794 calls)
     ffts         :     11.88s CPU     12.07s WALL (   23261 calls)
     fftw         :    295.59s CPU    304.42s WALL ( 1402202 calls)
     interpolate  :      0.35s CPU      0.35s WALL (     106 calls)

     Parallel routines

     PWSCF        :  15m28.56s CPU  15m55.73s WALL


   This run was terminated on:  19:34:40   7Dec2025            

=------------------------------------------------------------------------------=
   JOB DONE.
=------------------------------------------------------------------------------=
