
     Program PWSCF v.7.1 starts on 14Dec2025 at  9:56:52 
        Git branch: heads/qe-7.1
        Last git commit: 48ba0178f8fede6d020eb786884699a9f063f55d-dirty
        Last git commit date: Fri Jan 27 14:22:33 2023 +0000
        Last git commit subject: Merge branch 'fix_hubbard' into 'develop'

     This program is part of the open-source Quantum ESPRESSO suite
     for quantum simulation of materials; please cite
         "P. Giannozzi et al., J. Phys.:Condens. Matter 21 395502 (2009);
         "P. Giannozzi et al., J. Phys.:Condens. Matter 29 465901 (2017);
         "P. Giannozzi et al., J. Chem. Phys. 152 154105 (2020);
          URL http://www.quantum-espresso.org", 
     in publications or presentations arising from this work. More details at
     http://www.quantum-espresso.org/quote

     Parallel version (MPI), running on    96 processors

     MPI processes distributed on     2 nodes
     109079 MiB available memory on the printing compute node when the environment starts

     Reading input from espresso.pwi
Warning: card &CELL ignored
Warning: card / ignored
Warning: card &FCP ignored
Warning: card / ignored
Warning: card &RISM ignored
Warning: card / ignored

     Current dimensions of program PWSCF are:
     Max number of different atomic species (ntypx) = 10
     Max number of k-points (npk) =  40000
     Max angular momentum in pseudopotentials (lmaxx) =  4
     file Co.pbe-n-kjpaw_psl.1.0.0.UPF: wavefunction(s)  4S 3D renormalized
     file C.pbe-n-kjpaw_psl.1.0.0.UPF: wavefunction(s)  2S 2P renormalized
     file O.pbe-nl-kjpaw_psl.1.0.0.UPF: wavefunction(s)  2S 2P renormalized
     file H.pbe-kjpaw_psl.1.0.0.UPF: wavefunction(s)  1S renormalized

     **************************************************************************
     Initializing libbeef V0.1.2 with the BEEF-vdW functional.
     Citation: Wellendorff et al., PRB 85, 235149 (2012).
     **************************************************************************


     IMPORTANT: XC functional enforced from input :
     Exchange-correlation= BEEF-VDW
                           (   1   4  43  14   2   0   0)
     Any further DFT definition will be discarded
     Please, verify this is what you really want


     R & G space division:  proc/nbgrp/npool/nimage =      96
     Subspace diagonalization in iterative solution of the eigenvalue problem:
     one sub-group per band group will be used
     custom distributed-memory algorithm (size of sub-group:  2*  2 procs)


     Parallelization info
     --------------------
     sticks:   dense  smooth     PW     G-vecs:    dense   smooth      PW
     Min          43      28      7                 7829     4248     595
     Max          44      29      8                 7845     4281     630
     Sum        4153    2773    757               752179   409445   59217

     Using Slab Decomposition



     bravais-lattice index     =            0
     lattice parameter (alat)  =      14.1729  a.u.
     unit-cell volume          =    8574.3059 (a.u.)^3
     number of atoms/cell      =           39
     number of atomic types    =            4
     number of electrons       =       335.00
     number of Kohn-Sham states=          202
     kinetic-energy cutoff     =      50.0000  Ry
     charge density cutoff     =     300.0000  Ry
     scf convergence threshold =      1.0E-08
     mixing beta               =       0.7000
     number of iterations used =            8  local-TF  mixing
     Exchange-correlation= BEEF-VDW
                           (   1   4  43  14   2   0   0)

     celldm(1)=  14.172946  celldm(2)=   0.000000  celldm(3)=   0.000000
     celldm(4)=   0.000000  celldm(5)=   0.000000  celldm(6)=   0.000000

     crystal axes: (cart. coord. in units of alat)
               a(1) = (   1.000000   0.000000   0.000000 )  
               a(2) = (   0.500000   0.866025   0.000000 )  
               a(3) = (   0.000000   0.000000   3.477667 )  

     reciprocal axes: (cart. coord. in units 2 pi/alat)
               b(1) = (  1.000000 -0.577350  0.000000 )  
               b(2) = (  0.000000  1.154701  0.000000 )  
               b(3) = (  0.000000  0.000000  0.287549 )  


     PseudoPot. # 1 for Co read from file:
     /users/kbadger1/espresso/pseudo/pslibrary.1.0.0/pbe/PSEUDOPOTENTIALS/Co.pbe-n-kjpaw_psl.1.0.0.UPF
     MD5 check sum: 88af6ec42553d4236c267fdfcb472151
     Pseudo is Projector augmented-wave + core cor, Zval =  9.0
     Generated using 'atomic' code by A. Dal Corso  v.7.0
     Shape of augmentation charge: PSQ
     Using radial grid of 1193 points,  6 beta functions with: 
                l(1) =   0
                l(2) =   0
                l(3) =   1
                l(4) =   1
                l(5) =   2
                l(6) =   2
     Q(r) pseudized with 0 coefficients 


     PseudoPot. # 2 for C  read from file:
     /users/kbadger1/espresso/pseudo/pslibrary.1.0.0/pbe/PSEUDOPOTENTIALS/C.pbe-n-kjpaw_psl.1.0.0.UPF
     MD5 check sum: 6408e75cdba28732cea38a4db8498ce4
     Pseudo is Projector augmented-wave + core cor, Zval =  4.0
     Generated using 'atomic' code by A. Dal Corso  v.7.0
     Shape of augmentation charge: PSQ
     Using radial grid of 1073 points,  4 beta functions with: 
                l(1) =   0
                l(2) =   0
                l(3) =   1
                l(4) =   1
     Q(r) pseudized with 0 coefficients 


     PseudoPot. # 3 for O  read from file:
     /users/kbadger1/espresso/pseudo/pslibrary.1.0.0/pbe/PSEUDOPOTENTIALS/O.pbe-nl-kjpaw_psl.1.0.0.UPF
     MD5 check sum: f0439fab3598ca4e468f064226030408
     Pseudo is Projector augmented-wave + core cor, Zval =  6.0
     Generated using 'atomic' code by A. Dal Corso  v.7.0
     Shape of augmentation charge: PSQ
     Using radial grid of 1095 points,  4 beta functions with: 
                l(1) =   0
                l(2) =   0
                l(3) =   1
                l(4) =   1
     Q(r) pseudized with 0 coefficients 


     PseudoPot. # 4 for H  read from file:
     /users/kbadger1/espresso/pseudo/pslibrary.1.0.0/pbe/PSEUDOPOTENTIALS/H.pbe-kjpaw_psl.1.0.0.UPF
     MD5 check sum: fe4c6fa958fa6d3815bf5d2419cbf1df
     Pseudo is Projector augmented-wave, Zval =  1.0
     Generated using 'atomic' code by A. Dal Corso  v.7.0
     Shape of augmentation charge: PSQ
     Using radial grid of  929 points,  2 beta functions with: 
                l(1) =   0
                l(2) =   0
     Q(r) pseudized with 0 coefficients 


     atomic species   valence    mass     pseudopotential
        Co             9.00    58.93319     Co( 1.00)
        C              4.00    12.01100     C ( 1.00)
        O              6.00    15.99900     O ( 1.00)
        H              1.00     1.00800     H ( 1.00)

     Starting magnetic structure 
     atomic species   magnetization
        Co           1.000
        C            1.000
        O            0.000
        H            0.000

     No symmetry found



   Cartesian axes

     site n.     atom                  positions (alat units)
         1           Co  tau(   1) = (   0.0000000   0.1924501   1.3333333  )
         2           Co  tau(   2) = (   0.3333333   0.1924501   1.3333333  )
         3           Co  tau(   3) = (   0.6666667   0.1924501   1.3333333  )
         4           Co  tau(   4) = (   0.1666667   0.4811252   1.3333333  )
         5           Co  tau(   5) = (   0.5000000   0.4811252   1.3333333  )
         6           Co  tau(   6) = (   0.8333333   0.4811252   1.3333333  )
         7           Co  tau(   7) = (   0.3333333   0.7698004   1.3333333  )
         8           Co  tau(   8) = (   0.6666667   0.7698004   1.3333333  )
         9           Co  tau(   9) = (   1.0000000   0.7698004   1.3333333  )
        10           Co  tau(  10) = (   0.0000000   0.0000000   1.6036667  )
        11           Co  tau(  11) = (   0.3333333   0.0000000   1.6036667  )
        12           Co  tau(  12) = (   0.6666667   0.0000000   1.6036667  )
        13           Co  tau(  13) = (   0.1666667   0.2886751   1.6036667  )
        14           Co  tau(  14) = (   0.5000000   0.2886751   1.6036667  )
        15           Co  tau(  15) = (   0.8333333   0.2886751   1.6036667  )
        16           Co  tau(  16) = (   0.3333333   0.5773503   1.6036667  )
        17           Co  tau(  17) = (   0.6666667   0.5773503   1.6036667  )
        18           Co  tau(  18) = (   1.0000000   0.5773503   1.6036667  )
        19           Co  tau(  19) = (   0.0000000   0.1924501   1.8740000  )
        20           Co  tau(  20) = (   0.3333333   0.1924501   1.8740000  )
        21           Co  tau(  21) = (   0.6666667   0.1924501   1.8740000  )
        22           Co  tau(  22) = (   0.1666667   0.4811252   1.8740000  )
        23           Co  tau(  23) = (   0.5000000   0.4811252   1.8740000  )
        24           Co  tau(  24) = (   0.8333333   0.4811252   1.8740000  )
        25           Co  tau(  25) = (   0.3333333   0.7698004   1.8740000  )
        26           Co  tau(  26) = (   0.6666667   0.7698004   1.8740000  )
        27           Co  tau(  27) = (   1.0000000   0.7698004   1.8740000  )
        28           Co  tau(  28) = (   0.0000000   0.0000000   2.1443333  )
        29           Co  tau(  29) = (   0.3333333   0.0000000   2.1443333  )
        30           Co  tau(  30) = (   0.6666667   0.0000000   2.1443333  )
        31           Co  tau(  31) = (   0.1666667   0.2886751   2.1443333  )
        32           Co  tau(  32) = (   0.5000000   0.2886751   2.1443333  )
        33           Co  tau(  33) = (   0.8333333   0.2886751   2.1443333  )
        34           Co  tau(  34) = (   0.3333333   0.5773503   2.1443333  )
        35           Co  tau(  35) = (   0.6666667   0.5773503   2.1443333  )
        36           Co  tau(  36) = (   1.0000000   0.5773503   2.1443333  )
        37           C   tau(  37) = (   0.2128378  -0.0235360   2.3615324  )
        38           O   tau(  38) = (   0.0609958  -0.0463613   2.4274623  )
        39           H   tau(  39) = (   0.3288858  -0.0032621   2.4511257  )

     number of k points=    13  Marzari-Vanderbilt smearing, width (Ry)=  0.0010
                       cart. coord. in units 2pi/alat
        k(    1) = (   0.0000000   0.0000000   0.0000000), wk =   0.0400000
        k(    2) = (   0.0000000   0.2309401   0.0000000), wk =   0.0800000
        k(    3) = (   0.0000000   0.4618802   0.0000000), wk =   0.0800000
        k(    4) = (   0.2000000  -0.1154701   0.0000000), wk =   0.0800000
        k(    5) = (   0.2000000   0.1154701   0.0000000), wk =   0.0800000
        k(    6) = (   0.2000000   0.3464102   0.0000000), wk =   0.0800000
        k(    7) = (   0.2000000  -0.5773503   0.0000000), wk =   0.0800000
        k(    8) = (   0.2000000  -0.3464102   0.0000000), wk =   0.0800000
        k(    9) = (   0.4000000  -0.2309401   0.0000000), wk =   0.0800000
        k(   10) = (   0.4000000   0.0000000   0.0000000), wk =   0.0800000
        k(   11) = (   0.4000000   0.2309401   0.0000000), wk =   0.0800000
        k(   12) = (   0.4000000  -0.6928203   0.0000000), wk =   0.0800000
        k(   13) = (   0.4000000  -0.4618802   0.0000000), wk =   0.0800000

     Dense  grid:   752179 G-vectors     FFT dimensions: (  80,  80, 288)

     Smooth grid:   409445 G-vectors     FFT dimensions: (  64,  64, 225)

     Estimated max dynamical RAM per process >      99.02 MB

     Estimated total dynamical RAM >       9.28 GB
     Generating pointlists ...
     new r_m :   0.1029 (alat units)  1.4586 (a.u.) for type    1
     new r_m :   0.0611 (alat units)  0.8653 (a.u.) for type    2
     new r_m :   0.0689 (alat units)  0.9769 (a.u.) for type    3
     new r_m :   0.0611 (alat units)  0.8653 (a.u.) for type    4

     Initial potential from superposition of free atoms

     starting charge     334.9897, renormalised to     335.0000

     negative rho (up, down):  3.012E-03 4.712E-04


     %%%%%%%%%%%%%%%%%%%%%%%%%%%%%%%%%%%%%%%%%%%%%%%%%%%%%%%%%%%%%%%%%%%%%%%%
     %                                                                      %
     % You are using vdW-DF, which was implemented by the Thonhauser group. %
     % Please cite the following two papers that made this development      %
     % possible and the two reviews that describe the various versions:     %
     %                                                                      %
     %   T. Thonhauser et al., PRL 115, 136402 (2015).                      %
     %   T. Thonhauser et al., PRB 76, 125112 (2007).                       %
     %   K. Berland et al., Rep. Prog. Phys. 78, 066501 (2015).             %
     %   D.C. Langreth et al., J. Phys.: Condens. Matter 21, 084203 (2009). %
     %                                                                      %
     % If you are calculating stress with vdW-DF, please also cite:         %
     %                                                                      %
     %   R. Sabatini et al., J. Phys.: Condens. Matter 24, 424209 (2012).   %
     %   C.M. Frostenson et al., Electr. Struct. 4, 014001 (2022).          %
     %                                                                      %
     %%%%%%%%%%%%%%%%%%%%%%%%%%%%%%%%%%%%%%%%%%%%%%%%%%%%%%%%%%%%%%%%%%%%%%%%

     %%%%%%%%%%%%%%%%%%%%%%%%%%%%%%%%%%%%%%%%%%%%%%%%%%%%%%%%%%%%%%%%%%%%%%%%
     %                                                                      %
     %  vdW-DF NEWS:                                                        %
     %                                                                      %
     %  * vdW-DF3 is now available. DOI: 10.1021/acs.jctc.0c00471           %
     %    use with input_dft = 'vdW-DF3-opt1' or 'vdW-DF3-opt2'             %
     %                                                                      %
     %  * Unscreened and range-separated hybrid vdW-DF-cx functionals       %
     %    DOI: 10.1063/1.4986522 and 10.1088/1361-648X/ac2ad2               %
     %    use with input_dft = 'vdW-DF-cx0'    and 'vdW-DF-ahcx'            %
     %  * Unscreened and range-separated hybrid vdW-DF2-b86r functionals    %
     %    DOI: 10.1063/1.4986522 and DOI: 10.1103/PhysRevX.12.041003        %
     %    use with input_dft = 'vdW-DF2-br0' and 'vdW-DF2-ahbr'             %
     %                                                                      %
     %%%%%%%%%%%%%%%%%%%%%%%%%%%%%%%%%%%%%%%%%%%%%%%%%%%%%%%%%%%%%%%%%%%%%%%%


     Starting wfcs are  333 randomized atomic wfcs
     Checking if some PAW data can be deallocated... 

     total cpu time spent up to now is       16.7 secs

     per-process dynamical memory:   231.0 Mb

     Self-consistent Calculation

     iteration #  1     ecut=    50.00 Ry     beta= 0.70
     Davidson diagonalization with overlap
     ethr =  1.00E-02,  avg # of iterations =  2.0

     negative rho (up, down):  2.360E-05 4.755E-08

     total cpu time spent up to now is       33.7 secs

     total energy              =   -6053.07892990 Ry
     estimated scf accuracy    <      39.73285799 Ry

     total magnetization       =    69.00 Bohr mag/cell
     absolute magnetization    =    81.23 Bohr mag/cell

     iteration #  2     ecut=    50.00 Ry     beta= 0.70
     Davidson diagonalization with overlap
     ethr =  1.00E-02,  avg # of iterations =  1.0

     negative rho (up, down):  2.474E-06 4.096E-09

     total cpu time spent up to now is       51.5 secs

     total energy              =   -6052.53067073 Ry
     estimated scf accuracy    <      24.61232220 Ry

     total magnetization       =    68.68 Bohr mag/cell
     absolute magnetization    =    76.71 Bohr mag/cell

     iteration #  3     ecut=    50.00 Ry     beta= 0.70
     Davidson diagonalization with overlap
     ethr =  7.35E-03,  avg # of iterations =  1.0

     total cpu time spent up to now is       64.9 secs

     total energy              =   -6055.12523320 Ry
     estimated scf accuracy    <      87.05371822 Ry

     total magnetization       =    65.81 Bohr mag/cell
     absolute magnetization    =    73.05 Bohr mag/cell

     iteration #  4     ecut=    50.00 Ry     beta= 0.70
     Davidson diagonalization with overlap
     ethr =  7.35E-03,  avg # of iterations =  1.0

     total cpu time spent up to now is       82.5 secs

     total energy              =   -6056.30705493 Ry
     estimated scf accuracy    <       5.81405996 Ry

     total magnetization       =    60.37 Bohr mag/cell
     absolute magnetization    =    70.37 Bohr mag/cell

     iteration #  5     ecut=    50.00 Ry     beta= 0.70
     Davidson diagonalization with overlap
     ethr =  1.74E-03,  avg # of iterations =  1.4

     total cpu time spent up to now is       95.6 secs

     total energy              =   -6056.36344350 Ry
     estimated scf accuracy    <       2.57106443 Ry

     total magnetization       =    60.36 Bohr mag/cell
     absolute magnetization    =    69.84 Bohr mag/cell

     iteration #  6     ecut=    50.00 Ry     beta= 0.70
     Davidson diagonalization with overlap
     ethr =  7.67E-04,  avg # of iterations =  1.6

     total cpu time spent up to now is      114.0 secs

     total energy              =   -6056.47121858 Ry
     estimated scf accuracy    <       0.59490920 Ry

     total magnetization       =    60.33 Bohr mag/cell
     absolute magnetization    =    69.65 Bohr mag/cell

     iteration #  7     ecut=    50.00 Ry     beta= 0.70
     Davidson diagonalization with overlap
     ethr =  1.78E-04,  avg # of iterations =  4.2

     total cpu time spent up to now is      135.3 secs

     total energy              =   -6056.50091710 Ry
     estimated scf accuracy    <       0.86587298 Ry

     total magnetization       =    60.23 Bohr mag/cell
     absolute magnetization    =    69.27 Bohr mag/cell

     iteration #  8     ecut=    50.00 Ry     beta= 0.70
     Davidson diagonalization with overlap
     ethr =  1.78E-04,  avg # of iterations =  1.8

     total cpu time spent up to now is      149.3 secs

     total energy              =   -6056.50939462 Ry
     estimated scf accuracy    <       0.15411022 Ry

     total magnetization       =    60.39 Bohr mag/cell
     absolute magnetization    =    69.25 Bohr mag/cell

     iteration #  9     ecut=    50.00 Ry     beta= 0.70
     Davidson diagonalization with overlap
     ethr =  4.60E-05,  avg # of iterations = 12.0

     total cpu time spent up to now is      181.4 secs

     total energy              =   -6056.53710003 Ry
     estimated scf accuracy    <       0.27243685 Ry

     total magnetization       =    61.24 Bohr mag/cell
     absolute magnetization    =    69.31 Bohr mag/cell

     iteration # 10     ecut=    50.00 Ry     beta= 0.70
     Davidson diagonalization with overlap
     ethr =  4.60E-05,  avg # of iterations =  1.3

     total cpu time spent up to now is      198.9 secs

     total energy              =   -6056.53932444 Ry
     estimated scf accuracy    <       0.20943187 Ry

     total magnetization       =    61.25 Bohr mag/cell
     absolute magnetization    =    69.23 Bohr mag/cell

     iteration # 11     ecut=    50.00 Ry     beta= 0.70
     Davidson diagonalization with overlap
     ethr =  4.60E-05,  avg # of iterations =  1.2

     total cpu time spent up to now is      211.7 secs

     total energy              =   -6056.52813743 Ry
     estimated scf accuracy    <       0.11307227 Ry

     total magnetization       =    61.15 Bohr mag/cell
     absolute magnetization    =    69.05 Bohr mag/cell

     iteration # 12     ecut=    50.00 Ry     beta= 0.70
     Davidson diagonalization with overlap
     ethr =  3.38E-05,  avg # of iterations =  2.0

     negative rho (up, down):  2.373E-07 0.000E+00

     total cpu time spent up to now is      230.1 secs

     total energy              =   -6056.53160423 Ry
     estimated scf accuracy    <       0.12177899 Ry

     total magnetization       =    61.02 Bohr mag/cell
     absolute magnetization    =    68.72 Bohr mag/cell

     iteration # 13     ecut=    50.00 Ry     beta= 0.70
     Davidson diagonalization with overlap
     ethr =  3.38E-05,  avg # of iterations =  1.2

     total cpu time spent up to now is      243.6 secs

     total energy              =   -6056.52912767 Ry
     estimated scf accuracy    <       0.09547977 Ry

     total magnetization       =    61.07 Bohr mag/cell
     absolute magnetization    =    68.67 Bohr mag/cell

     iteration # 14     ecut=    50.00 Ry     beta= 0.70
     Davidson diagonalization with overlap
     ethr =  2.85E-05,  avg # of iterations =  1.4

     negative rho (up, down):  8.883E-06 2.180E-08

     total cpu time spent up to now is      261.6 secs

     total energy              =   -6056.52627591 Ry
     estimated scf accuracy    <       0.08290191 Ry

     total magnetization       =    61.25 Bohr mag/cell
     absolute magnetization    =    68.87 Bohr mag/cell

     iteration # 15     ecut=    50.00 Ry     beta= 0.70
     Davidson diagonalization with overlap
     ethr =  2.47E-05,  avg # of iterations =  1.2

     negative rho (up, down):  1.311E-03 7.542E-04

     total cpu time spent up to now is      274.6 secs

     total energy              =   -6056.52424362 Ry
     estimated scf accuracy    <       0.07423943 Ry

     total magnetization       =    61.15 Bohr mag/cell
     absolute magnetization    =    68.72 Bohr mag/cell

     iteration # 16     ecut=    50.00 Ry     beta= 0.70
     Davidson diagonalization with overlap
     ethr =  2.22E-05,  avg # of iterations =  2.4

     negative rho (up, down):  1.717E-02 1.595E-02

     total cpu time spent up to now is      293.4 secs

     total energy              =   -6056.51842374 Ry
     estimated scf accuracy    <       0.06050729 Ry

     total magnetization       =    61.18 Bohr mag/cell
     absolute magnetization    =    68.72 Bohr mag/cell

     iteration # 17     ecut=    50.00 Ry     beta= 0.70
     Davidson diagonalization with overlap
     ethr =  1.81E-05,  avg # of iterations =  2.4

     negative rho (up, down):  1.688E-02 1.547E-02

     total cpu time spent up to now is      312.8 secs

     total energy              =   -6056.51954975 Ry
     estimated scf accuracy    <       0.03393364 Ry

     total magnetization       =    61.25 Bohr mag/cell
     absolute magnetization    =    68.79 Bohr mag/cell

     iteration # 18     ecut=    50.00 Ry     beta= 0.70
     Davidson diagonalization with overlap
     c_bands:  1 eigenvalues not converged
     c_bands:  3 eigenvalues not converged
     ethr =  1.01E-05,  avg # of iterations =  3.6

     negative rho (up, down):  9.352E-03 8.206E-03

     total cpu time spent up to now is      328.3 secs

     total energy              =   -6056.51917644 Ry
     estimated scf accuracy    <       0.02546274 Ry

     total magnetization       =    61.25 Bohr mag/cell
     absolute magnetization    =    68.74 Bohr mag/cell

     iteration # 19     ecut=    50.00 Ry     beta= 0.70
     Davidson diagonalization with overlap
     c_bands:  4 eigenvalues not converged
     ethr =  7.60E-06,  avg # of iterations =  2.1

     negative rho (up, down):  2.536E-02 2.386E-02

     total cpu time spent up to now is      346.6 secs

     total energy              =   -6056.51780555 Ry
     estimated scf accuracy    <       0.03050855 Ry

     total magnetization       =    61.25 Bohr mag/cell
     absolute magnetization    =    68.76 Bohr mag/cell

     iteration # 20     ecut=    50.00 Ry     beta= 0.70
     Davidson diagonalization with overlap
     ethr =  7.60E-06,  avg # of iterations =  1.3

     negative rho (up, down):  2.453E-02 2.309E-02

     total cpu time spent up to now is      360.5 secs

     total energy              =   -6056.51733478 Ry
     estimated scf accuracy    <       0.01918736 Ry

     total magnetization       =    61.25 Bohr mag/cell
     absolute magnetization    =    68.74 Bohr mag/cell

     iteration # 21     ecut=    50.00 Ry     beta= 0.70
     Davidson diagonalization with overlap
     ethr =  5.73E-06,  avg # of iterations =  1.9

     negative rho (up, down):  1.995E-02 1.861E-02

     total cpu time spent up to now is      378.4 secs

     total energy              =   -6056.51703036 Ry
     estimated scf accuracy    <       0.01257729 Ry

     total magnetization       =    61.24 Bohr mag/cell
     absolute magnetization    =    68.74 Bohr mag/cell

     iteration # 22     ecut=    50.00 Ry     beta= 0.70
     Davidson diagonalization with overlap
     ethr =  3.75E-06,  avg # of iterations =  1.2

     negative rho (up, down):  1.678E-02 1.560E-02

     total cpu time spent up to now is      391.6 secs

     total energy              =   -6056.51625255 Ry
     estimated scf accuracy    <       0.00886458 Ry

     total magnetization       =    61.25 Bohr mag/cell
     absolute magnetization    =    68.75 Bohr mag/cell

     iteration # 23     ecut=    50.00 Ry     beta= 0.70
     Davidson diagonalization with overlap
     ethr =  2.65E-06,  avg # of iterations =  1.3

     negative rho (up, down):  2.285E-02 2.177E-02

     total cpu time spent up to now is      409.3 secs

     total energy              =   -6056.51606916 Ry
     estimated scf accuracy    <       0.01128348 Ry

     total magnetization       =    61.25 Bohr mag/cell
     absolute magnetization    =    68.75 Bohr mag/cell

     iteration # 24     ecut=    50.00 Ry     beta= 0.70
     Davidson diagonalization with overlap
     ethr =  2.65E-06,  avg # of iterations =  1.4

     negative rho (up, down):  1.640E-02 1.544E-02

     total cpu time spent up to now is      423.5 secs

     total energy              =   -6056.51600803 Ry
     estimated scf accuracy    <       0.00309903 Ry

     total magnetization       =    61.25 Bohr mag/cell
     absolute magnetization    =    68.76 Bohr mag/cell

     iteration # 25     ecut=    50.00 Ry     beta= 0.70
     Davidson diagonalization with overlap
     ethr =  9.25E-07,  avg # of iterations =  2.0

     negative rho (up, down):  1.087E-02 1.004E-02

     total cpu time spent up to now is      441.8 secs

     total energy              =   -6056.51570965 Ry
     estimated scf accuracy    <       0.00589189 Ry

     total magnetization       =    61.25 Bohr mag/cell
     absolute magnetization    =    68.76 Bohr mag/cell

     iteration # 26     ecut=    50.00 Ry     beta= 0.70
     Davidson diagonalization with overlap
     ethr =  9.25E-07,  avg # of iterations =  1.5

     negative rho (up, down):  1.168E-02 1.093E-02

     total cpu time spent up to now is      455.3 secs

     total energy              =   -6056.51588972 Ry
     estimated scf accuracy    <       0.00686435 Ry

     total magnetization       =    61.25 Bohr mag/cell
     absolute magnetization    =    68.77 Bohr mag/cell

     iteration # 27     ecut=    50.00 Ry     beta= 0.70
     Davidson diagonalization with overlap
     ethr =  9.25E-07,  avg # of iterations =  1.1

     negative rho (up, down):  8.899E-03 8.256E-03

     total cpu time spent up to now is      472.5 secs

     total energy              =   -6056.51632848 Ry
     estimated scf accuracy    <       0.00105472 Ry

     total magnetization       =    61.25 Bohr mag/cell
     absolute magnetization    =    68.78 Bohr mag/cell

     iteration # 28     ecut=    50.00 Ry     beta= 0.70
     Davidson diagonalization with overlap
     ethr =  3.15E-07,  avg # of iterations =  2.7

     negative rho (up, down):  7.787E-03 7.115E-03

     total cpu time spent up to now is      492.5 secs

     total energy              =   -6056.51630490 Ry
     estimated scf accuracy    <       0.00051743 Ry

     total magnetization       =    61.25 Bohr mag/cell
     absolute magnetization    =    68.78 Bohr mag/cell

     iteration # 29     ecut=    50.00 Ry     beta= 0.70
     Davidson diagonalization with overlap
     ethr =  1.54E-07,  avg # of iterations =  2.6

     negative rho (up, down):  5.538E-03 4.737E-03

     total cpu time spent up to now is      506.8 secs

     total energy              =   -6056.51632394 Ry
     estimated scf accuracy    <       0.00022910 Ry

     total magnetization       =    61.25 Bohr mag/cell
     absolute magnetization    =    68.78 Bohr mag/cell

     iteration # 30     ecut=    50.00 Ry     beta= 0.70
     Davidson diagonalization with overlap
     ethr =  6.84E-08,  avg # of iterations =  2.7

     negative rho (up, down):  4.590E-03 3.708E-03

     total cpu time spent up to now is      526.1 secs

     total energy              =   -6056.51630654 Ry
     estimated scf accuracy    <       0.00044299 Ry

     total magnetization       =    61.25 Bohr mag/cell
     absolute magnetization    =    68.78 Bohr mag/cell

     iteration # 31     ecut=    50.00 Ry     beta= 0.70
     Davidson diagonalization with overlap
     ethr =  6.84E-08,  avg # of iterations =  1.1

     negative rho (up, down):  4.350E-03 3.441E-03

     total cpu time spent up to now is      539.8 secs

     total energy              =   -6056.51631308 Ry
     estimated scf accuracy    <       0.00009658 Ry

     total magnetization       =    61.25 Bohr mag/cell
     absolute magnetization    =    68.79 Bohr mag/cell

     iteration # 32     ecut=    50.00 Ry     beta= 0.70
     Davidson diagonalization with overlap
     ethr =  2.88E-08,  avg # of iterations =  2.0

     negative rho (up, down):  4.058E-03 3.077E-03

     total cpu time spent up to now is      558.4 secs

     total energy              =   -6056.51631752 Ry
     estimated scf accuracy    <       0.00012402 Ry

     total magnetization       =    61.25 Bohr mag/cell
     absolute magnetization    =    68.79 Bohr mag/cell

     iteration # 33     ecut=    50.00 Ry     beta= 0.70
     Davidson diagonalization with overlap
     ethr =  2.88E-08,  avg # of iterations =  1.5

     negative rho (up, down):  3.593E-03 2.536E-03

     total cpu time spent up to now is      572.1 secs

     total energy              =   -6056.51631599 Ry
     estimated scf accuracy    <       0.00006697 Ry

     total magnetization       =    61.25 Bohr mag/cell
     absolute magnetization    =    68.79 Bohr mag/cell

     iteration # 34     ecut=    50.00 Ry     beta= 0.70
     Davidson diagonalization with overlap
     ethr =  2.00E-08,  avg # of iterations =  2.0

     negative rho (up, down):  2.827E-03 1.739E-03

     total cpu time spent up to now is      590.7 secs

     total energy              =   -6056.51631013 Ry
     estimated scf accuracy    <       0.00005996 Ry

     total magnetization       =    61.25 Bohr mag/cell
     absolute magnetization    =    68.79 Bohr mag/cell

     iteration # 35     ecut=    50.00 Ry     beta= 0.70
     Davidson diagonalization with overlap
     ethr =  1.79E-08,  avg # of iterations =  1.9

     negative rho (up, down):  2.566E-03 1.489E-03

     total cpu time spent up to now is      605.6 secs

     total energy              =   -6056.51630881 Ry
     estimated scf accuracy    <       0.00008594 Ry

     total magnetization       =    61.25 Bohr mag/cell
     absolute magnetization    =    68.79 Bohr mag/cell

     iteration # 36     ecut=    50.00 Ry     beta= 0.70
     Davidson diagonalization with overlap
     ethr =  1.79E-08,  avg # of iterations =  1.4

     negative rho (up, down):  2.865E-03 1.758E-03

     total cpu time spent up to now is      623.7 secs

     total energy              =   -6056.51630604 Ry
     estimated scf accuracy    <       0.00004799 Ry

     total magnetization       =    61.25 Bohr mag/cell
     absolute magnetization    =    68.79 Bohr mag/cell

     iteration # 37     ecut=    50.00 Ry     beta= 0.70
     Davidson diagonalization with overlap
     ethr =  1.43E-08,  avg # of iterations =  2.1

     negative rho (up, down):  2.570E-03 1.567E-03

     total cpu time spent up to now is      642.6 secs

     total energy              =   -6056.51630418 Ry
     estimated scf accuracy    <       0.00015970 Ry

     total magnetization       =    61.25 Bohr mag/cell
     absolute magnetization    =    68.79 Bohr mag/cell

     iteration # 38     ecut=    50.00 Ry     beta= 0.70
     Davidson diagonalization with overlap
     ethr =  1.43E-08,  avg # of iterations =  1.9

     negative rho (up, down):  2.519E-03 1.503E-03

     total cpu time spent up to now is      657.0 secs

     total energy              =   -6056.51630909 Ry
     estimated scf accuracy    <       0.00001196 Ry

     total magnetization       =    61.25 Bohr mag/cell
     absolute magnetization    =    68.78 Bohr mag/cell

     iteration # 39     ecut=    50.00 Ry     beta= 0.70
     Davidson diagonalization with overlap
     ethr =  3.57E-09,  avg # of iterations =  5.2

     negative rho (up, down):  2.458E-03 1.361E-03

     total cpu time spent up to now is      679.1 secs

     total energy              =   -6056.51631143 Ry
     estimated scf accuracy    <       0.00001054 Ry

     total magnetization       =    61.25 Bohr mag/cell
     absolute magnetization    =    68.78 Bohr mag/cell

     iteration # 40     ecut=    50.00 Ry     beta= 0.70
     Davidson diagonalization with overlap
     ethr =  3.15E-09,  avg # of iterations =  1.7

     negative rho (up, down):  2.376E-03 1.300E-03

     total cpu time spent up to now is      693.0 secs

     total energy              =   -6056.51631118 Ry
     estimated scf accuracy    <       0.00000663 Ry

     total magnetization       =    61.25 Bohr mag/cell
     absolute magnetization    =    68.78 Bohr mag/cell

     iteration # 41     ecut=    50.00 Ry     beta= 0.70
     Davidson diagonalization with overlap
     ethr =  1.98E-09,  avg # of iterations =  1.6

     negative rho (up, down):  2.324E-03 1.237E-03

     total cpu time spent up to now is      711.4 secs

     total energy              =   -6056.51631164 Ry
     estimated scf accuracy    <       0.00000116 Ry

     total magnetization       =    61.25 Bohr mag/cell
     absolute magnetization    =    68.78 Bohr mag/cell

     iteration # 42     ecut=    50.00 Ry     beta= 0.70
     Davidson diagonalization with overlap
     ethr =  3.47E-10,  avg # of iterations =  6.8

     negative rho (up, down):  2.302E-03 1.205E-03

     total cpu time spent up to now is      735.7 secs

     total energy              =   -6056.51631191 Ry
     estimated scf accuracy    <       0.00000223 Ry

     total magnetization       =    61.25 Bohr mag/cell
     absolute magnetization    =    68.78 Bohr mag/cell

     iteration # 43     ecut=    50.00 Ry     beta= 0.70
     Davidson diagonalization with overlap
     ethr =  3.47E-10,  avg # of iterations =  1.7

     negative rho (up, down):  2.265E-03 1.161E-03

     total cpu time spent up to now is      749.6 secs

     total energy              =   -6056.51631189 Ry
     estimated scf accuracy    <       0.00000075 Ry

     total magnetization       =    61.25 Bohr mag/cell
     absolute magnetization    =    68.78 Bohr mag/cell

     iteration # 44     ecut=    50.00 Ry     beta= 0.70
     Davidson diagonalization with overlap
     ethr =  2.25E-10,  avg # of iterations =  2.1

     negative rho (up, down):  2.235E-03 1.133E-03

     total cpu time spent up to now is      768.3 secs

     total energy              =   -6056.51631188 Ry
     estimated scf accuracy    <       0.00000030 Ry

     total magnetization       =    61.25 Bohr mag/cell
     absolute magnetization    =    68.78 Bohr mag/cell

     iteration # 45     ecut=    50.00 Ry     beta= 0.70
     Davidson diagonalization with overlap
     ethr =  9.04E-11,  avg # of iterations =  2.7

     negative rho (up, down):  2.242E-03 1.140E-03

     total cpu time spent up to now is      783.8 secs

     total energy              =   -6056.51631192 Ry
     estimated scf accuracy    <       0.00000022 Ry

     total magnetization       =    61.25 Bohr mag/cell
     absolute magnetization    =    68.78 Bohr mag/cell

     iteration # 46     ecut=    50.00 Ry     beta= 0.70
     Davidson diagonalization with overlap
     ethr =  6.66E-11,  avg # of iterations =  1.7

     negative rho (up, down):  2.236E-03 1.136E-03

     total cpu time spent up to now is      802.2 secs

     total energy              =   -6056.51631194 Ry
     estimated scf accuracy    <       0.00000004 Ry

     total magnetization       =    61.25 Bohr mag/cell
     absolute magnetization    =    68.78 Bohr mag/cell

     iteration # 47     ecut=    50.00 Ry     beta= 0.70
     Davidson diagonalization with overlap
     ethr =  1.10E-11,  avg # of iterations =  7.1

     negative rho (up, down):  2.231E-03 1.131E-03

     total cpu time spent up to now is      828.8 secs

     total energy              =   -6056.51631194 Ry
     estimated scf accuracy    <       0.00000006 Ry

     total magnetization       =    61.25 Bohr mag/cell
     absolute magnetization    =    68.78 Bohr mag/cell

     iteration # 48     ecut=    50.00 Ry     beta= 0.70
     Davidson diagonalization with overlap
     ethr =  1.10E-11,  avg # of iterations =  1.1

     negative rho (up, down):  2.223E-03 1.124E-03

     total cpu time spent up to now is      842.6 secs

     total energy              =   -6056.51631194 Ry
     estimated scf accuracy    <       0.00000001 Ry

     total magnetization       =    61.25 Bohr mag/cell
     absolute magnetization    =    68.78 Bohr mag/cell

     iteration # 49     ecut=    50.00 Ry     beta= 0.70
     Davidson diagonalization with overlap
     ethr =  4.18E-12,  avg # of iterations =  2.8

     negative rho (up, down):  2.223E-03 1.125E-03

     total cpu time spent up to now is      863.2 secs

     total energy              =   -6056.51631194 Ry
     estimated scf accuracy    <       0.00000005 Ry

     total magnetization       =    61.25 Bohr mag/cell
     absolute magnetization    =    68.78 Bohr mag/cell

     iteration # 50     ecut=    50.00 Ry     beta= 0.70
     Davidson diagonalization with overlap
     ethr =  4.18E-12,  avg # of iterations =  1.7

     negative rho (up, down):  2.218E-03 1.120E-03

     total cpu time spent up to now is      879.1 secs

     total energy              =   -6056.51631194 Ry
     estimated scf accuracy    <       0.00000003 Ry

     total magnetization       =    61.25 Bohr mag/cell
     absolute magnetization    =    68.78 Bohr mag/cell

     iteration # 51     ecut=    50.00 Ry     beta= 0.70
     Davidson diagonalization with overlap
     ethr =  4.18E-12,  avg # of iterations =  1.5

     negative rho (up, down):  2.223E-03 1.125E-03

     Magnetic moment per site  (integrated on atomic sphere of radius R)
     atom   1 (R=0.103)  charge=  6.2412  magn=  1.7651
     atom   2 (R=0.103)  charge=  6.2412  magn=  1.7667
     atom   3 (R=0.103)  charge=  6.2406  magn=  1.7714
     atom   4 (R=0.103)  charge=  6.2411  magn=  1.7720
     atom   5 (R=0.103)  charge=  6.2406  magn=  1.7710
     atom   6 (R=0.103)  charge=  6.2413  magn=  1.7686
     atom   7 (R=0.103)  charge=  6.2408  magn=  1.7701
     atom   8 (R=0.103)  charge=  6.2419  magn=  1.7618
     atom   9 (R=0.103)  charge=  6.2416  magn=  1.7649
     atom  10 (R=0.103)  charge=  6.2471  magn=  1.7022
     atom  11 (R=0.103)  charge=  6.2475  magn=  1.6867
     atom  12 (R=0.103)  charge=  6.2477  magn=  1.7000
     atom  13 (R=0.103)  charge=  6.2470  magn=  1.6995
     atom  14 (R=0.103)  charge=  6.2480  magn=  1.6960
     atom  15 (R=0.103)  charge=  6.2472  magn=  1.6945
     atom  16 (R=0.103)  charge=  6.2472  magn=  1.6915
     atom  17 (R=0.103)  charge=  6.2474  magn=  1.6979
     atom  18 (R=0.103)  charge=  6.2477  magn=  1.6959
     atom  19 (R=0.103)  charge=  6.2466  magn=  1.6913
     atom  20 (R=0.103)  charge=  6.2476  magn=  1.6804
     atom  21 (R=0.103)  charge=  6.2464  magn=  1.7034
     atom  22 (R=0.103)  charge=  6.2473  magn=  1.6998
     atom  23 (R=0.103)  charge=  6.2468  magn=  1.6944
     atom  24 (R=0.103)  charge=  6.2477  magn=  1.7026
     atom  25 (R=0.103)  charge=  6.2454  magn=  1.6946
     atom  26 (R=0.103)  charge=  6.2437  magn=  1.7202
     atom  27 (R=0.103)  charge=  6.2486  magn=  1.6694
     atom  28 (R=0.103)  charge=  6.2510  magn=  1.6644
     atom  29 (R=0.103)  charge=  6.2742  magn=  1.1557
     atom  30 (R=0.103)  charge=  6.2434  magn=  1.7608
     atom  31 (R=0.103)  charge=  6.2448  magn=  1.7609
     atom  32 (R=0.103)  charge=  6.2415  magn=  1.7666
     atom  33 (R=0.103)  charge=  6.2407  magn=  1.7883
     atom  34 (R=0.103)  charge=  6.2435  magn=  1.7865
     atom  35 (R=0.103)  charge=  6.2503  magn=  1.7377
     atom  36 (R=0.103)  charge=  6.2421  magn=  1.7610
     atom  37 (R=0.061)  charge=  0.8602  magn= -0.0181
     atom  38 (R=0.069)  charge=  3.1683  magn= -0.0066
     atom  39 (R=0.061)  charge=  0.5042  magn=  0.0010

     total cpu time spent up to now is      894.6 secs

     End of self-consistent calculation

 ------ SPIN UP ------------


          k = 0.0000 0.0000 0.0000 ( 51087 PWs)   bands (ev):

   -21.5157 -10.2349  -7.5007  -6.7473  -6.2041  -5.6413  -5.1678  -4.6258
    -4.5968  -4.5937  -4.5931  -4.5884  -4.5764  -4.5391  -4.2380  -4.0678
    -4.0632  -4.0600  -4.0549  -4.0359  -3.9999  -3.5526  -3.5460  -3.5442
    -3.5391  -3.5249  -3.4970  -3.4198  -3.4141  -3.4101  -3.4067  -3.4042
    -3.3809  -3.3419  -3.3395  -3.0289  -3.0253  -3.0227  -3.0220  -2.9926
    -2.9629  -2.9601  -2.9562  -2.9523  -2.9501  -2.9474  -2.9428  -2.7960
    -2.7934  -2.7592  -2.7351  -2.7252  -2.7168  -2.7132  -2.7078  -2.6886
    -2.6860  -2.6842  -2.6796  -2.5889  -2.5872  -2.5828  -2.5758  -2.5658
    -2.5269  -2.1983  -2.0587  -2.0474  -2.0434  -2.0427  -2.0371  -1.9379
    -1.9179  -1.9125  -1.8939  -1.8819  -1.8727  -1.8694  -1.8636  -1.8620
    -1.8351  -1.8133  -1.8095  -1.7642  -1.7589  -1.7510  -1.7369  -1.7307
    -1.7303  -1.7190  -1.7164  -1.7102  -1.6942  -1.6891  -1.6844  -1.6795
    -1.6770  -1.6763  -1.6734  -1.6722  -1.6692  -1.6630  -1.6622  -1.6602
    -1.6586  -1.6126  -1.6059  -1.5882  -1.5826  -1.5114  -1.5063  -1.4589
    -1.3082  -1.2276  -1.2217  -1.2166  -1.2156  -1.2117  -1.1993  -1.1798
    -1.1782  -1.1771  -1.1412  -1.1294  -1.1237  -1.0690  -1.0072  -1.0014
    -0.9815  -0.9745  -0.8674  -0.8159  -0.8030  -0.7973  -0.7920  -0.7662
    -0.7399  -0.7296  -0.7243  -0.7235  -0.7205  -0.7016  -0.6212  -0.6065
    -0.5189  -0.4824  -0.4812  -0.4783  -0.4548  -0.4368  -0.4184  -0.4140
    -0.4113  -0.4065  -0.4018  -0.3974  -0.3947  -0.3934  -0.3897  -0.3807
    -0.3771  -0.3765  -0.3589  -0.3466  -0.3374  -0.3313  -0.3302  -0.3284
    -0.3072  -0.3058  -0.2848  -0.2823  -0.2789  -0.2619  -0.2578  -0.2540
    -0.2507  -0.2458  -0.2354  -0.2172  -0.1981  -0.1815  -0.1773  -0.1748
    -0.1713  -0.1678  -0.1650  -0.1539  -0.1497  -0.1381  -0.0880  -0.0870
    -0.0831  -0.0820  -0.0198  -0.0151  -0.0108  -0.0100  -0.0005   0.0259
     0.3748   1.0360

          k = 0.0000 0.2309 0.0000 ( 51134 PWs)   bands (ev):

   -21.5157 -10.2343  -7.3566  -6.7248  -6.1280  -5.6356  -5.3190  -5.1492
    -4.8450  -4.8370  -4.4769  -4.3269  -4.2557  -4.2533  -4.1854  -4.1357
    -4.1063  -4.0822  -3.9808  -3.9401  -3.9271  -3.6692  -3.5595  -3.5482
    -3.4724  -3.4461  -3.4320  -3.4224  -3.4212  -3.4063  -3.3988  -3.3819
    -3.3486  -3.3025  -3.2995  -3.2724  -3.2687  -3.0823  -3.0444  -3.0396
    -2.9933  -2.9882  -2.9792  -2.9747  -2.9038  -2.8619  -2.8533  -2.8275
    -2.8164  -2.8115  -2.7884  -2.7706  -2.6875  -2.6806  -2.6497  -2.6203
    -2.6034  -2.5890  -2.5764  -2.5641  -2.5507  -2.5300  -2.5074  -2.5003
    -2.4404  -2.2422  -2.1699  -2.1517  -2.1390  -2.1161  -2.0741  -2.0149
    -2.0095  -2.0052  -1.9885  -1.9849  -1.9707  -1.9498  -1.9295  -1.8912
    -1.8728  -1.8636  -1.8504  -1.8117  -1.8021  -1.8011  -1.7946  -1.7779
    -1.7681  -1.7607  -1.7588  -1.7554  -1.7493  -1.7103  -1.6847  -1.6763
    -1.6583  -1.6200  -1.5943  -1.5794  -1.5702  -1.5649  -1.5554  -1.5527
    -1.5319  -1.5268  -1.5227  -1.5148  -1.5117  -1.4832  -1.4739  -1.4673
    -1.4472  -1.4400  -1.4080  -1.3597  -1.3470  -1.3171  -1.2566  -1.2417
    -1.2337  -1.2250  -1.2158  -1.2106  -1.2083  -1.1978  -1.1159  -1.0633
    -1.0498  -1.0291  -0.9631  -0.9570  -0.9336  -0.8837  -0.8638  -0.8562
    -0.8221  -0.7614  -0.7432  -0.7309  -0.7121  -0.7071  -0.6815  -0.6703
    -0.6578  -0.6455  -0.6322  -0.5868  -0.5789  -0.5655  -0.5604  -0.5539
    -0.5128  -0.5011  -0.4820  -0.4751  -0.4573  -0.4343  -0.4166  -0.4108
    -0.4038  -0.3961  -0.3885  -0.3804  -0.3657  -0.3532  -0.3417  -0.3358
    -0.2898  -0.2783  -0.2660  -0.2356  -0.2207  -0.2154  -0.1888  -0.1665
    -0.1586  -0.1507  -0.1421  -0.1309  -0.1221  -0.1089  -0.0977  -0.0830
    -0.0628  -0.0201  -0.0135  -0.0058   0.0178   0.0209   0.0582   0.0641
     0.0802   0.1218   0.3604   0.3659   0.4727   0.5676   0.6221   0.6324
     0.7164   0.8253

          k = 0.0000 0.4619 0.0000 ( 51204 PWs)   bands (ev):

   -21.5157 -10.2334  -6.9704  -6.6687  -6.2013  -5.9324  -5.4618  -5.1344
    -4.9837  -4.9769  -4.8238  -4.1385  -4.1065  -4.0855  -4.0693  -4.0043
    -3.8986  -3.8955  -3.8545  -3.7703  -3.7615  -3.7533  -3.6588  -3.5837
    -3.5789  -3.5713  -3.5672  -3.5165  -3.4674  -3.4562  -3.4533  -3.3036
    -3.2931  -3.2880  -3.2785  -3.2512  -3.2441  -3.1486  -3.1368  -3.1292
    -3.1199  -3.1151  -3.0025  -2.9213  -2.9064  -2.8242  -2.8088  -2.7880
    -2.7731  -2.7401  -2.7328  -2.7259  -2.7146  -2.6931  -2.6407  -2.6320
    -2.6013  -2.5716  -2.5594  -2.4426  -2.4231  -2.4152  -2.3944  -2.3619
    -2.3112  -2.3012  -2.2763  -2.2680  -2.2399  -2.1798  -2.1532  -2.1328
    -2.1286  -2.1215  -2.1150  -2.0971  -2.0900  -2.0744  -2.0310  -2.0246
    -1.9934  -1.9856  -1.9603  -1.9425  -1.9161  -1.8958  -1.8272  -1.8233
    -1.8096  -1.7914  -1.7703  -1.7587  -1.7232  -1.7017  -1.6976  -1.6894
    -1.6776  -1.6608  -1.6512  -1.6277  -1.6126  -1.6098  -1.6013  -1.5822
    -1.5659  -1.5512  -1.5085  -1.4983  -1.4377  -1.4211  -1.4100  -1.3937
    -1.3756  -1.3536  -1.3315  -1.2933  -1.2819  -1.2647  -1.2600  -1.2564
    -1.2519  -1.2463  -1.2296  -1.2246  -1.2187  -1.2125  -1.2004  -1.1896
    -1.1690  -1.1460  -1.0768  -1.0584  -1.0266  -1.0204  -0.9975  -0.9867
    -0.9527  -0.9358  -0.8998  -0.8823  -0.8784  -0.8290  -0.8121  -0.7630
    -0.7544  -0.7165  -0.6976  -0.6796  -0.6670  -0.6631  -0.6341  -0.5805
    -0.5228  -0.5107  -0.4945  -0.4805  -0.4770  -0.4704  -0.4626  -0.4431
    -0.4417  -0.4314  -0.3704  -0.3371  -0.3174  -0.3123  -0.3024  -0.3002
    -0.2945  -0.2709  -0.2563  -0.2468  -0.2320  -0.2176  -0.1548  -0.1308
    -0.1247  -0.1141  -0.0966  -0.0563  -0.0303  -0.0111   0.0063   0.0319
     0.0469   0.0897   0.0934   0.1145   0.1161   0.1195   0.1361   0.1516
     0.2243   0.2462   0.3504   0.9138   1.1565   1.3179   1.3499   1.3785
     1.6157   1.7223

          k = 0.2000-0.1155 0.0000 ( 51134 PWs)   bands (ev):

   -21.5157 -10.2350  -7.3556  -6.7247  -6.1221  -5.6218  -5.3396  -5.1512
    -4.8415  -4.8289  -4.4803  -4.3505  -4.2553  -4.2512  -4.1887  -4.1420
    -4.1011  -4.0609  -3.9929  -3.9379  -3.9189  -3.6714  -3.5591  -3.5478
    -3.4737  -3.4525  -3.4284  -3.4220  -3.4201  -3.4124  -3.3965  -3.3776
    -3.3474  -3.3028  -3.2990  -3.2704  -3.2684  -3.0810  -3.0484  -3.0400
    -3.0007  -2.9864  -2.9816  -2.9716  -2.9081  -2.8722  -2.8521  -2.8241
    -2.8145  -2.8106  -2.7843  -2.7736  -2.6934  -2.6796  -2.6547  -2.6168
    -2.6094  -2.5869  -2.5733  -2.5574  -2.5427  -2.5255  -2.5060  -2.4987
    -2.4480  -2.2518  -2.1697  -2.1550  -2.1333  -2.1136  -2.0723  -2.0168
    -2.0123  -2.0008  -1.9969  -1.9792  -1.9711  -1.9485  -1.9282  -1.8902
    -1.8689  -1.8619  -1.8502  -1.8077  -1.8033  -1.8003  -1.7960  -1.7756
    -1.7693  -1.7604  -1.7596  -1.7566  -1.7536  -1.7217  -1.6838  -1.6659
    -1.6520  -1.6265  -1.5947  -1.5771  -1.5743  -1.5670  -1.5568  -1.5494
    -1.5407  -1.5281  -1.5161  -1.5140  -1.5029  -1.4887  -1.4705  -1.4596
    -1.4468  -1.4353  -1.4156  -1.3835  -1.3451  -1.3077  -1.2471  -1.2415
    -1.2353  -1.2303  -1.2134  -1.2107  -1.2054  -1.1940  -1.0953  -1.0572
    -1.0371  -1.0256  -0.9653  -0.9568  -0.9330  -0.8909  -0.8667  -0.8516
    -0.8034  -0.7836  -0.7579  -0.7419  -0.7208  -0.7091  -0.6731  -0.6700
    -0.6602  -0.6425  -0.6229  -0.5878  -0.5811  -0.5639  -0.5590  -0.5579
    -0.5240  -0.4879  -0.4784  -0.4765  -0.4575  -0.4407  -0.4110  -0.4061
    -0.4040  -0.3946  -0.3930  -0.3854  -0.3629  -0.3543  -0.3526  -0.3289
    -0.2856  -0.2738  -0.2644  -0.2390  -0.2279  -0.2099  -0.1865  -0.1632
    -0.1571  -0.1523  -0.1467  -0.1313  -0.1251  -0.1078  -0.0976  -0.0852
    -0.0587  -0.0205  -0.0102  -0.0057   0.0178   0.0204   0.0642   0.0704
     0.0818   0.1251   0.3604   0.3674   0.4383   0.5404   0.6177   0.6599
     0.6796   0.8101

          k = 0.2000 0.1155 0.0000 ( 51134 PWs)   bands (ev):

   -21.5157 -10.2351  -7.3554  -6.7251  -6.1196  -5.6191  -5.3300  -5.1728
    -4.8347  -4.8262  -4.4830  -4.3589  -4.2564  -4.2499  -4.1888  -4.1424
    -4.0927  -4.0615  -3.9944  -3.9356  -3.9198  -3.6725  -3.5571  -3.5518
    -3.4724  -3.4544  -3.4256  -3.4235  -3.4203  -3.4093  -3.3956  -3.3776
    -3.3484  -3.3044  -3.2977  -3.2706  -3.2684  -3.0754  -3.0416  -3.0389
    -2.9966  -2.9848  -2.9822  -2.9793  -2.8988  -2.8743  -2.8557  -2.8309
    -2.8156  -2.8116  -2.7891  -2.7787  -2.6902  -2.6791  -2.6615  -2.6204
    -2.6104  -2.5829  -2.5753  -2.5519  -2.5427  -2.5261  -2.5087  -2.5024
    -2.4481  -2.2369  -2.1733  -2.1591  -2.1356  -2.1112  -2.0716  -2.0136
    -2.0075  -2.0021  -1.9957  -1.9832  -1.9759  -1.9522  -1.9089  -1.8894
    -1.8770  -1.8639  -1.8421  -1.8125  -1.8031  -1.7993  -1.7978  -1.7722
    -1.7673  -1.7651  -1.7614  -1.7566  -1.7483  -1.7224  -1.6840  -1.6734
    -1.6507  -1.6201  -1.5944  -1.5796  -1.5686  -1.5674  -1.5528  -1.5480
    -1.5381  -1.5294  -1.5223  -1.5149  -1.5078  -1.4849  -1.4619  -1.4584
    -1.4479  -1.4418  -1.4224  -1.3842  -1.3449  -1.3046  -1.2500  -1.2410
    -1.2335  -1.2278  -1.2205  -1.2114  -1.2084  -1.2010  -1.0955  -1.0610
    -1.0314  -1.0210  -0.9706  -0.9558  -0.9284  -0.8900  -0.8713  -0.8572
    -0.7992  -0.7768  -0.7588  -0.7342  -0.7241  -0.7106  -0.6807  -0.6739
    -0.6559  -0.6451  -0.6247  -0.5801  -0.5739  -0.5660  -0.5599  -0.5503
    -0.5227  -0.4964  -0.4816  -0.4739  -0.4574  -0.4276  -0.4188  -0.4102
    -0.4032  -0.3958  -0.3888  -0.3783  -0.3635  -0.3573  -0.3459  -0.3291
    -0.2879  -0.2750  -0.2617  -0.2465  -0.2198  -0.2162  -0.1821  -0.1689
    -0.1539  -0.1525  -0.1442  -0.1299  -0.1187  -0.1085  -0.0984  -0.0821
    -0.0595  -0.0188  -0.0113  -0.0085   0.0203   0.0212   0.0617   0.0667
     0.0847   0.1159   0.3470   0.3674   0.4474   0.5344   0.6158   0.6417
     0.6888   0.8147

          k = 0.2000 0.3464 0.0000 ( 51202 PWs)   bands (ev):

   -21.5157 -10.2344  -7.0846  -6.6893  -6.0131  -5.7058  -5.6700  -5.4291
    -5.1485  -4.5773  -4.4892  -4.2610  -4.2567  -4.2150  -4.0424  -4.0382
    -3.9493  -3.9430  -3.9257  -3.8090  -3.7999  -3.6725  -3.6603  -3.6000
    -3.5533  -3.4621  -3.4594  -3.4325  -3.4170  -3.4067  -3.3958  -3.3738
    -3.3592  -3.3356  -3.3325  -3.2850  -3.2474  -3.2043  -3.1983  -3.0820
    -3.0717  -2.9842  -2.9743  -2.9497  -2.9279  -2.9209  -2.8314  -2.7852
    -2.7762  -2.7568  -2.7426  -2.7348  -2.6934  -2.6840  -2.6647  -2.6555
    -2.6358  -2.5378  -2.5196  -2.4662  -2.4634  -2.4416  -2.4120  -2.4011
    -2.3882  -2.2963  -2.2242  -2.2010  -2.1857  -2.1497  -2.1311  -2.1093
    -2.1034  -2.0947  -2.0837  -2.0618  -2.0489  -2.0339  -2.0265  -2.0124
    -2.0029  -1.9720  -1.9218  -1.8851  -1.8418  -1.8343  -1.8159  -1.7967
    -1.7887  -1.7653  -1.7420  -1.7255  -1.7105  -1.6866  -1.6823  -1.6758
    -1.6630  -1.6563  -1.6452  -1.6373  -1.6254  -1.6189  -1.5946  -1.5778
    -1.5695  -1.5583  -1.5233  -1.5046  -1.4876  -1.4684  -1.4471  -1.4354
    -1.4266  -1.4158  -1.3999  -1.3656  -1.3413  -1.3333  -1.3108  -1.2824
    -1.2663  -1.2625  -1.2569  -1.2329  -1.2262  -1.2116  -1.1995  -1.1591
    -1.1100  -1.0963  -1.0817  -1.0606  -0.9868  -0.9607  -0.9471  -0.8818
    -0.8365  -0.8316  -0.8232  -0.8102  -0.8025  -0.7878  -0.7765  -0.7481
    -0.7433  -0.7257  -0.7005  -0.6758  -0.6594  -0.6529  -0.6291  -0.6195
    -0.5956  -0.5821  -0.5518  -0.5457  -0.5362  -0.5242  -0.4603  -0.3941
    -0.3762  -0.3546  -0.3450  -0.3330  -0.3264  -0.3054  -0.2972  -0.2885
    -0.2803  -0.2659  -0.2043  -0.1893  -0.1792  -0.1721  -0.1396  -0.1203
    -0.1074  -0.1018  -0.0951  -0.0750  -0.0713  -0.0627  -0.0538  -0.0491
    -0.0267   0.0128   0.0569   0.0665   0.0759   0.1170   0.1231   0.1319
     0.4338   0.4613   0.5014   0.6258   0.7574   0.8073   1.1029   1.3153
     1.3677   1.5333

          k = 0.2000-0.5774 0.0000 ( 51262 PWs)   bands (ev):

   -21.5157 -10.2338  -6.8191  -6.4552  -6.3983  -5.9140  -5.7419  -5.3559
    -5.0043  -4.9800  -4.6026  -4.2475  -4.0039  -3.9589  -3.8467  -3.8290
    -3.8261  -3.8016  -3.7952  -3.7743  -3.7312  -3.7139  -3.7122  -3.7074
    -3.6249  -3.6097  -3.5629  -3.5619  -3.5337  -3.5277  -3.4319  -3.3937
    -3.3773  -3.3696  -3.3531  -3.3107  -3.2287  -3.2105  -3.1019  -3.0836
    -3.0787  -3.0099  -2.9984  -2.9773  -2.9520  -2.8728  -2.8655  -2.8609
    -2.7953  -2.7870  -2.7129  -2.6777  -2.6489  -2.6410  -2.5896  -2.5854
    -2.5153  -2.5000  -2.4926  -2.4788  -2.4708  -2.4455  -2.4274  -2.3649
    -2.3100  -2.2898  -2.2693  -2.2655  -2.2296  -2.2092  -2.1902  -2.1462
    -2.1338  -2.1012  -2.0944  -2.0844  -2.0677  -2.0373  -2.0239  -2.0157
    -2.0049  -1.9957  -1.9713  -1.9538  -1.9504  -1.9374  -1.8792  -1.8648
    -1.8446  -1.8026  -1.7886  -1.7631  -1.7324  -1.7143  -1.7096  -1.6899
    -1.6712  -1.6654  -1.6549  -1.6510  -1.6351  -1.6277  -1.6020  -1.5953
    -1.5395  -1.5168  -1.5058  -1.5022  -1.4851  -1.4795  -1.4759  -1.4630
    -1.4595  -1.4498  -1.4330  -1.4016  -1.3889  -1.3555  -1.3454  -1.3220
    -1.2635  -1.2535  -1.2282  -1.2062  -1.1940  -1.1848  -1.1728  -1.1171
    -1.1006  -1.0914  -1.0797  -1.0422  -1.0129  -0.9618  -0.9535  -0.9322
    -0.9169  -0.9088  -0.8979  -0.8820  -0.8499  -0.8400  -0.8116  -0.7835
    -0.7678  -0.7470  -0.7302  -0.7159  -0.7062  -0.6739  -0.6439  -0.6342
    -0.6215  -0.6060  -0.5940  -0.5812  -0.5503  -0.5252  -0.5139  -0.4382
    -0.3561  -0.3396  -0.3306  -0.3220  -0.3135  -0.3076  -0.3031  -0.2858
    -0.2555  -0.2427  -0.2300  -0.2270  -0.1862  -0.1762  -0.1098  -0.1039
    -0.0865  -0.0749  -0.0627  -0.0530  -0.0101   0.0014   0.0061   0.0108
     0.0218   0.0869   0.0973   0.1031   0.1185   0.1239   0.1494   0.1802
     0.2777   0.4832   0.5424   0.8256   1.3514   1.3970   1.5206   1.6861
     1.8780   1.9498

          k = 0.2000-0.3464 0.0000 ( 51202 PWs)   bands (ev):

   -21.5157 -10.2342  -7.0849  -6.6895  -6.0166  -5.7085  -5.6724  -5.4281
    -5.1378  -4.5842  -4.4822  -4.2620  -4.2566  -4.2123  -4.0419  -4.0388
    -3.9492  -3.9422  -3.9235  -3.8093  -3.8033  -3.6667  -3.6639  -3.5997
    -3.5529  -3.4650  -3.4597  -3.4316  -3.4167  -3.4049  -3.4004  -3.3735
    -3.3609  -3.3397  -3.3253  -3.2890  -3.2494  -3.2097  -3.1966  -3.0830
    -3.0771  -2.9837  -2.9738  -2.9502  -2.9399  -2.9141  -2.8243  -2.7861
    -2.7687  -2.7563  -2.7447  -2.7284  -2.6919  -2.6823  -2.6607  -2.6506
    -2.6383  -2.5246  -2.5171  -2.4681  -2.4628  -2.4333  -2.4174  -2.4014
    -2.3846  -2.2973  -2.2566  -2.2042  -2.1880  -2.1499  -2.1357  -2.1156
    -2.1081  -2.0880  -2.0753  -2.0583  -2.0432  -2.0396  -2.0308  -2.0139
    -2.0072  -1.9795  -1.9155  -1.8761  -1.8403  -1.8312  -1.8057  -1.7954
    -1.7874  -1.7635  -1.7537  -1.7251  -1.7106  -1.6905  -1.6806  -1.6760
    -1.6702  -1.6566  -1.6441  -1.6304  -1.6209  -1.6160  -1.5912  -1.5833
    -1.5642  -1.5599  -1.5378  -1.5055  -1.4879  -1.4749  -1.4429  -1.4331
    -1.4307  -1.4121  -1.4046  -1.3554  -1.3392  -1.3265  -1.3106  -1.2836
    -1.2688  -1.2619  -1.2530  -1.2417  -1.2280  -1.2150  -1.1944  -1.1540
    -1.1249  -1.0920  -1.0861  -1.0494  -0.9831  -0.9697  -0.9476  -0.8582
    -0.8455  -0.8315  -0.8240  -0.8100  -0.8039  -0.7905  -0.7729  -0.7544
    -0.7420  -0.7190  -0.7044  -0.6855  -0.6649  -0.6462  -0.6364  -0.6185
    -0.6022  -0.5865  -0.5572  -0.5414  -0.5365  -0.5192  -0.4447  -0.3900
    -0.3806  -0.3652  -0.3403  -0.3336  -0.3275  -0.3036  -0.2987  -0.2889
    -0.2763  -0.2660  -0.2023  -0.1915  -0.1821  -0.1734  -0.1347  -0.1258
    -0.1086  -0.1015  -0.0984  -0.0830  -0.0708  -0.0607  -0.0547  -0.0440
    -0.0262   0.0161   0.0578   0.0672   0.0744   0.1149   0.1194   0.1461
     0.4382   0.4596   0.4955   0.6306   0.7393   0.8074   1.1320   1.3303
     1.3492   1.5631

          k = 0.4000-0.2309 0.0000 ( 51204 PWs)   bands (ev):

   -21.5157 -10.2351  -6.9655  -6.6683  -6.1896  -5.9272  -5.4440  -5.1705
    -4.9845  -4.9557  -4.8549  -4.1562  -4.0997  -4.0855  -4.0439  -4.0157
    -3.8964  -3.8948  -3.8579  -3.7665  -3.7612  -3.7547  -3.6698  -3.5828
    -3.5770  -3.5695  -3.5668  -3.5181  -3.4712  -3.4614  -3.4529  -3.2980
    -3.2940  -3.2869  -3.2671  -3.2495  -3.2452  -3.1477  -3.1424  -3.1296
    -3.1221  -3.1160  -3.0127  -2.9270  -2.9066  -2.8273  -2.8118  -2.7900
    -2.7719  -2.7445  -2.7336  -2.7273  -2.7132  -2.6961  -2.6393  -2.6303
    -2.6049  -2.5696  -2.5624  -2.4432  -2.4226  -2.4151  -2.3954  -2.3603
    -2.3136  -2.2968  -2.2852  -2.2675  -2.2282  -2.1789  -2.1385  -2.1350
    -2.1308  -2.1204  -2.1019  -2.0929  -2.0873  -2.0745  -2.0400  -2.0169
    -2.0031  -1.9762  -1.9588  -1.9299  -1.9196  -1.8959  -1.8356  -1.8130
    -1.8064  -1.7963  -1.7774  -1.7671  -1.7272  -1.7029  -1.6983  -1.6909
    -1.6783  -1.6576  -1.6533  -1.6276  -1.6239  -1.6099  -1.5947  -1.5775
    -1.5668  -1.5594  -1.5051  -1.4584  -1.4405  -1.4254  -1.3985  -1.3897
    -1.3741  -1.3615  -1.3231  -1.2889  -1.2777  -1.2646  -1.2619  -1.2572
    -1.2466  -1.2409  -1.2333  -1.2280  -1.2202  -1.2137  -1.1968  -1.1859
    -1.1649  -1.1428  -1.0949  -1.0576  -1.0248  -1.0159  -0.9974  -0.9840
    -0.9589  -0.9208  -0.9039  -0.8841  -0.8724  -0.8308  -0.8241  -0.7681
    -0.7505  -0.7205  -0.6959  -0.6853  -0.6712  -0.6555  -0.6360  -0.5879
    -0.5523  -0.4995  -0.4883  -0.4799  -0.4726  -0.4702  -0.4572  -0.4518
    -0.4346  -0.4291  -0.3617  -0.3364  -0.3247  -0.3066  -0.3019  -0.2950
    -0.2848  -0.2679  -0.2602  -0.2531  -0.2321  -0.2230  -0.1505  -0.1296
    -0.1229  -0.1149  -0.0913  -0.0736  -0.0304  -0.0155   0.0062   0.0313
     0.0473   0.0918   0.0949   0.1138   0.1165   0.1200   0.1441   0.1521
     0.2247   0.2487   0.3043   0.9654   1.1101   1.2681   1.3540   1.3779
     1.5739   1.7411

          k = 0.4000 0.0000 0.0000 ( 51202 PWs)   bands (ev):

   -21.5157 -10.2354  -7.0814  -6.6895  -6.0023  -5.6882  -5.6779  -5.4375
    -5.1613  -4.5512  -4.5178  -4.2655  -4.2587  -4.2135  -4.0443  -4.0385
    -3.9479  -3.9448  -3.9380  -3.8080  -3.7864  -3.6715  -3.6622  -3.5963
    -3.5517  -3.4615  -3.4539  -3.4365  -3.4170  -3.4085  -3.3977  -3.3745
    -3.3562  -3.3365  -3.3257  -3.2887  -3.2466  -3.2069  -3.2024  -3.0826
    -3.0726  -2.9867  -2.9736  -2.9478  -2.9327  -2.9234  -2.8395  -2.8035
    -2.7795  -2.7469  -2.7432  -2.7355  -2.6897  -2.6775  -2.6645  -2.6540
    -2.6377  -2.5416  -2.5220  -2.4646  -2.4556  -2.4468  -2.4081  -2.3997
    -2.3931  -2.2793  -2.2361  -2.1966  -2.1844  -2.1544  -2.1308  -2.1184
    -2.0955  -2.0896  -2.0832  -2.0652  -2.0498  -2.0353  -2.0300  -2.0126
    -1.9942  -1.9676  -1.9195  -1.8946  -1.8413  -1.8307  -1.8168  -1.7974
    -1.7783  -1.7675  -1.7449  -1.7301  -1.7151  -1.6867  -1.6779  -1.6759
    -1.6624  -1.6591  -1.6454  -1.6287  -1.6252  -1.6137  -1.5992  -1.5792
    -1.5699  -1.5391  -1.5142  -1.4999  -1.4855  -1.4772  -1.4522  -1.4377
    -1.4185  -1.4049  -1.3888  -1.3759  -1.3499  -1.3299  -1.3119  -1.2722
    -1.2679  -1.2608  -1.2566  -1.2352  -1.2218  -1.2121  -1.1967  -1.1633
    -1.1093  -1.0946  -1.0852  -1.0461  -0.9875  -0.9686  -0.9487  -0.8845
    -0.8468  -0.8285  -0.8234  -0.8063  -0.7976  -0.7856  -0.7758  -0.7711
    -0.7393  -0.7286  -0.6989  -0.6744  -0.6645  -0.6496  -0.6310  -0.6228
    -0.6041  -0.5896  -0.5556  -0.5425  -0.5311  -0.5232  -0.4487  -0.3972
    -0.3761  -0.3544  -0.3456  -0.3314  -0.3278  -0.3015  -0.2970  -0.2867
    -0.2779  -0.2662  -0.2047  -0.1869  -0.1791  -0.1735  -0.1353  -0.1303
    -0.1048  -0.0998  -0.0991  -0.0878  -0.0675  -0.0618  -0.0556  -0.0358
    -0.0277   0.0086   0.0566   0.0663   0.0735   0.1167   0.1195   0.1368
     0.4475   0.4605   0.5268   0.5622   0.7872   0.8001   1.0836   1.3131
     1.3530   1.5258

          k = 0.4000 0.2309 0.0000 ( 51204 PWs)   bands (ev):

   -21.5157 -10.2354  -6.9659  -6.6681  -6.1826  -5.9247  -5.4330  -5.1955
    -4.9832  -4.9438  -4.8733  -4.1594  -4.0884  -4.0844  -4.0429  -4.0174
    -3.8979  -3.8931  -3.8575  -3.7662  -3.7612  -3.7559  -3.6762  -3.5829
    -3.5784  -3.5680  -3.5666  -3.5197  -3.4747  -3.4601  -3.4496  -3.2959
    -3.2926  -3.2822  -3.2646  -3.2494  -3.2413  -3.1432  -3.1330  -3.1278
    -3.1217  -3.1166  -3.0006  -2.9309  -2.9147  -2.8414  -2.8177  -2.7936
    -2.7787  -2.7460  -2.7344  -2.7256  -2.7115  -2.7045  -2.6325  -2.6310
    -2.6078  -2.5782  -2.5626  -2.4505  -2.4197  -2.4114  -2.4024  -2.3592
    -2.3132  -2.2946  -2.2870  -2.2695  -2.2190  -2.1747  -2.1474  -2.1344
    -2.1299  -2.1215  -2.1048  -2.0962  -2.0829  -2.0749  -2.0616  -2.0117
    -1.9872  -1.9731  -1.9567  -1.9269  -1.8997  -1.8927  -1.8452  -1.8137
    -1.8058  -1.7993  -1.7745  -1.7617  -1.7177  -1.6999  -1.6910  -1.6869
    -1.6714  -1.6619  -1.6495  -1.6259  -1.6203  -1.6106  -1.5905  -1.5765
    -1.5641  -1.5510  -1.5078  -1.4825  -1.4385  -1.4230  -1.3999  -1.3930
    -1.3679  -1.3519  -1.3305  -1.2978  -1.2792  -1.2676  -1.2619  -1.2601
    -1.2514  -1.2463  -1.2339  -1.2279  -1.2249  -1.2128  -1.1954  -1.1848
    -1.1726  -1.1303  -1.0991  -1.0556  -1.0259  -1.0137  -1.0035  -0.9815
    -0.9598  -0.9277  -0.9006  -0.8949  -0.8748  -0.8281  -0.8173  -0.7787
    -0.7537  -0.7153  -0.6949  -0.6752  -0.6694  -0.6508  -0.6179  -0.5961
    -0.5576  -0.5009  -0.4934  -0.4786  -0.4751  -0.4668  -0.4576  -0.4528
    -0.4405  -0.4208  -0.3656  -0.3289  -0.3195  -0.3121  -0.3041  -0.2992
    -0.2861  -0.2601  -0.2562  -0.2483  -0.2316  -0.2276  -0.1462  -0.1301
    -0.1234  -0.1201  -0.0924  -0.0700  -0.0305  -0.0157   0.0091   0.0320
     0.0465   0.0923   0.0930   0.1157   0.1170   0.1186   0.1396   0.1603
     0.2243   0.2411   0.3065   0.9394   1.1166   1.2593   1.3507   1.3745
     1.6221   1.7096

          k = 0.4000-0.6928 0.0000 ( 51262 PWs)   bands (ev):

   -21.5157 -10.2351  -6.8172  -6.4499  -6.3879  -5.9376  -5.7246  -5.2599
    -5.1407  -4.9917  -4.5576  -4.2431  -4.0070  -3.9638  -3.8676  -3.8305
    -3.8222  -3.8070  -3.7968  -3.7785  -3.7202  -3.7151  -3.7118  -3.7048
    -3.6272  -3.6126  -3.5637  -3.5590  -3.5327  -3.5300  -3.4146  -3.3943
    -3.3782  -3.3732  -3.3460  -3.3098  -3.2256  -3.2046  -3.1072  -3.0821
    -3.0793  -3.0113  -2.9976  -2.9773  -2.9473  -2.8859  -2.8702  -2.8564
    -2.8043  -2.7913  -2.7114  -2.6851  -2.6521  -2.6426  -2.5991  -2.5846
    -2.5211  -2.4995  -2.4899  -2.4819  -2.4755  -2.4492  -2.4307  -2.3612
    -2.3066  -2.2814  -2.2788  -2.2687  -2.2279  -2.2050  -2.1670  -2.1491
    -2.1233  -2.0999  -2.0931  -2.0843  -2.0743  -2.0544  -2.0250  -2.0056
    -1.9998  -1.9918  -1.9801  -1.9510  -1.9483  -1.9114  -1.8770  -1.8624
    -1.8479  -1.8257  -1.7773  -1.7712  -1.7386  -1.7095  -1.6955  -1.6870
    -1.6675  -1.6641  -1.6579  -1.6451  -1.6390  -1.6054  -1.5986  -1.5728
    -1.5287  -1.5148  -1.5067  -1.5017  -1.4837  -1.4806  -1.4758  -1.4657
    -1.4574  -1.4447  -1.4299  -1.4142  -1.3942  -1.3677  -1.3444  -1.3307
    -1.2838  -1.2609  -1.2169  -1.2038  -1.1952  -1.1913  -1.1772  -1.1224
    -1.1017  -1.0982  -1.0866  -1.0395  -0.9843  -0.9653  -0.9483  -0.9347
    -0.9189  -0.9123  -0.8921  -0.8817  -0.8505  -0.8330  -0.8016  -0.7875
    -0.7734  -0.7457  -0.7310  -0.7252  -0.7006  -0.6662  -0.6471  -0.6299
    -0.6199  -0.6128  -0.5934  -0.5833  -0.5476  -0.5309  -0.5155  -0.4453
    -0.3568  -0.3353  -0.3277  -0.3230  -0.3167  -0.3044  -0.2999  -0.2796
    -0.2559  -0.2468  -0.2347  -0.2239  -0.1899  -0.1699  -0.1079  -0.1030
    -0.0859  -0.0728  -0.0623  -0.0470  -0.0164  -0.0000   0.0090   0.0128
     0.0188   0.0745   0.0975   0.0994   0.1178   0.1269   0.1469   0.1769
     0.2437   0.4961   0.5719   0.8444   1.2611   1.4044   1.4823   1.7655
     1.8675   1.9183

          k = 0.4000-0.4619 0.0000 ( 51262 PWs)   bands (ev):

   -21.5157 -10.2349  -6.8156  -6.4513  -6.3939  -5.9300  -5.7291  -5.2996
    -5.0965  -4.9782  -4.5727  -4.2439  -4.0068  -3.9630  -3.8640  -3.8275
    -3.8240  -3.8069  -3.7984  -3.7748  -3.7223  -3.7133  -3.7110  -3.7063
    -3.6287  -3.6082  -3.5648  -3.5600  -3.5338  -3.5295  -3.4188  -3.3963
    -3.3780  -3.3742  -3.3487  -3.3101  -3.2240  -3.2084  -3.1098  -3.0872
    -3.0807  -3.0122  -2.9946  -2.9818  -2.9515  -2.8705  -2.8669  -2.8613
    -2.7940  -2.7865  -2.7165  -2.6802  -2.6574  -2.6404  -2.5924  -2.5868
    -2.5186  -2.4998  -2.4912  -2.4801  -2.4740  -2.4406  -2.4248  -2.3667
    -2.3080  -2.2853  -2.2768  -2.2657  -2.2397  -2.2059  -2.1758  -2.1443
    -2.1230  -2.1013  -2.0915  -2.0826  -2.0679  -2.0486  -2.0235  -2.0122
    -2.0018  -1.9918  -1.9756  -1.9514  -1.9496  -1.9156  -1.8790  -1.8653
    -1.8513  -1.8171  -1.7833  -1.7721  -1.7297  -1.7158  -1.6996  -1.6878
    -1.6729  -1.6633  -1.6553  -1.6490  -1.6359  -1.6284  -1.5964  -1.5825
    -1.5319  -1.5140  -1.5088  -1.5002  -1.4925  -1.4790  -1.4750  -1.4684
    -1.4573  -1.4513  -1.4334  -1.4061  -1.3913  -1.3539  -1.3459  -1.3216
    -1.2689  -1.2559  -1.2237  -1.2018  -1.1960  -1.1806  -1.1720  -1.1275
    -1.0994  -1.0948  -1.0839  -1.0262  -1.0083  -0.9648  -0.9403  -0.9304
    -0.9225  -0.9116  -0.8985  -0.8762  -0.8554  -0.8394  -0.8083  -0.7813
    -0.7653  -0.7455  -0.7326  -0.7252  -0.6967  -0.6772  -0.6543  -0.6372
    -0.6200  -0.6046  -0.5962  -0.5887  -0.5492  -0.5372  -0.5050  -0.4352
    -0.3557  -0.3351  -0.3284  -0.3219  -0.3157  -0.3052  -0.2960  -0.2884
    -0.2508  -0.2462  -0.2330  -0.2272  -0.1877  -0.1744  -0.1093  -0.1019
    -0.0920  -0.0736  -0.0583  -0.0517  -0.0102   0.0021   0.0042   0.0105
     0.0239   0.0738   0.0952   0.1018   0.1171   0.1243   0.1501   0.1813
     0.2407   0.4933   0.5775   0.8302   1.2931   1.4035   1.4808   1.7549
     1.8726   1.9284

 ------ SPIN DOWN ----------


          k = 0.0000 0.0000 0.0000 ( 51087 PWs)   bands (ev):

   -21.5361 -10.3042  -7.6304  -6.7503  -6.2616  -5.6385  -5.1946  -4.4265
    -4.3999  -4.3973  -4.3939  -4.3910  -4.3741  -4.2735  -3.5316  -3.5231
    -3.5195  -3.5169  -3.4957  -3.4827  -3.3698  -2.5830  -2.5760  -2.5740
    -2.5692  -2.5512  -2.5017  -2.1344  -2.1105  -2.1087  -2.1058  -2.0985
    -2.0960  -1.9201  -1.9047  -1.8364  -1.8274  -1.8204  -1.8120  -1.7614
    -1.7167  -1.7047  -1.6666  -1.6645  -1.6073  -1.5691  -1.5626  -1.5562
    -1.5410  -1.4823  -1.3381  -1.3090  -1.2928  -1.2889  -1.2818  -1.2736
    -1.2721  -1.2677  -1.2532  -1.2170  -1.2128  -1.1975  -1.1936  -1.1855
    -1.1629  -1.0298  -0.6794  -0.6284  -0.6157  -0.6105  -0.6072  -0.4634
    -0.4222  -0.3206  -0.2939  -0.2905  -0.2824  -0.2776  -0.2722  -0.2444
    -0.2243  -0.2092  -0.1966  -0.1959  -0.1950  -0.1902  -0.1491  -0.1175
    -0.1057  -0.0918  -0.0888  -0.0850  -0.0594  -0.0369  -0.0327  -0.0293
    -0.0284  -0.0269  -0.0034  -0.0022   0.0033   0.0049   0.0638   0.0938
     0.1401   0.1620   0.1786   0.2018   0.2146   0.2263   0.2278   0.2304
     0.2327   0.2345   0.2355   0.2389   0.3052   0.3058   0.3653   0.3852
     0.3982   0.4131   0.4219   0.4281   0.6073   0.6160   0.6437   0.6714
     0.7016   0.7025   0.7125   0.7143   0.7500   0.9687   1.0146   1.0531
     1.0583   1.1048   1.2070   1.2399   1.2624   1.2742   1.2791   1.2806
     1.2829   1.4230   1.4387   1.4438   1.4504   1.4556   1.4707   1.4791
     1.4863   1.5062   1.5311   1.5375   1.5538   1.5796   1.5872   1.5972
     1.6028   1.6051   1.6067   1.6266   1.6597   1.6784   1.6835   1.6929
     1.7086   1.7245   1.7263   1.7277   1.7316   1.7378   1.7400   1.7778
     1.7797   1.8045   1.8065   1.8144   1.8235   1.8286   1.8312   1.8546
     1.8661   1.8687   1.8757   1.8780   1.8806   1.8840   1.8904   1.8952
     1.8994   1.9315   1.9555   1.9574   2.1027   2.1074   2.1112   2.1140
     2.1155   2.1156

          k = 0.0000 0.2309 0.0000 ( 51134 PWs)   bands (ev):

   -21.5361 -10.3036  -7.4836  -6.7239  -6.1820  -5.6557  -5.3405  -5.1686
    -4.7850  -4.7739  -4.2589  -4.1142  -3.8521  -3.8465  -3.7647  -3.7324
    -3.5536  -3.3085  -3.1818  -3.1666  -3.0628  -2.7885  -2.5977  -2.5748
    -2.5119  -2.4766  -2.4562  -2.2408  -2.1527  -2.1479  -2.1351  -2.1033
    -2.0968  -2.0592  -2.0486  -2.0201  -2.0128  -1.8974  -1.8630  -1.7912
    -1.7822  -1.7632  -1.6607  -1.6342  -1.5901  -1.5829  -1.5520  -1.4631
    -1.4483  -1.4120  -1.3752  -1.3535  -1.3293  -1.3069  -1.2885  -1.2805
    -1.2707  -1.2483  -1.1929  -1.1652  -1.1446  -1.1197  -1.0986  -1.0820
    -1.0105  -0.9479  -0.7527  -0.6771  -0.6626  -0.6489  -0.6098  -0.5608
    -0.5171  -0.4981  -0.4501  -0.4333  -0.3329  -0.3131  -0.3032  -0.2834
    -0.2722  -0.2584  -0.2474  -0.2267  -0.2235  -0.2050  -0.1708  -0.1238
    -0.0947  -0.0882  -0.0816  -0.0647  -0.0521  -0.0313  -0.0194  -0.0023
     0.0058   0.0101   0.0168   0.0208   0.0239   0.0267   0.0598   0.0727
     0.1054   0.1155   0.1247   0.1263   0.1604   0.1715   0.1890   0.1938
     0.2302   0.2461   0.2654   0.2949   0.3318   0.3395   0.3448   0.3724
     0.4806   0.5243   0.5760   0.5847   0.6152   0.6219   0.6407   0.6665
     0.6771   0.6865   0.6896   0.6944   0.8497   0.9168   1.0023   1.0229
     1.0304   1.0387   1.0566   1.0656   1.0995   1.1358   1.1755   1.2143
     1.2341   1.2611   1.3030   1.3127   1.3449   1.3620   1.3907   1.4156
     1.4463   1.4577   1.4920   1.5081   1.5182   1.5326   1.5533   1.5620
     1.5873   1.6057   1.6513   1.6593   1.6805   1.6954   1.7052   1.7166
     1.7620   1.7638   1.7704   1.7732   1.7967   1.8163   1.8504   1.8596
     1.8616   1.8655   1.9028   1.9127   1.9214   1.9361   1.9546   1.9617
     1.9735   2.0073   2.0113   2.0134   2.0387   2.0445   2.0482   2.0742
     2.0849   2.0999   2.1039   2.1261   2.1859   2.2091   2.2129   2.2497
     2.2827   2.3011

          k = 0.0000 0.4619 0.0000 ( 51204 PWs)   bands (ev):

   -21.5361 -10.3026  -7.0691  -6.6903  -6.2938  -5.9687  -5.5071  -5.1595
    -4.9939  -4.9850  -4.8187  -3.9079  -3.8918  -3.7950  -3.2895  -3.2319
    -3.2271  -3.1090  -2.9705  -2.9053  -2.7903  -2.7773  -2.6336  -2.6255
    -2.5822  -2.5631  -2.5085  -2.4826  -2.3945  -2.3813  -2.3322  -2.3114
    -2.3000  -2.1112  -2.0883  -2.0138  -2.0097  -1.9060  -1.8927  -1.8875
    -1.8755  -1.8549  -1.6424  -1.6065  -1.5793  -1.5451  -1.5327  -1.5115
    -1.3731  -1.3586  -1.3368  -1.3334  -1.3213  -1.2962  -1.2907  -1.2737
    -1.2411  -1.1783  -1.1725  -1.1633  -1.1404  -1.1163  -0.9965  -0.9365
    -0.8589  -0.8193  -0.7636  -0.7098  -0.6853  -0.6572  -0.6312  -0.6159
    -0.5991  -0.5865  -0.5523  -0.5208  -0.4889  -0.4583  -0.4361  -0.4047
    -0.3795  -0.3587  -0.3334  -0.3277  -0.3104  -0.2702  -0.2125  -0.1862
    -0.1412  -0.1294  -0.1083  -0.0634  -0.0443  -0.0286  -0.0148   0.0208
     0.0378   0.0515   0.0628   0.0736   0.0809   0.0854   0.0960   0.1271
     0.1384   0.1666   0.1754   0.1789   0.1878   0.1910   0.2142   0.2254
     0.2445   0.2612   0.3008   0.3733   0.3902   0.4009   0.4286   0.4449
     0.4463   0.4657   0.4751   0.5342   0.5500   0.5603   0.5775   0.5996
     0.6238   0.6423   0.6579   0.6641   0.6989   0.7448   0.8240   0.8473
     0.8870   0.9274   0.9836   1.0312   1.0864   1.0998   1.1171   1.1314
     1.1425   1.1574   1.1950   1.2285   1.2374   1.2958   1.3617   1.4137
     1.4221   1.4290   1.4776   1.4998   1.5216   1.5311   1.5632   1.5696
     1.6062   1.6215   1.6520   1.6997   1.7273   1.7423   1.7484   1.7749
     1.7835   1.7894   1.8121   1.8420   1.8575   1.8634   1.8735   1.9008
     1.9119   1.9488   1.9839   2.0086   2.0231   2.0393   2.0474   2.0619
     2.0684   2.0991   2.1049   2.1098   2.1129   2.1359   2.1413   2.1458
     2.1541   2.1905   2.2952   2.3499   2.3568   2.4652   2.5873   2.7968
     2.8680   2.8980

          k = 0.2000-0.1155 0.0000 ( 51134 PWs)   bands (ev):

   -21.5361 -10.3042  -7.4827  -6.7239  -6.1760  -5.6380  -5.3611  -5.1796
    -4.7790  -4.7630  -4.2621  -4.1495  -3.8525  -3.8448  -3.7585  -3.7035
    -3.5586  -3.3100  -3.1796  -3.1537  -3.0764  -2.8093  -2.5908  -2.5602
    -2.5229  -2.4747  -2.4495  -2.2366  -2.1519  -2.1441  -2.1386  -2.1151
    -2.0976  -2.0583  -2.0488  -2.0237  -2.0088  -1.8889  -1.8641  -1.8072
    -1.7821  -1.7653  -1.6956  -1.6118  -1.5889  -1.5821  -1.5456  -1.4827
    -1.4359  -1.4106  -1.3678  -1.3424  -1.3290  -1.3073  -1.2878  -1.2808
    -1.2716  -1.2260  -1.1964  -1.1675  -1.1438  -1.1173  -1.1013  -1.0824
    -1.0214  -0.9410  -0.7484  -0.6753  -0.6643  -0.6447  -0.6179  -0.5647
    -0.5181  -0.4959  -0.4454  -0.4304  -0.3348  -0.3116  -0.3002  -0.2851
    -0.2702  -0.2567  -0.2477  -0.2287  -0.2155  -0.2079  -0.1695  -0.1270
    -0.1062  -0.0863  -0.0828  -0.0599  -0.0494  -0.0271  -0.0198   0.0000
     0.0021   0.0089   0.0185   0.0198   0.0245   0.0321   0.0534   0.0736
     0.1044   0.1138   0.1225   0.1286   0.1575   0.1744   0.1831   0.1977
     0.2357   0.2503   0.2895   0.2982   0.3255   0.3423   0.3451   0.3724
     0.4836   0.5101   0.5592   0.5848   0.5878   0.6311   0.6428   0.6603
     0.6687   0.6889   0.6920   0.6935   0.8540   0.9198   0.9969   1.0214
     1.0266   1.0423   1.0549   1.0652   1.0874   1.1252   1.1843   1.2146
     1.2238   1.2776   1.3045   1.3140   1.3375   1.3656   1.3869   1.3940
     1.4500   1.4808   1.4922   1.5079   1.5163   1.5320   1.5525   1.5607
     1.5903   1.6144   1.6422   1.6653   1.6850   1.6989   1.7075   1.7355
     1.7531   1.7642   1.7706   1.7783   1.7931   1.8096   1.8490   1.8563
     1.8634   1.8648   1.9058   1.9138   1.9220   1.9388   1.9490   1.9641
     1.9711   2.0086   2.0105   2.0133   2.0383   2.0427   2.0506   2.0683
     2.0761   2.1015   2.1082   2.1230   2.1944   2.2062   2.2144   2.2320
     2.2878   2.3027

          k = 0.2000 0.1155 0.0000 ( 51134 PWs)   bands (ev):

   -21.5361 -10.3044  -7.4825  -6.7243  -6.1734  -5.6336  -5.3541  -5.2011
    -4.7687  -4.7626  -4.2653  -4.1603  -3.8511  -3.8462  -3.7465  -3.7014
    -3.5611  -3.3096  -3.1770  -3.1570  -3.0774  -2.8130  -2.5851  -2.5598
    -2.5184  -2.4757  -2.4538  -2.2364  -2.1553  -2.1390  -2.1353  -2.1089
    -2.0984  -2.0592  -2.0491  -2.0187  -2.0116  -1.8925  -1.8630  -1.8006
    -1.7833  -1.7707  -1.7048  -1.6337  -1.5981  -1.5829  -1.5076  -1.4645
    -1.4465  -1.4211  -1.3694  -1.3558  -1.3253  -1.2996  -1.2888  -1.2835
    -1.2725  -1.2272  -1.2034  -1.1733  -1.1447  -1.1119  -1.1009  -1.0801
    -1.0062  -0.9355  -0.7631  -0.6762  -0.6639  -0.6388  -0.6088  -0.5707
    -0.5276  -0.4993  -0.4409  -0.4268  -0.3412  -0.3063  -0.2990  -0.2922
    -0.2584  -0.2501  -0.2472  -0.2284  -0.2243  -0.1989  -0.1835  -0.1284
    -0.1021  -0.0868  -0.0790  -0.0689  -0.0578  -0.0238  -0.0178  -0.0039
     0.0045   0.0084   0.0150   0.0202   0.0227   0.0359   0.0575   0.0742
     0.1078   0.1125   0.1270   0.1293   0.1488   0.1766   0.1905   0.1962
     0.2348   0.2471   0.2844   0.2959   0.3310   0.3372   0.3444   0.3720
     0.4939   0.5270   0.5510   0.5831   0.5968   0.6359   0.6414   0.6641
     0.6699   0.6826   0.6914   0.6945   0.8175   0.9256   1.0004   1.0116
     1.0265   1.0455   1.0590   1.0652   1.0951   1.1432   1.1994   1.2232
     1.2266   1.2546   1.3054   1.3180   1.3401   1.3599   1.3778   1.3928
     1.4542   1.4730   1.4986   1.5103   1.5171   1.5346   1.5502   1.5626
     1.5827   1.6142   1.6464   1.6567   1.6767   1.6988   1.7106   1.7369
     1.7571   1.7664   1.7693   1.7779   1.7905   1.8125   1.8513   1.8571
     1.8605   1.8641   1.9019   1.9149   1.9240   1.9389   1.9478   1.9632
     1.9708   2.0095   2.0108   2.0186   2.0394   2.0438   2.0490   2.0705
     2.0769   2.1017   2.1059   2.1233   2.1909   2.2068   2.2175   2.2305
     2.2888   2.3010

          k = 0.2000 0.3464 0.0000 ( 51202 PWs)   bands (ev):

   -21.5361 -10.3036  -7.1990  -6.6939  -6.0460  -5.7874  -5.7496  -5.4522
    -5.1756  -4.5286  -4.4120  -4.0436  -4.0341  -3.9350  -3.2159  -3.2031
    -3.1975  -3.1909  -3.0838  -3.0032  -2.9224  -2.8944  -2.8592  -2.5279
    -2.4545  -2.4457  -2.4304  -2.3705  -2.3517  -2.3320  -2.2486  -2.2375
    -2.2276  -2.2219  -2.2102  -2.0848  -2.0260  -1.8769  -1.8612  -1.8494
    -1.7974  -1.7712  -1.7224  -1.7128  -1.6062  -1.5331  -1.5050  -1.4824
    -1.4133  -1.3673  -1.3297  -1.3282  -1.3168  -1.3050  -1.2840  -1.2632
    -1.2494  -1.2330  -1.1798  -1.1487  -1.0973  -1.0355  -0.9837  -0.9401
    -0.8721  -0.8566  -0.7636  -0.7322  -0.6455  -0.6271  -0.6100  -0.5738
    -0.5614  -0.5421  -0.5354  -0.5186  -0.4583  -0.4431  -0.4170  -0.4012
    -0.3949  -0.3681  -0.3557  -0.3423  -0.2903  -0.2287  -0.1883  -0.1735
    -0.1594  -0.1347  -0.1020  -0.0802  -0.0645  -0.0521  -0.0363  -0.0261
    -0.0035   0.0054   0.0196   0.0357   0.0470   0.0559   0.0917   0.1051
     0.1202   0.1257   0.1388   0.1607   0.1702   0.1805   0.1924   0.1996
     0.2214   0.2870   0.3001   0.3114   0.4132   0.4288   0.4471   0.4690
     0.4865   0.4955   0.5305   0.5836   0.5956   0.6127   0.6150   0.6278
     0.6360   0.6505   0.7007   0.7403   0.7600   0.7958   0.9189   0.9309
     0.9685   1.0291   1.0490   1.0751   1.0906   1.1023   1.1175   1.1291
     1.1501   1.1617   1.1665   1.1908   1.2272   1.2704   1.3041   1.3394
     1.3668   1.3799   1.3898   1.4287   1.4401   1.4740   1.5052   1.5242
     1.5606   1.6106   1.6896   1.7286   1.7418   1.7555   1.7748   1.7868
     1.8067   1.8147   1.8334   1.8408   1.8558   1.8945   1.9099   1.9187
     1.9302   1.9552   1.9681   1.9739   1.9933   2.0127   2.0207   2.0404
     2.0529   2.0613   2.0632   2.0908   2.0946   2.1077   2.1410   2.1758
     2.1918   2.2126   2.2940   2.3191   2.3557   2.4351   2.4769   2.5944
     2.7457   2.7776

          k = 0.2000-0.5774 0.0000 ( 51262 PWs)   bands (ev):

   -21.5361 -10.3031  -6.8386  -6.5774  -6.4761  -5.9521  -5.8097  -5.4103
    -5.0311  -5.0018  -4.5716  -4.1007  -3.5550  -3.4433  -3.2330  -3.2293
    -3.2119  -3.0230  -2.9777  -2.8236  -2.8160  -2.8095  -2.6790  -2.6717
    -2.6668  -2.6486  -2.6331  -2.6290  -2.4297  -2.3078  -2.2697  -2.2634
    -2.2549  -2.2421  -2.2005  -2.1905  -2.0916  -2.0755  -1.8594  -1.7694
    -1.7449  -1.7307  -1.7279  -1.6534  -1.5913  -1.5315  -1.4959  -1.4822
    -1.4414  -1.4354  -1.4187  -1.3152  -1.2815  -1.2622  -1.2455  -1.2385
    -1.1935  -1.1307  -1.1058  -1.0928  -1.0389  -1.0183  -1.0056  -0.9068
    -0.8838  -0.8125  -0.7347  -0.7128  -0.6956  -0.6645  -0.6354  -0.6300
    -0.5835  -0.5615  -0.5382  -0.5105  -0.4692  -0.4567  -0.4245  -0.4055
    -0.3873  -0.3767  -0.3538  -0.3468  -0.3385  -0.3303  -0.2958  -0.2777
    -0.2663  -0.2431  -0.2211  -0.1896  -0.1416  -0.1072  -0.0859  -0.0704
    -0.0236   0.0113   0.0290   0.0500   0.0687   0.0805   0.0929   0.1089
     0.1368   0.1648   0.1919   0.2037   0.2185   0.2288   0.2914   0.3162
     0.3431   0.3540   0.3683   0.3806   0.3923   0.4297   0.4551   0.4755
     0.4860   0.5047   0.5485   0.5787   0.5867   0.5976   0.6382   0.6475
     0.6624   0.6680   0.6883   0.7116   0.7306   0.7427   0.7562   0.7741
     0.8595   0.9130   0.9573   1.0191   1.0343   1.0499   1.0731   1.0860
     1.0966   1.1146   1.1252   1.1665   1.2357   1.2603   1.2906   1.3076
     1.3402   1.3502   1.3851   1.4257   1.4320   1.4522   1.4907   1.5240
     1.5538   1.6453   1.6924   1.6965   1.7602   1.7799   1.8076   1.8243
     1.8326   1.8441   1.8618   1.8713   1.9081   1.9149   1.9232   1.9323
     1.9565   1.9928   2.0091   2.0186   2.0243   2.0281   2.0354   2.0383
     2.0495   2.0914   2.1044   2.1243   2.1296   2.1483   2.1550   2.1852
[...]
     atom    8 type  1   force =     0.00188614    0.00029063   -0.10268757
     atom    9 type  1   force =     0.00223030   -0.00152167   -0.10646195
     atom   10 type  1   force =     0.00002611    0.00005222   -0.00839622
     atom   11 type  1   force =     0.00160635    0.00023206   -0.01162334
     atom   12 type  1   force =    -0.00193428    0.00048385   -0.00972874
     atom   13 type  1   force =     0.00060234   -0.00084684   -0.01075769
     atom   14 type  1   force =     0.00019223   -0.00050331   -0.01008859
     atom   15 type  1   force =    -0.00024805    0.00002681   -0.01314125
     atom   16 type  1   force =     0.00154847    0.00010076   -0.01404722
     atom   17 type  1   force =    -0.00112979   -0.00080752   -0.01057286
     atom   18 type  1   force =    -0.00044115    0.00160574   -0.01031229
     atom   19 type  1   force =     0.00152382    0.00833891    0.00318807
     atom   20 type  1   force =    -0.00378391    0.00497247    0.01174096
     atom   21 type  1   force =     0.00184233   -0.00087011    0.01717230
     atom   22 type  1   force =     0.00063039   -0.00017302    0.01800240
     atom   23 type  1   force =     0.00054866   -0.00075288    0.01246328
     atom   24 type  1   force =     0.00064089    0.00080271    0.01745750
     atom   25 type  1   force =    -0.00760157   -0.00219032    0.00416794
     atom   26 type  1   force =     0.00159826   -0.00618703    0.00187570
     atom   27 type  1   force =     0.00402028   -0.00355251    0.00893407
     atom   28 type  1   force =     0.06113316   -0.01740921    0.14972312
     atom   29 type  1   force =     0.01426051    0.00133207    0.09378244
     atom   30 type  1   force =     0.00039905   -0.00054989    0.12095117
     atom   31 type  1   force =    -0.00758994   -0.02579345    0.13112363
     atom   32 type  1   force =     0.00019402   -0.00293293    0.10720035
     atom   33 type  1   force =     0.00158967   -0.00462804    0.10751481
     atom   34 type  1   force =     0.01222225    0.01683785    0.12884517
     atom   35 type  1   force =    -0.02196562    0.05430047    0.16390211
     atom   36 type  1   force =    -0.00438352    0.00113460    0.10980392
     atom   37 type  2   force =    -0.32452883   -0.05117485    0.19482686
     atom   38 type  3   force =     2.12713913    0.35902020   -1.38011316
     atom   39 type  4   force =    -0.05959430   -0.01046984   -0.04440033
     The ionic contribution  to forces
     atom    1 type  1   force =    -0.00519317    0.00847343 -111.17784217
     atom    2 type  1   force =     0.00562822    0.00763422 -111.17697489
     atom    3 type  1   force =    -0.00043503    0.00227924 -111.16664584
     atom    4 type  1   force =    -0.00050868    0.00162746 -111.16609931
     atom    5 type  1   force =    -0.00201013   -0.00629903 -111.17108678
     atom    6 type  1   force =     0.00251881   -0.00549825 -111.17006977
     atom    7 type  1   force =    -0.00815536   -0.00210038 -111.17550708
     atom    8 type  1   force =     0.00094841   -0.00397176 -111.18998513
     atom    9 type  1   force =     0.00720692   -0.00214494 -111.17360952
     atom   10 type  1   force =    -0.05351310    0.01398488  -40.22832424
     atom   11 type  1   force =     0.05974601    0.01124495  -40.21588975
     atom   12 type  1   force =    -0.00622636    0.00560022  -40.10982878
     atom   13 type  1   force =     0.00086503    0.06558938  -40.14080544
     atom   14 type  1   force =     0.02105616    0.01118359  -40.09679358
     atom   15 type  1   force =    -0.02192319    0.01774346  -40.09852144
     atom   16 type  1   force =    -0.03547677   -0.02870572  -40.11298382
     atom   17 type  1   force =     0.00537078   -0.07216409  -40.17356637
     atom   18 type  1   force =     0.03010399   -0.02447442  -40.10233746
     atom   19 type  1   force =    -0.26003732    0.43277950   31.16675828
     atom   20 type  1   force =     0.28177539    0.39268374   31.20591403
     atom   21 type  1   force =    -0.02116156    0.10084774   31.67872236
     atom   22 type  1   force =    -0.02374551    0.06878032   31.70370055
     atom   23 type  1   force =    -0.09618366   -0.30326692   31.49344267
     atom   24 type  1   force =     0.11996428   -0.26074483   31.54220550
     atom   25 type  1   force =    -0.40932722   -0.10079734   31.27305961
     atom   26 type  1   force =     0.04888400   -0.22847273   30.47930061
     atom   27 type  1   force =     0.35931216   -0.10377087   31.37268777
     atom   28 type  1   force =    -3.65330580    1.13496701   97.66480091
     atom   29 type  1   force =     4.27517675    0.80631494   98.25589222
     atom   30 type  1   force =    -0.29471365    0.17264965  103.96878807
     atom   31 type  1   force =     0.03823910    2.72862702  103.10973042
     atom   32 type  1   force =     0.65523902    0.42998097  104.27222748
     atom   33 type  1   force =    -0.70368400    0.68481063  104.20248569
     atom   34 type  1   force =    -1.30706206   -1.16511044  103.74004248
     atom   35 type  1   force =     0.30610602   -3.63835008  101.78900745
     atom   36 type  1   force =     0.99951999   -0.86866061  104.14348010
     atom   37 type  2   force =     5.65583519    0.76797917   55.31008471
     atom   38 type  3   force =    -8.06716245   -1.40784175   88.40594010
     atom   39 type  4   force =     2.09632881    0.35659262   15.06860039
     The local contribution  to forces
     atom    1 type  1   force =     0.00242769   -0.00880176  111.28266795
     atom    2 type  1   force =    -0.00496856   -0.00893126  111.28538527
     atom    3 type  1   force =     0.00191586   -0.00080087  111.27194363
     atom    4 type  1   force =     0.00096929   -0.00215264  111.27349941
     atom    5 type  1   force =     0.00134971    0.00852296  111.27866619
     atom    6 type  1   force =    -0.00358992    0.00246790  111.27804779
     atom    7 type  1   force =     0.01189628    0.00132095  111.27866811
     atom    8 type  1   force =    -0.00257883    0.00398009  111.29547500
     atom    9 type  1   force =    -0.00979594    0.00421407  111.28328058
     atom   10 type  1   force =     0.05267006   -0.01446527   40.21583410
     atom   11 type  1   force =    -0.06010814   -0.01138007   40.20535029
     atom   12 type  1   force =     0.00834595   -0.00622073   40.09890477
     atom   13 type  1   force =    -0.00135503   -0.06454180   40.13221887
     atom   14 type  1   force =    -0.02143932   -0.01027616   40.08634598
     atom   15 type  1   force =     0.02252303   -0.01788766   40.08997965
     atom   16 type  1   force =     0.03422150    0.02941035   40.10515856
     atom   17 type  1   force =    -0.00580762    0.07335186   40.16386579
     atom   18 type  1   force =    -0.02881733    0.02331957   40.09211218
     atom   19 type  1   force =     0.25813584   -0.44216553  -31.14963049
     atom   20 type  1   force =    -0.27802583   -0.39607936  -31.19898089
     atom   21 type  1   force =     0.01979454   -0.09989639  -31.67357654
     atom   22 type  1   force =     0.02284474   -0.06900385  -31.69590144
     atom   23 type  1   force =     0.09601365    0.30306148  -31.48388955
     atom   24 type  1   force =    -0.11979257    0.25906936  -31.53620912
     atom   25 type  1   force =     0.41865507    0.10563001  -31.25408460
     atom   26 type  1   force =    -0.05153025    0.23544968  -30.46068670
     atom   27 type  1   force =    -0.36050965    0.10621257  -31.36619752
     atom   28 type  1   force =     3.56865467   -1.11472712  -97.82158956
     atom   29 type  1   force =    -4.28662222   -0.80661587  -98.34304343
     atom   30 type  1   force =     0.29281800   -0.17078193 -104.10250603
     atom   31 type  1   force =    -0.02854680   -2.69124894 -103.25040832
     atom   32 type  1   force =    -0.65173716   -0.42381046 -104.38861021
     atom   33 type  1   force =     0.69813699   -0.67687405 -104.31969016
     atom   34 type  1   force =     1.28897775    1.14282856 -103.87846051
     atom   35 type  1   force =    -0.28041667    3.56970956 -101.96378498
     atom   36 type  1   force =    -0.98980601    0.86168950 -104.26121236
     atom   37 type  2   force =    -5.32750606   -0.71570828  -55.50139857
     atom   38 type  3   force =     5.95912024    1.05283671  -87.04379635
     atom   39 type  4   force =    -2.03814206   -0.34715585  -15.01283687
     The core correction contribution to forces
     atom    1 type  1   force =    -0.00022378   -0.00020151    0.01021032
     atom    2 type  1   force =    -0.00007346   -0.00021666    0.01044033
     atom    3 type  1   force =    -0.00009508    0.00003335    0.00999156
     atom    4 type  1   force =    -0.00017104   -0.00020672    0.01015294
     atom    5 type  1   force =     0.00004625    0.00025876    0.01026342
     atom    6 type  1   force =    -0.00024291   -0.00016129    0.01005474
     atom    7 type  1   force =     0.00047124    0.00003519    0.01047598
     atom    8 type  1   force =    -0.00026527    0.00000383    0.01003722
     atom    9 type  1   force =    -0.00011016    0.00021327    0.01039899
     atom   10 type  1   force =     0.00001203   -0.00005763   -0.00152988
     atom   11 type  1   force =     0.00000793    0.00012447   -0.00206661
     atom   12 type  1   force =     0.00014121    0.00010493   -0.00162569
     atom   13 type  1   force =     0.00014890    0.00012013   -0.00194694
     atom   14 type  1   force =    -0.00003538   -0.00005301   -0.00151580
     atom   15 type  1   force =    -0.00012213   -0.00005854   -0.00189140
     atom   16 type  1   force =     0.00009581   -0.00002558   -0.00199984
     atom   17 type  1   force =     0.00003493    0.00017230   -0.00171747
     atom   18 type  1   force =     0.00009484   -0.00000642   -0.00183315
     atom   19 type  1   force =    -0.00027518    0.00001764    0.00083404
     atom   20 type  1   force =    -0.00035196    0.00045441    0.00087392
     atom   21 type  1   force =     0.00013057   -0.00010429    0.00186962
     atom   22 type  1   force =     0.00018651    0.00010690    0.00205581
     atom   23 type  1   force =    -0.00042186   -0.00023742    0.00147624
     atom   24 type  1   force =    -0.00026036   -0.00029058    0.00196834
     atom   25 type  1   force =    -0.00039286    0.00000435    0.00133359
     atom   26 type  1   force =    -0.00010300    0.00020069    0.00164872
     atom   27 type  1   force =     0.00060472   -0.00050994    0.00080504
     atom   28 type  1   force =     0.01220487   -0.00269364    0.00486508
     atom   29 type  1   force =    -0.00620925   -0.00121442    0.00212537
     atom   30 type  1   force =    -0.00061454   -0.00003322   -0.00962529
     atom   31 type  1   force =     0.00180868   -0.00468164   -0.00800605
     atom   32 type  1   force =    -0.00149711   -0.00174423   -0.00996387
     atom   33 type  1   force =     0.00000528   -0.00011928   -0.01040548
     atom   34 type  1   force =     0.00042854    0.00044925   -0.00906304
     atom   35 type  1   force =     0.00182638    0.00698302   -0.00550739
     atom   36 type  1   force =    -0.00214359    0.00225172   -0.00918935
     atom   37 type  2   force =     0.00286891    0.00047917   -0.00196810
     atom   38 type  3   force =    -0.01718393   -0.00297419    0.01203588
     atom   39 type  4   force =     0.00000000    0.00000000    0.00000000
     The Hubbard contrib.    to forces
     atom    1 type  1   force =     0.00000000    0.00000000    0.00000000
     atom    2 type  1   force =     0.00000000    0.00000000    0.00000000
     atom    3 type  1   force =     0.00000000    0.00000000    0.00000000
     atom    4 type  1   force =     0.00000000    0.00000000    0.00000000
     atom    5 type  1   force =     0.00000000    0.00000000    0.00000000
     atom    6 type  1   force =     0.00000000    0.00000000    0.00000000
     atom    7 type  1   force =     0.00000000    0.00000000    0.00000000
     atom    8 type  1   force =     0.00000000    0.00000000    0.00000000
     atom    9 type  1   force =     0.00000000    0.00000000    0.00000000
     atom   10 type  1   force =     0.00000000    0.00000000    0.00000000
     atom   11 type  1   force =     0.00000000    0.00000000    0.00000000
     atom   12 type  1   force =     0.00000000    0.00000000    0.00000000
     atom   13 type  1   force =     0.00000000    0.00000000    0.00000000
     atom   14 type  1   force =     0.00000000    0.00000000    0.00000000
     atom   15 type  1   force =     0.00000000    0.00000000    0.00000000
     atom   16 type  1   force =     0.00000000    0.00000000    0.00000000
     atom   17 type  1   force =     0.00000000    0.00000000    0.00000000
     atom   18 type  1   force =     0.00000000    0.00000000    0.00000000
     atom   19 type  1   force =     0.00000000    0.00000000    0.00000000
     atom   20 type  1   force =     0.00000000    0.00000000    0.00000000
     atom   21 type  1   force =     0.00000000    0.00000000    0.00000000
     atom   22 type  1   force =     0.00000000    0.00000000    0.00000000
     atom   23 type  1   force =     0.00000000    0.00000000    0.00000000
     atom   24 type  1   force =     0.00000000    0.00000000    0.00000000
     atom   25 type  1   force =     0.00000000    0.00000000    0.00000000
     atom   26 type  1   force =     0.00000000    0.00000000    0.00000000
     atom   27 type  1   force =     0.00000000    0.00000000    0.00000000
     atom   28 type  1   force =     0.00000000    0.00000000    0.00000000
     atom   29 type  1   force =     0.00000000    0.00000000    0.00000000
     atom   30 type  1   force =     0.00000000    0.00000000    0.00000000
     atom   31 type  1   force =     0.00000000    0.00000000    0.00000000
     atom   32 type  1   force =     0.00000000    0.00000000    0.00000000
     atom   33 type  1   force =     0.00000000    0.00000000    0.00000000
     atom   34 type  1   force =     0.00000000    0.00000000    0.00000000
     atom   35 type  1   force =     0.00000000    0.00000000    0.00000000
     atom   36 type  1   force =     0.00000000    0.00000000    0.00000000
     atom   37 type  2   force =     0.00000000    0.00000000    0.00000000
     atom   38 type  3   force =     0.00000000    0.00000000    0.00000000
     atom   39 type  4   force =     0.00000000    0.00000000    0.00000000
     The SCF correction term to forces
     atom    1 type  1   force =    -0.00000000    0.00000000    0.00000000
     atom    2 type  1   force =    -0.00000000    0.00000000    0.00000000
     atom    3 type  1   force =     0.00000000   -0.00000000    0.00000000
     atom    4 type  1   force =    -0.00000000    0.00000000    0.00000000
     atom    5 type  1   force =     0.00000000    0.00000000    0.00000000
     atom    6 type  1   force =     0.00000000   -0.00000000    0.00000000
     atom    7 type  1   force =     0.00000000    0.00000000    0.00000000
     atom    8 type  1   force =    -0.00000000   -0.00000000    0.00000000
     atom    9 type  1   force =     0.00000000   -0.00000000    0.00000000
     atom   10 type  1   force =    -0.00000000   -0.00000000    0.00000000
     atom   11 type  1   force =    -0.00000000   -0.00000000    0.00000000
     atom   12 type  1   force =     0.00000000   -0.00000000    0.00000000
     atom   13 type  1   force =    -0.00000000    0.00000000    0.00000000
     atom   14 type  1   force =     0.00000000    0.00000000    0.00000000
     atom   15 type  1   force =     0.00000000    0.00000000    0.00000000
     atom   16 type  1   force =     0.00000000    0.00000000    0.00000000
     atom   17 type  1   force =    -0.00000000    0.00000000    0.00000000
     atom   18 type  1   force =    -0.00000000   -0.00000000    0.00000000
     atom   19 type  1   force =    -0.00000000   -0.00000000    0.00000000
     atom   20 type  1   force =    -0.00000000    0.00000000    0.00000000
     atom   21 type  1   force =     0.00000000    0.00000000    0.00000000
     atom   22 type  1   force =    -0.00000000    0.00000000    0.00000000
     atom   23 type  1   force =     0.00000000    0.00000000    0.00000000
     atom   24 type  1   force =    -0.00000000    0.00000000    0.00000000
     atom   25 type  1   force =     0.00000000   -0.00000000    0.00000000
     atom   26 type  1   force =    -0.00000000   -0.00000000    0.00000000
     atom   27 type  1   force =     0.00000000   -0.00000000    0.00000000
     atom   28 type  1   force =    -0.00000000    0.00000000    0.00000000
     atom   29 type  1   force =    -0.00000000   -0.00000000    0.00000000
     atom   30 type  1   force =     0.00000000   -0.00000000    0.00000000
     atom   31 type  1   force =    -0.00000000    0.00000000    0.00000000
     atom   32 type  1   force =     0.00000000    0.00000000    0.00000000
     atom   33 type  1   force =     0.00000000    0.00000000    0.00000000
     atom   34 type  1   force =    -0.00000000    0.00000000    0.00000000
     atom   35 type  1   force =    -0.00000000   -0.00000000    0.00000000
     atom   36 type  1   force =     0.00000000   -0.00000000    0.00000000
     atom   37 type  2   force =    -0.00001471   -0.00000343    0.00002522
     atom   38 type  3   force =    -0.00000700   -0.00000123    0.00001564
     atom   39 type  4   force =    -0.00000131   -0.00000046    0.00000438

     Total force =     0.014869     Total SCF correction =     0.000034

     Writing all to output data dir ./pwscf.save/

     init_run     :     14.39s CPU     16.42s WALL (       1 calls)
     electrons    :    865.91s CPU    878.02s WALL (       1 calls)
     forces       :      3.63s CPU      3.68s WALL (       1 calls)

     Called by init_run:
     wfcinit      :     11.34s CPU     13.25s WALL (       1 calls)
     potinit      :      1.96s CPU      2.05s WALL (       1 calls)
     hinit0       :      0.83s CPU      0.85s WALL (       1 calls)

     Called by electrons:
     c_bands      :    737.15s CPU    747.24s WALL (      51 calls)
     sum_band     :     90.96s CPU     92.24s WALL (      51 calls)
     v_of_rho     :      7.78s CPU      7.91s WALL (      52 calls)
     newd         :      4.71s CPU      4.77s WALL (      52 calls)
     PAW_pot      :     13.01s CPU     13.14s WALL (      52 calls)
     mix_rho      :     13.63s CPU     13.87s WALL (      51 calls)
     vdW_kernel   :      1.06s CPU      1.07s WALL (       1 calls)

     Called by c_bands:
     init_us_2    :      8.84s CPU      8.99s WALL (    2704 calls)
     init_us_2:cp :      8.83s CPU      8.98s WALL (    2704 calls)
     cegterg      :    713.11s CPU    722.58s WALL (    1326 calls)

     Called by *egterg:
     cdiaghg      :    197.08s CPU    199.91s WALL (    4347 calls)
     h_psi        :    345.92s CPU    352.44s WALL (    4373 calls)
     s_psi        :     36.83s CPU     37.26s WALL (    4373 calls)
     g_psi        :      0.94s CPU      0.96s WALL (    3021 calls)

     Called by h_psi:
     h_psi:calbec :     60.21s CPU     61.73s WALL (    4373 calls)
     vloc_psi     :    245.72s CPU    250.04s WALL (    4373 calls)
     add_vuspsi   :     37.75s CPU     38.41s WALL (    4373 calls)

     General routines
     calbec       :     86.01s CPU     87.83s WALL (    5803 calls)
     fft          :      5.30s CPU      5.39s WALL (    4705 calls)
     ffts         :      8.31s CPU      8.47s WALL (   19694 calls)
     fftw         :    280.05s CPU    284.86s WALL ( 1378824 calls)
     interpolate  :      0.36s CPU      0.36s WALL (     104 calls)

     Parallel routines

     PWSCF        :  14m54.05s CPU  15m13.16s WALL


   This run was terminated on:  10:12: 6  14Dec2025            

=------------------------------------------------------------------------------=
   JOB DONE.
=------------------------------------------------------------------------------=
