
     Program PWSCF v.7.1 starts on 14Dec2025 at 11: 2:12 
        Git branch: heads/qe-7.1
        Last git commit: 48ba0178f8fede6d020eb786884699a9f063f55d-dirty
        Last git commit date: Fri Jan 27 14:22:33 2023 +0000
        Last git commit subject: Merge branch 'fix_hubbard' into 'develop'

     This program is part of the open-source Quantum ESPRESSO suite
     for quantum simulation of materials; please cite
         "P. Giannozzi et al., J. Phys.:Condens. Matter 21 395502 (2009);
         "P. Giannozzi et al., J. Phys.:Condens. Matter 29 465901 (2017);
         "P. Giannozzi et al., J. Chem. Phys. 152 154105 (2020);
          URL http://www.quantum-espresso.org", 
     in publications or presentations arising from this work. More details at
     http://www.quantum-espresso.org/quote

     Parallel version (MPI), running on    96 processors

     MPI processes distributed on     2 nodes
     109323 MiB available memory on the printing compute node when the environment starts

     Reading input from espresso.pwi
Warning: card &CELL ignored
Warning: card / ignored
Warning: card &FCP ignored
Warning: card / ignored
Warning: card &RISM ignored
Warning: card / ignored

     Current dimensions of program PWSCF are:
     Max number of different atomic species (ntypx) = 10
     Max number of k-points (npk) =  40000
     Max angular momentum in pseudopotentials (lmaxx) =  4
     file Co.pbe-n-kjpaw_psl.1.0.0.UPF: wavefunction(s)  4S 3D renormalized
     file C.pbe-n-kjpaw_psl.1.0.0.UPF: wavefunction(s)  2S 2P renormalized
     file O.pbe-nl-kjpaw_psl.1.0.0.UPF: wavefunction(s)  2S 2P renormalized
     file H.pbe-kjpaw_psl.1.0.0.UPF: wavefunction(s)  1S renormalized

     **************************************************************************
     Initializing libbeef V0.1.2 with the BEEF-vdW functional.
     Citation: Wellendorff et al., PRB 85, 235149 (2012).
     **************************************************************************


     IMPORTANT: XC functional enforced from input :
     Exchange-correlation= BEEF-VDW
                           (   1   4  43  14   2   0   0)
     Any further DFT definition will be discarded
     Please, verify this is what you really want


     R & G space division:  proc/nbgrp/npool/nimage =      96
     Subspace diagonalization in iterative solution of the eigenvalue problem:
     one sub-group per band group will be used
     custom distributed-memory algorithm (size of sub-group:  2*  2 procs)


     Parallelization info
     --------------------
     sticks:   dense  smooth     PW     G-vecs:    dense   smooth      PW
     Min          43      28      7                 7829     4248     595
     Max          44      29      8                 7845     4281     630
     Sum        4153    2773    757               752179   409445   59217

     Using Slab Decomposition



     bravais-lattice index     =            0
     lattice parameter (alat)  =      14.1729  a.u.
     unit-cell volume          =    8574.3059 (a.u.)^3
     number of atoms/cell      =           39
     number of atomic types    =            4
     number of electrons       =       335.00
     number of Kohn-Sham states=          202
     kinetic-energy cutoff     =      50.0000  Ry
     charge density cutoff     =     300.0000  Ry
     scf convergence threshold =      1.0E-08
     mixing beta               =       0.7000
     number of iterations used =            8  local-TF  mixing
     Exchange-correlation= BEEF-VDW
                           (   1   4  43  14   2   0   0)

     celldm(1)=  14.172946  celldm(2)=   0.000000  celldm(3)=   0.000000
     celldm(4)=   0.000000  celldm(5)=   0.000000  celldm(6)=   0.000000

     crystal axes: (cart. coord. in units of alat)
               a(1) = (   1.000000   0.000000   0.000000 )  
               a(2) = (   0.500000   0.866025   0.000000 )  
               a(3) = (   0.000000   0.000000   3.477667 )  

     reciprocal axes: (cart. coord. in units 2 pi/alat)
               b(1) = (  1.000000 -0.577350  0.000000 )  
               b(2) = (  0.000000  1.154701  0.000000 )  
               b(3) = (  0.000000  0.000000  0.287549 )  


     PseudoPot. # 1 for Co read from file:
     /users/kbadger1/espresso/pseudo/pslibrary.1.0.0/pbe/PSEUDOPOTENTIALS/Co.pbe-n-kjpaw_psl.1.0.0.UPF
     MD5 check sum: 88af6ec42553d4236c267fdfcb472151
     Pseudo is Projector augmented-wave + core cor, Zval =  9.0
     Generated using 'atomic' code by A. Dal Corso  v.7.0
     Shape of augmentation charge: PSQ
     Using radial grid of 1193 points,  6 beta functions with: 
                l(1) =   0
                l(2) =   0
                l(3) =   1
                l(4) =   1
                l(5) =   2
                l(6) =   2
     Q(r) pseudized with 0 coefficients 


     PseudoPot. # 2 for C  read from file:
     /users/kbadger1/espresso/pseudo/pslibrary.1.0.0/pbe/PSEUDOPOTENTIALS/C.pbe-n-kjpaw_psl.1.0.0.UPF
     MD5 check sum: 6408e75cdba28732cea38a4db8498ce4
     Pseudo is Projector augmented-wave + core cor, Zval =  4.0
     Generated using 'atomic' code by A. Dal Corso  v.7.0
     Shape of augmentation charge: PSQ
     Using radial grid of 1073 points,  4 beta functions with: 
                l(1) =   0
                l(2) =   0
                l(3) =   1
                l(4) =   1
     Q(r) pseudized with 0 coefficients 


     PseudoPot. # 3 for O  read from file:
     /users/kbadger1/espresso/pseudo/pslibrary.1.0.0/pbe/PSEUDOPOTENTIALS/O.pbe-nl-kjpaw_psl.1.0.0.UPF
     MD5 check sum: f0439fab3598ca4e468f064226030408
     Pseudo is Projector augmented-wave + core cor, Zval =  6.0
     Generated using 'atomic' code by A. Dal Corso  v.7.0
     Shape of augmentation charge: PSQ
     Using radial grid of 1095 points,  4 beta functions with: 
                l(1) =   0
                l(2) =   0
                l(3) =   1
                l(4) =   1
     Q(r) pseudized with 0 coefficients 


     PseudoPot. # 4 for H  read from file:
     /users/kbadger1/espresso/pseudo/pslibrary.1.0.0/pbe/PSEUDOPOTENTIALS/H.pbe-kjpaw_psl.1.0.0.UPF
     MD5 check sum: fe4c6fa958fa6d3815bf5d2419cbf1df
     Pseudo is Projector augmented-wave, Zval =  1.0
     Generated using 'atomic' code by A. Dal Corso  v.7.0
     Shape of augmentation charge: PSQ
     Using radial grid of  929 points,  2 beta functions with: 
                l(1) =   0
                l(2) =   0
     Q(r) pseudized with 0 coefficients 


     atomic species   valence    mass     pseudopotential
        Co             9.00    58.93319     Co( 1.00)
        C              4.00    12.01100     C ( 1.00)
        O              6.00    15.99900     O ( 1.00)
        H              1.00     1.00800     H ( 1.00)

     Starting magnetic structure 
     atomic species   magnetization
        Co           1.000
        C            1.000
        O            0.000
        H            0.000

     No symmetry found



   Cartesian axes

     site n.     atom                  positions (alat units)
         1           Co  tau(   1) = (   0.0000000   0.1924501   1.3333333  )
         2           Co  tau(   2) = (   0.3333333   0.1924501   1.3333333  )
         3           Co  tau(   3) = (   0.6666667   0.1924501   1.3333333  )
         4           Co  tau(   4) = (   0.1666667   0.4811252   1.3333333  )
         5           Co  tau(   5) = (   0.5000000   0.4811252   1.3333333  )
         6           Co  tau(   6) = (   0.8333333   0.4811252   1.3333333  )
         7           Co  tau(   7) = (   0.3333333   0.7698004   1.3333333  )
         8           Co  tau(   8) = (   0.6666667   0.7698004   1.3333333  )
         9           Co  tau(   9) = (   1.0000000   0.7698004   1.3333333  )
        10           Co  tau(  10) = (   0.0000000   0.0000000   1.6036667  )
        11           Co  tau(  11) = (   0.3333333   0.0000000   1.6036667  )
        12           Co  tau(  12) = (   0.6666667   0.0000000   1.6036667  )
        13           Co  tau(  13) = (   0.1666667   0.2886751   1.6036667  )
        14           Co  tau(  14) = (   0.5000000   0.2886751   1.6036667  )
        15           Co  tau(  15) = (   0.8333333   0.2886751   1.6036667  )
        16           Co  tau(  16) = (   0.3333333   0.5773503   1.6036667  )
        17           Co  tau(  17) = (   0.6666667   0.5773503   1.6036667  )
        18           Co  tau(  18) = (   1.0000000   0.5773503   1.6036667  )
        19           Co  tau(  19) = (   0.0000000   0.1924501   1.8740000  )
        20           Co  tau(  20) = (   0.3333333   0.1924501   1.8740000  )
        21           Co  tau(  21) = (   0.6666667   0.1924501   1.8740000  )
        22           Co  tau(  22) = (   0.1666667   0.4811252   1.8740000  )
        23           Co  tau(  23) = (   0.5000000   0.4811252   1.8740000  )
        24           Co  tau(  24) = (   0.8333333   0.4811252   1.8740000  )
        25           Co  tau(  25) = (   0.3333333   0.7698004   1.8740000  )
        26           Co  tau(  26) = (   0.6666667   0.7698004   1.8740000  )
        27           Co  tau(  27) = (   1.0000000   0.7698004   1.8740000  )
        28           Co  tau(  28) = (   0.0000000   0.0000000   2.1443333  )
        29           Co  tau(  29) = (   0.3333333   0.0000000   2.1443333  )
        30           Co  tau(  30) = (   0.6666667   0.0000000   2.1443333  )
        31           Co  tau(  31) = (   0.1666667   0.2886751   2.1443333  )
        32           Co  tau(  32) = (   0.5000000   0.2886751   2.1443333  )
        33           Co  tau(  33) = (   0.8333333   0.2886751   2.1443333  )
        34           Co  tau(  34) = (   0.3333333   0.5773503   2.1443333  )
        35           Co  tau(  35) = (   0.6666667   0.5773503   2.1443333  )
        36           Co  tau(  36) = (   1.0000000   0.5773503   2.1443333  )
        37           C   tau(  37) = (   0.1676260  -0.0376179   2.3312391  )
        38           O   tau(  38) = (   0.1264841  -0.0485780   2.4847082  )
        39           H   tau(  39) = (   0.4067079   0.0162350   2.3314107  )

     number of k points=    13  Marzari-Vanderbilt smearing, width (Ry)=  0.0010
                       cart. coord. in units 2pi/alat
        k(    1) = (   0.0000000   0.0000000   0.0000000), wk =   0.0400000
        k(    2) = (   0.0000000   0.2309401   0.0000000), wk =   0.0800000
        k(    3) = (   0.0000000   0.4618802   0.0000000), wk =   0.0800000
        k(    4) = (   0.2000000  -0.1154701   0.0000000), wk =   0.0800000
        k(    5) = (   0.2000000   0.1154701   0.0000000), wk =   0.0800000
        k(    6) = (   0.2000000   0.3464102   0.0000000), wk =   0.0800000
        k(    7) = (   0.2000000  -0.5773503   0.0000000), wk =   0.0800000
        k(    8) = (   0.2000000  -0.3464102   0.0000000), wk =   0.0800000
        k(    9) = (   0.4000000  -0.2309401   0.0000000), wk =   0.0800000
        k(   10) = (   0.4000000   0.0000000   0.0000000), wk =   0.0800000
        k(   11) = (   0.4000000   0.2309401   0.0000000), wk =   0.0800000
        k(   12) = (   0.4000000  -0.6928203   0.0000000), wk =   0.0800000
        k(   13) = (   0.4000000  -0.4618802   0.0000000), wk =   0.0800000

     Dense  grid:   752179 G-vectors     FFT dimensions: (  80,  80, 288)

     Smooth grid:   409445 G-vectors     FFT dimensions: (  64,  64, 225)

     Estimated max dynamical RAM per process >      99.02 MB

     Estimated total dynamical RAM >       9.28 GB
     Generating pointlists ...
     new r_m :   0.0832 (alat units)  1.1787 (a.u.) for type    1
     new r_m :   0.0657 (alat units)  0.9311 (a.u.) for type    2
     new r_m :   0.0657 (alat units)  0.9311 (a.u.) for type    3
     new r_m :   0.0832 (alat units)  1.1787 (a.u.) for type    4

     Initial potential from superposition of free atoms

     starting charge     334.9897, renormalised to     335.0000

     negative rho (up, down):  3.048E-03 4.599E-04


     %%%%%%%%%%%%%%%%%%%%%%%%%%%%%%%%%%%%%%%%%%%%%%%%%%%%%%%%%%%%%%%%%%%%%%%%
     %                                                                      %
     % You are using vdW-DF, which was implemented by the Thonhauser group. %
     % Please cite the following two papers that made this development      %
     % possible and the two reviews that describe the various versions:     %
     %                                                                      %
     %   T. Thonhauser et al., PRL 115, 136402 (2015).                      %
     %   T. Thonhauser et al., PRB 76, 125112 (2007).                       %
     %   K. Berland et al., Rep. Prog. Phys. 78, 066501 (2015).             %
     %   D.C. Langreth et al., J. Phys.: Condens. Matter 21, 084203 (2009). %
     %                                                                      %
     % If you are calculating stress with vdW-DF, please also cite:         %
     %                                                                      %
     %   R. Sabatini et al., J. Phys.: Condens. Matter 24, 424209 (2012).   %
     %   C.M. Frostenson et al., Electr. Struct. 4, 014001 (2022).          %
     %                                                                      %
     %%%%%%%%%%%%%%%%%%%%%%%%%%%%%%%%%%%%%%%%%%%%%%%%%%%%%%%%%%%%%%%%%%%%%%%%

     %%%%%%%%%%%%%%%%%%%%%%%%%%%%%%%%%%%%%%%%%%%%%%%%%%%%%%%%%%%%%%%%%%%%%%%%
     %                                                                      %
     %  vdW-DF NEWS:                                                        %
     %                                                                      %
     %  * vdW-DF3 is now available. DOI: 10.1021/acs.jctc.0c00471           %
     %    use with input_dft = 'vdW-DF3-opt1' or 'vdW-DF3-opt2'             %
     %                                                                      %
     %  * Unscreened and range-separated hybrid vdW-DF-cx functionals       %
     %    DOI: 10.1063/1.4986522 and 10.1088/1361-648X/ac2ad2               %
     %    use with input_dft = 'vdW-DF-cx0'    and 'vdW-DF-ahcx'            %
     %  * Unscreened and range-separated hybrid vdW-DF2-b86r functionals    %
     %    DOI: 10.1063/1.4986522 and DOI: 10.1103/PhysRevX.12.041003        %
     %    use with input_dft = 'vdW-DF2-br0' and 'vdW-DF2-ahbr'             %
     %                                                                      %
     %%%%%%%%%%%%%%%%%%%%%%%%%%%%%%%%%%%%%%%%%%%%%%%%%%%%%%%%%%%%%%%%%%%%%%%%


     Starting wfcs are  333 randomized atomic wfcs
     Checking if some PAW data can be deallocated... 

     total cpu time spent up to now is       12.1 secs

     per-process dynamical memory:   230.2 Mb

     Self-consistent Calculation

     iteration #  1     ecut=    50.00 Ry     beta= 0.70
     Davidson diagonalization with overlap
     ethr =  1.00E-02,  avg # of iterations =  2.0

     negative rho (up, down):  3.251E-05 7.572E-08

     total cpu time spent up to now is       34.2 secs

     total energy              =   -6053.05320059 Ry
     estimated scf accuracy    <      39.34317815 Ry

     total magnetization       =    69.00 Bohr mag/cell
     absolute magnetization    =    81.21 Bohr mag/cell

     iteration #  2     ecut=    50.00 Ry     beta= 0.70
     Davidson diagonalization with overlap
     ethr =  1.00E-02,  avg # of iterations =  1.0

     negative rho (up, down):  4.808E-06 2.592E-08

     total cpu time spent up to now is       52.6 secs

     total energy              =   -6052.52447368 Ry
     estimated scf accuracy    <      24.98922803 Ry

     total magnetization       =    68.76 Bohr mag/cell
     absolute magnetization    =    76.62 Bohr mag/cell

     iteration #  3     ecut=    50.00 Ry     beta= 0.70
     Davidson diagonalization with overlap
     ethr =  7.46E-03,  avg # of iterations =  1.0

     negative rho (up, down):  4.094E-08 0.000E+00

     total cpu time spent up to now is       66.0 secs

     total energy              =   -6055.10930580 Ry
     estimated scf accuracy    <      84.26153795 Ry

     total magnetization       =    66.28 Bohr mag/cell
     absolute magnetization    =    73.56 Bohr mag/cell

     iteration #  4     ecut=    50.00 Ry     beta= 0.70
     Davidson diagonalization with overlap
     ethr =  7.46E-03,  avg # of iterations =  1.0

     total cpu time spent up to now is       83.5 secs

     total energy              =   -6056.37602394 Ry
     estimated scf accuracy    <       5.14323929 Ry

     total magnetization       =    60.27 Bohr mag/cell
     absolute magnetization    =    70.05 Bohr mag/cell

     iteration #  5     ecut=    50.00 Ry     beta= 0.70
     Davidson diagonalization with overlap
     ethr =  1.54E-03,  avg # of iterations =  1.2

     total cpu time spent up to now is       96.5 secs

     total energy              =   -6056.39564051 Ry
     estimated scf accuracy    <       2.33269030 Ry

     total magnetization       =    59.72 Bohr mag/cell
     absolute magnetization    =    69.19 Bohr mag/cell

     iteration #  6     ecut=    50.00 Ry     beta= 0.70
     Davidson diagonalization with overlap
     ethr =  6.96E-04,  avg # of iterations =  1.6

     total cpu time spent up to now is      115.9 secs

     total energy              =   -6056.49822160 Ry
     estimated scf accuracy    <       0.56040013 Ry

     total magnetization       =    59.67 Bohr mag/cell
     absolute magnetization    =    68.79 Bohr mag/cell

     iteration #  7     ecut=    50.00 Ry     beta= 0.70
     Davidson diagonalization with overlap
     ethr =  1.67E-04,  avg # of iterations =  6.1

     total cpu time spent up to now is      134.1 secs

     total energy              =   -6056.54619441 Ry
     estimated scf accuracy    <       0.87330860 Ry

     total magnetization       =    59.80 Bohr mag/cell
     absolute magnetization    =    68.54 Bohr mag/cell

     iteration #  8     ecut=    50.00 Ry     beta= 0.70
     Davidson diagonalization with overlap
     ethr =  1.67E-04,  avg # of iterations =  1.6

     total cpu time spent up to now is      153.0 secs

     total energy              =   -6056.56082273 Ry
     estimated scf accuracy    <       0.14210721 Ry

     total magnetization       =    59.81 Bohr mag/cell
     absolute magnetization    =    68.41 Bohr mag/cell

     iteration #  9     ecut=    50.00 Ry     beta= 0.70
     Davidson diagonalization with overlap
     c_bands:  3 eigenvalues not converged
     c_bands:  2 eigenvalues not converged
     ethr =  4.24E-05,  avg # of iterations =  8.9

     total cpu time spent up to now is      181.1 secs

     total energy              =   -6056.56532842 Ry
     estimated scf accuracy    <       0.15638064 Ry

     total magnetization       =    60.12 Bohr mag/cell
     absolute magnetization    =    68.35 Bohr mag/cell

     iteration # 10     ecut=    50.00 Ry     beta= 0.70
     Davidson diagonalization with overlap
     ethr =  4.24E-05,  avg # of iterations =  2.5

     total cpu time spent up to now is      195.6 secs

     total energy              =   -6056.57191651 Ry
     estimated scf accuracy    <       0.20521427 Ry

     total magnetization       =    60.24 Bohr mag/cell
     absolute magnetization    =    68.28 Bohr mag/cell

     iteration # 11     ecut=    50.00 Ry     beta= 0.70
     Davidson diagonalization with overlap
     ethr =  4.24E-05,  avg # of iterations =  1.2

     total cpu time spent up to now is      213.3 secs

     total energy              =   -6056.56499601 Ry
     estimated scf accuracy    <       0.12170883 Ry

     total magnetization       =    60.24 Bohr mag/cell
     absolute magnetization    =    68.17 Bohr mag/cell

     iteration # 12     ecut=    50.00 Ry     beta= 0.70
     Davidson diagonalization with overlap
     ethr =  3.63E-05,  avg # of iterations =  1.9

     total cpu time spent up to now is      230.4 secs

     total energy              =   -6056.56889630 Ry
     estimated scf accuracy    <       0.08410374 Ry

     total magnetization       =    60.14 Bohr mag/cell
     absolute magnetization    =    67.94 Bohr mag/cell

     iteration # 13     ecut=    50.00 Ry     beta= 0.70
     Davidson diagonalization with overlap
     ethr =  2.51E-05,  avg # of iterations =  1.3

     total cpu time spent up to now is      245.8 secs

     total energy              =   -6056.56911665 Ry
     estimated scf accuracy    <       0.09244454 Ry

     total magnetization       =    60.14 Bohr mag/cell
     absolute magnetization    =    67.89 Bohr mag/cell

     iteration # 14     ecut=    50.00 Ry     beta= 0.70
     Davidson diagonalization with overlap
     ethr =  2.51E-05,  avg # of iterations =  1.7

     total cpu time spent up to now is      264.4 secs

     total energy              =   -6056.56340744 Ry
     estimated scf accuracy    <       0.10271494 Ry

     total magnetization       =    60.12 Bohr mag/cell
     absolute magnetization    =    67.91 Bohr mag/cell

     iteration # 15     ecut=    50.00 Ry     beta= 0.70
     Davidson diagonalization with overlap
     ethr =  2.51E-05,  avg # of iterations =  1.8

     negative rho (up, down):  4.431E-03 3.289E-03

     total cpu time spent up to now is      278.3 secs

     total energy              =   -6056.56013662 Ry
     estimated scf accuracy    <       0.10631121 Ry

     total magnetization       =    60.19 Bohr mag/cell
     absolute magnetization    =    67.94 Bohr mag/cell

     iteration # 16     ecut=    50.00 Ry     beta= 0.70
     Davidson diagonalization with overlap
     ethr =  2.51E-05,  avg # of iterations =  1.8

     negative rho (up, down):  1.643E-02 1.477E-02

     total cpu time spent up to now is      298.4 secs

     total energy              =   -6056.55886287 Ry
     estimated scf accuracy    <       0.05592661 Ry

     total magnetization       =    60.13 Bohr mag/cell
     absolute magnetization    =    67.78 Bohr mag/cell

     iteration # 17     ecut=    50.00 Ry     beta= 0.70
     Davidson diagonalization with overlap
     c_bands:  2 eigenvalues not converged
     c_bands:  4 eigenvalues not converged
     c_bands:  2 eigenvalues not converged
     ethr =  1.67E-05,  avg # of iterations =  4.4

     negative rho (up, down):  3.635E-02 3.423E-02

     total cpu time spent up to now is      314.6 secs

     total energy              =   -6056.55781353 Ry
     estimated scf accuracy    <       0.03593569 Ry

     total magnetization       =    60.13 Bohr mag/cell
     absolute magnetization    =    67.73 Bohr mag/cell

     iteration # 18     ecut=    50.00 Ry     beta= 0.70
     Davidson diagonalization with overlap
     c_bands:  3 eigenvalues not converged
     c_bands:  3 eigenvalues not converged
     ethr =  1.07E-05,  avg # of iterations =  4.9

     negative rho (up, down):  2.614E-02 2.439E-02

     total cpu time spent up to now is      336.4 secs

     total energy              =   -6056.55830891 Ry
     estimated scf accuracy    <       0.07355297 Ry

     total magnetization       =    60.13 Bohr mag/cell
     absolute magnetization    =    67.67 Bohr mag/cell

     iteration # 19     ecut=    50.00 Ry     beta= 0.70
     Davidson diagonalization with overlap
     ethr =  1.07E-05,  avg # of iterations =  1.2

     negative rho (up, down):  2.921E-02 2.732E-02

     total cpu time spent up to now is      354.0 secs

     total energy              =   -6056.55856251 Ry
     estimated scf accuracy    <       0.01740618 Ry

     total magnetization       =    60.13 Bohr mag/cell
     absolute magnetization    =    67.69 Bohr mag/cell

     iteration # 20     ecut=    50.00 Ry     beta= 0.70
     Davidson diagonalization with overlap
     ethr =  5.20E-06,  avg # of iterations =  6.3

     negative rho (up, down):  2.361E-02 2.195E-02

     total cpu time spent up to now is      373.1 secs

     total energy              =   -6056.55741997 Ry
     estimated scf accuracy    <       0.00810339 Ry

     total magnetization       =    60.24 Bohr mag/cell
     absolute magnetization    =    67.76 Bohr mag/cell

     iteration # 21     ecut=    50.00 Ry     beta= 0.70
     Davidson diagonalization with overlap
     c_bands:  1 eigenvalues not converged
     c_bands:  1 eigenvalues not converged
     c_bands:  1 eigenvalues not converged
     c_bands:  2 eigenvalues not converged
     c_bands:  2 eigenvalues not converged
     c_bands:  3 eigenvalues not converged
     c_bands:  1 eigenvalues not converged
     ethr =  2.42E-06,  avg # of iterations = 10.1

     negative rho (up, down):  2.215E-02 2.071E-02

     total cpu time spent up to now is      398.8 secs

     total energy              =   -6056.55664414 Ry
     estimated scf accuracy    <       0.01658166 Ry

     total magnetization       =    60.31 Bohr mag/cell
     absolute magnetization    =    67.82 Bohr mag/cell

     iteration # 22     ecut=    50.00 Ry     beta= 0.70
     Davidson diagonalization with overlap
     ethr =  2.42E-06,  avg # of iterations =  2.2

     negative rho (up, down):  1.542E-02 1.437E-02

     total cpu time spent up to now is      418.6 secs

     total energy              =   -6056.55663398 Ry
     estimated scf accuracy    <       0.00366921 Ry

     total magnetization       =    60.40 Bohr mag/cell
     absolute magnetization    =    67.89 Bohr mag/cell

     iteration # 23     ecut=    50.00 Ry     beta= 0.70
     Davidson diagonalization with overlap
     c_bands:  1 eigenvalues not converged
     ethr =  1.10E-06,  avg # of iterations =  2.5

     negative rho (up, down):  1.597E-02 1.483E-02

     total cpu time spent up to now is      433.2 secs

     total energy              =   -6056.55664638 Ry
     estimated scf accuracy    <       0.00427884 Ry

     total magnetization       =    60.34 Bohr mag/cell
     absolute magnetization    =    67.86 Bohr mag/cell

     iteration # 24     ecut=    50.00 Ry     beta= 0.70
     Davidson diagonalization with overlap
     ethr =  1.10E-06,  avg # of iterations =  1.4

     negative rho (up, down):  8.055E-03 7.350E-03

     total cpu time spent up to now is      451.2 secs

     total energy              =   -6056.55679373 Ry
     estimated scf accuracy    <       0.00269893 Ry

     total magnetization       =    60.32 Bohr mag/cell
     absolute magnetization    =    67.85 Bohr mag/cell

     iteration # 25     ecut=    50.00 Ry     beta= 0.70
     Davidson diagonalization with overlap
     ethr =  8.06E-07,  avg # of iterations =  1.7

     negative rho (up, down):  6.309E-03 5.617E-03

     total cpu time spent up to now is      465.1 secs

     total energy              =   -6056.55688565 Ry
     estimated scf accuracy    <       0.00081388 Ry

     total magnetization       =    60.39 Bohr mag/cell
     absolute magnetization    =    67.91 Bohr mag/cell

     iteration # 26     ecut=    50.00 Ry     beta= 0.70
     Davidson diagonalization with overlap
     c_bands:  1 eigenvalues not converged
     ethr =  2.43E-07,  avg # of iterations =  3.4

     negative rho (up, down):  2.352E-03 1.456E-03

     total cpu time spent up to now is      486.1 secs

     total energy              =   -6056.55689689 Ry
     estimated scf accuracy    <       0.00049936 Ry

     total magnetization       =    60.39 Bohr mag/cell
     absolute magnetization    =    67.91 Bohr mag/cell

     iteration # 27     ecut=    50.00 Ry     beta= 0.70
     Davidson diagonalization with overlap
     ethr =  1.49E-07,  avg # of iterations =  2.3

     negative rho (up, down):  2.713E-03 1.636E-03

     total cpu time spent up to now is      505.1 secs

     total energy              =   -6056.55699615 Ry
     estimated scf accuracy    <       0.00128583 Ry

     total magnetization       =    60.37 Bohr mag/cell
     absolute magnetization    =    67.89 Bohr mag/cell

     iteration # 28     ecut=    50.00 Ry     beta= 0.70
     Davidson diagonalization with overlap
     ethr =  1.49E-07,  avg # of iterations =  1.5

     negative rho (up, down):  3.490E-03 2.467E-03

     total cpu time spent up to now is      519.0 secs

     total energy              =   -6056.55703878 Ry
     estimated scf accuracy    <       0.00026878 Ry

     total magnetization       =    60.37 Bohr mag/cell
     absolute magnetization    =    67.90 Bohr mag/cell

     iteration # 29     ecut=    50.00 Ry     beta= 0.70
     Davidson diagonalization with overlap
     ethr =  8.02E-08,  avg # of iterations =  1.8

     negative rho (up, down):  3.482E-03 2.447E-03

     total cpu time spent up to now is      538.0 secs

     total energy              =   -6056.55704907 Ry
     estimated scf accuracy    <       0.00015173 Ry

     total magnetization       =    60.38 Bohr mag/cell
     absolute magnetization    =    67.90 Bohr mag/cell

     iteration # 30     ecut=    50.00 Ry     beta= 0.70
     Davidson diagonalization with overlap
     c_bands:  1 eigenvalues not converged
     ethr =  4.53E-08,  avg # of iterations =  3.5

     negative rho (up, down):  3.068E-03 1.960E-03

     total cpu time spent up to now is      554.0 secs

     total energy              =   -6056.55704939 Ry
     estimated scf accuracy    <       0.00003612 Ry

     total magnetization       =    60.38 Bohr mag/cell
     absolute magnetization    =    67.90 Bohr mag/cell

     iteration # 31     ecut=    50.00 Ry     beta= 0.70
     Davidson diagonalization with overlap
     c_bands:  1 eigenvalues not converged
     ethr =  1.08E-08,  avg # of iterations =  6.1

     negative rho (up, down):  3.316E-03 2.251E-03

     total cpu time spent up to now is      578.2 secs

     total energy              =   -6056.55705615 Ry
     estimated scf accuracy    <       0.00007628 Ry

     total magnetization       =    60.38 Bohr mag/cell
     absolute magnetization    =    67.90 Bohr mag/cell

     iteration # 32     ecut=    50.00 Ry     beta= 0.70
     Davidson diagonalization with overlap
     ethr =  1.08E-08,  avg # of iterations =  1.4

     negative rho (up, down):  3.160E-03 2.066E-03

     total cpu time spent up to now is      596.3 secs

     total energy              =   -6056.55705433 Ry
     estimated scf accuracy    <       0.00004646 Ry

     total magnetization       =    60.38 Bohr mag/cell
     absolute magnetization    =    67.90 Bohr mag/cell

     iteration # 33     ecut=    50.00 Ry     beta= 0.70
     Davidson diagonalization with overlap
     ethr =  1.08E-08,  avg # of iterations =  1.2

     negative rho (up, down):  2.987E-03 1.903E-03

     total cpu time spent up to now is      610.7 secs

     total energy              =   -6056.55705333 Ry
     estimated scf accuracy    <       0.00003935 Ry

     total magnetization       =    60.38 Bohr mag/cell
     absolute magnetization    =    67.90 Bohr mag/cell

     iteration # 34     ecut=    50.00 Ry     beta= 0.70
     Davidson diagonalization with overlap
     ethr =  1.08E-08,  avg # of iterations =  2.0

     negative rho (up, down):  3.097E-03 2.104E-03

     total cpu time spent up to now is      629.7 secs

     total energy              =   -6056.55705732 Ry
     estimated scf accuracy    <       0.00008799 Ry

     total magnetization       =    60.38 Bohr mag/cell
     absolute magnetization    =    67.89 Bohr mag/cell

     iteration # 35     ecut=    50.00 Ry     beta= 0.70
     Davidson diagonalization with overlap
     ethr =  1.08E-08,  avg # of iterations =  1.8

     negative rho (up, down):  3.016E-03 2.004E-03

     total cpu time spent up to now is      644.1 secs

     total energy              =   -6056.55705823 Ry
     estimated scf accuracy    <       0.00001750 Ry

     total magnetization       =    60.38 Bohr mag/cell
     absolute magnetization    =    67.89 Bohr mag/cell

     iteration # 36     ecut=    50.00 Ry     beta= 0.70
     Davidson diagonalization with overlap
     ethr =  5.22E-09,  avg # of iterations =  1.7

     negative rho (up, down):  2.851E-03 1.817E-03

     total cpu time spent up to now is      663.6 secs

     total energy              =   -6056.55705627 Ry
     estimated scf accuracy    <       0.00001437 Ry

     total magnetization       =    60.37 Bohr mag/cell
     absolute magnetization    =    67.89 Bohr mag/cell

     iteration # 37     ecut=    50.00 Ry     beta= 0.70
     Davidson diagonalization with overlap
     ethr =  4.29E-09,  avg # of iterations =  1.7

     negative rho (up, down):  2.816E-03 1.773E-03

     total cpu time spent up to now is      682.1 secs

     total energy              =   -6056.55705567 Ry
     estimated scf accuracy    <       0.00002619 Ry

     total magnetization       =    60.37 Bohr mag/cell
     absolute magnetization    =    67.89 Bohr mag/cell

     iteration # 38     ecut=    50.00 Ry     beta= 0.70
     Davidson diagonalization with overlap
     ethr =  4.29E-09,  avg # of iterations =  1.1

     negative rho (up, down):  2.715E-03 1.662E-03

     total cpu time spent up to now is      695.2 secs

     total energy              =   -6056.55705545 Ry
     estimated scf accuracy    <       0.00000777 Ry

     total magnetization       =    60.37 Bohr mag/cell
     absolute magnetization    =    67.89 Bohr mag/cell

     iteration # 39     ecut=    50.00 Ry     beta= 0.70
     Davidson diagonalization with overlap
     c_bands:  1 eigenvalues not converged
     ethr =  2.32E-09,  avg # of iterations =  2.7

     negative rho (up, down):  2.651E-03 1.574E-03

     total cpu time spent up to now is      714.7 secs

     total energy              =   -6056.55705467 Ry
     estimated scf accuracy    <       0.00002630 Ry

     total magnetization       =    60.37 Bohr mag/cell
     absolute magnetization    =    67.89 Bohr mag/cell

     iteration # 40     ecut=    50.00 Ry     beta= 0.70
     Davidson diagonalization with overlap
     ethr =  2.32E-09,  avg # of iterations =  1.5

     negative rho (up, down):  2.487E-03 1.402E-03

     total cpu time spent up to now is      729.6 secs

     total energy              =   -6056.55705510 Ry
     estimated scf accuracy    <       0.00001119 Ry

     total magnetization       =    60.37 Bohr mag/cell
     absolute magnetization    =    67.89 Bohr mag/cell

     iteration # 41     ecut=    50.00 Ry     beta= 0.70
     Davidson diagonalization with overlap
     ethr =  2.32E-09,  avg # of iterations =  1.2

     negative rho (up, down):  2.462E-03 1.377E-03

     total cpu time spent up to now is      747.4 secs

     total energy              =   -6056.55705520 Ry
     estimated scf accuracy    <       0.00001528 Ry

     total magnetization       =    60.37 Bohr mag/cell
     absolute magnetization    =    67.89 Bohr mag/cell

     iteration # 42     ecut=    50.00 Ry     beta= 0.70
     Davidson diagonalization with overlap
     ethr =  2.32E-09,  avg # of iterations =  1.0

     negative rho (up, down):  2.393E-03 1.310E-03

     total cpu time spent up to now is      760.5 secs

     total energy              =   -6056.55705546 Ry
     estimated scf accuracy    <       0.00000471 Ry

     total magnetization       =    60.37 Bohr mag/cell
     absolute magnetization    =    67.89 Bohr mag/cell

     iteration # 43     ecut=    50.00 Ry     beta= 0.70
     Davidson diagonalization with overlap
     ethr =  1.40E-09,  avg # of iterations =  1.2

     negative rho (up, down):  2.311E-03 1.225E-03

     total cpu time spent up to now is      778.5 secs

     total energy              =   -6056.55705550 Ry
     estimated scf accuracy    <       0.00000169 Ry

     total magnetization       =    60.37 Bohr mag/cell
     absolute magnetization    =    67.89 Bohr mag/cell

     iteration # 44     ecut=    50.00 Ry     beta= 0.70
     Davidson diagonalization with overlap
     c_bands:  1 eigenvalues not converged
     ethr =  5.04E-10,  avg # of iterations =  4.5

     negative rho (up, down):  2.301E-03 1.216E-03

     total cpu time spent up to now is      796.5 secs

     total energy              =   -6056.55705537 Ry
     estimated scf accuracy    <       0.00000899 Ry

     total magnetization       =    60.37 Bohr mag/cell
     absolute magnetization    =    67.89 Bohr mag/cell

     iteration # 45     ecut=    50.00 Ry     beta= 0.70
     Davidson diagonalization with overlap
     ethr =  5.04E-10,  avg # of iterations =  2.0

     negative rho (up, down):  2.292E-03 1.208E-03

     total cpu time spent up to now is      815.2 secs

     total energy              =   -6056.55705560 Ry
     estimated scf accuracy    <       0.00000059 Ry

     total magnetization       =    60.37 Bohr mag/cell
     absolute magnetization    =    67.89 Bohr mag/cell

     iteration # 46     ecut=    50.00 Ry     beta= 0.70
     Davidson diagonalization with overlap
     c_bands:  1 eigenvalues not converged
     ethr =  1.78E-10,  avg # of iterations =  3.5

     negative rho (up, down):  2.241E-03 1.157E-03

     total cpu time spent up to now is      835.5 secs

     total energy              =   -6056.55705552 Ry
     estimated scf accuracy    <       0.00000053 Ry

     total magnetization       =    60.37 Bohr mag/cell
     absolute magnetization    =    67.89 Bohr mag/cell

     iteration # 47     ecut=    50.00 Ry     beta= 0.70
     Davidson diagonalization with overlap
     ethr =  1.57E-10,  avg # of iterations =  2.2

     negative rho (up, down):  2.261E-03 1.177E-03

     total cpu time spent up to now is      851.4 secs

     total energy              =   -6056.55705557 Ry
     estimated scf accuracy    <       0.00000086 Ry

     total magnetization       =    60.37 Bohr mag/cell
     absolute magnetization    =    67.89 Bohr mag/cell

     iteration # 48     ecut=    50.00 Ry     beta= 0.70
     Davidson diagonalization with overlap
     ethr =  1.57E-10,  avg # of iterations =  1.3

     negative rho (up, down):  2.243E-03 1.160E-03

     total cpu time spent up to now is      869.1 secs

     total energy              =   -6056.55705558 Ry
     estimated scf accuracy    <       0.00000013 Ry

     total magnetization       =    60.37 Bohr mag/cell
     absolute magnetization    =    67.89 Bohr mag/cell

     iteration # 49     ecut=    50.00 Ry     beta= 0.70
     Davidson diagonalization with overlap
     c_bands:  1 eigenvalues not converged
     ethr =  3.77E-11,  avg # of iterations =  6.2

     negative rho (up, down):  2.250E-03 1.166E-03

     total cpu time spent up to now is      891.7 secs

     total energy              =   -6056.55705560 Ry
     estimated scf accuracy    <       0.00000009 Ry

     total magnetization       =    60.37 Bohr mag/cell
     absolute magnetization    =    67.89 Bohr mag/cell

     iteration # 50     ecut=    50.00 Ry     beta= 0.70
     Davidson diagonalization with overlap
     ethr =  2.68E-11,  avg # of iterations =  1.9

     negative rho (up, down):  2.246E-03 1.162E-03

     total cpu time spent up to now is      907.1 secs

     total energy              =   -6056.55705560 Ry
     estimated scf accuracy    <       0.00000004 Ry

     total magnetization       =    60.37 Bohr mag/cell
     absolute magnetization    =    67.89 Bohr mag/cell

     iteration # 51     ecut=    50.00 Ry     beta= 0.70
     Davidson diagonalization with overlap
     ethr =  1.26E-11,  avg # of iterations =  3.5

     negative rho (up, down):  2.244E-03 1.160E-03

     total cpu time spent up to now is      928.1 secs

     total energy              =   -6056.55705560 Ry
     estimated scf accuracy    <       0.00000002 Ry

     total magnetization       =    60.37 Bohr mag/cell
     absolute magnetization    =    67.89 Bohr mag/cell

     iteration # 52     ecut=    50.00 Ry     beta= 0.70
     Davidson diagonalization with overlap
     ethr =  6.65E-12,  avg # of iterations =  3.6

     negative rho (up, down):  2.240E-03 1.157E-03

     total cpu time spent up to now is      944.1 secs

     total energy              =   -6056.55705559 Ry
     estimated scf accuracy    <       0.00000001 Ry

     total magnetization       =    60.37 Bohr mag/cell
     absolute magnetization    =    67.89 Bohr mag/cell

     iteration # 53     ecut=    50.00 Ry     beta= 0.70
     Davidson diagonalization with overlap
     ethr =  4.17E-12,  avg # of iterations =  3.2

     negative rho (up, down):  2.240E-03 1.157E-03

     total cpu time spent up to now is      964.2 secs

     total energy              =   -6056.55705559 Ry
     estimated scf accuracy    <       0.00000001 Ry

     total magnetization       =    60.37 Bohr mag/cell
     absolute magnetization    =    67.89 Bohr mag/cell

     iteration # 54     ecut=    50.00 Ry     beta= 0.70
     Davidson diagonalization with overlap
     ethr =  3.26E-12,  avg # of iterations =  2.1

     negative rho (up, down):  2.238E-03 1.155E-03

     total cpu time spent up to now is      984.5 secs

     total energy              =   -6056.55705559 Ry
     estimated scf accuracy    <       0.00000002 Ry

     total magnetization       =    60.37 Bohr mag/cell
     absolute magnetization    =    67.89 Bohr mag/cell

     iteration # 55     ecut=    50.00 Ry     beta= 0.70
     Davidson diagonalization with overlap
