
     Program PWSCF v.7.1 starts on 23Feb2025 at 20:52:29 
        Git branch: heads/qe-7.1
        Last git commit: 48ba0178f8fede6d020eb786884699a9f063f55d-dirty
        Last git commit date: Fri Jan 27 14:22:33 2023 +0000
        Last git commit subject: Merge branch 'fix_hubbard' into 'develop'

     This program is part of the open-source Quantum ESPRESSO suite
     for quantum simulation of materials; please cite
         "P. Giannozzi et al., J. Phys.:Condens. Matter 21 395502 (2009);
         "P. Giannozzi et al., J. Phys.:Condens. Matter 29 465901 (2017);
         "P. Giannozzi et al., J. Chem. Phys. 152 154105 (2020);
          URL http://www.quantum-espresso.org", 
     in publications or presentations arising from this work. More details at
     http://www.quantum-espresso.org/quote

     Parallel version (MPI), running on    48 processors

     MPI processes distributed on     1 nodes
     39708 MiB available memory on the printing compute node when the environment starts

     Reading input from espresso.pwi
Warning: card &CELL ignored
Warning: card / ignored
Warning: card &FCP ignored
Warning: card / ignored
Warning: card &RISM ignored
Warning: card / ignored

     Current dimensions of program PWSCF are:
     Max number of different atomic species (ntypx) = 10
     Max number of k-points (npk) =  40000
     Max angular momentum in pseudopotentials (lmaxx) =  4
     file Pt.pbe-n-kjpaw_psl.1.0.0.UPF: wavefunction(s)  6S 5D renormalized
     file H.pbe-kjpaw_psl.1.0.0.UPF: wavefunction(s)  1S renormalized

     **************************************************************************
     Initializing libbeef V0.1.2 with the BEEF-vdW functional.
     Citation: Wellendorff et al., PRB 85, 235149 (2012).
     **************************************************************************


     IMPORTANT: XC functional enforced from input :
     Exchange-correlation= BEEF-VDW
                           (   1   4  43  14   2   0   0)
     Any further DFT definition will be discarded
     Please, verify this is what you really want


     R & G space division:  proc/nbgrp/npool/nimage =      48
     Subspace diagonalization in iterative solution of the eigenvalue problem:
     one sub-group per band group will be used
     custom distributed-memory algorithm (size of sub-group:  2*  2 procs)


     Parallelization info
     --------------------
     sticks:   dense  smooth     PW     G-vecs:    dense   smooth      PW
     Min         151      59     16                29407     7165    1028
     Max         152      60     17                29420     7176    1042
     Sum        7267    2839    769              1411785   344073   49691

     Using Slab Decomposition



     bravais-lattice index     =            0
     lattice parameter (alat)  =      16.0349  a.u.
     unit-cell volume          =   10068.6169 (a.u.)^3
     number of atoms/cell      =           37
     number of atomic types    =            2
     number of electrons       =       361.00
     number of Kohn-Sham states=          217
     kinetic-energy cutoff     =      40.0000  Ry
     charge density cutoff     =     410.0000  Ry
     scf convergence threshold =      1.0E-08
     mixing beta               =       0.7000
     number of iterations used =            8  local-TF  mixing
     Exchange-correlation= BEEF-VDW
                           (   1   4  43  14   2   0   0)

     celldm(1)=  16.034858  celldm(2)=   0.000000  celldm(3)=   0.000000
     celldm(4)=   0.000000  celldm(5)=   0.000000  celldm(6)=   0.000000

     crystal axes: (cart. coord. in units of alat)
               a(1) = (   1.000000   0.000000   0.000000 )  
               a(2) = (   0.500000   0.866025   0.000000 )  
               a(3) = (   0.000000   0.000000   2.819966 )  

     reciprocal axes: (cart. coord. in units 2 pi/alat)
               b(1) = (  1.000000 -0.577350  0.000000 )  
               b(2) = (  0.000000  1.154701  0.000000 )  
               b(3) = (  0.000000  0.000000  0.354614 )  


     PseudoPot. # 1 for Pt read from file:
     /users/kbadger1/espresso/pseudo/pslibrary.1.0.0/pbe/PSEUDOPOTENTIALS/Pt.pbe-n-kjpaw_psl.1.0.0.UPF
     MD5 check sum: 2e24a0b5bf98a4ed1a57fa81bca8c143
     Pseudo is Projector augmented-wave + core cor, Zval = 10.0
     Generated using 'atomic' code by A. Dal Corso  v.7.0
     Shape of augmentation charge: PSQ
     Using radial grid of 1277 points,  6 beta functions with: 
                l(1) =   0
                l(2) =   0
                l(3) =   1
                l(4) =   1
                l(5) =   2
                l(6) =   2
     Q(r) pseudized with 0 coefficients 


     PseudoPot. # 2 for H  read from file:
     /users/kbadger1/espresso/pseudo/pslibrary.1.0.0/pbe/PSEUDOPOTENTIALS/H.pbe-kjpaw_psl.1.0.0.UPF
     MD5 check sum: fe4c6fa958fa6d3815bf5d2419cbf1df
     Pseudo is Projector augmented-wave, Zval =  1.0
     Generated using 'atomic' code by A. Dal Corso  v.7.0
     Shape of augmentation charge: PSQ
     Using radial grid of  929 points,  2 beta functions with: 
                l(1) =   0
                l(2) =   0
     Q(r) pseudized with 0 coefficients 


     atomic species   valence    mass     pseudopotential
        Pt            10.00   195.08400     Pt( 1.00)
        H              1.00     1.00800     H ( 1.00)

     No symmetry found



   Cartesian axes

     site n.     atom                  positions (alat units)
         1           Pt  tau(   1) = (   0.0000000   0.0000000   1.0017346  )
         2           Pt  tau(   2) = (   0.3333333   0.0000000   1.0017346  )
         3           Pt  tau(   3) = (   0.6666667   0.0000000   1.0017346  )
         4           Pt  tau(   4) = (   0.1666667   0.2886751   1.0017346  )
         5           Pt  tau(   5) = (   0.5000000   0.2886751   1.0017346  )
         6           Pt  tau(   6) = (   0.8333333   0.2886751   1.0017346  )
         7           Pt  tau(   7) = (   0.3333333   0.5773503   1.0017346  )
         8           Pt  tau(   8) = (   0.6666667   0.5773503   1.0017346  )
         9           Pt  tau(   9) = (   1.0000000   0.5773503   1.0017346  )
        10           Pt  tau(  10) = (   0.1666667   0.0962250   1.2739001  )
        11           Pt  tau(  11) = (   0.5000000   0.0962250   1.2739001  )
        12           Pt  tau(  12) = (   0.8333333   0.0962250   1.2739001  )
        13           Pt  tau(  13) = (   0.3333333   0.3849002   1.2739001  )
        14           Pt  tau(  14) = (   0.6666667   0.3849002   1.2739001  )
        15           Pt  tau(  15) = (   1.0000000   0.3849002   1.2739001  )
        16           Pt  tau(  16) = (   0.5000000   0.6735753   1.2739001  )
        17           Pt  tau(  17) = (   0.8333333   0.6735753   1.2739001  )
        18           Pt  tau(  18) = (   1.1666667   0.6735753   1.2739001  )
        19           Pt  tau(  19) = (   0.0014240   0.1930600   1.5438358  )
        20           Pt  tau(  20) = (   0.3335719   0.1925951   1.5453782  )
        21           Pt  tau(  21) = (   0.6675725   0.1927278   1.5423156  )
        22           Pt  tau(  22) = (   0.1670810   0.4800288   1.5445691  )
        23           Pt  tau(  23) = (   0.5006860   0.4817799   1.5423105  )
        24           Pt  tau(  24) = (   0.8340879   0.4815694   1.5426147  )
        25           Pt  tau(  25) = (   0.3334463   0.7698722   1.5417807  )
        26           Pt  tau(  26) = (   0.6679053   0.7707389   1.5438325  )
        27           Pt  tau(  27) = (   0.9992541   0.7707184   1.5445649  )
        28           Pt  tau(  28) = (  -0.0016085  -0.0009163   1.8158132  )
        29           Pt  tau(  29) = (   0.3374460  -0.0001071   1.8262208  )
        30           Pt  tau(  30) = (   0.6688748   0.0010525   1.8170234  )
        31           Pt  tau(  31) = (   0.1686125   0.2923169   1.8262249  )
        32           Pt  tau(  32) = (   0.5058661   0.2920812   1.8163130  )
        33           Pt  tau(  33) = (   0.8354044   0.2899431   1.8170389  )
        34           Pt  tau(  34) = (   0.3353419   0.5787619   1.8170298  )
        35           Pt  tau(  35) = (   0.6687801   0.5785334   1.8170457  )
        36           Pt  tau(  36) = (   1.0019271   0.5784792   1.8173472  )
        37           H   tau(  37) = (   0.2491815   0.1438790   1.9465245  )

     number of k points=    13  Marzari-Vanderbilt smearing, width (Ry)=  0.0200
                       cart. coord. in units 2pi/alat
        k(    1) = (   0.0000000   0.0000000   0.0000000), wk =   0.0800000
        k(    2) = (   0.0000000   0.2309401   0.0000000), wk =   0.1600000
        k(    3) = (   0.0000000   0.4618802   0.0000000), wk =   0.1600000
        k(    4) = (   0.2000000  -0.1154701   0.0000000), wk =   0.1600000
        k(    5) = (   0.2000000   0.1154701   0.0000000), wk =   0.1600000
        k(    6) = (   0.2000000   0.3464102   0.0000000), wk =   0.1600000
        k(    7) = (   0.2000000  -0.5773503   0.0000000), wk =   0.1600000
        k(    8) = (   0.2000000  -0.3464102   0.0000000), wk =   0.1600000
        k(    9) = (   0.4000000  -0.2309401   0.0000000), wk =   0.1600000
        k(   10) = (   0.4000000  -0.0000000   0.0000000), wk =   0.1600000
        k(   11) = (   0.4000000   0.2309401   0.0000000), wk =   0.1600000
        k(   12) = (   0.4000000  -0.6928203   0.0000000), wk =   0.1600000
        k(   13) = (   0.4000000  -0.4618802   0.0000000), wk =   0.1600000

     Dense  grid:  1411785 G-vectors     FFT dimensions: ( 108, 108, 300)

     Smooth grid:   344073 G-vectors     FFT dimensions: (  72,  72, 192)

     Estimated max dynamical RAM per process >     203.68 MB

     Estimated total dynamical RAM >       9.55 GB

     Initial potential from superposition of free atoms

     starting charge     360.9939, renormalised to     361.0000

     negative rho (up, down):  3.370E-03 0.000E+00


     %%%%%%%%%%%%%%%%%%%%%%%%%%%%%%%%%%%%%%%%%%%%%%%%%%%%%%%%%%%%%%%%%%%%%%%%
     %                                                                      %
     % You are using vdW-DF, which was implemented by the Thonhauser group. %
     % Please cite the following two papers that made this development      %
     % possible and the two reviews that describe the various versions:     %
     %                                                                      %
     %   T. Thonhauser et al., PRL 115, 136402 (2015).                      %
     %   T. Thonhauser et al., PRB 76, 125112 (2007).                       %
     %   K. Berland et al., Rep. Prog. Phys. 78, 066501 (2015).             %
     %   D.C. Langreth et al., J. Phys.: Condens. Matter 21, 084203 (2009). %
     %                                                                      %
     % If you are calculating stress with vdW-DF, please also cite:         %
     %                                                                      %
     %   R. Sabatini et al., J. Phys.: Condens. Matter 24, 424209 (2012).   %
     %                                                                      %
     %%%%%%%%%%%%%%%%%%%%%%%%%%%%%%%%%%%%%%%%%%%%%%%%%%%%%%%%%%%%%%%%%%%%%%%%

     %%%%%%%%%%%%%%%%%%%%%%%%%%%%%%%%%%%%%%%%%%%%%%%%%%%%%%%%%%%%%%%%%%%%%%%%
     %                                                                      %
     %  vdW-DF NEWS:                                                        %
     %                                                                      %
     %  * vdW-DF3 is now available. DOI: 10.1021/acs.jctc.0c00471           %
     %    use with input_dft = 'vdW-DF3-opt1' or 'vdW-DF3-opt2'             %
     %                                                                      %
     %  * Unscreened and range-separated hybrid vdW-DF-cx functionals       %
     %    DOI: 10.1063/1.4986522 and 10.1088/1361-648X/ac2ad2               %
     %    use with input_dft = 'vdW-DF-cx0'    and 'vdW-DF-ahcx'            %
     %  * Unscreened and range-separated hybrid vdW-DF2-b86r functionals    %
     %    DOI: 10.1063/1.4986522 and DOI: 10.1103/PhysRevX.12.041003        %
     %    use with input_dft = 'vdW-DF2-br0' and 'vdW-DF2-ahbr'             %
     %                                                                      %
     %%%%%%%%%%%%%%%%%%%%%%%%%%%%%%%%%%%%%%%%%%%%%%%%%%%%%%%%%%%%%%%%%%%%%%%%


     Starting wfcs are  325 randomized atomic wfcs
     Checking if some PAW data can be deallocated... 

     total cpu time spent up to now is       10.7 secs

     per-process dynamical memory:   207.7 Mb

     Self-consistent Calculation

     iteration #  1     ecut=    40.00 Ry     beta= 0.70
     Davidson diagonalization with overlap
     ethr =  1.00E-02,  avg # of iterations =  2.0

     Threshold (ethr) on eigenvalues was too large:
     Diagonalizing with lowered threshold

     Davidson diagonalization with overlap
     ethr =  3.75E-04,  avg # of iterations =  3.7

     negative rho (up, down):  1.772E-02 0.000E+00

     total cpu time spent up to now is       41.6 secs

     total energy              =  -27755.28367491 Ry
     estimated scf accuracy    <       1.55587240 Ry

     iteration #  2     ecut=    40.00 Ry     beta= 0.70
     Davidson diagonalization with overlap
     ethr =  4.31E-04,  avg # of iterations =  2.0

     negative rho (up, down):  1.589E-02 0.000E+00

     total cpu time spent up to now is       53.9 secs

     total energy              =  -27755.38206665 Ry
     estimated scf accuracy    <       0.81291381 Ry

     iteration #  3     ecut=    40.00 Ry     beta= 0.70
     Davidson diagonalization with overlap
     ethr =  2.25E-04,  avg # of iterations =  2.0

     negative rho (up, down):  1.052E-02 0.000E+00

     total cpu time spent up to now is       66.5 secs

     total energy              =  -27755.43395730 Ry
     estimated scf accuracy    <       0.09411288 Ry

     iteration #  4     ecut=    40.00 Ry     beta= 0.70
     Davidson diagonalization with overlap
     c_bands:  2 eigenvalues not converged
     c_bands:  1 eigenvalues not converged
     ethr =  2.61E-05,  avg # of iterations = 14.0

     negative rho (up, down):  7.698E-03 0.000E+00

     total cpu time spent up to now is       97.6 secs

     total energy              =  -27755.48367668 Ry
     estimated scf accuracy    <       0.08359846 Ry

     iteration #  5     ecut=    40.00 Ry     beta= 0.70
     Davidson diagonalization with overlap
     c_bands:  1 eigenvalues not converged
     ethr =  2.32E-05,  avg # of iterations =  4.1

     negative rho (up, down):  3.455E-03 0.000E+00

     total cpu time spent up to now is      111.1 secs

     total energy              =  -27755.48357896 Ry
     estimated scf accuracy    <       0.02996079 Ry

     iteration #  6     ecut=    40.00 Ry     beta= 0.70
     Davidson diagonalization with overlap
     c_bands:  1 eigenvalues not converged
     c_bands:  1 eigenvalues not converged
     ethr =  8.30E-06,  avg # of iterations =  7.2

     negative rho (up, down):  1.658E-03 0.000E+00

     total cpu time spent up to now is      125.8 secs

     total energy              =  -27755.48574024 Ry
     estimated scf accuracy    <       0.00255783 Ry

     iteration #  7     ecut=    40.00 Ry     beta= 0.70
     Davidson diagonalization with overlap
     c_bands:  1 eigenvalues not converged
     ethr =  7.09E-07,  avg # of iterations = 13.3

     negative rho (up, down):  1.269E-03 0.000E+00

     total cpu time spent up to now is      154.0 secs

     total energy              =  -27755.48626517 Ry
     estimated scf accuracy    <       0.00195898 Ry

     iteration #  8     ecut=    40.00 Ry     beta= 0.70
     Davidson diagonalization with overlap
     ethr =  5.43E-07,  avg # of iterations =  1.9

     negative rho (up, down):  1.103E-03 0.000E+00

     total cpu time spent up to now is      166.7 secs

     total energy              =  -27755.48641578 Ry
     estimated scf accuracy    <       0.00021583 Ry

     iteration #  9     ecut=    40.00 Ry     beta= 0.70
     Davidson diagonalization with overlap
     ethr =  5.98E-08,  avg # of iterations =  5.2

     negative rho (up, down):  8.922E-04 0.000E+00

     total cpu time spent up to now is      190.9 secs

     total energy              =  -27755.48653632 Ry
     estimated scf accuracy    <       0.00008701 Ry

     iteration # 10     ecut=    40.00 Ry     beta= 0.70
     Davidson diagonalization with overlap
     c_bands:  1 eigenvalues not converged
     ethr =  2.41E-08,  avg # of iterations =  6.8

     negative rho (up, down):  8.726E-04 0.000E+00

     total cpu time spent up to now is      215.9 secs

     total energy              =  -27755.48655576 Ry
     estimated scf accuracy    <       0.00008690 Ry

     iteration # 11     ecut=    40.00 Ry     beta= 0.70
     Davidson diagonalization with overlap
     ethr =  2.41E-08,  avg # of iterations =  1.2

     negative rho (up, down):  9.555E-04 0.000E+00

     total cpu time spent up to now is      227.4 secs

     total energy              =  -27755.48655971 Ry
     estimated scf accuracy    <       0.00005754 Ry

     iteration # 12     ecut=    40.00 Ry     beta= 0.70
     Davidson diagonalization with overlap
     ethr =  1.59E-08,  avg # of iterations =  1.4

     negative rho (up, down):  1.176E-03 0.000E+00

     total cpu time spent up to now is      239.8 secs

     total energy              =  -27755.48656620 Ry
     estimated scf accuracy    <       0.00001996 Ry

     iteration # 13     ecut=    40.00 Ry     beta= 0.70
     Davidson diagonalization with overlap
     ethr =  5.53E-09,  avg # of iterations =  2.1

     negative rho (up, down):  1.638E-03 0.000E+00

     total cpu time spent up to now is      252.1 secs

     total energy              =  -27755.48657137 Ry
     estimated scf accuracy    <       0.00001199 Ry

     iteration # 14     ecut=    40.00 Ry     beta= 0.70
     Davidson diagonalization with overlap
     ethr =  3.32E-09,  avg # of iterations =  2.0

     negative rho (up, down):  1.972E-03 0.000E+00

     total cpu time spent up to now is      265.9 secs

     total energy              =  -27755.48657473 Ry
     estimated scf accuracy    <       0.00000664 Ry

     iteration # 15     ecut=    40.00 Ry     beta= 0.70
     Davidson diagonalization with overlap
     ethr =  1.84E-09,  avg # of iterations =  2.0

     negative rho (up, down):  2.743E-03 0.000E+00

     total cpu time spent up to now is      278.4 secs

     total energy              =  -27755.48657213 Ry
     estimated scf accuracy    <       0.00000592 Ry

     iteration # 16     ecut=    40.00 Ry     beta= 0.70
     Davidson diagonalization with overlap
     ethr =  1.64E-09,  avg # of iterations =  1.6

     negative rho (up, down):  2.875E-03 0.000E+00

     total cpu time spent up to now is      290.3 secs

     total energy              =  -27755.48657204 Ry
     estimated scf accuracy    <       0.00000088 Ry

     iteration # 17     ecut=    40.00 Ry     beta= 0.70
     Davidson diagonalization with overlap
     ethr =  2.42E-10,  avg # of iterations =  5.3

     negative rho (up, down):  2.959E-03 0.000E+00

     total cpu time spent up to now is      312.7 secs

     total energy              =  -27755.48657205 Ry
     estimated scf accuracy    <       0.00000055 Ry

     iteration # 18     ecut=    40.00 Ry     beta= 0.70
     Davidson diagonalization with overlap
     ethr =  1.53E-10,  avg # of iterations =  2.2

     negative rho (up, down):  3.006E-03 0.000E+00

     total cpu time spent up to now is      327.4 secs

     total energy              =  -27755.48657186 Ry
     estimated scf accuracy    <       0.00000021 Ry

     iteration # 19     ecut=    40.00 Ry     beta= 0.70
     Davidson diagonalization with overlap
     ethr =  5.80E-11,  avg # of iterations =  3.2

     negative rho (up, down):  3.115E-03 0.000E+00

     total cpu time spent up to now is      342.4 secs

     total energy              =  -27755.48657126 Ry
     estimated scf accuracy    <       0.00000008 Ry

     iteration # 20     ecut=    40.00 Ry     beta= 0.70
     Davidson diagonalization with overlap
     ethr =  2.27E-11,  avg # of iterations =  3.9

     negative rho (up, down):  3.153E-03 0.000E+00

     total cpu time spent up to now is      360.6 secs

     total energy              =  -27755.48657106 Ry
     estimated scf accuracy    <       0.00000002 Ry

     iteration # 21     ecut=    40.00 Ry     beta= 0.70
     Davidson diagonalization with overlap
     ethr =  4.70E-12,  avg # of iterations =  4.6

     negative rho (up, down):  3.159E-03 0.000E+00

     total cpu time spent up to now is      381.4 secs

     End of self-consistent calculation

          k = 0.0000 0.0000 0.0000 ( 42913 PWs)   bands (ev):

    -6.3042  -5.1381  -4.3880  -3.8900  -3.8823  -3.8684  -3.8682  -3.8558
    -3.8477  -3.8458  -3.5318  -3.3181  -3.3162  -3.3121  -3.3017  -3.3007
    -3.2221  -2.8543  -2.8503  -2.8475  -2.8388  -2.8364  -2.7392  -2.6315
    -2.6292  -2.6275  -2.6254  -2.6150  -2.5122  -2.4070  -2.4048  -2.4024
    -2.3947  -2.3912  -2.3891  -2.3755  -2.3643  -2.3624  -2.3431  -2.3338
    -1.9771  -1.7855  -1.7848  -1.7580  -1.7431  -1.7205  -1.7082  -1.6958
    -1.6885  -1.6871  -1.5528  -1.5456  -1.5304  -1.4468  -1.4365  -0.9813
    -0.9702  -0.9654  -0.9584  -0.9459  -0.8971  -0.8832  -0.7840  -0.7836
    -0.7829  -0.7698  -0.7621  -0.7620  -0.7508  -0.7294  -0.7186  -0.7176
    -0.7154  -0.7101  -0.6823  -0.6764  -0.6680  -0.5581  -0.5513  -0.5454
    -0.5389  -0.5336  -0.5226  -0.3841  -0.3626  -0.3620  -0.3438  -0.3435
    -0.3345  -0.2976  -0.2848  -0.2266  -0.2080  -0.1918  -0.1691  -0.1255
    -0.1235  -0.0854  -0.0853  -0.0715  -0.0102   0.0679   0.0751   0.0806
     0.0848   0.0929   0.1012   0.3455   0.5521   0.5766   0.5798   0.5845
     0.5859   0.6026   0.6219   0.6336   0.6418   0.6473   0.6648   0.7201
     0.7341   0.7845   0.8646   0.8738   0.8824   0.8848   0.9020   0.9849
     1.0087   1.0468   1.0578   1.0595   1.0686   1.2805   1.2988   1.3073
     1.3220   1.3281   1.3285   1.3790   1.4004   1.5220   1.5422   1.5657
     1.5703   1.5716   1.5732   1.6803   1.7123   1.7277   1.7452   1.7547
     1.7555   1.7574   1.7694   1.7780   1.7836   1.7866   1.7894   1.8546
     1.8867   1.8949   1.8990   1.9176   1.9202   1.9447   1.9455   1.9885
     2.0016   2.0242   2.0272   2.0273   2.0479   2.0637   2.0651   2.1266
     2.1359   2.1379   2.1545   2.1582   2.1587   2.2062   2.2341   2.2465
     2.2569   2.2570   2.2702   2.2743   2.4613   2.4636   2.5583   2.5628
     2.5725   2.5845   2.5895   2.5910   3.1038   3.4136   3.4264   3.4658
     3.4689   3.4818   3.4827   5.3780   5.7151   5.7677   5.7837   5.8115
     5.8163   7.1222   7.3153   7.3824   7.3993   7.4017   7.4041   7.5309
     7.6283

          k = 0.0000 0.2309 0.0000 ( 42996 PWs)   bands (ev):

    -6.1571  -5.0059  -4.4002  -4.2899  -3.9778  -3.9613  -3.7472  -3.6707
    -3.6367  -3.6252  -3.4984  -3.4059  -3.3846  -3.2495  -3.2388  -3.2320
    -3.1295  -2.9426  -2.8179  -2.8088  -2.8017  -2.7869  -2.7259  -2.6980
    -2.6667  -2.6379  -2.6288  -2.5947  -2.5654  -2.5310  -2.5235  -2.4317
    -2.4212  -2.4025  -2.3841  -2.2591  -2.2007  -2.1901  -2.1770  -2.1438
    -1.9880  -1.9047  -1.8989  -1.8487  -1.8209  -1.7990  -1.7843  -1.6978
    -1.6059  -1.5570  -1.5316  -1.5099  -1.4766  -1.4552  -1.4321  -1.2404
    -1.1464  -1.1416  -1.0822  -1.0580  -1.0244  -0.9909  -0.9591  -0.9490
    -0.9293  -0.9200  -0.8628  -0.8550  -0.8032  -0.7737  -0.7630  -0.7379
    -0.6779  -0.6671  -0.6522  -0.5987  -0.5928  -0.5727  -0.5349  -0.4964
    -0.4900  -0.4748  -0.4668  -0.3889  -0.3812  -0.3704  -0.3635  -0.3515
    -0.3107  -0.2868  -0.2635  -0.2292  -0.2058  -0.1983  -0.1796  -0.1591
    -0.1374  -0.1090  -0.0947  -0.0899  -0.0073   0.0459   0.0694   0.0796
     0.0884   0.0936   0.1007   0.1261   0.1604   0.1664   0.1824   0.2002
     0.3870   0.5026   0.5458   0.5786   0.5881   0.6001   0.6087   0.6314
     0.6385   0.7422   0.7981   0.8093   0.8860   0.9389   0.9479   0.9643
     0.9907   1.0137   1.0445   1.0656   1.0799   1.1514   1.1768   1.1900
     1.2016   1.2103   1.2918   1.3932   1.4160   1.4196   1.4323   1.4476
     1.4653   1.5163   1.5513   1.5801   1.5952   1.6071   1.6524   1.6747
     1.6854   1.6961   1.7638   1.7920   1.8075   1.8275   1.8580   1.9316
     1.9595   1.9645   1.9818   1.9924   2.0176   2.0321   2.1016   2.1137
     2.1567   2.1718   2.1780   2.1947   2.2203   2.2268   2.2388   2.2428
     2.2473   2.3070   2.3107   2.4434   2.4604   2.4737   2.4887   2.5046
     2.5084   2.5397   2.5608   2.5778   2.5908   2.6600   2.6969   2.7183
     2.7707   2.8780   2.8889   2.9003   2.9315   3.2658   3.3297   3.8292
     4.0519   4.0783   4.1878   4.9781   5.3647   5.4949   6.1217   6.2125
     6.2320   6.3407   6.5905   6.9865   7.1735   7.3354   7.5228   7.5805
     7.6270

          k = 0.0000 0.4619 0.0000 ( 43046 PWs)   bands (ev):

    -5.7339  -5.0996  -4.6611  -4.1900  -4.0123  -3.9871  -3.7823  -3.6399
    -3.4892  -3.3640  -3.2914  -3.2850  -3.2328  -3.1241  -3.0770  -3.0630
    -3.0578  -3.0319  -2.9110  -2.8992  -2.8830  -2.8504  -2.8399  -2.8177
    -2.7317  -2.7159  -2.7106  -2.6806  -2.4533  -2.4491  -2.4405  -2.4362
    -2.4252  -2.3437  -2.2036  -2.1926  -2.1696  -2.1515  -2.1367  -2.0549
    -1.9415  -1.8695  -1.8634  -1.8412  -1.8064  -1.7886  -1.7436  -1.7238
    -1.7066  -1.6775  -1.6450  -1.5842  -1.4991  -1.4929  -1.4604  -1.3973
    -1.3463  -1.3180  -1.2818  -1.2667  -1.2300  -1.1224  -1.0612  -1.0549
    -1.0413  -1.0165  -0.9528  -0.9397  -0.8953  -0.8115  -0.8064  -0.7981
    -0.7449  -0.6851  -0.6797  -0.6651  -0.6568  -0.6246  -0.5885  -0.5765
    -0.5590  -0.5504  -0.5402  -0.5379  -0.5280  -0.4987  -0.4484  -0.4022
    -0.3955  -0.3779  -0.3679  -0.3599  -0.3238  -0.2374  -0.2104  -0.1795
    -0.1458  -0.1356  -0.1108  -0.0900  -0.0583  -0.0523   0.0285   0.0704
     0.0882   0.1115   0.1449   0.1764   0.2166   0.3192   0.3416   0.4107
     0.4320   0.4732   0.4927   0.5267   0.5302   0.5378   0.5399   0.5938
     0.6237   0.6474   0.6519   0.6636   0.6833   0.7043   0.7148   0.7416
     0.7486   0.8659   0.8853   0.8983   0.9573   0.9816   1.0706   1.0810
     1.1616   1.1909   1.2317   1.2845   1.3489   1.3650   1.4110   1.4188
     1.4492   1.4672   1.4901   1.5161   1.5621   1.5703   1.6159   1.6562
     1.6773   1.7124   1.7331   1.7410   1.7547   1.7951   1.8816   1.9281
     1.9896   2.0073   2.0233   2.0325   2.0725   2.1277   2.1409   2.1932
     2.2123   2.2338   2.2406   2.2892   2.3173   2.3373   2.3431   2.4500
     2.4617   2.4748   2.4895   2.4953   2.4997   2.5183   2.5226   2.7019
     2.7215   2.7319   2.7441   2.7476   2.9071   2.9573   3.1704   3.3359
     3.3828   3.5740   3.7761   3.7899   4.0719   4.1732   4.2822   4.4797
     4.7624   4.9987   5.0058   5.0910   5.2171   5.2604   5.3442   5.3904
     5.6064   5.6565   6.1888   6.2857   6.6936   6.8248   7.1472   7.3056
     7.6994

          k = 0.2000-0.1155 0.0000 ( 42996 PWs)   bands (ev):

    -6.1571  -5.0059  -4.4002  -4.2899  -3.9778  -3.9613  -3.7472  -3.6707
    -3.6367  -3.6252  -3.4984  -3.4059  -3.3846  -3.2495  -3.2388  -3.2320
    -3.1295  -2.9426  -2.8179  -2.8089  -2.8017  -2.7870  -2.7259  -2.6980
    -2.6667  -2.6379  -2.6288  -2.5947  -2.5654  -2.5310  -2.5235  -2.4317
    -2.4212  -2.4025  -2.3841  -2.2591  -2.2007  -2.1900  -2.1770  -2.1438
    -1.9880  -1.9047  -1.8989  -1.8487  -1.8209  -1.7990  -1.7843  -1.6978
    -1.6059  -1.5570  -1.5316  -1.5099  -1.4766  -1.4552  -1.4321  -1.2404
    -1.1464  -1.1416  -1.0822  -1.0579  -1.0244  -0.9908  -0.9591  -0.9490
    -0.9293  -0.9201  -0.8628  -0.8550  -0.8032  -0.7736  -0.7629  -0.7379
    -0.6779  -0.6672  -0.6523  -0.5987  -0.5928  -0.5727  -0.5349  -0.4964
    -0.4900  -0.4747  -0.4668  -0.3889  -0.3812  -0.3704  -0.3635  -0.3515
    -0.3106  -0.2868  -0.2635  -0.2293  -0.2058  -0.1982  -0.1796  -0.1591
    -0.1375  -0.1090  -0.0947  -0.0899  -0.0073   0.0459   0.0695   0.0796
     0.0884   0.0935   0.1007   0.1261   0.1604   0.1664   0.1824   0.2002
     0.3871   0.5026   0.5458   0.5786   0.5881   0.6001   0.6087   0.6314
     0.6385   0.7421   0.7981   0.8093   0.8860   0.9389   0.9479   0.9643
     0.9907   1.0137   1.0445   1.0656   1.0799   1.1514   1.1768   1.1900
     1.2016   1.2103   1.2917   1.3931   1.4160   1.4196   1.4323   1.4476
     1.4653   1.5163   1.5513   1.5801   1.5952   1.6071   1.6524   1.6747
     1.6854   1.6961   1.7638   1.7920   1.8075   1.8276   1.8580   1.9315
     1.9595   1.9646   1.9818   1.9924   2.0176   2.0321   2.1016   2.1137
     2.1567   2.1718   2.1780   2.1947   2.2203   2.2268   2.2388   2.2428
     2.2473   2.3070   2.3107   2.4434   2.4604   2.4737   2.4887   2.5047
     2.5085   2.5397   2.5608   2.5779   2.5908   2.6600   2.6969   2.7183
     2.7707   2.8780   2.8889   2.9003   2.9315   3.2658   3.3297   3.8292
     4.0519   4.0782   4.1878   4.9781   5.3647   5.4950   6.1217   6.2125
     6.2320   6.3407   6.5905   6.9865   7.1735   7.3354   7.5228   7.5805
     7.6270

          k = 0.2000 0.1155 0.0000 ( 42996 PWs)   bands (ev):

    -6.1583  -5.0171  -4.4524  -4.2343  -3.9800  -3.9729  -3.7477  -3.6773
    -3.6257  -3.6249  -3.5469  -3.4026  -3.2804  -3.2518  -3.2377  -3.2352
    -3.1996  -2.9386  -2.8145  -2.8141  -2.7982  -2.7324  -2.7248  -2.6851
    -2.6659  -2.6577  -2.6409  -2.6301  -2.5286  -2.5257  -2.4942  -2.4265
    -2.4200  -2.3867  -2.3806  -2.2265  -2.1987  -2.1857  -2.1833  -2.1657
    -1.9684  -1.9015  -1.8988  -1.8532  -1.8203  -1.8170  -1.7869  -1.7167
    -1.6088  -1.5669  -1.5310  -1.5232  -1.4680  -1.4463  -1.4133  -1.2360
    -1.1432  -1.1399  -1.0737  -1.0607  -1.0274  -0.9846  -0.9728  -0.9498
    -0.9307  -0.9168  -0.8922  -0.8487  -0.7863  -0.7771  -0.7629  -0.7518
    -0.6856  -0.6775  -0.6668  -0.5987  -0.5829  -0.5739  -0.5354  -0.4807
    -0.4803  -0.4741  -0.4680  -0.3890  -0.3868  -0.3651  -0.3535  -0.3523
    -0.2965  -0.2950  -0.2625  -0.2404  -0.2062  -0.1970  -0.1915  -0.1536
    -0.1525  -0.1143  -0.0993  -0.0912  -0.0086   0.0533   0.0582   0.0627
     0.0775   0.0888   0.1082   0.1103   0.1492   0.1727   0.1737   0.1903
     0.4165   0.5002   0.5368   0.5648   0.5923   0.6043   0.6069   0.6329
     0.6508   0.6852   0.7787   0.8052   0.8890   0.9342   0.9470   0.9745
     0.9803   0.9989   1.0421   1.0658   1.0665   1.1632   1.1848   1.1936
     1.2066   1.2139   1.3773   1.3852   1.4139   1.4141   1.4245   1.4473
     1.4691   1.5280   1.5378   1.5581   1.5993   1.6013   1.6584   1.6680
     1.6835   1.6866   1.7634   1.7830   1.8160   1.8304   1.8810   1.9185
     1.9269   1.9626   1.9758   1.9809   2.0224   2.0370   2.0989   2.1125
     2.1642   2.1689   2.1836   2.2145   2.2153   2.2331   2.2377   2.2437
     2.2471   2.3029   2.3087   2.4483   2.4577   2.4684   2.5003   2.5125
     2.5164   2.5430   2.5790   2.5816   2.5934   2.6800   2.6921   2.7171
     2.7731   2.8828   2.8854   2.8958   2.9356   3.2844   3.3185   3.8425
     4.0339   4.0755   4.1972   4.9347   5.4478   5.4923   6.0790   6.2147
     6.2652   6.3282   6.5291   6.9723   7.1771   7.3211   7.5573   7.5864
     7.6277

          k = 0.2000 0.3464 0.0000 ( 43046 PWs)   bands (ev):

    -5.8736  -4.8243  -4.6298  -4.6162  -4.1548  -3.5508  -3.5477  -3.5395
    -3.5198  -3.4814  -3.4793  -3.4635  -3.3679  -3.3550  -3.1642  -2.9830
    -2.9750  -2.9622  -2.9570  -2.8926  -2.8717  -2.7380  -2.7219  -2.7157
    -2.7076  -2.6295  -2.6129  -2.5699  -2.5618  -2.5512  -2.4893  -2.4777
    -2.4537  -2.4026  -2.3939  -2.3145  -2.1247  -2.0493  -1.9697  -1.9608
    -1.9379  -1.9165  -1.9067  -1.8988  -1.8431  -1.8241  -1.7719  -1.6788
    -1.6725  -1.6248  -1.5703  -1.5427  -1.4932  -1.4858  -1.4471  -1.3946
    -1.3724  -1.2350  -1.2085  -1.1965  -1.1251  -1.1068  -1.0894  -1.0825
    -1.0606  -1.0127  -0.9830  -0.8685  -0.8497  -0.8340  -0.8267  -0.7839
    -0.7656  -0.7230  -0.7066  -0.6864  -0.6478  -0.5652  -0.5492  -0.5315
    -0.5180  -0.5120  -0.5035  -0.4790  -0.4571  -0.4396  -0.4051  -0.3880
    -0.3576  -0.3457  -0.2733  -0.2663  -0.2317  -0.2056  -0.1779  -0.1679
    -0.1483  -0.1221  -0.1075  -0.1004  -0.0962  -0.0786  -0.0684  -0.0538
    -0.0128   0.0030   0.0828   0.1051   0.1519   0.2089   0.2294   0.2328
     0.2512   0.4209   0.4390   0.4576   0.5632   0.5750   0.6115   0.6183
     0.6463   0.6514   0.6876   0.6954   0.7262   0.7385   0.7593   0.8263
     0.9290   0.9560   1.0017   1.0099   1.0445   1.0580   1.0829   1.1337
     1.1906   1.2360   1.2538   1.2982   1.3166   1.3583   1.3926   1.4397
     1.4533   1.4697   1.5227   1.5323   1.5481   1.5619   1.5716   1.5796
     1.5961   1.6026   1.6178   1.7027   1.7675   1.8057   1.9206   1.9433
     1.9656   2.0923   2.1046   2.1209   2.1285   2.1942   2.2317   2.2524
     2.2592   2.2780   2.3019   2.3152   2.3267   2.3330   2.3459   2.3860
     2.3988   2.4177   2.4859   2.5112   2.5207   2.5460   2.5546   2.6003
     2.7165   2.7487   2.7876   2.8061   2.8580   2.8690   2.8762   2.9720
     3.0199   3.3454   3.5393   3.5479   3.9515   4.0849   4.0947   4.1031
     4.5675   4.7915   4.8149   4.9952   5.0165   5.0617   5.6632   6.0838
     6.2080   6.2233   6.3978   6.6346   6.9278   6.9889   7.0017   7.0267
     7.0512

          k = 0.2000-0.5774 0.0000 ( 43014 PWs)   bands (ev):

    -5.3514  -5.3224  -4.7558  -4.4677  -4.0849  -3.8452  -3.5435  -3.4839
    -3.4047  -3.3717  -3.2635  -3.2542  -3.1567  -3.1514  -3.0554  -3.0324
    -3.0242  -2.9965  -2.9938  -2.9771  -2.8629  -2.8273  -2.8218  -2.7949
    -2.7766  -2.7587  -2.7087  -2.6228  -2.5661  -2.4697  -2.4297  -2.4259
    -2.4039  -2.3877  -2.3471  -2.2934  -2.1853  -2.1701  -2.1052  -1.9950
    -1.9831  -1.9133  -1.8468  -1.8268  -1.7898  -1.7401  -1.6628  -1.6191
    -1.5869  -1.5701  -1.5553  -1.5142  -1.5065  -1.4671  -1.3854  -1.3704
    -1.3496  -1.3443  -1.3356  -1.3296  -1.2750  -1.2601  -1.2385  -1.1360
    -1.1025  -1.0658  -1.0420  -0.9536  -0.9209  -0.9044  -0.8751  -0.8498
    -0.8220  -0.8007  -0.7443  -0.7347  -0.7137  -0.6968  -0.6605  -0.6091
    -0.5986  -0.5596  -0.5123  -0.4887  -0.4818  -0.4726  -0.4026  -0.3424
    -0.3100  -0.2912  -0.2782  -0.2473  -0.2270  -0.2200  -0.2133  -0.1803
    -0.1653  -0.1470  -0.1353  -0.1048  -0.0815  -0.0711  -0.0602  -0.0566
    -0.0486  -0.0338   0.0105   0.0293   0.0513   0.2159   0.2673   0.3366
     0.3513   0.3824   0.4512   0.4741   0.4865   0.5066   0.5513   0.5648
     0.5713   0.5793   0.6412   0.6818   0.7071   0.7220   0.7729   0.7819
     0.8423   0.8545   0.9032   1.0372   1.0500   1.0987   1.1168   1.1368
     1.1766   1.2094   1.2344   1.2513   1.2620   1.2757   1.2958   1.3054
     1.3979   1.4210   1.4345   1.4619   1.4919   1.5130   1.5336   1.5474
     1.5529   1.6873   1.7215   1.7742   1.8420   1.8617   1.9439   1.9584
     1.9965   2.0628   2.0789   2.0896   2.1702   2.1796   2.2563   2.2763
     2.3031   2.3082   2.3145   2.3427   2.3583   2.3969   2.4654   2.4717
     2.4929   2.5081   2.5200   2.5252   2.5335   2.6005   2.6994   2.7314
     2.7363   2.7455   2.7504   2.8107   2.8462   2.9341   3.0539   3.7394
     3.8987   3.9128   4.0877   4.1544   4.2254   4.2841   4.2925   4.6266
     4.8763   4.9065   5.1006   5.3579   5.3746   5.4652   5.5004   5.6518
     5.7686   5.8417   5.8899   6.1577   6.3006   6.3346   6.7659   6.9678
     6.9934

          k = 0.2000-0.3464 0.0000 ( 43046 PWs)   bands (ev):

    -5.8703  -4.7873  -4.6353  -4.6138  -4.1476  -3.5492  -3.5429  -3.5407
    -3.5290  -3.4919  -3.4807  -3.4567  -3.3653  -3.3560  -3.1997  -2.9696
    -2.9674  -2.9599  -2.9402  -2.8916  -2.8664  -2.7367  -2.7251  -2.7174
    -2.7059  -2.6842  -2.6145  -2.5771  -2.5600  -2.5480  -2.5249  -2.4812
    -2.4537  -2.4200  -2.4011  -2.3107  -2.2601  -2.0546  -1.9680  -1.9648
    -1.9255  -1.9163  -1.9004  -1.8942  -1.8412  -1.8161  -1.7741  -1.6770
    -1.6660  -1.5961  -1.5583  -1.5100  -1.4945  -1.4885  -1.4388  -1.3960
    -1.3913  -1.2212  -1.2140  -1.2002  -1.1292  -1.1090  -1.0904  -1.0749
    -1.0473  -1.0074  -1.0018  -0.8542  -0.8357  -0.8313  -0.8225  -0.7858
    -0.7682  -0.7222  -0.6954  -0.6860  -0.6390  -0.5741  -0.5472  -0.5358
    -0.5203  -0.5090  -0.5014  -0.4689  -0.4481  -0.4354  -0.3889  -0.3738
    -0.3541  -0.3130  -0.2689  -0.2502  -0.2366  -0.2032  -0.1795  -0.1674
    -0.1541  -0.1144  -0.1034  -0.0906  -0.0851  -0.0734  -0.0676  -0.0651
    -0.0303   0.0149   0.0939   0.1362   0.1496   0.1795   0.2298   0.2398
     0.2540   0.4227   0.4363   0.5060   0.5693   0.5773   0.6029   0.6128
     0.6295   0.6509   0.6730   0.7018   0.7258   0.7400   0.7671   0.8233
     0.8770   0.9612   1.0042   1.0083   1.0354   1.0671   1.1044   1.1327
     1.1913   1.2244   1.2405   1.2657   1.3252   1.3406   1.3947   1.4513
     1.4669   1.4785   1.5117   1.5233   1.5531   1.5586   1.5703   1.5868
     1.5976   1.6010   1.6237   1.7207   1.7791   1.8123   1.9256   1.9367
     1.9648   2.0673   2.1200   2.1243   2.1264   2.2120   2.2226   2.2494
     2.2653   2.2829   2.3012   2.3132   2.3308   2.3359   2.3479   2.3865
     2.4053   2.4103   2.4860   2.5137   2.5178   2.5446   2.5567   2.6007
     2.7234   2.7612   2.7888   2.7939   2.8578   2.8702   2.8795   2.9995
     3.0204   3.2953   3.5083   3.5600   3.8947   4.0849   4.0943   4.1096
     4.5807   4.7995   4.8085   4.9597   5.0085   5.0675   5.6351   6.0479
     6.2050   6.2469   6.4474   6.7006   6.9376   6.9818   7.0108   7.0222
     7.0511

          k = 0.4000-0.2309 0.0000 ( 43046 PWs)   bands (ev):

    -5.7339  -5.0996  -4.6611  -4.1900  -4.0123  -3.9871  -3.7823  -3.6399
    -3.4891  -3.3640  -3.2914  -3.2850  -3.2328  -3.1241  -3.0770  -3.0630
    -3.0578  -3.0320  -2.9110  -2.8992  -2.8830  -2.8504  -2.8399  -2.8177
    -2.7317  -2.7159  -2.7106  -2.6807  -2.4533  -2.4491  -2.4405  -2.4362
    -2.4252  -2.3437  -2.2036  -2.1926  -2.1696  -2.1515  -2.1367  -2.0549
    -1.9415  -1.8695  -1.8634  -1.8412  -1.8064  -1.7886  -1.7436  -1.7238
    -1.7066  -1.6775  -1.6450  -1.5842  -1.4991  -1.4929  -1.4603  -1.3973
    -1.3463  -1.3179  -1.2818  -1.2667  -1.2300  -1.1224  -1.0612  -1.0549
    -1.0413  -1.0165  -0.9528  -0.9397  -0.8953  -0.8116  -0.8064  -0.7981
    -0.7449  -0.6851  -0.6797  -0.6651  -0.6568  -0.6246  -0.5885  -0.5765
    -0.5590  -0.5504  -0.5402  -0.5379  -0.5280  -0.4987  -0.4484  -0.4021
    -0.3955  -0.3779  -0.3679  -0.3599  -0.3238  -0.2374  -0.2104  -0.1795
    -0.1458  -0.1357  -0.1108  -0.0901  -0.0584  -0.0524   0.0285   0.0704
     0.0882   0.1115   0.1449   0.1763   0.2166   0.3192   0.3417   0.4107
     0.4320   0.4731   0.4927   0.5267   0.5302   0.5378   0.5400   0.5939
     0.6237   0.6474   0.6519   0.6636   0.6833   0.7042   0.7147   0.7416
     0.7487   0.8659   0.8853   0.8983   0.9573   0.9816   1.0706   1.0809
     1.1616   1.1909   1.2317   1.2845   1.3489   1.3650   1.4110   1.4188
     1.4492   1.4672   1.4901   1.5161   1.5621   1.5703   1.6159   1.6563
     1.6774   1.7124   1.7331   1.7410   1.7547   1.7950   1.8816   1.9281
     1.9896   2.0073   2.0233   2.0325   2.0725   2.1277   2.1409   2.1931
     2.2123   2.2338   2.2406   2.2892   2.3172   2.3373   2.3431   2.4500
     2.4617   2.4748   2.4896   2.4954   2.4997   2.5183   2.5226   2.7019
     2.7216   2.7319   2.7441   2.7477   2.9071   2.9573   3.1704   3.3360
     3.3828   3.5740   3.7761   3.7899   4.0719   4.1732   4.2822   4.4797
     4.7625   4.9987   5.0058   5.0910   5.2170   5.2604   5.3442   5.3905
     5.6064   5.6566   6.1888   6.2858   6.6936   6.8248   7.1471   7.3056
     7.6994

          k = 0.4000-0.0000 0.0000 ( 43046 PWs)   bands (ev):

    -5.8736  -4.8243  -4.6298  -4.6162  -4.1548  -3.5508  -3.5477  -3.5395
    -3.5198  -3.4814  -3.4793  -3.4635  -3.3679  -3.3550  -3.1642  -2.9830
    -2.9750  -2.9622  -2.9570  -2.8926  -2.8717  -2.7379  -2.7219  -2.7157
    -2.7076  -2.6295  -2.6129  -2.5698  -2.5618  -2.5512  -2.4893  -2.4777
    -2.4537  -2.4025  -2.3939  -2.3145  -2.1247  -2.0493  -1.9697  -1.9608
    -1.9379  -1.9165  -1.9067  -1.8988  -1.8431  -1.8241  -1.7718  -1.6788
    -1.6725  -1.6248  -1.5703  -1.5427  -1.4932  -1.4858  -1.4471  -1.3946
    -1.3724  -1.2350  -1.2085  -1.1965  -1.1250  -1.1068  -1.0894  -1.0825
    -1.0606  -1.0127  -0.9830  -0.8684  -0.8497  -0.8341  -0.8268  -0.7839
    -0.7656  -0.7230  -0.7066  -0.6864  -0.6478  -0.5652  -0.5492  -0.5315
    -0.5180  -0.5120  -0.5035  -0.4791  -0.4571  -0.4396  -0.4051  -0.3881
    -0.3576  -0.3457  -0.2733  -0.2663  -0.2318  -0.2056  -0.1779  -0.1679
    -0.1483  -0.1222  -0.1075  -0.1004  -0.0962  -0.0786  -0.0683  -0.0538
    -0.0128   0.0030   0.0828   0.1051   0.1519   0.2089   0.2294   0.2328
     0.2512   0.4209   0.4390   0.4576   0.5632   0.5750   0.6115   0.6183
     0.6463   0.6514   0.6876   0.6954   0.7262   0.7385   0.7593   0.8264
     0.9289   0.9559   1.0017   1.0099   1.0445   1.0580   1.0829   1.1337
     1.1906   1.2360   1.2538   1.2982   1.3166   1.3583   1.3926   1.4397
     1.4533   1.4697   1.5227   1.5323   1.5481   1.5619   1.5716   1.5796
     1.5961   1.6026   1.6178   1.7027   1.7675   1.8058   1.9206   1.9433
     1.9656   2.0923   2.1046   2.1209   2.1285   2.1942   2.2317   2.2524
     2.2592   2.2780   2.3019   2.3152   2.3267   2.3330   2.3459   2.3860
     2.3988   2.4177   2.4859   2.5112   2.5206   2.5460   2.5546   2.6003
     2.7166   2.7488   2.7876   2.8061   2.8580   2.8690   2.8762   2.9720
     3.0199   3.3453   3.5393   3.5479   3.9515   4.0849   4.0947   4.1031
     4.5676   4.7915   4.8149   4.9952   5.0165   5.0617   5.6632   6.0838
     6.2080   6.2233   6.3978   6.6346   6.9278   6.9889   7.0016   7.0267
     7.0512

          k = 0.4000 0.2309 0.0000 ( 43046 PWs)   bands (ev):

    -5.7395  -5.1210  -4.6937  -4.1893  -4.0149  -4.0070  -3.7700  -3.6197
    -3.4885  -3.3630  -3.2846  -3.2830  -3.2090  -3.1192  -3.1049  -3.0683
    -3.0644  -3.0522  -2.9153  -2.8999  -2.8953  -2.8532  -2.8449  -2.7991
    -2.7367  -2.7116  -2.7109  -2.4607  -2.4521  -2.4442  -2.4435  -2.4252
    -2.4247  -2.2486  -2.2006  -2.1739  -2.1690  -2.1420  -2.1385  -2.0524
    -1.9531  -1.8706  -1.8592  -1.8466  -1.8383  -1.7861  -1.7723  -1.7130
    -1.7109  -1.6737  -1.6408  -1.6219  -1.5018  -1.4833  -1.4606  -1.4350
    -1.3385  -1.3081  -1.2707  -1.2668  -1.2250  -1.1200  -1.0649  -1.0498
    -1.0490  -1.0220  -0.9542  -0.9411  -0.9222  -0.8257  -0.8174  -0.8108
    -0.7724  -0.6898  -0.6834  -0.6597  -0.6582  -0.6361  -0.5994  -0.5647
    -0.5627  -0.5495  -0.5444  -0.5406  -0.5252  -0.4926  -0.4399  -0.3974
    -0.3883  -0.3869  -0.3701  -0.3437  -0.3294  -0.2889  -0.2188  -0.1876
    -0.1623  -0.1293  -0.1025  -0.0923  -0.0856  -0.0731   0.0253   0.0596
     0.0878   0.0882   0.1536   0.1599   0.1831   0.3165   0.3577   0.3779
     0.4205   0.4664   0.5085   0.5190   0.5372   0.5453   0.5541   0.5709
     0.6179   0.6490   0.6490   0.6729   0.6753   0.7007   0.7179   0.7457
     0.7736   0.8550   0.8698   0.8881   0.9640   1.0037   1.0776   1.0844
     1.1752   1.1964   1.2366   1.2991   1.3384   1.3704   1.3781   1.4181
     1.4589   1.4602   1.4992   1.5173   1.5580   1.5723   1.6041   1.6650
     1.6666   1.7067   1.7260   1.7406   1.7500   1.8035   1.8766   1.9075
     1.9522   2.0036   2.0084   2.0352   2.0880   2.1237   2.1359   2.2061
     2.2170   2.2334   2.2358   2.3071   2.3147   2.3308   2.3417   2.4483
     2.4630   2.4806   2.4826   2.4957   2.5042   2.5253   2.5300   2.7034
     2.7324   2.7398   2.7463   2.7487   2.9130   2.9582   3.2396   3.3281
     3.3983   3.5427   3.7844   3.7865   4.0932   4.1760   4.2732   4.5219
     4.8251   5.0036   5.0053   5.0662   5.2137   5.2384   5.3862   5.3974
     5.6003   5.6600   6.1499   6.3018   6.6588   6.8104   7.2112   7.2827
     7.7519

          k = 0.4000-0.6928 0.0000 ( 43014 PWs)   bands (ev):

    -5.3635  -5.3279  -4.7321  -4.5327  -4.0827  -3.8014  -3.5562  -3.4900
    -3.4020  -3.3748  -3.2676  -3.2583  -3.1603  -3.1516  -3.0588  -3.0341
    -3.0179  -2.9991  -2.9915  -2.9747  -2.8497  -2.8281  -2.8156  -2.8041
    -2.7834  -2.7784  -2.6666  -2.5769  -2.5473  -2.4354  -2.4218  -2.4172
    -2.4036  -2.3753  -2.3101  -2.2817  -2.1851  -2.1796  -2.0854  -1.9924
    -1.9874  -1.9394  -1.8430  -1.8061  -1.7828  -1.7708  -1.6691  -1.6230
    -1.5984  -1.5696  -1.5556  -1.5088  -1.4900  -1.4546  -1.3850  -1.3826
    -1.3621  -1.3416  -1.3317  -1.3249  -1.2986  -1.2556  -1.2164  -1.1413
    -1.1212  -1.0750  -1.0342  -0.9703  -0.9113  -0.9044  -0.9024  -0.8477
    -0.8335  -0.8196  -0.7614  -0.7269  -0.7200  -0.6963  -0.6611  -0.6267
    -0.5836  -0.5652  -0.5306  -0.4822  -0.4801  -0.4676  -0.4164  -0.3555
    -0.3099  -0.2994  -0.2772  -0.2715  -0.2255  -0.2198  -0.2051  -0.1933
    -0.1791  -0.1656  -0.1356  -0.1017  -0.0785  -0.0767  -0.0654  -0.0587
    -0.0448  -0.0371  -0.0124   0.0371   0.0463   0.2317   0.2536   0.3420
     0.3603   0.4068   0.4556   0.4736   0.4926   0.5128   0.5523   0.5697
     0.5830   0.5875   0.6379   0.6944   0.7047   0.7465   0.7692   0.7753
     0.8368   0.8496   0.8763   0.9581   1.0551   1.1064   1.1118   1.1453
     1.1865   1.2124   1.2316   1.2429   1.2662   1.2689   1.2973   1.3074
     1.3959   1.4359   1.4432   1.4704   1.4840   1.5037   1.5277   1.5350
     1.5481   1.7030   1.7367   1.7715   1.8117   1.8769   1.9489   1.9613
     2.0360   2.0534   2.0753   2.0934   2.1538   2.1931   2.2549   2.2795
     2.2861   2.3020   2.3135   2.3322   2.3642   2.3974   2.4667   2.4733
     2.4905   2.5021   2.5215   2.5270   2.5341   2.5998   2.7130   2.7327
     2.7436   2.7461   2.7494   2.8080   2.8504   2.9217   3.0131   3.7828
     3.8967   3.9114   4.1024   4.1474   4.2685   4.2826   4.2943   4.6478
     4.8540   4.9138   5.1607   5.3502   5.3852   5.4341   5.5105   5.7168
     5.7408   5.8104   5.9053   6.1473   6.2557   6.3489   6.7894   6.9383
     6.9890

          k = 0.4000-0.4619 0.0000 ( 43014 PWs)   bands (ev):

    -5.3514  -5.3224  -4.7558  -4.4677  -4.0849  -3.8452  -3.5436  -3.4839
    -3.4047  -3.3717  -3.2635  -3.2542  -3.1567  -3.1514  -3.0554  -3.0324
    -3.0241  -2.9965  -2.9938  -2.9771  -2.8629  -2.8273  -2.8218  -2.7949
    -2.7767  -2.7587  -2.7087  -2.6228  -2.5661  -2.4696  -2.4297  -2.4259
    -2.4038  -2.3877  -2.3471  -2.2934  -2.1853  -2.1701  -2.1052  -1.9951
    -1.9831  -1.9133  -1.8468  -1.8268  -1.7898  -1.7401  -1.6629  -1.6191
    -1.5869  -1.5701  -1.5553  -1.5141  -1.5065  -1.4671  -1.3853  -1.3704
    -1.3496  -1.3442  -1.3356  -1.3296  -1.2750  -1.2601  -1.2385  -1.1360
    -1.1025  -1.0658  -1.0420  -0.9536  -0.9208  -0.9045  -0.8751  -0.8498
    -0.8221  -0.8007  -0.7443  -0.7347  -0.7137  -0.6968  -0.6605  -0.6092
    -0.5985  -0.5595  -0.5123  -0.4887  -0.4818  -0.4726  -0.4026  -0.3424
    -0.3101  -0.2912  -0.2781  -0.2473  -0.2270  -0.2200  -0.2133  -0.1804
    -0.1653  -0.1470  -0.1353  -0.1047  -0.0815  -0.0711  -0.0602  -0.0567
    -0.0486  -0.0338   0.0105   0.0293   0.0513   0.2159   0.2673   0.3366
     0.3513   0.3824   0.4512   0.4741   0.4865   0.5067   0.5513   0.5648
     0.5713   0.5793   0.6412   0.6818   0.7071   0.7219   0.7729   0.7819
     0.8423   0.8545   0.9031   1.0372   1.0500   1.0987   1.1168   1.1368
     1.1765   1.2094   1.2344   1.2512   1.2620   1.2757   1.2958   1.3054
     1.3979   1.4210   1.4345   1.4619   1.4919   1.5130   1.5336   1.5474
     1.5529   1.6873   1.7214   1.7742   1.8420   1.8617   1.9439   1.9585
     1.9965   2.0628   2.0789   2.0896   2.1702   2.1796   2.2563   2.2763
     2.3031   2.3081   2.3145   2.3427   2.3583   2.3969   2.4654   2.4717
     2.4928   2.5080   2.5200   2.5252   2.5335   2.6005   2.6994   2.7314
     2.7363   2.7455   2.7505   2.8107   2.8462   2.9341   3.0539   3.7394
     3.8987   3.9128   4.0877   4.1544   4.2254   4.2841   4.2925   4.6267
     4.8763   4.9065   5.1006   5.3579   5.3746   5.4652   5.5004   5.6519
     5.7685   5.8417   5.8899   6.1577   6.3005   6.3346   6.7660   6.9678
     6.9932

     the Fermi energy is     2.5134 ev

!    total energy              =  -27755.48657103 Ry
     total all-electron energy =  -1326642.251988 Ry
     estimated scf accuracy    <          3.0E-09 Ry
     smearing contrib. (-TS)   =       0.00317687 Ry
     internal energy E=F+TS    =  -27755.48974790 Ry

     The total energy is F=E-TS. E is the sum of the following terms:
     one-electron contribution =  -20675.80387145 Ry
     hartree contribution      =   10645.03867724 Ry
     xc contribution           =    -890.71113552 Ry
     ewald contribution        =    8639.96610500 Ry
     one-center paw contrib.   =  -25473.97952318 Ry

     convergence has been achieved in  21 iterations

     negative rho (up, down):  3.159E-03 0.000E+00

     Forces acting on atoms (cartesian axes, Ry/au):

     atom    1 type  1   force =    -0.00023305   -0.00013649   -0.00327781
     atom    2 type  1   force =     0.00011361   -0.00008475   -0.00320492
     atom    3 type  1   force =    -0.00026363    0.00081235   -0.00390747
     atom    4 type  1   force =    -0.00001427    0.00013887   -0.00320454
     atom    5 type  1   force =    -0.00026311   -0.00015332   -0.00361162
     atom    6 type  1   force =    -0.00028980   -0.00023545   -0.00366098
     atom    7 type  1   force =     0.00057249   -0.00063608   -0.00390806
     atom    8 type  1   force =    -0.00034719   -0.00013351   -0.00366254
     atom    9 type  1   force =     0.00010211    0.00005880   -0.00305769
     atom   10 type  1   force =     0.00037378    0.00022000    0.00638551
     atom   11 type  1   force =    -0.00014957   -0.00107603    0.00453636
     atom   12 type  1   force =     0.00024793   -0.00003282    0.00165429
     atom   13 type  1   force =    -0.00101325    0.00041057    0.00453592
     atom   14 type  1   force =     0.00010736    0.00006112    0.00237095
     atom   15 type  1   force =     0.00128474    0.00031234    0.00520996
     atom   16 type  1   force =     0.00009323    0.00023768    0.00165272
     atom   17 type  1   force =     0.00091289    0.00095936    0.00520612
     atom   18 type  1   force =    -0.00006735   -0.00003844    0.00031454
     atom   19 type  1   force =    -0.00003372    0.00000960    0.00003662
     atom   20 type  1   force =     0.00000111    0.00000175   -0.00005639
     atom   21 type  1   force =    -0.00001435    0.00003230    0.00003631
     atom   22 type  1   force =     0.00001442    0.00006691    0.00010776
     atom   23 type  1   force =     0.00002497   -0.00002167    0.00005236
     atom   24 type  1   force =    -0.00000295   -0.00000231    0.00020178
     atom   25 type  1   force =     0.00004441    0.00002071    0.00011192
     atom   26 type  1   force =    -0.00002026   -0.00003945    0.00004730
     atom   27 type  1   force =     0.00005872   -0.00002373    0.00011381
     atom   28 type  1   force =    -0.00008073   -0.00004032   -0.00010394
     atom   29 type  1   force =     0.00004366   -0.00009758   -0.00013571
     atom   30 type  1   force =    -0.00002348    0.00008811   -0.00012408
     atom   31 type  1   force =    -0.00005398    0.00008101   -0.00013688
     atom   32 type  1   force =     0.00008147    0.00004146   -0.00012858
     atom   33 type  1   force =     0.00001150   -0.00011741   -0.00015269
     atom   34 type  1   force =     0.00004997   -0.00007193   -0.00013389
     atom   35 type  1   force =    -0.00008079    0.00007136   -0.00016736
     atom   36 type  1   force =     0.00003458    0.00002153   -0.00006140
     atom   37 type  2   force =    -0.00122145   -0.00070457    0.00012232
     The non-local contrib.  to forces
     atom    1 type  1   force =    -0.00029390   -0.00016909   -0.01773456
     atom    2 type  1   force =    -0.00052966    0.00061463   -0.01836942
     atom    3 type  1   force =     0.00112103   -0.00093930   -0.01859798
     atom    4 type  1   force =     0.00026734   -0.00076614   -0.01837137
     atom    5 type  1   force =    -0.00014480   -0.00008286   -0.01768936
     atom    6 type  1   force =    -0.00011985    0.00026593   -0.01822512
     atom    7 type  1   force =    -0.00025263    0.00144067   -0.01859874
     atom    8 type  1   force =     0.00017038   -0.00023667   -0.01822495
     atom    9 type  1   force =    -0.00021431   -0.00012344   -0.01872763
     atom   10 type  1   force =     0.00002097    0.00001359    0.00043454
     atom   11 type  1   force =    -0.00040223    0.00073878    0.00103232
     atom   12 type  1   force =     0.00160185    0.00118481   -0.00027148
     atom   13 type  1   force =     0.00043620   -0.00071331    0.00103095
     atom   14 type  1   force =     0.00064461    0.00037516   -0.00073291
     atom   15 type  1   force =    -0.00035607   -0.00003088    0.00028044
     atom   16 type  1   force =     0.00182655    0.00080052   -0.00027364
     atom   17 type  1   force =    -0.00020690   -0.00028677    0.00027770
     atom   18 type  1   force =    -0.00149709   -0.00086198    0.00035287
     atom   19 type  1   force =    -0.00290518   -0.00105512    0.00126442
     atom   20 type  1   force =     0.00130385    0.00075207    0.00624993
     atom   21 type  1   force =     0.00131573    0.00097532    0.00221303
     atom   22 type  1   force =     0.00123656    0.00380639   -0.00124907
     atom   23 type  1   force =     0.00150642    0.00065734    0.00222916
     atom   24 type  1   force =    -0.00139051   -0.00080400    0.00330970
     atom   25 type  1   force =     0.00082486    0.00047445    0.00441414
     atom   26 type  1   force =    -0.00237621   -0.00199087    0.00127302
     atom   27 type  1   force =     0.00390995   -0.00083406   -0.00124513
     atom   28 type  1   force =     0.02622270    0.01514749    0.02868717
     atom   29 type  1   force =    -0.01400154    0.01894401   -0.00850911
     atom   30 type  1   force =     0.00049888   -0.00002580    0.01574849
     atom   31 type  1   force =     0.00941903   -0.02160918   -0.00850352
     atom   32 type  1   force =    -0.02211473   -0.01278173    0.02626554
     atom   33 type  1   force =    -0.00060793   -0.00008872    0.01622572
     atom   34 type  1   force =     0.00020824    0.00043505    0.01574170
     atom   35 type  1   force =    -0.00035573   -0.00048354    0.01621637
     atom   36 type  1   force =    -0.00092850   -0.00053455    0.01699789
     atom   37 type  2   force =     0.00041675    0.00023915   -0.02343085
     The ionic contribution  to forces
     atom    1 type  1   force =     0.00787281    0.00456522  -93.41023182
     atom    2 type  1   force =     0.00142261    0.00522673  -93.39421812
     atom    3 type  1   force =    -0.00933852   -0.00465719  -93.40907583
     atom    4 type  1   force =     0.00521859   -0.00136991  -93.39418188
     atom    5 type  1   force =    -0.01214719   -0.00701706  -93.40683015
     atom    6 type  1   force =     0.00698234    0.00005785  -93.41657244
     atom    7 type  1   force =    -0.00872369   -0.00576688  -93.40907607
     atom    8 type  1   force =     0.00354259    0.00599908  -93.41660878
     atom    9 type  1   force =     0.00523320    0.00299912  -93.40025612
     atom   10 type  1   force =     0.05636168    0.03274475  -31.47428676
     atom   11 type  1   force =    -0.08446882   -0.01687725  -31.47844130
     atom   12 type  1   force =     0.04583254    0.01819981  -31.57492375
     atom   13 type  1   force =    -0.05713758   -0.06468456  -31.47843271
     atom   14 type  1   force =    -0.00687031   -0.00409573  -31.60768293
     atom   15 type  1   force =     0.07059135    0.00856789  -31.52992354
     atom   16 type  1   force =     0.03853206    0.03073457  -31.57500617
     atom   17 type  1   force =     0.04275832    0.05675961  -31.53019999
     atom   18 type  1   force =    -0.08274950   -0.04788152  -31.46825231
     atom   19 type  1   force =     0.13801454    0.00412318   31.20079679
     atom   20 type  1   force =    -0.07974764   -0.04590997   31.56314294
     atom   21 type  1   force =    -0.04173423   -0.05704604   30.74241382
     atom   22 type  1   force =     0.01288804   -0.00134926   31.21893895
     atom   23 type  1   force =    -0.07028537   -0.00741319   30.74158380
     atom   24 type  1   force =     0.05203815    0.03003275   30.84087773
     atom   25 type  1   force =    -0.05145150   -0.02989291   30.60840061
     atom   26 type  1   force =     0.07223936    0.11730807   31.20042571
     atom   27 type  1   force =     0.00521628    0.01169775   31.21813015
     atom   28 type  1   force =     0.01912609    0.01158738   92.17701639
     atom   29 type  1   force =     0.33189331   -0.79741484   92.84777345
     atom   30 type  1   force =     0.05074533    0.00590385   92.59309914
     atom   31 type  1   force =    -0.52442114    0.68583197   92.84844871
     atom   32 type  1   force =     0.05720023    0.03244944   92.25598779
     atom   33 type  1   force =     0.03540456   -0.01808235   92.61636001
     atom   34 type  1   force =     0.02957538    0.04092847   92.59365086
     atom   35 type  1   force =     0.00314014    0.03973182   92.61698395
     atom   36 type  1   force =    -0.02753200   -0.01567868   92.56861334
     atom   37 type  2   force =    -0.03522202   -0.02031196   11.92155655
     The local contribution  to forces
     atom    1 type  1   force =    -0.00778185   -0.00451401   93.40742590
     atom    2 type  1   force =    -0.00080738   -0.00590820   93.39214990
     atom    3 type  1   force =     0.00795723    0.00641464   93.40639177
     atom    4 type  1   force =    -0.00549950    0.00224291   93.39211664
     atom    5 type  1   force =     0.01203360    0.00694975   93.40362806
     atom    6 type  1   force =    -0.00713138   -0.00051345   93.41391158
     atom    7 type  1   force =     0.00955424    0.00368876   93.40639419
     atom    8 type  1   force =    -0.00401058   -0.00590221   93.41394675
     atom    9 type  1   force =    -0.00487273   -0.00279355   93.39876862
     atom   10 type  1   force =    -0.05587363   -0.03245711   31.47927833
     atom   11 type  1   force =     0.08457950    0.01497400   31.48095018
     atom   12 type  1   force =    -0.04712174   -0.01935290   31.57548050
     atom   13 type  1   force =     0.05553745    0.06573087   31.48094191
     atom   14 type  1   force =     0.00633955    0.00378519   31.60937330
     atom   15 type  1   force =    -0.06881792   -0.00823820   31.53371803
     atom   16 type  1   force =    -0.04017918   -0.03127441   31.57556203
     atom   17 type  1   force =    -0.04158382   -0.05539484   31.53399131
     atom   18 type  1   force =     0.08400050    0.04859927   31.46741820
     atom   19 type  1   force =    -0.13490312   -0.00303037  -31.19957010
     atom   20 type  1   force =     0.07835737    0.04511104  -31.56690765
     atom   21 type  1   force =     0.04043402    0.05600793  -30.74259596
     atom   22 type  1   force =    -0.01405864   -0.00225805  -31.21551672
     atom   23 type  1   force =     0.06873475    0.00680655  -30.74176632
     atom   24 type  1   force =    -0.05062723   -0.02922095  -30.84203392
     atom   25 type  1   force =     0.05044908    0.02931123  -30.61075639
     atom   26 type  1   force =    -0.06974226   -0.11516110  -31.19919584
     atom   27 type  1   force =    -0.00892538   -0.01090946  -31.21470360
     atom   28 type  1   force =    -0.04451502   -0.02624247  -92.18992161
     atom   29 type  1   force =    -0.31416586    0.77115886  -92.82951953
     atom   30 type  1   force =    -0.05159012   -0.00561961  -92.59247188
     atom   31 type  1   force =     0.51054090   -0.65734817  -92.83020190
     atom   32 type  1   force =    -0.03573380   -0.02005145  -92.26639007
     atom   33 type  1   force =    -0.03423912    0.01798616  -92.61627847
     atom   34 type  1   force =    -0.02975299   -0.04179968  -92.59302849
     atom   35 type  1   force =    -0.00264480   -0.03867150  -92.61690790
     atom   36 type  1   force =     0.02839126    0.01617522  -92.56910651
     atom   37 type  2   force =     0.03358301    0.01936784  -11.89800981
     The core correction contribution to forces
     atom    1 type  1   force =    -0.00002203   -0.00001270    0.01728428
     atom    2 type  1   force =     0.00002810   -0.00001776    0.01725577
     atom    3 type  1   force =    -0.00001219   -0.00000055    0.01739921
     atom    4 type  1   force =    -0.00000131    0.00003326    0.01725580
     atom    5 type  1   force =    -0.00000468   -0.00000268    0.01730555
     atom    6 type  1   force =    -0.00002085   -0.00003503    0.01725614
     atom    7 type  1   force =    -0.00000664   -0.00001020    0.01739924
     atom    8 type  1   force =    -0.00004075   -0.00000047    0.01725617
     atom    9 type  1   force =    -0.00005230   -0.00003017    0.01719062
     atom   10 type  1   force =    -0.00013534   -0.00007866    0.00098313
     atom   11 type  1   force =     0.00014119    0.00008562    0.00101297
     atom   12 type  1   force =    -0.00006433   -0.00005026    0.00139406
     atom   13 type  1   force =     0.00014561    0.00007932    0.00101314
     atom   14 type  1   force =     0.00000697    0.00000437    0.00143392
     atom   15 type  1   force =    -0.00014156    0.00002438    0.00116800
     atom   16 type  1   force =    -0.00007542   -0.00003114    0.00139451
     atom   17 type  1   force =    -0.00004977   -0.00013463    0.00116910
     atom   18 type  1   force =     0.00016256    0.00009407    0.00082660
     atom   19 type  1   force =    -0.00024316   -0.00001280   -0.00239814
     atom   20 type  1   force =     0.00007536    0.00004313   -0.00249154
     atom   21 type  1   force =    -0.00001500    0.00010138   -0.00194345
     atom   22 type  1   force =    -0.00007759   -0.00012876   -0.00201485
     atom   23 type  1   force =     0.00008014   -0.00006488   -0.00194560
     atom   24 type  1   force =    -0.00000888   -0.00000521   -0.00190300
     atom   25 type  1   force =     0.00021883    0.00012704   -0.00188698
     atom   26 type  1   force =    -0.00013105   -0.00020359   -0.00239980
     atom   27 type  1   force =    -0.00014977   -0.00000251   -0.00201516
     atom   28 type  1   force =    -0.00091290   -0.00052890   -0.01591868
     atom   29 type  1   force =    -0.00368508    0.00720551   -0.00991211
     atom   30 type  1   force =     0.00032354   -0.00017884   -0.01652846
     atom   31 type  1   force =     0.00439599   -0.00679280   -0.00991326
     atom   32 type  1   force =     0.00073128    0.00042388   -0.01601767
     atom   33 type  1   force =    -0.00053574    0.00007175   -0.01650107
     atom   34 type  1   force =     0.00001039    0.00037044   -0.01652727
     atom   35 type  1   force =    -0.00020956   -0.00050018   -0.01649963
     atom   36 type  1   force =     0.00010156    0.00005809   -0.01661396
     atom   37 type  2   force =     0.00000000    0.00000000    0.00000000
     The Hubbard contrib.    to forces
     atom    1 type  1   force =     0.00000000    0.00000000    0.00000000
     atom    2 type  1   force =     0.00000000    0.00000000    0.00000000
     atom    3 type  1   force =     0.00000000    0.00000000    0.00000000
     atom    4 type  1   force =     0.00000000    0.00000000    0.00000000
     atom    5 type  1   force =     0.00000000    0.00000000    0.00000000
     atom    6 type  1   force =     0.00000000    0.00000000    0.00000000
     atom    7 type  1   force =     0.00000000    0.00000000    0.00000000
     atom    8 type  1   force =     0.00000000    0.00000000    0.00000000
     atom    9 type  1   force =     0.00000000    0.00000000    0.00000000
     atom   10 type  1   force =     0.00000000    0.00000000    0.00000000
     atom   11 type  1   force =     0.00000000    0.00000000    0.00000000
     atom   12 type  1   force =     0.00000000    0.00000000    0.00000000
     atom   13 type  1   force =     0.00000000    0.00000000    0.00000000
     atom   14 type  1   force =     0.00000000    0.00000000    0.00000000
     atom   15 type  1   force =     0.00000000    0.00000000    0.00000000
     atom   16 type  1   force =     0.00000000    0.00000000    0.00000000
     atom   17 type  1   force =     0.00000000    0.00000000    0.00000000
     atom   18 type  1   force =     0.00000000    0.00000000    0.00000000
     atom   19 type  1   force =     0.00000000    0.00000000    0.00000000
     atom   20 type  1   force =     0.00000000    0.00000000    0.00000000
     atom   21 type  1   force =     0.00000000    0.00000000    0.00000000
     atom   22 type  1   force =     0.00000000    0.00000000    0.00000000
     atom   23 type  1   force =     0.00000000    0.00000000    0.00000000
     atom   24 type  1   force =     0.00000000    0.00000000    0.00000000
     atom   25 type  1   force =     0.00000000    0.00000000    0.00000000
     atom   26 type  1   force =     0.00000000    0.00000000    0.00000000
     atom   27 type  1   force =     0.00000000    0.00000000    0.00000000
     atom   28 type  1   force =     0.00000000    0.00000000    0.00000000
     atom   29 type  1   force =     0.00000000    0.00000000    0.00000000
     atom   30 type  1   force =     0.00000000    0.00000000    0.00000000
     atom   31 type  1   force =     0.00000000    0.00000000    0.00000000
     atom   32 type  1   force =     0.00000000    0.00000000    0.00000000
     atom   33 type  1   force =     0.00000000    0.00000000    0.00000000
     atom   34 type  1   force =     0.00000000    0.00000000    0.00000000
     atom   35 type  1   force =     0.00000000    0.00000000    0.00000000
     atom   36 type  1   force =     0.00000000    0.00000000    0.00000000
     atom   37 type  2   force =     0.00000000    0.00000000    0.00000000
     The SCF correction term to forces
     atom    1 type  1   force =    -0.00000000   -0.00000000   -0.00000000
     atom    2 type  1   force =    -0.00000000   -0.00000000   -0.00000000
     atom    3 type  1   force =     0.00000000   -0.00000000   -0.00000000
     atom    4 type  1   force =     0.00000000   -0.00000000   -0.00000000
     atom    5 type  1   force =    -0.00000000   -0.00000000   -0.00000000
     atom    6 type  1   force =    -0.00000000   -0.00000000   -0.00000000
     atom    7 type  1   force =     0.00000000    0.00000000   -0.00000000
     atom    8 type  1   force =    -0.00000000    0.00000000   -0.00000000
     atom    9 type  1   force =     0.00000000    0.00000000   -0.00000000
     atom   10 type  1   force =    -0.00000000   -0.00000000   -0.00000000
     atom   11 type  1   force =     0.00000000    0.00000000   -0.00000000
     atom   12 type  1   force =    -0.00000000   -0.00000000   -0.00000000
     atom   13 type  1   force =     0.00000000   -0.00000000   -0.00000000
     atom   14 type  1   force =    -0.00000000   -0.00000000   -0.00000000
     atom   15 type  1   force =     0.00000000   -0.00000000   -0.00000000
     atom   16 type  1   force =    -0.00000000    0.00000000   -0.00000000
     atom   17 type  1   force =    -0.00000000    0.00000000   -0.00000000
     atom   18 type  1   force =     0.00000000    0.00000000   -0.00000000
     atom   19 type  1   force =     0.00000305   -0.00001541   -0.00006065
     atom   20 type  1   force =     0.00001202    0.00000535   -0.00005439
     atom   21 type  1   force =    -0.00001502   -0.00000641   -0.00005544
     atom   22 type  1   force =     0.00002590   -0.00000354   -0.00005486
     atom   23 type  1   force =    -0.00001111   -0.00000763   -0.00005300
     atom   24 type  1   force =    -0.00001463   -0.00000503   -0.00005304
     atom   25 type  1   force =     0.00000298    0.00000077   -0.00006378
     atom   26 type  1   force =    -0.00001027    0.00000790   -0.00006010
     atom   27 type  1   force =     0.00000749    0.00002443   -0.00005676
     atom   28 type  1   force =    -0.00000175   -0.00000394    0.00002848
     atom   29 type  1   force =     0.00000268    0.00000875    0.00002727
     atom   30 type  1   force =    -0.00000125    0.00000840    0.00002433
     atom   31 type  1   force =     0.00001107   -0.00000093    0.00002877
     atom   32 type  1   force =    -0.00000167    0.00000120    0.00002151
     atom   33 type  1   force =    -0.00001042   -0.00000437    0.00003681
     atom   34 type  1   force =     0.00000880   -0.00000634    0.00002499
     atom   35 type  1   force =    -0.00001099   -0.00000535    0.00003554
     atom   36 type  1   force =     0.00000211    0.00000133    0.00004354
     atom   37 type  2   force =     0.00000066    0.00000028    0.00000212

     Total force =     0.001530     Total SCF correction =     0.000203
     SCF correction compared to forces is large: reduce conv_thr to get better values

     Writing all to output data dir ./pwscf.save/

     init_run     :     10.19s CPU     10.49s WALL (       1 calls)
     electrons    :    358.08s CPU    371.07s WALL (       1 calls)
     forces       :      4.54s CPU      5.32s WALL (       1 calls)

     Called by init_run:
     wfcinit      :      5.74s CPU      5.93s WALL (       1 calls)
     potinit      :      3.06s CPU      3.12s WALL (       1 calls)
     hinit0       :      0.82s CPU      0.83s WALL (       1 calls)

     Called by electrons:
     c_bands      :    304.81s CPU    312.84s WALL (      22 calls)
     sum_band     :     33.00s CPU     34.69s WALL (      22 calls)
     v_of_rho     :      9.83s CPU     11.62s WALL (      22 calls)
     newd         :      2.63s CPU      3.49s WALL (      22 calls)
     PAW_pot      :      4.63s CPU      4.84s WALL (      22 calls)
     mix_rho      :      5.10s CPU      5.28s WALL (      22 calls)
     vdW_kernel   :      1.70s CPU      1.70s WALL (       1 calls)

     Called by c_bands:
     init_us_2    :      3.07s CPU      3.42s WALL (     598 calls)
     init_us_2:cp :      3.07s CPU      3.42s WALL (     598 calls)
     cegterg      :    297.15s CPU    304.53s WALL (     286 calls)

     Called by *egterg:
     cdiaghg      :     81.96s CPU     83.33s WALL (    1464 calls)
     h_psi        :    138.08s CPU    141.90s WALL (    1490 calls)
     s_psi        :     16.46s CPU     16.74s WALL (    1490 calls)
     g_psi        :      0.54s CPU      0.55s WALL (    1191 calls)

     Called by h_psi:
     h_psi:calbec :     21.19s CPU     22.40s WALL (    1490 calls)
     vloc_psi     :     98.61s CPU    100.85s WALL (    1490 calls)
     add_vuspsi   :     17.01s CPU     17.36s WALL (    1490 calls)

     General routines
     calbec       :     30.41s CPU     31.99s WALL (    1828 calls)
     fft          :      6.00s CPU      7.99s WALL (    1446 calls)
     ffts         :      2.76s CPU      2.81s WALL (    5356 calls)
     fftw         :     95.51s CPU     98.02s WALL (  381770 calls)
     interpolate  :      0.69s CPU      0.72s WALL (      22 calls)

     Parallel routines

     PWSCF        :   6m14.94s CPU   6m31.75s WALL


   This run was terminated on:  20:59: 1  23Feb2025            

=------------------------------------------------------------------------------=
   JOB DONE.
=------------------------------------------------------------------------------=
