
     Program PWSCF v.7.1 starts on  9Dec2025 at 15:32:48 
        Git branch: heads/qe-7.1
        Last git commit: 48ba0178f8fede6d020eb786884699a9f063f55d-dirty
        Last git commit date: Fri Jan 27 14:22:33 2023 +0000
        Last git commit subject: Merge branch 'fix_hubbard' into 'develop'

     This program is part of the open-source Quantum ESPRESSO suite
     for quantum simulation of materials; please cite
         "P. Giannozzi et al., J. Phys.:Condens. Matter 21 395502 (2009);
         "P. Giannozzi et al., J. Phys.:Condens. Matter 29 465901 (2017);
         "P. Giannozzi et al., J. Chem. Phys. 152 154105 (2020);
          URL http://www.quantum-espresso.org", 
     in publications or presentations arising from this work. More details at
     http://www.quantum-espresso.org/quote

     Parallel version (MPI), running on    96 processors

     MPI processes distributed on     2 nodes
     48205 MiB available memory on the printing compute node when the environment starts

     Reading input from espresso.pwi
Warning: card &CELL ignored
Warning: card / ignored
Warning: card &FCP ignored
Warning: card / ignored
Warning: card &RISM ignored
Warning: card / ignored

     Current dimensions of program PWSCF are:
     Max number of different atomic species (ntypx) = 10
     Max number of k-points (npk) =  40000
     Max angular momentum in pseudopotentials (lmaxx) =  4
     file Co.pbe-n-kjpaw_psl.1.0.0.UPF: wavefunction(s)  4S 3D renormalized
     file C.pbe-n-kjpaw_psl.1.0.0.UPF: wavefunction(s)  2S 2P renormalized
     file O.pbe-nl-kjpaw_psl.1.0.0.UPF: wavefunction(s)  2S 2P renormalized
     file H.pbe-kjpaw_psl.1.0.0.UPF: wavefunction(s)  1S renormalized

     **************************************************************************
     Initializing libbeef V0.1.2 with the BEEF-vdW functional.
     Citation: Wellendorff et al., PRB 85, 235149 (2012).
     **************************************************************************


     IMPORTANT: XC functional enforced from input :
     Exchange-correlation= BEEF-VDW
                           (   1   4  43  14   2   0   0)
     Any further DFT definition will be discarded
     Please, verify this is what you really want


     R & G space division:  proc/nbgrp/npool/nimage =      96
     Subspace diagonalization in iterative solution of the eigenvalue problem:
     one sub-group per band group will be used
     custom distributed-memory algorithm (size of sub-group:  2*  2 procs)


     Parallelization info
     --------------------
     sticks:   dense  smooth     PW     G-vecs:    dense   smooth      PW
     Min          43      28      7                 7829     4248     595
     Max          44      29      8                 7845     4281     630
     Sum        4153    2773    757               752179   409445   59217

     Using Slab Decomposition



     bravais-lattice index     =            0
     lattice parameter (alat)  =      14.1729  a.u.
     unit-cell volume          =    8574.3059 (a.u.)^3
     number of atoms/cell      =           39
     number of atomic types    =            4
     number of electrons       =       335.00
     number of Kohn-Sham states=          202
     kinetic-energy cutoff     =      50.0000  Ry
     charge density cutoff     =     300.0000  Ry
     scf convergence threshold =      1.0E-08
     mixing beta               =       0.7000
     number of iterations used =            8  local-TF  mixing
     Exchange-correlation= BEEF-VDW
                           (   1   4  43  14   2   0   0)

     celldm(1)=  14.172946  celldm(2)=   0.000000  celldm(3)=   0.000000
     celldm(4)=   0.000000  celldm(5)=   0.000000  celldm(6)=   0.000000

     crystal axes: (cart. coord. in units of alat)
               a(1) = (   1.000000   0.000000   0.000000 )  
               a(2) = (   0.500000   0.866025   0.000000 )  
               a(3) = (   0.000000   0.000000   3.477667 )  

     reciprocal axes: (cart. coord. in units 2 pi/alat)
               b(1) = (  1.000000 -0.577350  0.000000 )  
               b(2) = (  0.000000  1.154701  0.000000 )  
               b(3) = (  0.000000  0.000000  0.287549 )  


     PseudoPot. # 1 for Co read from file:
     /users/kbadger1/espresso/pseudo/pslibrary.1.0.0/pbe/PSEUDOPOTENTIALS/Co.pbe-n-kjpaw_psl.1.0.0.UPF
     MD5 check sum: 88af6ec42553d4236c267fdfcb472151
     Pseudo is Projector augmented-wave + core cor, Zval =  9.0
     Generated using 'atomic' code by A. Dal Corso  v.7.0
     Shape of augmentation charge: PSQ
     Using radial grid of 1193 points,  6 beta functions with: 
                l(1) =   0
                l(2) =   0
                l(3) =   1
                l(4) =   1
                l(5) =   2
                l(6) =   2
     Q(r) pseudized with 0 coefficients 


     PseudoPot. # 2 for C  read from file:
     /users/kbadger1/espresso/pseudo/pslibrary.1.0.0/pbe/PSEUDOPOTENTIALS/C.pbe-n-kjpaw_psl.1.0.0.UPF
     MD5 check sum: 6408e75cdba28732cea38a4db8498ce4
     Pseudo is Projector augmented-wave + core cor, Zval =  4.0
     Generated using 'atomic' code by A. Dal Corso  v.7.0
     Shape of augmentation charge: PSQ
     Using radial grid of 1073 points,  4 beta functions with: 
                l(1) =   0
                l(2) =   0
                l(3) =   1
                l(4) =   1
     Q(r) pseudized with 0 coefficients 


     PseudoPot. # 3 for O  read from file:
     /users/kbadger1/espresso/pseudo/pslibrary.1.0.0/pbe/PSEUDOPOTENTIALS/O.pbe-nl-kjpaw_psl.1.0.0.UPF
     MD5 check sum: f0439fab3598ca4e468f064226030408
     Pseudo is Projector augmented-wave + core cor, Zval =  6.0
     Generated using 'atomic' code by A. Dal Corso  v.7.0
     Shape of augmentation charge: PSQ
     Using radial grid of 1095 points,  4 beta functions with: 
                l(1) =   0
                l(2) =   0
                l(3) =   1
                l(4) =   1
     Q(r) pseudized with 0 coefficients 


     PseudoPot. # 4 for H  read from file:
     /users/kbadger1/espresso/pseudo/pslibrary.1.0.0/pbe/PSEUDOPOTENTIALS/H.pbe-kjpaw_psl.1.0.0.UPF
     MD5 check sum: fe4c6fa958fa6d3815bf5d2419cbf1df
     Pseudo is Projector augmented-wave, Zval =  1.0
     Generated using 'atomic' code by A. Dal Corso  v.7.0
     Shape of augmentation charge: PSQ
     Using radial grid of  929 points,  2 beta functions with: 
                l(1) =   0
                l(2) =   0
     Q(r) pseudized with 0 coefficients 


     atomic species   valence    mass     pseudopotential
        Co             9.00    58.93319     Co( 1.00)
        C              4.00    12.01100     C ( 1.00)
        O              6.00    15.99900     O ( 1.00)
        H              1.00     1.00800     H ( 1.00)

     Starting magnetic structure 
     atomic species   magnetization
        Co           1.000
        C            1.000
        O            0.000
        H            0.000

     No symmetry found



   Cartesian axes

     site n.     atom                  positions (alat units)
         1           Co  tau(   1) = (   0.0000000   0.1924501   1.3333333  )
         2           Co  tau(   2) = (   0.3333333   0.1924501   1.3333333  )
         3           Co  tau(   3) = (   0.6666667   0.1924501   1.3333333  )
         4           Co  tau(   4) = (   0.1666667   0.4811252   1.3333333  )
         5           Co  tau(   5) = (   0.5000000   0.4811252   1.3333333  )
         6           Co  tau(   6) = (   0.8333333   0.4811252   1.3333333  )
         7           Co  tau(   7) = (   0.3333333   0.7698004   1.3333333  )
         8           Co  tau(   8) = (   0.6666667   0.7698004   1.3333333  )
         9           Co  tau(   9) = (   1.0000000   0.7698004   1.3333333  )
        10           Co  tau(  10) = (   0.0000000   0.0000000   1.6036667  )
        11           Co  tau(  11) = (   0.3333333   0.0000000   1.6036667  )
        12           Co  tau(  12) = (   0.6666667   0.0000000   1.6036667  )
        13           Co  tau(  13) = (   0.1666667   0.2886751   1.6036667  )
        14           Co  tau(  14) = (   0.5000000   0.2886751   1.6036667  )
        15           Co  tau(  15) = (   0.8333333   0.2886751   1.6036667  )
        16           Co  tau(  16) = (   0.3333333   0.5773503   1.6036667  )
        17           Co  tau(  17) = (   0.6666667   0.5773503   1.6036667  )
        18           Co  tau(  18) = (   1.0000000   0.5773503   1.6036667  )
        19           Co  tau(  19) = (   0.0000000   0.1924501   1.8740000  )
        20           Co  tau(  20) = (   0.3333333   0.1924501   1.8740000  )
        21           Co  tau(  21) = (   0.6666667   0.1924501   1.8740000  )
        22           Co  tau(  22) = (   0.1666667   0.4811252   1.8740000  )
        23           Co  tau(  23) = (   0.5000000   0.4811252   1.8740000  )
        24           Co  tau(  24) = (   0.8333333   0.4811252   1.8740000  )
        25           Co  tau(  25) = (   0.3333333   0.7698004   1.8740000  )
        26           Co  tau(  26) = (   0.6666667   0.7698004   1.8740000  )
        27           Co  tau(  27) = (   1.0000000   0.7698004   1.8740000  )
        28           Co  tau(  28) = (   0.0000000   0.0000000   2.1443333  )
        29           Co  tau(  29) = (   0.3333333   0.0000000   2.1443333  )
        30           Co  tau(  30) = (   0.6666667   0.0000000   2.1443333  )
        31           Co  tau(  31) = (   0.1666667   0.2886751   2.1443333  )
        32           Co  tau(  32) = (   0.5000000   0.2886751   2.1443333  )
        33           Co  tau(  33) = (   0.8333333   0.2886751   2.1443333  )
        34           Co  tau(  34) = (   0.3333333   0.5773503   2.1443333  )
        35           Co  tau(  35) = (   0.6666667   0.5773503   2.1443333  )
        36           Co  tau(  36) = (   1.0000000   0.5773503   2.1443333  )
        37           C   tau(  37) = (   0.1905657  -0.0245161   2.3499486  )
        38           O   tau(  38) = (   0.0609476  -0.0411559   2.4502896  )
        39           H   tau(  39) = (   0.3295663  -0.0013690   2.4100039  )

     number of k points=    13  Marzari-Vanderbilt smearing, width (Ry)=  0.0010
                       cart. coord. in units 2pi/alat
        k(    1) = (   0.0000000   0.0000000   0.0000000), wk =   0.0400000
        k(    2) = (   0.0000000   0.2309401   0.0000000), wk =   0.0800000
        k(    3) = (   0.0000000   0.4618802   0.0000000), wk =   0.0800000
        k(    4) = (   0.2000000  -0.1154701   0.0000000), wk =   0.0800000
        k(    5) = (   0.2000000   0.1154701   0.0000000), wk =   0.0800000
        k(    6) = (   0.2000000   0.3464102   0.0000000), wk =   0.0800000
        k(    7) = (   0.2000000  -0.5773503   0.0000000), wk =   0.0800000
        k(    8) = (   0.2000000  -0.3464102   0.0000000), wk =   0.0800000
        k(    9) = (   0.4000000  -0.2309401   0.0000000), wk =   0.0800000
        k(   10) = (   0.4000000   0.0000000   0.0000000), wk =   0.0800000
        k(   11) = (   0.4000000   0.2309401   0.0000000), wk =   0.0800000
        k(   12) = (   0.4000000  -0.6928203   0.0000000), wk =   0.0800000
        k(   13) = (   0.4000000  -0.4618802   0.0000000), wk =   0.0800000

     Dense  grid:   752179 G-vectors     FFT dimensions: (  80,  80, 288)

     Smooth grid:   409445 G-vectors     FFT dimensions: (  64,  64, 225)

     Estimated max dynamical RAM per process >      99.02 MB

     Estimated total dynamical RAM >       9.28 GB
     Generating pointlists ...
     new r_m :   0.1038 (alat units)  1.4705 (a.u.) for type    1
     new r_m :   0.0632 (alat units)  0.8955 (a.u.) for type    2
     new r_m :   0.0680 (alat units)  0.9632 (a.u.) for type    3
     new r_m :   0.0632 (alat units)  0.8955 (a.u.) for type    4

     Initial potential from superposition of free atoms

     starting charge     334.9897, renormalised to     335.0000

     negative rho (up, down):  3.038E-03 4.705E-04


     %%%%%%%%%%%%%%%%%%%%%%%%%%%%%%%%%%%%%%%%%%%%%%%%%%%%%%%%%%%%%%%%%%%%%%%%
     %                                                                      %
     % You are using vdW-DF, which was implemented by the Thonhauser group. %
     % Please cite the following two papers that made this development      %
     % possible and the two reviews that describe the various versions:     %
     %                                                                      %
     %   T. Thonhauser et al., PRL 115, 136402 (2015).                      %
     %   T. Thonhauser et al., PRB 76, 125112 (2007).                       %
     %   K. Berland et al., Rep. Prog. Phys. 78, 066501 (2015).             %
     %   D.C. Langreth et al., J. Phys.: Condens. Matter 21, 084203 (2009). %
     %                                                                      %
     % If you are calculating stress with vdW-DF, please also cite:         %
     %                                                                      %
     %   R. Sabatini et al., J. Phys.: Condens. Matter 24, 424209 (2012).   %
     %   C.M. Frostenson et al., Electr. Struct. 4, 014001 (2022).          %
     %                                                                      %
     %%%%%%%%%%%%%%%%%%%%%%%%%%%%%%%%%%%%%%%%%%%%%%%%%%%%%%%%%%%%%%%%%%%%%%%%

     %%%%%%%%%%%%%%%%%%%%%%%%%%%%%%%%%%%%%%%%%%%%%%%%%%%%%%%%%%%%%%%%%%%%%%%%
     %                                                                      %
     %  vdW-DF NEWS:                                                        %
     %                                                                      %
     %  * vdW-DF3 is now available. DOI: 10.1021/acs.jctc.0c00471           %
     %    use with input_dft = 'vdW-DF3-opt1' or 'vdW-DF3-opt2'             %
     %                                                                      %
     %  * Unscreened and range-separated hybrid vdW-DF-cx functionals       %
     %    DOI: 10.1063/1.4986522 and 10.1088/1361-648X/ac2ad2               %
     %    use with input_dft = 'vdW-DF-cx0'    and 'vdW-DF-ahcx'            %
     %  * Unscreened and range-separated hybrid vdW-DF2-b86r functionals    %
     %    DOI: 10.1063/1.4986522 and DOI: 10.1103/PhysRevX.12.041003        %
     %    use with input_dft = 'vdW-DF2-br0' and 'vdW-DF2-ahbr'             %
     %                                                                      %
     %%%%%%%%%%%%%%%%%%%%%%%%%%%%%%%%%%%%%%%%%%%%%%%%%%%%%%%%%%%%%%%%%%%%%%%%


     Starting wfcs are  333 randomized atomic wfcs
     Checking if some PAW data can be deallocated... 

     total cpu time spent up to now is       17.0 secs

     per-process dynamical memory:   231.9 Mb

     Self-consistent Calculation

     iteration #  1     ecut=    50.00 Ry     beta= 0.70
     Davidson diagonalization with overlap
     ethr =  1.00E-02,  avg # of iterations =  2.0

     negative rho (up, down):  2.556E-05 5.236E-08

     total cpu time spent up to now is       34.6 secs

     total energy              =   -6053.08080597 Ry
     estimated scf accuracy    <      39.68680140 Ry

     total magnetization       =    69.00 Bohr mag/cell
     absolute magnetization    =    81.32 Bohr mag/cell

     iteration #  2     ecut=    50.00 Ry     beta= 0.70
     Davidson diagonalization with overlap
     ethr =  1.00E-02,  avg # of iterations =  1.0

     negative rho (up, down):  2.818E-06 7.904E-09

     total cpu time spent up to now is       52.9 secs

     total energy              =   -6052.55227762 Ry
     estimated scf accuracy    <      24.38859612 Ry

     total magnetization       =    68.52 Bohr mag/cell
     absolute magnetization    =    76.71 Bohr mag/cell

     iteration #  3     ecut=    50.00 Ry     beta= 0.70
     Davidson diagonalization with overlap
     ethr =  7.28E-03,  avg # of iterations =  1.0

     negative rho (up, down):  1.010E-08 0.000E+00

     total cpu time spent up to now is       71.2 secs

     total energy              =   -6055.12619891 Ry
     estimated scf accuracy    <      87.54623897 Ry

     total magnetization       =    65.71 Bohr mag/cell
     absolute magnetization    =    73.05 Bohr mag/cell

     iteration #  4     ecut=    50.00 Ry     beta= 0.70
     Davidson diagonalization with overlap
     ethr =  7.28E-03,  avg # of iterations =  1.0

     total cpu time spent up to now is       84.7 secs

     total energy              =   -6056.32218428 Ry
     estimated scf accuracy    <       5.87784492 Ry

     total magnetization       =    60.37 Bohr mag/cell
     absolute magnetization    =    70.47 Bohr mag/cell

     iteration #  5     ecut=    50.00 Ry     beta= 0.70
     Davidson diagonalization with overlap
     ethr =  1.75E-03,  avg # of iterations =  1.4

     total cpu time spent up to now is      103.4 secs

     total energy              =   -6056.33741812 Ry
     estimated scf accuracy    <       2.37643330 Ry

     total magnetization       =    60.25 Bohr mag/cell
     absolute magnetization    =    69.77 Bohr mag/cell

     iteration #  6     ecut=    50.00 Ry     beta= 0.70
     Davidson diagonalization with overlap
     ethr =  7.09E-04,  avg # of iterations =  1.7

     total cpu time spent up to now is      117.8 secs

     total energy              =   -6056.46202837 Ry
     estimated scf accuracy    <       0.64273827 Ry

     total magnetization       =    60.20 Bohr mag/cell
     absolute magnetization    =    69.57 Bohr mag/cell

     iteration #  7     ecut=    50.00 Ry     beta= 0.70
     Davidson diagonalization with overlap
     ethr =  1.92E-04,  avg # of iterations =  4.5

     total cpu time spent up to now is      140.1 secs

     total energy              =   -6056.49644716 Ry
     estimated scf accuracy    <       0.81218722 Ry

     total magnetization       =    60.20 Bohr mag/cell
     absolute magnetization    =    69.24 Bohr mag/cell

     iteration #  8     ecut=    50.00 Ry     beta= 0.70
     Davidson diagonalization with overlap
     ethr =  1.92E-04,  avg # of iterations =  1.7

     total cpu time spent up to now is      154.0 secs

     total energy              =   -6056.50900767 Ry
     estimated scf accuracy    <       0.14695905 Ry

     total magnetization       =    60.29 Bohr mag/cell
     absolute magnetization    =    69.15 Bohr mag/cell

     iteration #  9     ecut=    50.00 Ry     beta= 0.70
     Davidson diagonalization with overlap
     c_bands:  1 eigenvalues not converged
     c_bands:  4 eigenvalues not converged
     ethr =  4.39E-05,  avg # of iterations = 12.3

     total cpu time spent up to now is      192.9 secs

     total energy              =   -6056.53327817 Ry
     estimated scf accuracy    <       0.25586996 Ry

     total magnetization       =    61.26 Bohr mag/cell
     absolute magnetization    =    69.24 Bohr mag/cell

     iteration # 10     ecut=    50.00 Ry     beta= 0.70
     Davidson diagonalization with overlap
     ethr =  4.39E-05,  avg # of iterations =  1.9

     total cpu time spent up to now is      207.1 secs

     total energy              =   -6056.54019228 Ry
     estimated scf accuracy    <       0.20828827 Ry

     total magnetization       =    61.24 Bohr mag/cell
     absolute magnetization    =    69.10 Bohr mag/cell

     iteration # 11     ecut=    50.00 Ry     beta= 0.70
     Davidson diagonalization with overlap
     ethr =  4.39E-05,  avg # of iterations =  1.0

     total cpu time spent up to now is      224.5 secs

     total energy              =   -6056.52384620 Ry
     estimated scf accuracy    <       0.11542927 Ry

     total magnetization       =    61.25 Bohr mag/cell
     absolute magnetization    =    69.04 Bohr mag/cell

     iteration # 12     ecut=    50.00 Ry     beta= 0.70
     Davidson diagonalization with overlap
     ethr =  3.45E-05,  avg # of iterations =  2.0

     total cpu time spent up to now is      240.1 secs

     total energy              =   -6056.52946662 Ry
     estimated scf accuracy    <       0.13361496 Ry

     total magnetization       =    60.98 Bohr mag/cell
     absolute magnetization    =    68.60 Bohr mag/cell

     iteration # 13     ecut=    50.00 Ry     beta= 0.70
     Davidson diagonalization with overlap
     ethr =  3.45E-05,  avg # of iterations =  1.0

     total cpu time spent up to now is      257.5 secs

     total energy              =   -6056.52676447 Ry
     estimated scf accuracy    <       0.10828739 Ry

     total magnetization       =    61.03 Bohr mag/cell
     absolute magnetization    =    68.57 Bohr mag/cell

     iteration # 14     ecut=    50.00 Ry     beta= 0.70
     Davidson diagonalization with overlap
     ethr =  3.23E-05,  avg # of iterations =  1.3

     total cpu time spent up to now is      270.8 secs

     total energy              =   -6056.52523334 Ry
     estimated scf accuracy    <       0.08656937 Ry

     total magnetization       =    61.26 Bohr mag/cell
     absolute magnetization    =    68.75 Bohr mag/cell

     iteration # 15     ecut=    50.00 Ry     beta= 0.70
     Davidson diagonalization with overlap
     ethr =  2.58E-05,  avg # of iterations =  1.1

     negative rho (up, down):  3.063E-05 1.928E-06

     total cpu time spent up to now is      288.7 secs

     total energy              =   -6056.52282810 Ry
     estimated scf accuracy    <       0.12400240 Ry

     total magnetization       =    61.13 Bohr mag/cell
     absolute magnetization    =    68.66 Bohr mag/cell

     iteration # 16     ecut=    50.00 Ry     beta= 0.70
     Davidson diagonalization with overlap
     ethr =  2.58E-05,  avg # of iterations =  1.2

     negative rho (up, down):  4.196E-03 3.404E-03

     total cpu time spent up to now is      303.3 secs

     total energy              =   -6056.51830855 Ry
     estimated scf accuracy    <       0.08747706 Ry

     total magnetization       =    61.26 Bohr mag/cell
     absolute magnetization    =    68.71 Bohr mag/cell

     iteration # 17     ecut=    50.00 Ry     beta= 0.70
     Davidson diagonalization with overlap
     ethr =  2.58E-05,  avg # of iterations =  1.3

     negative rho (up, down):  1.940E-02 1.793E-02

     total cpu time spent up to now is      321.2 secs

     total energy              =   -6056.51615486 Ry
     estimated scf accuracy    <       0.04555079 Ry

     total magnetization       =    61.24 Bohr mag/cell
     absolute magnetization    =    68.72 Bohr mag/cell

     iteration # 18     ecut=    50.00 Ry     beta= 0.70
     Davidson diagonalization with overlap
     ethr =  1.36E-05,  avg # of iterations =  3.7

     negative rho (up, down):  1.085E-02 9.655E-03

     total cpu time spent up to now is      341.9 secs

     total energy              =   -6056.51698283 Ry
     estimated scf accuracy    <       0.06444857 Ry

     total magnetization       =    61.24 Bohr mag/cell
     absolute magnetization    =    68.66 Bohr mag/cell

     iteration # 19     ecut=    50.00 Ry     beta= 0.70
     Davidson diagonalization with overlap
     ethr =  1.36E-05,  avg # of iterations =  1.0

     negative rho (up, down):  1.806E-02 1.668E-02

     total cpu time spent up to now is      355.4 secs

     total energy              =   -6056.51639342 Ry
     estimated scf accuracy    <       0.01494563 Ry

     total magnetization       =    61.24 Bohr mag/cell
     absolute magnetization    =    68.68 Bohr mag/cell

     iteration # 20     ecut=    50.00 Ry     beta= 0.70
     Davidson diagonalization with overlap
     c_bands:  4 eigenvalues not converged
     c_bands:  3 eigenvalues not converged
     ethr =  4.46E-06,  avg # of iterations =  3.2

     negative rho (up, down):  1.639E-02 1.510E-02

     total cpu time spent up to now is      376.5 secs

     total energy              =   -6056.51527066 Ry
     estimated scf accuracy    <       0.02106576 Ry

     total magnetization       =    61.24 Bohr mag/cell
     absolute magnetization    =    68.69 Bohr mag/cell

     iteration # 21     ecut=    50.00 Ry     beta= 0.70
     Davidson diagonalization with overlap
     c_bands:  1 eigenvalues not converged
     ethr =  4.46E-06,  avg # of iterations =  2.3

     negative rho (up, down):  1.582E-02 1.464E-02

     total cpu time spent up to now is      390.7 secs

     total energy              =   -6056.51450334 Ry
     estimated scf accuracy    <       0.01454386 Ry

     total magnetization       =    61.24 Bohr mag/cell
     absolute magnetization    =    68.70 Bohr mag/cell

     iteration # 22     ecut=    50.00 Ry     beta= 0.70
     Davidson diagonalization with overlap
     ethr =  4.34E-06,  avg # of iterations =  1.2

     negative rho (up, down):  2.346E-02 2.247E-02

     total cpu time spent up to now is      408.5 secs

     total energy              =   -6056.51384537 Ry
     estimated scf accuracy    <       0.00997698 Ry

     total magnetization       =    61.24 Bohr mag/cell
     absolute magnetization    =    68.71 Bohr mag/cell

     iteration # 23     ecut=    50.00 Ry     beta= 0.70
     Davidson diagonalization with overlap
     ethr =  2.98E-06,  avg # of iterations =  1.8

     negative rho (up, down):  1.949E-02 1.863E-02

     total cpu time spent up to now is      423.7 secs

     total energy              =   -6056.51385932 Ry
     estimated scf accuracy    <       0.00240308 Ry

     total magnetization       =    61.24 Bohr mag/cell
     absolute magnetization    =    68.72 Bohr mag/cell

     iteration # 24     ecut=    50.00 Ry     beta= 0.70
     Davidson diagonalization with overlap
     ethr =  7.17E-07,  avg # of iterations =  3.8

     negative rho (up, down):  1.257E-02 1.189E-02

     total cpu time spent up to now is      444.0 secs

     total energy              =   -6056.51381529 Ry
     estimated scf accuracy    <       0.00151238 Ry

     total magnetization       =    61.24 Bohr mag/cell
     absolute magnetization    =    68.72 Bohr mag/cell

     iteration # 25     ecut=    50.00 Ry     beta= 0.70
     Davidson diagonalization with overlap
     ethr =  4.51E-07,  avg # of iterations =  2.2

     negative rho (up, down):  9.203E-03 8.586E-03

     total cpu time spent up to now is      463.3 secs

     total energy              =   -6056.51388175 Ry
     estimated scf accuracy    <       0.00169910 Ry

     total magnetization       =    61.24 Bohr mag/cell
     absolute magnetization    =    68.73 Bohr mag/cell

     iteration # 26     ecut=    50.00 Ry     beta= 0.70
     Davidson diagonalization with overlap
     ethr =  4.51E-07,  avg # of iterations =  1.4

     negative rho (up, down):  1.077E-02 1.017E-02

     total cpu time spent up to now is      477.4 secs

     total energy              =   -6056.51395635 Ry
     estimated scf accuracy    <       0.00080642 Ry

     total magnetization       =    61.24 Bohr mag/cell
     absolute magnetization    =    68.73 Bohr mag/cell

     iteration # 27     ecut=    50.00 Ry     beta= 0.70
     Davidson diagonalization with overlap
     ethr =  2.41E-07,  avg # of iterations =  2.2

     negative rho (up, down):  6.408E-03 5.726E-03

     total cpu time spent up to now is      497.4 secs

     total energy              =   -6056.51398649 Ry
     estimated scf accuracy    <       0.00104606 Ry

     total magnetization       =    61.24 Bohr mag/cell
     absolute magnetization    =    68.73 Bohr mag/cell

     iteration # 28     ecut=    50.00 Ry     beta= 0.70
     Davidson diagonalization with overlap
     ethr =  2.41E-07,  avg # of iterations =  1.5

     negative rho (up, down):  4.701E-03 3.903E-03

     total cpu time spent up to now is      511.2 secs

     total energy              =   -6056.51397133 Ry
     estimated scf accuracy    <       0.00020544 Ry

     total magnetization       =    61.24 Bohr mag/cell
     absolute magnetization    =    68.73 Bohr mag/cell

     iteration # 29     ecut=    50.00 Ry     beta= 0.70
     Davidson diagonalization with overlap
     ethr =  6.13E-08,  avg # of iterations =  4.1

     negative rho (up, down):  3.586E-03 2.588E-03

     total cpu time spent up to now is      531.8 secs

     total energy              =   -6056.51398773 Ry
     estimated scf accuracy    <       0.00032643 Ry

     total magnetization       =    61.24 Bohr mag/cell
     absolute magnetization    =    68.73 Bohr mag/cell

     iteration # 30     ecut=    50.00 Ry     beta= 0.70
     Davidson diagonalization with overlap
     ethr =  6.13E-08,  avg # of iterations =  1.7

     negative rho (up, down):  3.409E-03 2.343E-03

     total cpu time spent up to now is      552.0 secs

     total energy              =   -6056.51399889 Ry
     estimated scf accuracy    <       0.00008800 Ry

     total magnetization       =    61.24 Bohr mag/cell
     absolute magnetization    =    68.73 Bohr mag/cell

     iteration # 31     ecut=    50.00 Ry     beta= 0.70
     Davidson diagonalization with overlap
     ethr =  2.63E-08,  avg # of iterations =  3.8

     negative rho (up, down):  3.760E-03 2.728E-03

     total cpu time spent up to now is      568.0 secs

     total energy              =   -6056.51400145 Ry
     estimated scf accuracy    <       0.00024000 Ry

     total magnetization       =    61.24 Bohr mag/cell
     absolute magnetization    =    68.73 Bohr mag/cell

     iteration # 32     ecut=    50.00 Ry     beta= 0.70
     Davidson diagonalization with overlap
     ethr =  2.63E-08,  avg # of iterations =  1.6

     negative rho (up, down):  3.343E-03 2.265E-03

     total cpu time spent up to now is      586.9 secs

     total energy              =   -6056.51399945 Ry
     estimated scf accuracy    <       0.00005517 Ry

     total magnetization       =    61.24 Bohr mag/cell
     absolute magnetization    =    68.73 Bohr mag/cell

     iteration # 33     ecut=    50.00 Ry     beta= 0.70
     Davidson diagonalization with overlap
     ethr =  1.65E-08,  avg # of iterations =  1.8

     negative rho (up, down):  3.262E-03 2.183E-03

     total cpu time spent up to now is      602.3 secs

     total energy              =   -6056.51400066 Ry
     estimated scf accuracy    <       0.00004725 Ry

     total magnetization       =    61.24 Bohr mag/cell
     absolute magnetization    =    68.73 Bohr mag/cell

     iteration # 34     ecut=    50.00 Ry     beta= 0.70
     Davidson diagonalization with overlap
     ethr =  1.41E-08,  avg # of iterations =  1.8

     negative rho (up, down):  3.203E-03 2.121E-03

     total cpu time spent up to now is      621.4 secs

     total energy              =   -6056.51400174 Ry
     estimated scf accuracy    <       0.00008136 Ry

     total magnetization       =    61.24 Bohr mag/cell
     absolute magnetization    =    68.73 Bohr mag/cell

     iteration # 35     ecut=    50.00 Ry     beta= 0.70
     Davidson diagonalization with overlap
     ethr =  1.41E-08,  avg # of iterations =  1.2

     negative rho (up, down):  2.996E-03 1.980E-03

     total cpu time spent up to now is      634.8 secs

     total energy              =   -6056.51400440 Ry
     estimated scf accuracy    <       0.00005923 Ry

     total magnetization       =    61.24 Bohr mag/cell
     absolute magnetization    =    68.73 Bohr mag/cell

     iteration # 36     ecut=    50.00 Ry     beta= 0.70
     Davidson diagonalization with overlap
     ethr =  1.41E-08,  avg # of iterations =  1.9

     negative rho (up, down):  2.941E-03 1.937E-03

     total cpu time spent up to now is      653.8 secs

     total energy              =   -6056.51400307 Ry
     estimated scf accuracy    <       0.00002911 Ry

     total magnetization       =    61.24 Bohr mag/cell
     absolute magnetization    =    68.73 Bohr mag/cell

     iteration # 37     ecut=    50.00 Ry     beta= 0.70
     Davidson diagonalization with overlap
     ethr =  8.69E-09,  avg # of iterations =  2.2

     negative rho (up, down):  2.917E-03 1.936E-03

     total cpu time spent up to now is      674.7 secs

     total energy              =   -6056.51400299 Ry
     estimated scf accuracy    <       0.00007778 Ry

     total magnetization       =    61.24 Bohr mag/cell
     absolute magnetization    =    68.73 Bohr mag/cell

     iteration # 38     ecut=    50.00 Ry     beta= 0.70
     Davidson diagonalization with overlap
     ethr =  8.69E-09,  avg # of iterations =  1.2

     negative rho (up, down):  2.720E-03 1.648E-03

     total cpu time spent up to now is      687.9 secs

     total energy              =   -6056.51400197 Ry
     estimated scf accuracy    <       0.00000703 Ry

     total magnetization       =    61.24 Bohr mag/cell
     absolute magnetization    =    68.73 Bohr mag/cell

     iteration # 39     ecut=    50.00 Ry     beta= 0.70
     Davidson diagonalization with overlap
     ethr =  2.10E-09,  avg # of iterations =  5.2

     negative rho (up, down):  2.719E-03 1.662E-03

     total cpu time spent up to now is      710.0 secs

     total energy              =   -6056.51400179 Ry
     estimated scf accuracy    <       0.00002604 Ry

     total magnetization       =    61.24 Bohr mag/cell
     absolute magnetization    =    68.73 Bohr mag/cell

     iteration # 40     ecut=    50.00 Ry     beta= 0.70
     Davidson diagonalization with overlap
     ethr =  2.10E-09,  avg # of iterations =  1.7

     negative rho (up, down):  2.656E-03 1.593E-03

     total cpu time spent up to now is      725.2 secs

     total energy              =   -6056.51400222 Ry
     estimated scf accuracy    <       0.00000345 Ry

     total magnetization       =    61.24 Bohr mag/cell
     absolute magnetization    =    68.73 Bohr mag/cell

     iteration # 41     ecut=    50.00 Ry     beta= 0.70
     Davidson diagonalization with overlap
     ethr =  1.03E-09,  avg # of iterations =  2.2

     negative rho (up, down):  2.552E-03 1.465E-03

     total cpu time spent up to now is      744.6 secs

     total energy              =   -6056.51400216 Ry
     estimated scf accuracy    <       0.00000285 Ry

     total magnetization       =    61.24 Bohr mag/cell
     absolute magnetization    =    68.73 Bohr mag/cell

     iteration # 42     ecut=    50.00 Ry     beta= 0.70
     Davidson diagonalization with overlap
     ethr =  8.50E-10,  avg # of iterations =  1.9

     negative rho (up, down):  2.494E-03 1.396E-03

     total cpu time spent up to now is      763.8 secs

     total energy              =   -6056.51400210 Ry
     estimated scf accuracy    <       0.00000587 Ry

     total magnetization       =    61.24 Bohr mag/cell
     absolute magnetization    =    68.73 Bohr mag/cell

     iteration # 43     ecut=    50.00 Ry     beta= 0.70
     Davidson diagonalization with overlap
     ethr =  8.50E-10,  avg # of iterations =  1.4

     negative rho (up, down):  2.489E-03 1.394E-03

     total cpu time spent up to now is      777.5 secs

     total energy              =   -6056.51400225 Ry
     estimated scf accuracy    <       0.00000274 Ry

     total magnetization       =    61.24 Bohr mag/cell
     absolute magnetization    =    68.73 Bohr mag/cell

     iteration # 44     ecut=    50.00 Ry     beta= 0.70
     Davidson diagonalization with overlap
     ethr =  8.17E-10,  avg # of iterations =  1.2

     negative rho (up, down):  2.366E-03 1.263E-03

     total cpu time spent up to now is      796.5 secs

     total energy              =   -6056.51400214 Ry
     estimated scf accuracy    <       0.00000358 Ry

     total magnetization       =    61.24 Bohr mag/cell
     absolute magnetization    =    68.73 Bohr mag/cell

     iteration # 45     ecut=    50.00 Ry     beta= 0.70
     Davidson diagonalization with overlap
     ethr =  8.17E-10,  avg # of iterations =  1.4

     negative rho (up, down):  2.354E-03 1.251E-03

     total cpu time spent up to now is      810.2 secs

     total energy              =   -6056.51400223 Ry
     estimated scf accuracy    <       0.00000146 Ry

     total magnetization       =    61.24 Bohr mag/cell
     absolute magnetization    =    68.73 Bohr mag/cell

     iteration # 46     ecut=    50.00 Ry     beta= 0.70
     Davidson diagonalization with overlap
     ethr =  4.37E-10,  avg # of iterations =  1.6

     negative rho (up, down):  2.307E-03 1.206E-03

     total cpu time spent up to now is      829.2 secs

     total energy              =   -6056.51400218 Ry
     estimated scf accuracy    <       0.00000276 Ry

     total magnetization       =    61.24 Bohr mag/cell
     absolute magnetization    =    68.73 Bohr mag/cell

     iteration # 47     ecut=    50.00 Ry     beta= 0.70
     Davidson diagonalization with overlap
     ethr =  4.37E-10,  avg # of iterations =  1.4

     negative rho (up, down):  2.272E-03 1.170E-03

     total cpu time spent up to now is      843.3 secs

     total energy              =   -6056.51400217 Ry
     estimated scf accuracy    <       0.00000227 Ry

     total magnetization       =    61.24 Bohr mag/cell
     absolute magnetization    =    68.73 Bohr mag/cell

     iteration # 48     ecut=    50.00 Ry     beta= 0.70
     Davidson diagonalization with overlap
     ethr =  4.37E-10,  avg # of iterations =  1.1

     negative rho (up, down):  2.303E-03 1.204E-03

     total cpu time spent up to now is      862.1 secs

     total energy              =   -6056.51400229 Ry
     estimated scf accuracy    <       0.00000048 Ry

     total magnetization       =    61.24 Bohr mag/cell
     absolute magnetization    =    68.73 Bohr mag/cell

     iteration # 49     ecut=    50.00 Ry     beta= 0.70
     Davidson diagonalization with overlap
     ethr =  1.43E-10,  avg # of iterations =  3.7

     negative rho (up, down):  2.218E-03 1.120E-03

     total cpu time spent up to now is      882.7 secs

     total energy              =   -6056.51400216 Ry
     estimated scf accuracy    <       0.00000145 Ry

     total magnetization       =    61.24 Bohr mag/cell
     absolute magnetization    =    68.73 Bohr mag/cell

     iteration # 50     ecut=    50.00 Ry     beta= 0.70
     Davidson diagonalization with overlap
     ethr =  1.43E-10,  avg # of iterations =  1.5

     negative rho (up, down):  2.209E-03 1.111E-03

     total cpu time spent up to now is      896.5 secs

     total energy              =   -6056.51400218 Ry
     estimated scf accuracy    <       0.00000008 Ry

     total magnetization       =    61.24 Bohr mag/cell
     absolute magnetization    =    68.73 Bohr mag/cell

     iteration # 51     ecut=    50.00 Ry     beta= 0.70
     Davidson diagonalization with overlap
     ethr =  2.35E-11,  avg # of iterations =  7.8

     negative rho (up, down):  2.223E-03 1.126E-03

     total cpu time spent up to now is      922.6 secs

     total energy              =   -6056.51400223 Ry
     estimated scf accuracy    <       0.00000018 Ry

     total magnetization       =    61.24 Bohr mag/cell
     absolute magnetization    =    68.73 Bohr mag/cell

     iteration # 52     ecut=    50.00 Ry     beta= 0.70
     Davidson diagonalization with overlap
     ethr =  2.35E-11,  avg # of iterations =  1.5

     negative rho (up, down):  2.221E-03 1.124E-03

     total cpu time spent up to now is      941.5 secs

     total energy              =   -6056.51400224 Ry
     estimated scf accuracy    <       0.00000003 Ry

     total magnetization       =    61.24 Bohr mag/cell
     absolute magnetization    =    68.73 Bohr mag/cell

     iteration # 53     ecut=    50.00 Ry     beta= 0.70
     Davidson diagonalization with overlap
     ethr =  7.99E-12,  avg # of iterations =  2.4

     negative rho (up, down):  2.216E-03 1.120E-03

     total cpu time spent up to now is      956.2 secs

     total energy              =   -6056.51400223 Ry
     estimated scf accuracy    <       0.00000001 Ry

     total magnetization       =    61.24 Bohr mag/cell
     absolute magnetization    =    68.73 Bohr mag/cell

     iteration # 54     ecut=    50.00 Ry     beta= 0.70
     Davidson diagonalization with overlap
     ethr =  3.02E-12,  avg # of iterations =  6.7

     negative rho (up, down):  2.224E-03 1.128E-03

     total cpu time spent up to now is      980.3 secs

     total energy              =   -6056.51400225 Ry
     estimated scf accuracy    <       0.00000001 Ry

     total magnetization       =    61.24 Bohr mag/cell
     absolute magnetization    =    68.73 Bohr mag/cell

     iteration # 55     ecut=    50.00 Ry     beta= 0.70
     Davidson diagonalization with overlap
     ethr =  3.02E-12,  avg # of iterations =  1.4

     negative rho (up, down):  2.230E-03 1.134E-03

     Magnetic moment per site  (integrated on atomic sphere of radius R)
     atom   1 (R=0.104)  charge=  6.2767  magn=  1.7691
     atom   2 (R=0.104)  charge=  6.2770  magn=  1.7682
     atom   3 (R=0.104)  charge=  6.2764  magn=  1.7766
     atom   4 (R=0.104)  charge=  6.2767  magn=  1.7770
     atom   5 (R=0.104)  charge=  6.2767  magn=  1.7724
     atom   6 (R=0.104)  charge=  6.2769  magn=  1.7708
     atom   7 (R=0.104)  charge=  6.2767  magn=  1.7703
     atom   8 (R=0.104)  charge=  6.2774  magn=  1.7669
     atom   9 (R=0.104)  charge=  6.2770  magn=  1.7679
     atom  10 (R=0.104)  charge=  6.2836  magn=  1.6970
     atom  11 (R=0.104)  charge=  6.2845  magn=  1.6928
     atom  12 (R=0.104)  charge=  6.2841  magn=  1.7000
     atom  13 (R=0.104)  charge=  6.2837  magn=  1.6974
     atom  14 (R=0.104)  charge=  6.2839  magn=  1.6992
     atom  15 (R=0.104)  charge=  6.2836  magn=  1.7000
     atom  16 (R=0.104)  charge=  6.2842  magn=  1.6920
     atom  17 (R=0.104)  charge=  6.2838  magn=  1.6952
     atom  18 (R=0.104)  charge=  6.2841  magn=  1.6937
     atom  19 (R=0.104)  charge=  6.2822  magn=  1.7090
     atom  20 (R=0.104)  charge=  6.2822  magn=  1.6991
     atom  21 (R=0.104)  charge=  6.2824  magn=  1.7018
     atom  22 (R=0.104)  charge=  6.2833  magn=  1.7077
     atom  23 (R=0.104)  charge=  6.2822  magn=  1.7094
     atom  24 (R=0.104)  charge=  6.2830  magn=  1.7110
     atom  25 (R=0.104)  charge=  6.2810  magn=  1.7059
     atom  26 (R=0.104)  charge=  6.2801  magn=  1.7212
     atom  27 (R=0.104)  charge=  6.2823  magn=  1.6921
     atom  28 (R=0.104)  charge=  6.2942  magn=  1.5813
     atom  29 (R=0.104)  charge=  6.3121  magn=  1.2406
     atom  30 (R=0.104)  charge=  6.2795  magn=  1.7525
     atom  31 (R=0.104)  charge=  6.2813  magn=  1.7635
     atom  32 (R=0.104)  charge=  6.2780  magn=  1.7675
     atom  33 (R=0.104)  charge=  6.2759  magn=  1.7842
     atom  34 (R=0.104)  charge=  6.2785  magn=  1.7801
     atom  35 (R=0.104)  charge=  6.2856  magn=  1.7208
     atom  36 (R=0.104)  charge=  6.2784  magn=  1.7717
     atom  37 (R=0.063)  charge=  0.9472  magn= -0.0143
     atom  38 (R=0.068)  charge=  3.0988  magn=  0.0052
     atom  39 (R=0.063)  charge=  0.5089  magn=  0.0105

     total cpu time spent up to now is      993.7 secs

     End of self-consistent calculation

 ------ SPIN UP ------------


          k = 0.0000 0.0000 0.0000 ( 51087 PWs)   bands (ev):

   -21.7386 -10.6895  -7.5291  -6.9347  -6.2876  -5.7398  -5.3166  -4.6629
    -4.6288  -4.6278  -4.6275  -4.6183  -4.6117  -4.5757  -4.2741  -4.0996
    -4.0968  -4.0932  -4.0798  -4.0719  -4.0352  -3.5832  -3.5794  -3.5763
    -3.5729  -3.5623  -3.5316  -3.4604  -3.4475  -3.4459  -3.4432  -3.4397
    -3.4198  -3.3772  -3.3758  -3.0659  -3.0610  -3.0579  -3.0567  -3.0485
    -3.0021  -2.9946  -2.9893  -2.9864  -2.9843  -2.9821  -2.9784  -2.8288
    -2.8277  -2.8036  -2.7705  -2.7579  -2.7529  -2.7506  -2.7434  -2.7288
    -2.7236  -2.7154  -2.7145  -2.6238  -2.6212  -2.6168  -2.6129  -2.6038
    -2.5779  -2.3392  -2.0885  -2.0850  -2.0796  -2.0732  -2.0672  -1.9735
    -1.9615  -1.9427  -1.9268  -1.9188  -1.9151  -1.9066  -1.9013  -1.8986
    -1.8796  -1.8454  -1.8433  -1.7971  -1.7894  -1.7882  -1.7722  -1.7628
    -1.7612  -1.7551  -1.7501  -1.7498  -1.7389  -1.7220  -1.7198  -1.7161
    -1.7111  -1.7093  -1.7081  -1.7072  -1.7060  -1.7035  -1.6967  -1.6964
    -1.6920  -1.6597  -1.6515  -1.6254  -1.6204  -1.5464  -1.5429  -1.5069
    -1.3358  -1.2613  -1.2488  -1.2475  -1.2462  -1.2441  -1.2416  -1.2236
    -1.2131  -1.2125  -1.1798  -1.1747  -1.1576  -1.1364  -1.0405  -1.0390
    -1.0083  -1.0057  -0.9006  -0.8522  -0.8393  -0.8358  -0.8278  -0.8199
    -0.7664  -0.7568  -0.7531  -0.7519  -0.7490  -0.7361  -0.6427  -0.6380
    -0.5341  -0.5156  -0.5097  -0.5075  -0.4872  -0.4784  -0.4507  -0.4461
    -0.4439  -0.4404  -0.4350  -0.4325  -0.4274  -0.4254  -0.4252  -0.4206
    -0.4164  -0.4130  -0.3972  -0.3843  -0.3743  -0.3626  -0.3611  -0.3589
    -0.3489  -0.3396  -0.3207  -0.3195  -0.3144  -0.2931  -0.2887  -0.2864
    -0.2839  -0.2744  -0.2661  -0.2599  -0.2435  -0.2251  -0.2132  -0.2095
    -0.2081  -0.2028  -0.2005  -0.1974  -0.1943  -0.1827  -0.1331  -0.1291
    -0.1151  -0.1136  -0.0524  -0.0514  -0.0469  -0.0413  -0.0382  -0.0255
     0.3424   1.1222

          k = 0.0000 0.2309 0.0000 ( 51134 PWs)   bands (ev):

   -21.7386 -10.6885  -7.3879  -6.9191  -6.2114  -5.7210  -5.3806  -5.2731
    -4.8760  -4.8721  -4.5156  -4.3633  -4.2880  -4.2874  -4.2192  -4.1717
    -4.1312  -4.1180  -4.0159  -3.9693  -3.9654  -3.7023  -3.5904  -3.5834
    -3.5089  -3.4821  -3.4643  -3.4595  -3.4575  -3.4407  -3.4313  -3.4196
    -3.3879  -3.3386  -3.3372  -3.3040  -3.3022  -3.1285  -3.0775  -3.0744
    -3.0235  -3.0221  -3.0161  -3.0117  -2.9513  -2.9003  -2.8911  -2.8680
    -2.8524  -2.8473  -2.8224  -2.8094  -2.7184  -2.7152  -2.6877  -2.6566
    -2.6438  -2.6270  -2.6133  -2.5981  -2.5948  -2.5684  -2.5434  -2.5376
    -2.4791  -2.3509  -2.2035  -2.1879  -2.1794  -2.1587  -2.1141  -2.0523
    -2.0417  -2.0393  -2.0256  -2.0210  -2.0078  -1.9940  -1.9763  -1.9275
    -1.9098  -1.9002  -1.8839  -1.8484  -1.8390  -1.8361  -1.8281  -1.8116
    -1.8019  -1.7966  -1.7929  -1.7906  -1.7849  -1.7546  -1.7244  -1.7079
    -1.6940  -1.6665  -1.6256  -1.6147  -1.6069  -1.6008  -1.5927  -1.5847
    -1.5713  -1.5618  -1.5568  -1.5511  -1.5466  -1.5233  -1.5101  -1.5045
    -1.4843  -1.4799  -1.4606  -1.4014  -1.3809  -1.3570  -1.2797  -1.2738
    -1.2684  -1.2613  -1.2491  -1.2448  -1.2406  -1.2370  -1.1592  -1.1030
    -1.0864  -1.0637  -0.9895  -0.9879  -0.9631  -0.9163  -0.8941  -0.8897
    -0.8500  -0.7991  -0.7797  -0.7637  -0.7531  -0.7420  -0.7091  -0.7030
    -0.6861  -0.6723  -0.6573  -0.6180  -0.6153  -0.6022  -0.5924  -0.5816
    -0.5506  -0.5206  -0.5115  -0.5037  -0.4973  -0.4736  -0.4491  -0.4460
    -0.4397  -0.4315  -0.4249  -0.4152  -0.4004  -0.3879  -0.3750  -0.3466
    -0.3222  -0.3130  -0.3010  -0.2768  -0.2547  -0.2525  -0.2188  -0.2144
    -0.1914  -0.1887  -0.1828  -0.1656  -0.1643  -0.1443  -0.1318  -0.1295
    -0.0957  -0.0531  -0.0482  -0.0403  -0.0165  -0.0158   0.0167   0.0257
     0.0430   0.0820   0.3181   0.3290   0.4282   0.5218   0.5789   0.5976
     0.6484   0.8395

          k = 0.0000 0.4619 0.0000 ( 51204 PWs)   bands (ev):

   -21.7386 -10.6870  -7.0534  -6.8172  -6.2589  -6.0169  -5.5372  -5.2507
    -5.0174  -5.0095  -4.8781  -4.1750  -4.1296  -4.1191  -4.1058  -4.0423
    -3.9305  -3.9296  -3.8902  -3.8038  -3.7970  -3.7898  -3.6946  -3.6202
    -3.6175  -3.6017  -3.6004  -3.5541  -3.4964  -3.4920  -3.4898  -3.3339
    -3.3297  -3.3197  -3.3156  -3.2827  -3.2790  -3.1904  -3.1689  -3.1658
    -3.1556  -3.1536  -3.0439  -2.9561  -2.9432  -2.8604  -2.8452  -2.8215
    -2.8099  -2.7806  -2.7657  -2.7636  -2.7568  -2.7334  -2.6853  -2.6702
    -2.6448  -2.6074  -2.5976  -2.5111  -2.4576  -2.4511  -2.4379  -2.4087
    -2.3592  -2.3388  -2.3150  -2.3057  -2.2843  -2.2115  -2.1890  -2.1685
    -2.1645  -2.1621  -2.1495  -2.1336  -2.1259  -2.1168  -2.0747  -2.0658
    -2.0291  -2.0235  -1.9980  -1.9761  -1.9465  -1.9377  -1.8777  -1.8579
    -1.8438  -1.8373  -1.8082  -1.7944  -1.7636  -1.7367  -1.7307  -1.7248
    -1.7149  -1.6951  -1.6879  -1.6632  -1.6544  -1.6430  -1.6355  -1.6193
    -1.5989  -1.5896  -1.5423  -1.5269  -1.4757  -1.4615  -1.4449  -1.4329
    -1.4084  -1.3882  -1.3683  -1.3249  -1.3185  -1.2979  -1.2929  -1.2892
    -1.2851  -1.2779  -1.2633  -1.2604  -1.2561  -1.2471  -1.2393  -1.2227
    -1.2137  -1.1914  -1.1176  -1.0891  -1.0631  -1.0546  -1.0306  -1.0248
    -0.9915  -0.9608  -0.9341  -0.9136  -0.9064  -0.8576  -0.8404  -0.7927
    -0.7836  -0.7498  -0.7370  -0.7051  -0.6968  -0.6848  -0.6521  -0.6119
    -0.5616  -0.5297  -0.5277  -0.5168  -0.5073  -0.5052  -0.4935  -0.4865
    -0.4812  -0.4432  -0.4283  -0.3645  -0.3494  -0.3456  -0.3364  -0.3323
    -0.3280  -0.3069  -0.2876  -0.2832  -0.2760  -0.2625  -0.1822  -0.1643
    -0.1579  -0.1509  -0.1281  -0.0962  -0.0588  -0.0544  -0.0188  -0.0159
     0.0098   0.0540   0.0579   0.0747   0.0805   0.0872   0.0925   0.1205
     0.1915   0.2046   0.2978   0.9100   1.1551   1.2262   1.3166   1.3457
     1.5446   1.6698

          k = 0.2000-0.1155 0.0000 ( 51134 PWs)   bands (ev):

   -21.7386 -10.6888  -7.3878  -6.9193  -6.2060  -5.7070  -5.3973  -5.2769
    -4.8739  -4.8665  -4.5166  -4.3843  -4.2887  -4.2848  -4.2215  -4.1789
    -4.1308  -4.0952  -4.0272  -3.9703  -3.9542  -3.7049  -3.5912  -3.5820
    -3.5061  -3.4882  -3.4623  -3.4588  -3.4566  -3.4489  -3.4310  -3.4149
    -3.3863  -3.3426  -3.3346  -3.3031  -3.3021  -3.1184  -3.0831  -3.0748
    -3.0492  -3.0186  -3.0164  -3.0087  -2.9424  -2.9223  -2.8877  -2.8611
    -2.8501  -2.8453  -2.8241  -2.8113  -2.7278  -2.7157  -2.6911  -2.6572
    -2.6479  -2.6254  -2.6086  -2.5906  -2.5837  -2.5619  -2.5427  -2.5369
    -2.4844  -2.3575  -2.2057  -2.1930  -2.1662  -2.1517  -2.1121  -2.0543
    -2.0444  -2.0362  -2.0306  -2.0178  -2.0094  -1.9877  -1.9650  -1.9311
    -1.9036  -1.9031  -1.8854  -1.8417  -1.8390  -1.8363  -1.8311  -1.8083
    -1.8056  -1.7965  -1.7934  -1.7904  -1.7886  -1.7611  -1.7194  -1.7024
    -1.6895  -1.6636  -1.6326  -1.6160  -1.6065  -1.6034  -1.5892  -1.5839
    -1.5762  -1.5624  -1.5527  -1.5492  -1.5415  -1.5275  -1.5012  -1.4947
    -1.4878  -1.4770  -1.4522  -1.4318  -1.3864  -1.3563  -1.2773  -1.2736
    -1.2669  -1.2636  -1.2465  -1.2453  -1.2432  -1.2369  -1.1340  -1.1017
    -1.0822  -1.0623  -0.9912  -0.9874  -0.9638  -0.9224  -0.8948  -0.8886
    -0.8240  -0.8203  -0.7922  -0.7708  -0.7556  -0.7449  -0.7050  -0.7034
    -0.6871  -0.6704  -0.6551  -0.6205  -0.6166  -0.5982  -0.5959  -0.5866
    -0.5562  -0.5170  -0.5093  -0.5059  -0.4846  -0.4661  -0.4460  -0.4414
    -0.4357  -0.4317  -0.4274  -0.4164  -0.3979  -0.3873  -0.3789  -0.3631
    -0.3182  -0.3093  -0.2898  -0.2795  -0.2577  -0.2521  -0.2232  -0.2133
    -0.1914  -0.1868  -0.1844  -0.1670  -0.1598  -0.1438  -0.1341  -0.1283
    -0.0939  -0.0540  -0.0494  -0.0404  -0.0167  -0.0156   0.0255   0.0297
     0.0379   0.0828   0.3029   0.3297   0.3972   0.5007   0.5753   0.6287
     0.6553   0.7756

          k = 0.2000 0.1155 0.0000 ( 51134 PWs)   bands (ev):

   -21.7386 -10.6889  -7.3881  -6.9197  -6.2039  -5.7035  -5.3785  -5.3048
    -4.8697  -4.8645  -4.5185  -4.3903  -4.2893  -4.2839  -4.2221  -4.1794
    -4.1261  -4.0937  -4.0287  -3.9689  -3.9549  -3.7054  -3.5896  -3.5852
    -3.5050  -3.4889  -3.4606  -3.4601  -3.4565  -3.4448  -3.4319  -3.4155
    -3.3871  -3.3413  -3.3354  -3.3035  -3.3011  -3.1147  -3.0771  -3.0753
    -3.0476  -3.0201  -3.0164  -3.0145  -2.9392  -2.9185  -2.8928  -2.8644
    -2.8495  -2.8466  -2.8249  -2.8155  -2.7270  -2.7152  -2.7018  -2.6601
    -2.6465  -2.6214  -2.6114  -2.5895  -2.5775  -2.5623  -2.5431  -2.5397
    -2.4867  -2.3472  -2.2091  -2.1970  -2.1735  -2.1471  -2.1099  -2.0474
    -2.0434  -2.0372  -2.0311  -2.0218  -2.0121  -1.9878  -1.9551  -1.9276
    -1.9137  -1.8994  -1.8797  -1.8481  -1.8383  -1.8350  -1.8298  -1.8074
    -1.8051  -1.8005  -1.7955  -1.7904  -1.7825  -1.7541  -1.7183  -1.7140
    -1.6908  -1.6620  -1.6231  -1.6123  -1.6046  -1.6032  -1.5848  -1.5822
    -1.5755  -1.5644  -1.5591  -1.5488  -1.5424  -1.5280  -1.5025  -1.4953
    -1.4848  -1.4804  -1.4492  -1.4364  -1.3852  -1.3615  -1.2781  -1.2723
    -1.2692  -1.2631  -1.2504  -1.2463  -1.2429  -1.2369  -1.1268  -1.0928
    -1.0859  -1.0616  -0.9934  -0.9869  -0.9613  -0.9226  -0.8969  -0.8897
    -0.8262  -0.8095  -0.7933  -0.7684  -0.7608  -0.7457  -0.7096  -0.7056
    -0.6840  -0.6731  -0.6558  -0.6156  -0.6091  -0.6071  -0.5972  -0.5843
    -0.5555  -0.5189  -0.5105  -0.5039  -0.4887  -0.4577  -0.4478  -0.4443
    -0.4396  -0.4309  -0.4195  -0.4136  -0.3987  -0.3871  -0.3816  -0.3588
    -0.3196  -0.3077  -0.2888  -0.2789  -0.2620  -0.2536  -0.2200  -0.2159
    -0.1905  -0.1883  -0.1850  -0.1665  -0.1568  -0.1449  -0.1331  -0.1283
    -0.0953  -0.0546  -0.0506  -0.0413  -0.0158  -0.0153   0.0233   0.0293
     0.0420   0.0783   0.2935   0.3300   0.3899   0.4988   0.5728   0.6160
     0.6712   0.7647

          k = 0.2000 0.3464 0.0000 ( 51202 PWs)   bands (ev):

   -21.7386 -10.6876  -7.1393  -6.8710  -6.1105  -5.7468  -5.7014  -5.4987
    -5.2849  -4.6088  -4.5298  -4.2946  -4.2885  -4.2518  -4.0754  -4.0716
    -3.9881  -3.9786  -3.9600  -3.8421  -3.8314  -3.7044  -3.6956  -3.6368
    -3.5855  -3.4994  -3.4973  -3.4678  -3.4471  -3.4392  -3.4324  -3.4081
    -3.3921  -3.3763  -3.3690  -3.3202  -3.2799  -3.2388  -3.2366  -3.1272
    -3.1077  -3.0191  -3.0102  -2.9847  -2.9700  -2.9570  -2.8662  -2.8272
    -2.8136  -2.7979  -2.7796  -2.7769  -2.7306  -2.7194  -2.7018  -2.6911
    -2.6742  -2.5774  -2.5558  -2.5125  -2.4987  -2.4774  -2.4570  -2.4385
    -2.4286  -2.3387  -2.2995  -2.2365  -2.2252  -2.1850  -2.1642  -2.1452
    -2.1398  -2.1327  -2.1200  -2.0978  -2.0874  -2.0667  -2.0646  -2.0491
    -2.0423  -2.0186  -1.9575  -1.9292  -1.8777  -1.8725  -1.8514  -1.8375
    -1.8240  -1.8035  -1.7858  -1.7587  -1.7457  -1.7244  -1.7163  -1.7128
    -1.6973  -1.6912  -1.6769  -1.6727  -1.6598  -1.6533  -1.6329  -1.6142
    -1.6054  -1.5937  -1.5627  -1.5441  -1.5221  -1.5092  -1.4802  -1.4713
    -1.4622  -1.4479  -1.4400  -1.3963  -1.3804  -1.3693  -1.3453  -1.3132
    -1.2999  -1.2944  -1.2921  -1.2730  -1.2572  -1.2532  -1.2327  -1.1951
    -1.1498  -1.1283  -1.1200  -1.0833  -1.0081  -0.9960  -0.9816  -0.9020
    -0.8643  -0.8616  -0.8558  -0.8465  -0.8350  -0.8214  -0.8077  -0.7927
    -0.7780  -0.7606  -0.7370  -0.7037  -0.6942  -0.6877  -0.6662  -0.6534
    -0.6306  -0.6158  -0.5826  -0.5788  -0.5693  -0.5508  -0.4820  -0.4230
    -0.4103  -0.3812  -0.3747  -0.3692  -0.3502  -0.3405  -0.3277  -0.3239
    -0.3164  -0.3100  -0.2367  -0.2323  -0.2162  -0.2094  -0.1711  -0.1617
    -0.1395  -0.1353  -0.1318  -0.1145  -0.1051  -0.0986  -0.0920  -0.0757
    -0.0672  -0.0413   0.0224   0.0312   0.0358   0.0834   0.0862   0.0938
     0.3954   0.4248   0.5063   0.5565   0.6877   0.7692   1.0781   1.2604
     1.3268   1.4872

          k = 0.2000-0.5774 0.0000 ( 51262 PWs)   bands (ev):

   -21.7386 -10.6868  -6.9890  -6.4918  -6.4771  -6.0083  -5.7820  -5.4479
    -5.0824  -5.0426  -4.6362  -4.2801  -4.0366  -3.9980  -3.8836  -3.8645
    -3.8582  -3.8384  -3.8317  -3.8082  -3.7616  -3.7477  -3.7458  -3.7397
    -3.6597  -3.6498  -3.5974  -3.5959  -3.5669  -3.5626  -3.4681  -3.4267
    -3.4102  -3.4026  -3.3887  -3.3502  -3.2592  -3.2487  -3.1444  -3.1178
    -3.1130  -3.0454  -3.0353  -3.0149  -2.9866  -2.9061  -2.9018  -2.8972
    -2.8299  -2.8262  -2.7585  -2.7192  -2.6851  -2.6781  -2.6378  -2.6208
    -2.5754  -2.5375  -2.5276  -2.5141  -2.5094  -2.4836  -2.4711  -2.4080
    -2.3649  -2.3248  -2.3047  -2.3006  -2.2738  -2.2460  -2.2312  -2.1796
    -2.1658  -2.1393  -2.1311  -2.1198  -2.1143  -2.0757  -2.0624  -2.0516
    -2.0396  -2.0319  -2.0104  -1.9949  -1.9859  -1.9789  -1.9151  -1.9011
    -1.8821  -1.8505  -1.8277  -1.8085  -1.7668  -1.7580  -1.7500  -1.7248
    -1.7049  -1.6957  -1.6920  -1.6867  -1.6737  -1.6617  -1.6368  -1.6307
    -1.5698  -1.5485  -1.5405  -1.5366  -1.5212  -1.5167  -1.5108  -1.4978
    -1.4937  -1.4869  -1.4689  -1.4354  -1.4281  -1.3869  -1.3826  -1.3528
    -1.2983  -1.2899  -1.2539  -1.2426  -1.2306  -1.2232  -1.2070  -1.1483
    -1.1380  -1.1291  -1.1225  -1.0614  -1.0435  -0.9963  -0.9830  -0.9668
    -0.9502  -0.9359  -0.9275  -0.9152  -0.8791  -0.8738  -0.8430  -0.8234
    -0.7971  -0.7822  -0.7684  -0.7507  -0.7348  -0.7014  -0.6778  -0.6608
    -0.6523  -0.6414  -0.6346  -0.6081  -0.5867  -0.5683  -0.5484  -0.4730
    -0.3792  -0.3697  -0.3620  -0.3552  -0.3469  -0.3433  -0.3325  -0.3242
    -0.2858  -0.2781  -0.2634  -0.2560  -0.2378  -0.2098  -0.1436  -0.1377
    -0.1240  -0.1119  -0.0939  -0.0875  -0.0458  -0.0334  -0.0293  -0.0195
    -0.0087   0.0497   0.0618   0.0655   0.0840   0.0884   0.1135   0.1403
     0.2483   0.4299   0.5011   0.7649   1.3040   1.3559   1.5142   1.6372
     1.8383   1.9230

          k = 0.2000-0.3464 0.0000 ( 51202 PWs)   bands (ev):

   -21.7386 -10.6876  -7.1368  -6.8733  -6.1127  -5.7525  -5.7031  -5.4994
    -5.2735  -4.6134  -4.5246  -4.2951  -4.2886  -4.2500  -4.0748  -4.0718
    -3.9883  -3.9774  -3.9580  -3.8419  -3.8343  -3.7017  -3.6967  -3.6370
    -3.5859  -3.5016  -3.4964  -3.4682  -3.4431  -3.4407  -3.4384  -3.4089
    -3.3921  -3.3761  -3.3698  -3.3220  -3.2806  -3.2413  -3.2348  -3.1267
    -3.1120  -3.0183  -3.0085  -2.9876  -2.9728  -2.9555  -2.8632  -2.8214
    -2.8087  -2.7973  -2.7793  -2.7740  -2.7253  -2.7174  -2.6993  -2.6923
    -2.6741  -2.5650  -2.5557  -2.5184  -2.4987  -2.4760  -2.4565  -2.4402
    -2.4259  -2.3477  -2.3097  -2.2395  -2.2240  -2.1832  -2.1676  -2.1488
    -2.1431  -2.1275  -2.1186  -2.0939  -2.0803  -2.0731  -2.0659  -2.0498
    -2.0463  -2.0226  -1.9537  -1.9304  -1.8761  -1.8707  -1.8431  -1.8385
    -1.8255  -1.8052  -1.7882  -1.7583  -1.7524  -1.7256  -1.7147  -1.7110
    -1.7028  -1.6910  -1.6781  -1.6678  -1.6578  -1.6532  -1.6266  -1.6179
    -1.6050  -1.5920  -1.5744  -1.5445  -1.5248  -1.5140  -1.4792  -1.4724
    -1.4640  -1.4458  -1.4426  -1.3943  -1.3775  -1.3643  -1.3461  -1.3204
    -1.2977  -1.2954  -1.2913  -1.2741  -1.2630  -1.2504  -1.2311  -1.1905
    -1.1571  -1.1256  -1.1220  -1.0844  -1.0115  -0.9974  -0.9840  -0.8856
    -0.8685  -0.8598  -0.8557  -0.8428  -0.8365  -0.8253  -0.8094  -0.7857
    -0.7718  -0.7592  -0.7401  -0.7124  -0.6971  -0.6828  -0.6707  -0.6526
    -0.6342  -0.6071  -0.5907  -0.5736  -0.5688  -0.5513  -0.4769  -0.4247
    -0.4077  -0.3888  -0.3757  -0.3666  -0.3530  -0.3382  -0.3316  -0.3215
    -0.3156  -0.3106  -0.2382  -0.2298  -0.2131  -0.2078  -0.1696  -0.1588
    -0.1406  -0.1372  -0.1336  -0.1142  -0.1059  -0.0972  -0.0926  -0.0734
    -0.0677  -0.0395   0.0207   0.0322   0.0368   0.0830   0.0853   0.0996
     0.3902   0.4250   0.5103   0.5495   0.6773   0.7690   1.1169   1.2869
     1.3055   1.5085

          k = 0.4000-0.2309 0.0000 ( 51204 PWs)   bands (ev):

   -21.7386 -10.6878  -7.0563  -6.8133  -6.2423  -6.0164  -5.5083  -5.2944
    -5.0165  -4.9971  -4.9029  -4.1920  -4.1293  -4.1187  -4.0797  -4.0518
    -3.9301  -3.9277  -3.8939  -3.7999  -3.7969  -3.7913  -3.7055  -3.6198
    -3.6135  -3.6012  -3.5997  -3.5564  -3.5052  -3.4935  -3.4880  -3.3338
    -3.3292  -3.3192  -3.3056  -3.2828  -3.2800  -3.1861  -3.1736  -3.1637
    -3.1609  -3.1540  -3.0459  -2.9825  -2.9417  -2.8757  -2.8474  -2.8298
    -2.8094  -2.7897  -2.7653  -2.7623  -2.7573  -2.7320  -2.6763  -2.6681
    -2.6445  -2.6082  -2.6019  -2.4955  -2.4574  -2.4519  -2.4406  -2.3982
    -2.3493  -2.3293  -2.3215  -2.3073  -2.2694  -2.2141  -2.1761  -2.1711
    -2.1663  -2.1601  -2.1356  -2.1292  -2.1223  -2.1144  -2.0842  -2.0500
    -2.0339  -2.0135  -1.9970  -1.9694  -1.9560  -1.9371  -1.8871  -1.8545
    -1.8398  -1.8343  -1.8128  -1.7996  -1.7594  -1.7379  -1.7313  -1.7260
    -1.7110  -1.6945  -1.6862  -1.6650  -1.6612  -1.6431  -1.6240  -1.6168
    -1.6010  -1.5906  -1.5410  -1.4972  -1.4776  -1.4638  -1.4335  -1.4238
    -1.4117  -1.3962  -1.3675  -1.3235  -1.3130  -1.3014  -1.2939  -1.2884
    -1.2816  -1.2722  -1.2693  -1.2633  -1.2546  -1.2512  -1.2395  -1.2219
    -1.2057  -1.1888  -1.1327  -1.0899  -1.0644  -1.0508  -1.0378  -1.0122
    -0.9992  -0.9586  -0.9384  -0.9134  -0.9053  -0.8592  -0.8427  -0.7937
    -0.7833  -0.7546  -0.7306  -0.7136  -0.6995  -0.6861  -0.6573  -0.6199
    -0.5844  -0.5315  -0.5236  -0.5081  -0.5038  -0.5000  -0.4937  -0.4851
    -0.4761  -0.4515  -0.4157  -0.3621  -0.3581  -0.3441  -0.3358  -0.3297
    -0.3205  -0.2961  -0.2935  -0.2857  -0.2716  -0.2601  -0.1835  -0.1629
    -0.1566  -0.1522  -0.1267  -0.1032  -0.0608  -0.0555  -0.0247  -0.0055
     0.0101   0.0559   0.0590   0.0795   0.0823   0.0870   0.1044   0.1145
     0.1909   0.2048   0.2582   0.9274   1.0643   1.1886   1.3162   1.3489
     1.5128   1.6893

          k = 0.4000 0.0000 0.0000 ( 51202 PWs)   bands (ev):

   -21.7386 -10.6881  -7.1403  -6.8685  -6.1021  -5.7272  -5.7064  -5.5047
    -5.3026  -4.5876  -4.5518  -4.3026  -4.2919  -4.2483  -4.0766  -4.0718
    -3.9827  -3.9804  -3.9746  -3.8429  -3.8183  -3.7039  -3.6970  -3.6335
    -3.5843  -3.4983  -3.4904  -3.4695  -3.4462  -3.4422  -3.4358  -3.4113
    -3.3893  -3.3765  -3.3634  -3.3254  -3.2790  -3.2531  -3.2364  -3.1198
    -3.1094  -3.0215  -3.0125  -2.9822  -2.9657  -2.9626  -2.8877  -2.8587
    -2.8126  -2.7852  -2.7800  -2.7760  -2.7266  -2.7150  -2.6987  -2.6911
    -2.6755  -2.5878  -2.5576  -2.4999  -2.4912  -2.4771  -2.4614  -2.4336
    -2.4319  -2.3156  -2.2946  -2.2321  -2.2214  -2.1907  -2.1716  -2.1531
    -2.1339  -2.1231  -2.1185  -2.0990  -2.0879  -2.0725  -2.0650  -2.0508
    -2.0279  -2.0159  -1.9556  -1.9294  -1.8769  -1.8726  -1.8517  -1.8349
    -1.8174  -1.8049  -1.7852  -1.7615  -1.7546  -1.7227  -1.7128  -1.7100
    -1.6984  -1.6932  -1.6790  -1.6664  -1.6594  -1.6461  -1.6337  -1.6147
    -1.6048  -1.5753  -1.5549  -1.5352  -1.5206  -1.5166  -1.4819  -1.4752
    -1.4524  -1.4424  -1.4376  -1.4053  -1.3785  -1.3678  -1.3440  -1.3061
    -1.3014  -1.2974  -1.2914  -1.2690  -1.2563  -1.2551  -1.2337  -1.2010
    -1.1462  -1.1284  -1.1272  -1.0874  -1.0047  -1.0005  -0.9839  -0.9026
    -0.8773  -0.8590  -0.8537  -0.8431  -0.8343  -0.8255  -0.8098  -0.8049
    -0.7740  -0.7629  -0.7385  -0.7032  -0.6927  -0.6857  -0.6639  -0.6543
    -0.6334  -0.6198  -0.5849  -0.5760  -0.5713  -0.5549  -0.4871  -0.4138
    -0.4101  -0.3871  -0.3728  -0.3675  -0.3413  -0.3372  -0.3331  -0.3225
    -0.3163  -0.3067  -0.2447  -0.2284  -0.2181  -0.2075  -0.1713  -0.1663
    -0.1396  -0.1378  -0.1298  -0.1177  -0.1034  -0.0982  -0.0939  -0.0721
    -0.0609  -0.0450   0.0228   0.0309   0.0349   0.0815   0.0843   0.0945
     0.4164   0.4235   0.4851   0.5624   0.7292   0.7493   1.0030   1.2488
     1.3204   1.4611

          k = 0.4000 0.2309 0.0000 ( 51204 PWs)   bands (ev):

   -21.7386 -10.6879  -7.0616  -6.8097  -6.2342  -6.0157  -5.4890  -5.3233
    -5.0159  -4.9888  -4.9156  -4.1949  -4.1219  -4.1203  -4.0764  -4.0533
    -3.9309  -3.9266  -3.8943  -3.7998  -3.7971  -3.7927  -3.7087  -3.6197
    -3.6146  -3.6013  -3.5989  -3.5573  -3.5044  -3.4937  -3.4850  -3.3328
    -3.3288  -3.3168  -3.3020  -3.2840  -3.2766  -3.1828  -3.1686  -3.1643
    -3.1598  -3.1537  -3.0404  -2.9863  -2.9511  -2.8817  -2.8536  -2.8271
    -2.8139  -2.7866  -2.7679  -2.7620  -2.7588  -2.7421  -2.6721  -2.6670
    -2.6470  -2.6150  -2.6003  -2.4946  -2.4538  -2.4493  -2.4453  -2.3967
    -2.3521  -2.3297  -2.3216  -2.3088  -2.2669  -2.2155  -2.1820  -2.1724
    -2.1639  -2.1613  -2.1408  -2.1268  -2.1191  -2.1157  -2.0977  -2.0480
    -2.0268  -2.0116  -1.9942  -1.9604  -1.9435  -1.9388  -1.8920  -1.8509
    -1.8425  -1.8399  -1.8111  -1.7943  -1.7539  -1.7331  -1.7268  -1.7248
    -1.7086  -1.6956  -1.6835  -1.6619  -1.6558  -1.6448  -1.6245  -1.6110
    -1.6021  -1.5873  -1.5421  -1.5018  -1.4736  -1.4615  -1.4401  -1.4294
    -1.4037  -1.3925  -1.3647  -1.3258  -1.3111  -1.3053  -1.2942  -1.2908
    -1.2849  -1.2751  -1.2667  -1.2626  -1.2592  -1.2498  -1.2379  -1.2192
    -1.2051  -1.1759  -1.1400  -1.0903  -1.0642  -1.0500  -1.0397  -1.0069
    -0.9856  -0.9682  -0.9368  -0.9233  -0.9074  -0.8555  -0.8483  -0.8048
    -0.7843  -0.7509  -0.7350  -0.7148  -0.6982  -0.6806  -0.6527  -0.6168
    -0.5907  -0.5375  -0.5269  -0.5086  -0.5056  -0.4951  -0.4921  -0.4851
    -0.4776  -0.4499  -0.4176  -0.3615  -0.3546  -0.3451  -0.3349  -0.3315
    -0.3207  -0.2926  -0.2895  -0.2834  -0.2754  -0.2600  -0.1810  -0.1619
    -0.1569  -0.1548  -0.1274  -0.1061  -0.0610  -0.0556  -0.0258  -0.0049
     0.0097   0.0564   0.0581   0.0810   0.0818   0.0860   0.1046   0.1215
     0.1889   0.2013   0.2504   0.9190   1.0479   1.1766   1.3129   1.3412
     1.5323   1.6821

          k = 0.4000-0.6928 0.0000 ( 51262 PWs)   bands (ev):

   -21.7386 -10.6874  -6.9954  -6.4929  -6.4500  -6.0283  -5.7790  -5.3593
    -5.1964  -5.0523  -4.6012  -4.2772  -4.0404  -4.0003  -3.9042  -3.8640
    -3.8553  -3.8447  -3.8333  -3.8110  -3.7547  -3.7482  -3.7457  -3.7379
    -3.6639  -3.6501  -3.5982  -3.5918  -3.5677  -3.5644  -3.4491  -3.4271
    -3.4118  -3.4061  -3.3815  -3.3486  -3.2606  -3.2440  -3.1479  -3.1181
    -3.1151  -3.0553  -3.0314  -3.0157  -2.9857  -2.9211  -2.9036  -2.8954
    -2.8361  -2.8258  -2.7718  -2.7250  -2.6958  -2.6824  -2.6412  -2.6197
    -2.5623  -2.5389  -2.5263  -2.5158  -2.5130  -2.4797  -2.4694  -2.3990
    -2.3518  -2.3219  -2.3143  -2.3027  -2.2720  -2.2416  -2.2138  -2.1837
    -2.1617  -2.1362  -2.1282  -2.1216  -2.1072  -2.0933  -2.0585  -2.0475
    -2.0362  -2.0282  -2.0198  -1.9902  -1.9859  -1.9522  -1.9134  -1.8968
    -1.8882  -1.8803  -1.8144  -1.8092  -1.7712  -1.7472  -1.7313  -1.7217
    -1.7032  -1.6977  -1.6880  -1.6816  -1.6740  -1.6475  -1.6355  -1.6175
    -1.5577  -1.5502  -1.5426  -1.5365  -1.5196  -1.5145  -1.5123  -1.4994
    -1.4951  -1.4843  -1.4659  -1.4477  -1.4271  -1.3917  -1.3804  -1.3607
    -1.3006  -1.2948  -1.2543  -1.2396  -1.2311  -1.2224  -1.2107  -1.1625
    -1.1422  -1.1316  -1.1223  -1.0636  -1.0223  -0.9981  -0.9823  -0.9694
    -0.9522  -0.9335  -0.9270  -0.9150  -0.8809  -0.8701  -0.8340  -0.8226
    -0.7950  -0.7820  -0.7636  -0.7524  -0.7336  -0.7118  -0.6745  -0.6680
    -0.6572  -0.6462  -0.6340  -0.6151  -0.5907  -0.5662  -0.5449  -0.4817
    -0.3756  -0.3676  -0.3628  -0.3537  -0.3498  -0.3410  -0.3311  -0.3197
    -0.2863  -0.2768  -0.2695  -0.2557  -0.2364  -0.2076  -0.1420  -0.1384
    -0.1307  -0.1087  -0.0927  -0.0838  -0.0479  -0.0336  -0.0298  -0.0210
    -0.0174   0.0617   0.0634   0.0781   0.0852   0.0917   0.1110   0.1381
     0.1760   0.4601   0.5208   0.7909   1.1868   1.3653   1.4677   1.7121
     1.8094   1.8732

          k = 0.4000-0.4619 0.0000 ( 51262 PWs)   bands (ev):

   -21.7386 -10.6873  -6.9915  -6.4958  -6.4571  -6.0223  -5.7785  -5.3933
    -5.1588  -5.0458  -4.6116  -4.2780  -4.0394  -3.9996  -3.8997  -3.8636
    -3.8556  -3.8443  -3.8349  -3.8081  -3.7566  -3.7477  -3.7450  -3.7392
    -3.6635  -3.6490  -3.5979  -3.5924  -3.5678  -3.5648  -3.4512  -3.4323
    -3.4116  -3.4061  -3.3847  -3.3498  -3.2560  -3.2481  -3.1473  -3.1230
    -3.1157  -3.0536  -3.0302  -3.0167  -2.9870  -2.9173  -2.9013  -2.8954
    -2.8285  -2.8241  -2.7718  -2.7210  -2.6970  -2.6786  -2.6404  -2.6227
    -2.5654  -2.5371  -2.5264  -2.5158  -2.5116  -2.4737  -2.4677  -2.4070
    -2.3503  -2.3245  -2.3128  -2.3006  -2.2781  -2.2390  -2.2140  -2.1809
    -2.1578  -2.1352  -2.1269  -2.1227  -2.1081  -2.0907  -2.0582  -2.0460
    -2.0417  -2.0274  -2.0150  -1.9893  -1.9848  -1.9614  -1.9158  -1.9016
    -1.8865  -1.8682  -1.8251  -1.8088  -1.7666  -1.7528  -1.7393  -1.7179
    -1.7106  -1.6948  -1.6899  -1.6856  -1.6790  -1.6580  -1.6324  -1.6231
    -1.5622  -1.5488  -1.5421  -1.5375  -1.5249  -1.5144  -1.5116  -1.5012
    -1.4904  -1.4849  -1.4698  -1.4414  -1.4257  -1.3869  -1.3821  -1.3565
    -1.3014  -1.2858  -1.2564  -1.2371  -1.2339  -1.2215  -1.2084  -1.1646
    -1.1369  -1.1317  -1.1180  -1.0638  -1.0264  -0.9983  -0.9821  -0.9637
    -0.9596  -0.9409  -0.9261  -0.9119  -0.8830  -0.8698  -0.8414  -0.8200
    -0.7901  -0.7813  -0.7658  -0.7501  -0.7341  -0.7127  -0.6778  -0.6697
    -0.6536  -0.6420  -0.6327  -0.6156  -0.5935  -0.5680  -0.5390  -0.4793
    -0.3752  -0.3680  -0.3618  -0.3560  -0.3470  -0.3402  -0.3340  -0.3214
    -0.2842  -0.2796  -0.2682  -0.2544  -0.2351  -0.2102  -0.1410  -0.1390
    -0.1279  -0.1107  -0.0938  -0.0859  -0.0460  -0.0333  -0.0296  -0.0210
    -0.0159   0.0598   0.0634   0.0795   0.0852   0.0893   0.1137   0.1403
     0.1846   0.4555   0.5176   0.7785   1.2205   1.3636   1.4796   1.6875
     1.8260   1.8871

 ------ SPIN DOWN ----------


          k = 0.0000 0.0000 0.0000 ( 51087 PWs)   bands (ev):

   -21.7293 -10.7002  -7.6554  -6.8723  -6.3405  -5.7199  -5.3447  -4.4622
    -4.4353  -4.4317  -4.4302  -4.4199  -4.4114  -4.3109  -3.5638  -3.5585
    -3.5556  -3.5364  -3.5315  -3.5207  -3.3998  -2.6179  -2.6134  -2.6075
    -2.5940  -2.5935  -2.5408  -2.2100  -2.1535  -2.1480  -2.1423  -2.1373
    -2.1327  -1.9587  -1.9426  -1.8935  -1.8702  -1.8561  -1.8486  -1.8424
    -1.7599  -1.7564  -1.7079  -1.7032  -1.6571  -1.6116  -1.6074  -1.5947
    -1.5791  -1.4950  -1.3905  -1.3493  -1.3356  -1.3274  -1.3110  -1.3076
    -1.3042  -1.3027  -1.2942  -1.2604  -1.2476  -1.2277  -1.2269  -1.2228
    -1.2127  -1.0969  -0.7574  -0.6696  -0.6553  -0.6492  -0.6483  -0.4933
    -0.4508  -0.3701  -0.3367  -0.3281  -0.3244  -0.3184  -0.3103  -0.3029
    -0.2702  -0.2497  -0.2357  -0.2290  -0.2275  -0.2196  -0.2016  -0.1674
    -0.1443  -0.1373  -0.1252  -0.1233  -0.0932  -0.0757  -0.0697  -0.0687
    -0.0641  -0.0604  -0.0389  -0.0380  -0.0369  -0.0353   0.0326   0.0612
     0.0999   0.1192   0.1302   0.1347   0.1719   0.1823   0.1895   0.1911
     0.1923   0.1961   0.1983   0.2002   0.2696   0.2705   0.3301   0.3483
     0.3633   0.3742   0.3788   0.3847   0.5646   0.5800   0.6049   0.6327
     0.6573   0.6664   0.6777   0.6791   0.7269   0.9555   0.9710   1.0168
     1.0171   1.1450   1.1848   1.1974   1.2192   1.2343   1.2431   1.2467
     1.3786   1.3994   1.4066   1.4075   1.4132   1.4184   1.4282   1.4427
     1.4684   1.4867   1.5009   1.5133   1.5287   1.5357   1.5464   1.5589
     1.5668   1.5680   1.5709   1.5872   1.6175   1.6378   1.6494   1.6566
     1.6701   1.6775   1.6858   1.6914   1.6946   1.6983   1.7045   1.7392
     1.7412   1.7579   1.7670   1.7687   1.7808   1.7854   1.7933   1.7947
     1.8281   1.8331   1.8374   1.8390   1.8440   1.8450   1.8528   1.8550
     1.8681   1.8763   1.9182   1.9197   2.0658   2.0719   2.0741   2.0761
     2.0769   2.0789

          k = 0.0000 0.2309 0.0000 ( 51134 PWs)   bands (ev):

   -21.7293 -10.6992  -7.5092  -6.8573  -6.2538  -5.7299  -5.4054  -5.2910
    -4.8167  -4.8094  -4.2981  -4.1514  -3.8852  -3.8827  -3.7881  -3.7690
    -3.5898  -3.3404  -3.2087  -3.2037  -3.0978  -2.8239  -2.6243  -2.6150
    -2.5507  -2.5060  -2.4986  -2.2935  -2.1956  -2.1820  -2.1739  -2.1462
    -2.1342  -2.0936  -2.0855  -2.0694  -2.0508  -1.9444  -1.9050  -1.8643
    -1.8199  -1.8147  -1.7203  -1.6837  -1.6362  -1.6208  -1.6095  -1.5078
    -1.4800  -1.4458  -1.4137  -1.3897  -1.3606  -1.3424  -1.3233  -1.3139
    -1.3103  -1.3016  -1.2327  -1.1925  -1.1817  -1.1690  -1.1374  -1.1238
    -1.0564  -0.9881  -0.8106  -0.7177  -0.7034  -0.6950  -0.6492  -0.5901
    -0.5624  -0.5372  -0.4865  -0.4675  -0.3702  -0.3560  -0.3486  -0.3307
    -0.3008  -0.2935  -0.2837  -0.2710  -0.2635  -0.2527  -0.2113  -0.1803
    -0.1417  -0.1293  -0.1177  -0.1125  -0.0931  -0.0668  -0.0556  -0.0386
    -0.0343  -0.0283  -0.0192  -0.0153  -0.0122  -0.0081   0.0114   0.0333
     0.0714   0.0760   0.0859   0.0873   0.1207   0.1348   0.1518   0.1554
     0.1937   0.2136   0.2216   0.2530   0.2928   0.3001   0.3051   0.3364
     0.4592   0.4857   0.5340   0.5478   0.5722   0.5834   0.6041   0.6233
     0.6359   0.6426   0.6501   0.6592   0.8301   0.9326   0.9774   0.9834
     0.9894   1.0047   1.0228   1.0328   1.0818   1.1066   1.1672   1.1756
     1.1877   1.2468   1.2624   1.2972   1.3069   1.3333   1.3509   1.3623
     1.4085   1.4448   1.4548   1.4752   1.4815   1.5015   1.5252   1.5322
     1.5506   1.5783   1.6054   1.6207   1.6318   1.6564   1.6651   1.6928
     1.7158   1.7266   1.7306   1.7363   1.7533   1.7630   1.8133   1.8205
     1.8250   1.8288   1.8705   1.8762   1.8855   1.9025   1.9172   1.9232
     1.9381   1.9645   1.9747   1.9787   2.0065   2.0104   2.0118   2.0387
     2.0412   2.0630   2.0655   2.0841   2.1586   2.1717   2.1778   2.2104
     2.2453   2.2646

          k = 0.0000 0.4619 0.0000 ( 51204 PWs)   bands (ev):

   -21.7293 -10.6976  -7.1024  -6.8218  -6.3480  -6.0368  -5.5801  -5.2771
    -5.0286  -5.0195  -4.8718  -3.9454  -3.9157  -3.8303  -3.3247  -3.2661
    -3.2627  -3.1469  -3.0031  -2.9378  -2.8199  -2.8123  -2.6678  -2.6629
    -2.6070  -2.6017  -2.5454  -2.5262  -2.4261  -2.4156  -2.3740  -2.3471
    -2.3425  -2.1492  -2.1283  -2.0539  -2.0463  -1.9885  -1.9321  -1.9269
    -1.9122  -1.8995  -1.7395  -1.6666  -1.6167  -1.5941  -1.5737  -1.5559
    -1.4100  -1.3947  -1.3770  -1.3750  -1.3614  -1.3330  -1.3272  -1.3170
    -1.2836  -1.2206  -1.2103  -1.2018  -1.1842  -1.1493  -1.0383  -0.9715
    -0.9011  -0.8475  -0.7914  -0.7554  -0.7262  -0.6937  -0.6689  -0.6523
    -0.6384  -0.6256  -0.5933  -0.5624  -0.5349  -0.4942  -0.4823  -0.4474
    -0.4160  -0.3926  -0.3724  -0.3604  -0.3525  -0.3183  -0.2553  -0.2156
    -0.1821  -0.1714  -0.1468  -0.1112  -0.0902  -0.0695  -0.0562  -0.0202
    -0.0064   0.0077   0.0197   0.0401   0.0441   0.0463   0.0504   0.0883
     0.0997   0.1308   0.1356   0.1432   0.1520   0.1544   0.1795   0.1894
     0.2039   0.2242   0.2572   0.3468   0.3514   0.3606   0.3924   0.4051
     0.4079   0.4290   0.4351   0.4993   0.5144   0.5251   0.5527   0.5600
     0.5808   0.6024   0.6200   0.6228   0.6633   0.7493   0.8072   0.8289
     0.8444   0.8967   0.9280   1.0306   1.0523   1.0589   1.0834   1.0989
     1.1013   1.1518   1.1781   1.1860   1.2055   1.2552   1.2792   1.3783
     1.3896   1.4277   1.4367   1.4696   1.4850   1.5010   1.5226   1.5423
     1.5742   1.5867   1.6125   1.6602   1.6826   1.6988   1.7047   1.7366
     1.7449   1.7553   1.7883   1.8049   1.8157   1.8271   1.8312   1.8672
     1.8776   1.9169   1.9430   1.9595   1.9846   2.0070   2.0117   2.0219
     2.0313   2.0409   2.0629   2.0676   2.0749   2.0992   2.1041   2.1087
     2.1113   2.1556   2.2511   2.3200   2.3400   2.4507   2.5044   2.7651
     2.8303   2.8755

          k = 0.2000-0.1155 0.0000 ( 51134 PWs)   bands (ev):

   -21.7293 -10.6995  -7.5090  -6.8583  -6.2481  -5.7116  -5.4201  -5.3055
    -4.8125  -4.8009  -4.2959  -4.1855  -3.8869  -3.8800  -3.7890  -3.7390
    -3.5941  -3.3423  -3.2108  -3.1878  -3.1083  -2.8429  -2.6237  -2.5956
    -2.5590  -2.5103  -2.4891  -2.2776  -2.2041  -2.1824  -2.1768  -2.1647
    -2.1376  -2.0896  -2.0861  -2.0699  -2.0491  -1.9383  -1.9046  -1.8774
    -1.8197  -1.8102  -1.7660  -1.6565  -1.6289  -1.6192  -1.5810  -1.5256
    -1.4768  -1.4412  -1.4060  -1.3875  -1.3597  -1.3406  -1.3212  -1.3158
    -1.3093  -1.2723  -1.2425  -1.1956  -1.1795  -1.1698  -1.1444  -1.1231
    -1.0579  -0.9851  -0.8102  -0.7150  -0.7052  -0.6928  -0.6602  -0.5918
    -0.5662  -0.5354  -0.4844  -0.4676  -0.3794  -0.3529  -0.3400  -0.3302
    -0.2997  -0.2942  -0.2850  -0.2717  -0.2541  -0.2468  -0.2119  -0.1854
    -0.1511  -0.1254  -0.1176  -0.1083  -0.0947  -0.0676  -0.0547  -0.0394
    -0.0350  -0.0264  -0.0177  -0.0155  -0.0108  -0.0078   0.0056   0.0344
     0.0696   0.0759   0.0882   0.0903   0.1175   0.1318   0.1408   0.1588
     0.1988   0.2095   0.2348   0.2583   0.2867   0.3028   0.3068   0.3371
     0.4655   0.4710   0.5333   0.5424   0.5639   0.5986   0.6008   0.6064
     0.6301   0.6449   0.6563   0.6585   0.8263   0.9448   0.9597   0.9812
     0.9858   1.0041   1.0232   1.0300   1.0732   1.0907   1.1675   1.1749
     1.1829   1.2553   1.2637   1.2958   1.3090   1.3295   1.3542   1.3658
     1.4074   1.4476   1.4651   1.4732   1.4781   1.5031   1.5249   1.5397
     1.5628   1.5780   1.6066   1.6300   1.6461   1.6541   1.6677   1.6938
     1.7110   1.7234   1.7321   1.7393   1.7466   1.7594   1.8102   1.8178
     1.8242   1.8292   1.8721   1.8787   1.8843   1.9005   1.9153   1.9257
     1.9340   1.9698   1.9746   1.9806   2.0050   2.0096   2.0156   2.0308
     2.0385   2.0645   2.0681   2.0820   2.1606   2.1693   2.1742   2.1943
     2.2465   2.2671

          k = 0.2000 0.1155 0.0000 ( 51134 PWs)   bands (ev):

   -21.7293 -10.6996  -7.5092  -6.8591  -6.2458  -5.7065  -5.4031  -5.3337
    -4.8059  -4.8006  -4.2976  -4.1932  -3.8863  -3.8811  -3.7830  -3.7359
    -3.5950  -3.3419  -3.2100  -3.1895  -3.1086  -2.8459  -2.6239  -2.5907
    -2.5570  -2.5117  -2.4911  -2.2752  -2.2122  -2.1793  -2.1757  -2.1599
    -2.1388  -2.0896  -2.0849  -2.0650  -2.0503  -1.9389  -1.9041  -1.8819
    -1.8190  -1.8129  -1.7531  -1.6815  -1.6266  -1.6215  -1.5702  -1.5022
    -1.4894  -1.4511  -1.4128  -1.3909  -1.3626  -1.3290  -1.3258  -1.3133
    -1.3102  -1.2695  -1.2463  -1.2027  -1.1793  -1.1678  -1.1416  -1.1218
    -1.0596  -0.9734  -0.8222  -0.7124  -0.7035  -0.6804  -0.6530  -0.5978
    -0.5759  -0.5414  -0.4762  -0.4665  -0.3792  -0.3468  -0.3452  -0.3286
    -0.2965  -0.2910  -0.2844  -0.2718  -0.2559  -0.2414  -0.2252  -0.1917
    -0.1434  -0.1243  -0.1172  -0.1139  -0.0959  -0.0657  -0.0534  -0.0382
    -0.0353  -0.0256  -0.0240  -0.0166  -0.0143  -0.0031   0.0093   0.0346
     0.0711   0.0770   0.0897   0.0904   0.1171   0.1355   0.1468   0.1526
     0.1978   0.2079   0.2339   0.2575   0.2893   0.2979   0.3075   0.3372
     0.4703   0.4853   0.5167   0.5428   0.5613   0.5945   0.6045   0.6127
     0.6269   0.6421   0.6556   0.6599   0.8211   0.9495   0.9604   0.9756
     0.9856   1.0015   1.0211   1.0301   1.0680   1.0994   1.1563   1.1799
     1.1824   1.2565   1.2613   1.2945   1.3175   1.3266   1.3519   1.3734
     1.4102   1.4493   1.4667   1.4715   1.4758   1.5009   1.5260   1.5364
     1.5556   1.5807   1.6012   1.6223   1.6407   1.6607   1.6731   1.7062
     1.7173   1.7228   1.7276   1.7381   1.7442   1.7565   1.8122   1.8155
     1.8224   1.8284   1.8706   1.8796   1.8866   1.9028   1.9118   1.9251
     1.9344   1.9724   1.9744   1.9820   2.0047   2.0105   2.0150   2.0325
     2.0384   2.0652   2.0681   2.0821   2.1570   2.1693   2.1789   2.1932
     2.2482   2.2646

          k = 0.2000 0.3464 0.0000 ( 51202 PWs)   bands (ev):

   -21.7293 -10.6983  -7.2297  -6.8357  -6.1234  -5.8291  -5.7815  -5.5160
    -5.3131  -4.5614  -4.4517  -4.0789  -4.0667  -3.9707  -3.2452  -3.2367
    -3.2335  -3.2285  -3.1188  -3.0391  -2.9554  -2.9244  -2.8895  -2.5633
    -2.4967  -2.4843  -2.4748  -2.3994  -2.3874  -2.3636  -2.2943  -2.2764
    -2.2652  -2.2626  -2.2518  -2.1171  -2.0727  -1.9594  -1.9032  -1.8855
    -1.8514  -1.8131  -1.7597  -1.7496  -1.6715  -1.5893  -1.5441  -1.5240
    -1.4659  -1.4030  -1.3691  -1.3644  -1.3554  -1.3383  -1.3279  -1.2994
    -1.2856  -1.2572  -1.2275  -1.1894  -1.1414  -1.0867  -1.0281  -0.9842
    -0.9103  -0.8927  -0.8023  -0.7699  -0.6869  -0.6681  -0.6476  -0.6201
    -0.5975  -0.5909  -0.5736  -0.5475  -0.4952  -0.4775  -0.4588  -0.4399
    -0.4326  -0.4019  -0.3928  -0.3861  -0.3386  -0.2618  -0.2219  -0.2054
    -0.1965  -0.1831  -0.1393  -0.1255  -0.1095  -0.0963  -0.0763  -0.0676
    -0.0448  -0.0338  -0.0207   0.0007   0.0095   0.0181   0.0552   0.0659
     0.0778   0.0869   0.0959   0.1240   0.1328   0.1384   0.1588   0.1625
     0.1758   0.2512   0.2594   0.2694   0.3816   0.3934   0.4090   0.4367
     0.4506   0.4770   0.4965   0.5447   0.5593   0.5735   0.5812   0.5927
     0.5986   0.6107   0.6623   0.6830   0.7323   0.7844   0.8858   0.8937
     0.9608   0.9902   1.0231   1.0459   1.0508   1.0626   1.0813   1.0873
     1.0980   1.1222   1.1371   1.1680   1.1927   1.2120   1.2849   1.3049
     1.3266   1.3400   1.3722   1.3906   1.4016   1.4171   1.4741   1.4859
     1.5411   1.5876   1.6730   1.6920   1.7064   1.7216   1.7382   1.7509
     1.7663   1.7763   1.7829   1.8006   1.8076   1.8677   1.8753   1.8833
     1.8894   1.9223   1.9348   1.9366   1.9576   1.9821   1.9856   2.0078
     2.0165   2.0248   2.0292   2.0516   2.0572   2.0883   2.1037   2.1171
[...]
     atom    8 type  1   force =     0.00085000    0.00026348   -0.10066583
     atom    9 type  1   force =     0.00175693   -0.00069195   -0.10444338
     atom   10 type  1   force =    -0.00122665    0.00048425   -0.00920759
     atom   11 type  1   force =     0.00140747    0.00042173   -0.00959139
     atom   12 type  1   force =    -0.00018336   -0.00015251   -0.00983808
     atom   13 type  1   force =    -0.00022547   -0.00148011   -0.01023954
     atom   14 type  1   force =    -0.00014814    0.00028002   -0.01040269
     atom   15 type  1   force =     0.00068155    0.00041234   -0.01117391
     atom   16 type  1   force =     0.00214947    0.00086227   -0.01059774
     atom   17 type  1   force =    -0.00055649   -0.00174376   -0.01077894
     atom   18 type  1   force =    -0.00173001    0.00076705   -0.00987213
     atom   19 type  1   force =     0.00253429    0.00612332    0.00694467
     atom   20 type  1   force =    -0.00293482    0.00688590    0.00760813
     atom   21 type  1   force =     0.00001079   -0.00142775    0.01825210
     atom   22 type  1   force =     0.00057804   -0.00007086    0.01954071
     atom   23 type  1   force =    -0.00116170   -0.00036029    0.01345086
     atom   24 type  1   force =     0.00111767    0.00148251    0.01659836
     atom   25 type  1   force =    -0.00598824   -0.00260685    0.00516839
     atom   26 type  1   force =    -0.00015805   -0.00701960    0.00163977
     atom   27 type  1   force =     0.00546551   -0.00394480    0.00587839
     atom   28 type  1   force =     0.03535491   -0.01840439    0.17274361
     atom   29 type  1   force =    -0.00230606   -0.00313384    0.19472123
     atom   30 type  1   force =    -0.00173227   -0.00102435    0.12754767
     atom   31 type  1   force =    -0.00343051   -0.02563274    0.13114842
     atom   32 type  1   force =    -0.00228732   -0.00404446    0.11416523
     atom   33 type  1   force =     0.00284897   -0.00263514    0.10882765
     atom   34 type  1   force =     0.00878853    0.01121520    0.12338886
     atom   35 type  1   force =    -0.01334233    0.03983295    0.14540154
     atom   36 type  1   force =    -0.00581960    0.00379510    0.11518368
     atom   37 type  2   force =    -0.17730521   -0.02516554    0.23033625
     atom   38 type  3   force =     1.96188465    0.27850053   -1.77381445
     atom   39 type  4   force =    -0.05754415   -0.00950130   -0.02927432
     The ionic contribution  to forces
     atom    1 type  1   force =    -0.00533002    0.00844701 -111.15963826
     atom    2 type  1   force =     0.00580669    0.00766214 -111.15868687
     atom    3 type  1   force =    -0.00047666    0.00224537 -111.14809348
     atom    4 type  1   force =    -0.00044148    0.00187150 -111.14758771
     atom    5 type  1   force =    -0.00199488   -0.00620637 -111.15240367
     atom    6 type  1   force =     0.00243636   -0.00539734 -111.15152061
     atom    7 type  1   force =    -0.00824489   -0.00222609 -111.15680665
     atom    8 type  1   force =     0.00092127   -0.00418854 -111.17152925
     atom    9 type  1   force =     0.00732360   -0.00220770 -111.15496418
     atom   10 type  1   force =    -0.05465437    0.01237734  -40.21055111
     atom   11 type  1   force =     0.06085456    0.01016965  -40.19818946
     atom   12 type  1   force =    -0.00619502    0.00482571  -40.09016386
     atom   13 type  1   force =     0.00128302    0.06668740  -40.12447797
     atom   14 type  1   force =     0.02172958    0.01175965  -40.07816422
     atom   15 type  1   force =    -0.02301401    0.01809362  -40.08072180
     atom   16 type  1   force =    -0.03520271   -0.02794177  -40.09298857
     atom   17 type  1   force =     0.00494011   -0.07244147  -40.15402753
     atom   18 type  1   force =     0.03026090   -0.02352834  -40.08317414
     atom   19 type  1   force =    -0.26830165    0.43218015   31.17076347
     atom   20 type  1   force =     0.29220703    0.39464137   31.21613904
     atom   21 type  1   force =    -0.02349242    0.09859918   31.69723719
     atom   22 type  1   force =    -0.02085836    0.07916984   31.72072603
     atom   23 type  1   force =    -0.09558985   -0.29723546   31.52014978
     atom   24 type  1   force =     0.11648486   -0.25456540   31.56342762
     atom   25 type  1   force =    -0.41052296   -0.10632634   31.30373677
     atom   26 type  1   force =     0.04694883   -0.24278078   30.48994189
     atom   27 type  1   force =     0.36264961   -0.10628474   31.39944940
     atom   28 type  1   force =    -3.87843286    0.96671841   97.84022118
     atom   29 type  1   force =     4.43005036    0.74012171   98.39701724
     atom   30 type  1   force =    -0.29780135    0.14587189  103.98874272
     atom   31 type  1   force =     0.07106360    2.78231639  103.07202976
     atom   32 type  1   force =     0.65573859    0.43219302  104.28885050
     atom   33 type  1   force =    -0.73164580    0.69937116  104.17568399
     atom   34 type  1   force =    -1.25540453   -1.10799089  103.78236937
     atom   35 type  1   force =     0.28394327   -3.62373616  101.88168918
     atom   36 type  1   force =     0.96960735   -0.81736356  104.18351798
     atom   37 type  2   force =     4.87665805    0.48945877   54.03646679
     atom   38 type  3   force =    -7.31001594   -1.05621563   88.75832745
     atom   39 type  4   force =     2.18671213    0.35185528   15.02720201
     The local contribution  to forces
     atom    1 type  1   force =     0.00387807   -0.00955713  111.26608271
     atom    2 type  1   force =    -0.00474614   -0.00924935  111.26530859
     atom    3 type  1   force =     0.00094457   -0.00072652  111.25234139
     atom    4 type  1   force =    -0.00016143   -0.00247208  111.25552223
     atom    5 type  1   force =     0.00330836    0.00692520  111.26197052
     atom    6 type  1   force =    -0.00392928    0.00431653  111.26084784
     atom    7 type  1   force =     0.01115245    0.00306511  111.26389869
     atom    8 type  1   force =    -0.00161629    0.00444201  111.27492957
     atom    9 type  1   force =    -0.00967064    0.00375129  111.26238995
     atom   10 type  1   force =     0.05618843   -0.01342695   40.19890558
     atom   11 type  1   force =    -0.06217985   -0.01077622   40.18511938
     atom   12 type  1   force =     0.00619475   -0.00528869   40.08123906
     atom   13 type  1   force =    -0.00073889   -0.06534838   40.11686969
     atom   14 type  1   force =    -0.02183207   -0.01238933   40.06902934
     atom   15 type  1   force =     0.02225099   -0.01876827   40.07114274
     atom   16 type  1   force =     0.03285636    0.02782078   40.08207163
     atom   17 type  1   force =    -0.00519066    0.07540979   40.14579901
     atom   18 type  1   force =    -0.02775857    0.02365864   40.07354965
     atom   19 type  1   force =     0.26467609   -0.43831693  -31.15698679
     atom   20 type  1   force =    -0.28874497   -0.39857509  -31.20346688
     atom   21 type  1   force =     0.02396106   -0.09611767  -31.69300541
     atom   22 type  1   force =     0.01978583   -0.07969165  -31.71437003
     atom   23 type  1   force =     0.09736831    0.29618169  -31.51063218
     atom   24 type  1   force =    -0.11778187    0.25156822  -31.55733335
     atom   25 type  1   force =     0.41613954    0.11061196  -31.28595654
     atom   26 type  1   force =    -0.04818204    0.24860675  -30.47386155
     atom   27 type  1   force =    -0.36500414    0.10906842  -31.38565120
     atom   28 type  1   force =     3.82252665   -0.94319668  -98.02183715
     atom   29 type  1   force =    -4.41041400   -0.73499961  -98.58714272
     atom   30 type  1   force =     0.30180250   -0.14345034 -104.13080582
     atom   31 type  1   force =    -0.06925882   -2.74060510 -103.21456173
     atom   32 type  1   force =    -0.64768211   -0.42138466 -104.41526190
     atom   33 type  1   force =     0.72457179   -0.69303969 -104.29523687
     atom   34 type  1   force =     1.24143369    1.09103692 -103.91534899
     atom   35 type  1   force =    -0.26957224    3.56657683 -102.03682554
     atom   36 type  1   force =    -0.95725605    0.80437279 -104.30889696
     atom   37 type  2   force =    -4.70392003   -0.46521426  -54.26855204
     atom   38 type  3   force =     5.36581793    0.77948227  -86.99533209
     atom   39 type  4   force =    -2.12682199   -0.34171201  -15.00360849
     The core correction contribution to forces
     atom    1 type  1   force =    -0.00012560   -0.00009950    0.01008292
     atom    2 type  1   force =     0.00004680   -0.00013326    0.01016073
     atom    3 type  1   force =     0.00005206    0.00007647    0.00966597
     atom    4 type  1   force =    -0.00010241   -0.00008228    0.01044363
     atom    5 type  1   force =     0.00022900    0.00009645    0.01009572
     atom    6 type  1   force =    -0.00018713   -0.00013041    0.01000968
     atom    7 type  1   force =     0.00034472    0.00011765    0.01030035
     atom    8 type  1   force =    -0.00017179    0.00008515    0.01024077
     atom    9 type  1   force =    -0.00022106    0.00013075    0.01015708
     atom   10 type  1   force =    -0.00004282    0.00005901   -0.00163728
     atom   11 type  1   force =    -0.00003363    0.00006900   -0.00199202
     atom   12 type  1   force =     0.00010082    0.00006733   -0.00174142
     atom   13 type  1   force =     0.00001893    0.00028492   -0.00196077
     atom   14 type  1   force =     0.00014718   -0.00000222   -0.00162641
     atom   15 type  1   force =    -0.00015979   -0.00011727   -0.00172144
     atom   16 type  1   force =    -0.00024643   -0.00008483   -0.00198994
     atom   17 type  1   force =    -0.00002105    0.00013397   -0.00162821
     atom   18 type  1   force =     0.00031710   -0.00010123   -0.00192310
     atom   19 type  1   force =    -0.00031447   -0.00025264    0.00103673
     atom   20 type  1   force =     0.00006593   -0.00025419    0.00089825
     atom   21 type  1   force =     0.00013784   -0.00001004    0.00191947
     atom   22 type  1   force =     0.00023428    0.00022394    0.00226839
     atom   23 type  1   force =    -0.00030383   -0.00024759    0.00162305
     atom   24 type  1   force =    -0.00018422   -0.00028182    0.00171920
     atom   25 type  1   force =    -0.00024216   -0.00000859    0.00128791
     atom   26 type  1   force =     0.00018802    0.00078817    0.00217054
     atom   27 type  1   force =    -0.00003356    0.00007763    0.00106271
     atom   28 type  1   force =     0.01410554   -0.00276544    0.00502365
     atom   29 type  1   force =    -0.01586767   -0.00256029    0.01558514
     atom   30 type  1   force =    -0.00107080   -0.00026809   -0.00837215
     atom   31 type  1   force =     0.00149367   -0.00561504   -0.00812575
     atom   32 type  1   force =    -0.00117165   -0.00188270   -0.00927066
     atom   33 type  1   force =    -0.00000353   -0.00047042   -0.01025966
     atom   34 type  1   force =     0.00020553    0.00078124   -0.00912482
     atom   35 type  1   force =     0.00138139    0.00724848   -0.00630477
     atom   36 type  1   force =    -0.00152757    0.00275650   -0.00899362
     atom   37 type  2   force =     0.00067107    0.00017459   -0.00116792
     atom   38 type  3   force =    -0.01565870   -0.00230542    0.01473182
     atom   39 type  4   force =     0.00000000    0.00000000    0.00000000
     The Hubbard contrib.    to forces
     atom    1 type  1   force =     0.00000000    0.00000000    0.00000000
     atom    2 type  1   force =     0.00000000    0.00000000    0.00000000
     atom    3 type  1   force =     0.00000000    0.00000000    0.00000000
     atom    4 type  1   force =     0.00000000    0.00000000    0.00000000
     atom    5 type  1   force =     0.00000000    0.00000000    0.00000000
     atom    6 type  1   force =     0.00000000    0.00000000    0.00000000
     atom    7 type  1   force =     0.00000000    0.00000000    0.00000000
     atom    8 type  1   force =     0.00000000    0.00000000    0.00000000
     atom    9 type  1   force =     0.00000000    0.00000000    0.00000000
     atom   10 type  1   force =     0.00000000    0.00000000    0.00000000
     atom   11 type  1   force =     0.00000000    0.00000000    0.00000000
     atom   12 type  1   force =     0.00000000    0.00000000    0.00000000
     atom   13 type  1   force =     0.00000000    0.00000000    0.00000000
     atom   14 type  1   force =     0.00000000    0.00000000    0.00000000
     atom   15 type  1   force =     0.00000000    0.00000000    0.00000000
     atom   16 type  1   force =     0.00000000    0.00000000    0.00000000
     atom   17 type  1   force =     0.00000000    0.00000000    0.00000000
     atom   18 type  1   force =     0.00000000    0.00000000    0.00000000
     atom   19 type  1   force =     0.00000000    0.00000000    0.00000000
     atom   20 type  1   force =     0.00000000    0.00000000    0.00000000
     atom   21 type  1   force =     0.00000000    0.00000000    0.00000000
     atom   22 type  1   force =     0.00000000    0.00000000    0.00000000
     atom   23 type  1   force =     0.00000000    0.00000000    0.00000000
     atom   24 type  1   force =     0.00000000    0.00000000    0.00000000
     atom   25 type  1   force =     0.00000000    0.00000000    0.00000000
     atom   26 type  1   force =     0.00000000    0.00000000    0.00000000
     atom   27 type  1   force =     0.00000000    0.00000000    0.00000000
     atom   28 type  1   force =     0.00000000    0.00000000    0.00000000
     atom   29 type  1   force =     0.00000000    0.00000000    0.00000000
     atom   30 type  1   force =     0.00000000    0.00000000    0.00000000
     atom   31 type  1   force =     0.00000000    0.00000000    0.00000000
     atom   32 type  1   force =     0.00000000    0.00000000    0.00000000
     atom   33 type  1   force =     0.00000000    0.00000000    0.00000000
     atom   34 type  1   force =     0.00000000    0.00000000    0.00000000
     atom   35 type  1   force =     0.00000000    0.00000000    0.00000000
     atom   36 type  1   force =     0.00000000    0.00000000    0.00000000
     atom   37 type  2   force =     0.00000000    0.00000000    0.00000000
     atom   38 type  3   force =     0.00000000    0.00000000    0.00000000
     atom   39 type  4   force =     0.00000000    0.00000000    0.00000000
     The SCF correction term to forces
     atom    1 type  1   force =    -0.00000000    0.00000000   -0.00000000
     atom    2 type  1   force =     0.00000000   -0.00000000   -0.00000000
     atom    3 type  1   force =    -0.00000000   -0.00000000   -0.00000000
     atom    4 type  1   force =     0.00000000    0.00000000    0.00000000
     atom    5 type  1   force =     0.00000000    0.00000000    0.00000000
     atom    6 type  1   force =    -0.00000000    0.00000000   -0.00000000
     atom    7 type  1   force =    -0.00000000   -0.00000000   -0.00000000
     atom    8 type  1   force =     0.00000000   -0.00000000   -0.00000000
     atom    9 type  1   force =     0.00000000   -0.00000000   -0.00000000
     atom   10 type  1   force =    -0.00000000   -0.00000000    0.00000000
     atom   11 type  1   force =     0.00000000   -0.00000000    0.00000000
     atom   12 type  1   force =    -0.00000000   -0.00000000    0.00000000
     atom   13 type  1   force =     0.00000000    0.00000000    0.00000000
     atom   14 type  1   force =     0.00000000    0.00000000    0.00000000
     atom   15 type  1   force =    -0.00000000    0.00000000    0.00000000
     atom   16 type  1   force =     0.00000000   -0.00000000    0.00000000
     atom   17 type  1   force =    -0.00000000   -0.00000000    0.00000000
     atom   18 type  1   force =     0.00000000    0.00000000    0.00000000
     atom   19 type  1   force =     0.00000000    0.00000000    0.00000000
     atom   20 type  1   force =     0.00000000    0.00000000    0.00000000
     atom   21 type  1   force =    -0.00000000    0.00000000    0.00000000
     atom   22 type  1   force =     0.00000000    0.00000000    0.00000000
     atom   23 type  1   force =     0.00000000    0.00000000    0.00000000
     atom   24 type  1   force =    -0.00000000    0.00000000    0.00000000
     atom   25 type  1   force =     0.00000000   -0.00000000    0.00000000
     atom   26 type  1   force =    -0.00000000   -0.00000000    0.00000000
     atom   27 type  1   force =    -0.00000000   -0.00000000    0.00000000
     atom   28 type  1   force =     0.00000000   -0.00000000    0.00000000
     atom   29 type  1   force =    -0.00000000   -0.00000000    0.00000000
     atom   30 type  1   force =     0.00000000   -0.00000000    0.00000000
     atom   31 type  1   force =    -0.00000000    0.00000000    0.00000000
     atom   32 type  1   force =    -0.00000000    0.00000000    0.00000000
     atom   33 type  1   force =     0.00000000    0.00000000    0.00000000
     atom   34 type  1   force =     0.00000000   -0.00000000    0.00000000
     atom   35 type  1   force =    -0.00000000   -0.00000000    0.00000000
     atom   36 type  1   force =    -0.00000000   -0.00000000    0.00000000
     atom   37 type  2   force =    -0.00000373   -0.00000287    0.00001014
     atom   38 type  3   force =    -0.00000043   -0.00000224    0.00000929
     atom   39 type  4   force =    -0.00000062   -0.00000037    0.00000274

     Total force =     0.009071     Total SCF correction =     0.000015

     Writing all to output data dir ./pwscf.save/

     init_run     :     14.16s CPU     16.66s WALL (       1 calls)
     electrons    :    960.76s CPU    976.87s WALL (       1 calls)
     forces       :      7.99s CPU      8.11s WALL (       1 calls)

     Called by init_run:
     wfcinit      :     11.10s CPU     13.47s WALL (       1 calls)
     potinit      :      1.97s CPU      2.07s WALL (       1 calls)
     hinit0       :      0.84s CPU      0.85s WALL (       1 calls)

     Called by electrons:
     c_bands      :    812.44s CPU    825.86s WALL (      55 calls)
     sum_band     :    106.57s CPU    108.20s WALL (      55 calls)
     v_of_rho     :      9.24s CPU      9.63s WALL (      56 calls)
     newd         :      3.06s CPU      3.11s WALL (      56 calls)
     PAW_pot      :     14.11s CPU     14.26s WALL (      56 calls)
     mix_rho      :     16.64s CPU     16.95s WALL (      55 calls)
     vdW_kernel   :      1.08s CPU      1.09s WALL (       1 calls)

     Called by c_bands:
     init_us_2    :      9.84s CPU     10.01s WALL (    2912 calls)
     init_us_2:cp :      9.82s CPU     10.00s WALL (    2912 calls)
     cegterg      :    785.94s CPU    798.66s WALL (    1430 calls)

     Called by *egterg:
     cdiaghg      :    219.58s CPU    225.38s WALL (    4727 calls)
     h_psi        :    380.39s CPU    386.66s WALL (    4753 calls)
     s_psi        :     40.49s CPU     41.15s WALL (    4753 calls)
     g_psi        :      1.04s CPU      1.06s WALL (    3297 calls)

     Called by h_psi:
     h_psi:calbec :     61.86s CPU     62.79s WALL (    4753 calls)
     vloc_psi     :    274.82s CPU    279.39s WALL (    4753 calls)
     add_vuspsi   :     41.13s CPU     41.87s WALL (    4753 calls)

     General routines
     calbec       :     95.13s CPU     96.51s WALL (    6287 calls)
     fft          :      5.95s CPU      6.35s WALL (    5061 calls)
     ffts         :     10.03s CPU     10.23s WALL (   22846 calls)
     fftw         :    319.41s CPU    324.55s WALL ( 1480688 calls)
     interpolate  :      0.39s CPU      0.40s WALL (     112 calls)

     Parallel routines

     PWSCF        :  16m28.25s CPU  16m52.27s WALL


   This run was terminated on:  15:49:41   9Dec2025            

=------------------------------------------------------------------------------=
   JOB DONE.
=------------------------------------------------------------------------------=
