
     Program PWSCF v.7.1 starts on  9Dec2025 at 14:41:58 
        Git branch: heads/qe-7.1
        Last git commit: 48ba0178f8fede6d020eb786884699a9f063f55d-dirty
        Last git commit date: Fri Jan 27 14:22:33 2023 +0000
        Last git commit subject: Merge branch 'fix_hubbard' into 'develop'

     This program is part of the open-source Quantum ESPRESSO suite
     for quantum simulation of materials; please cite
         "P. Giannozzi et al., J. Phys.:Condens. Matter 21 395502 (2009);
         "P. Giannozzi et al., J. Phys.:Condens. Matter 29 465901 (2017);
         "P. Giannozzi et al., J. Chem. Phys. 152 154105 (2020);
          URL http://www.quantum-espresso.org", 
     in publications or presentations arising from this work. More details at
     http://www.quantum-espresso.org/quote

     Parallel version (MPI), running on    96 processors

     MPI processes distributed on     2 nodes
     48161 MiB available memory on the printing compute node when the environment starts

     Reading input from espresso.pwi
Warning: card &CELL ignored
Warning: card / ignored
Warning: card &FCP ignored
Warning: card / ignored
Warning: card &RISM ignored
Warning: card / ignored

     Current dimensions of program PWSCF are:
     Max number of different atomic species (ntypx) = 10
     Max number of k-points (npk) =  40000
     Max angular momentum in pseudopotentials (lmaxx) =  4
     file Co.pbe-n-kjpaw_psl.1.0.0.UPF: wavefunction(s)  4S 3D renormalized
     file C.pbe-n-kjpaw_psl.1.0.0.UPF: wavefunction(s)  2S 2P renormalized
     file O.pbe-nl-kjpaw_psl.1.0.0.UPF: wavefunction(s)  2S 2P renormalized
     file H.pbe-kjpaw_psl.1.0.0.UPF: wavefunction(s)  1S renormalized

     **************************************************************************
     Initializing libbeef V0.1.2 with the BEEF-vdW functional.
     Citation: Wellendorff et al., PRB 85, 235149 (2012).
     **************************************************************************


     IMPORTANT: XC functional enforced from input :
     Exchange-correlation= BEEF-VDW
                           (   1   4  43  14   2   0   0)
     Any further DFT definition will be discarded
     Please, verify this is what you really want


     R & G space division:  proc/nbgrp/npool/nimage =      96
     Subspace diagonalization in iterative solution of the eigenvalue problem:
     one sub-group per band group will be used
     custom distributed-memory algorithm (size of sub-group:  2*  2 procs)


     Parallelization info
     --------------------
     sticks:   dense  smooth     PW     G-vecs:    dense   smooth      PW
     Min          43      28      7                 7829     4248     595
     Max          44      29      8                 7845     4281     630
     Sum        4153    2773    757               752179   409445   59217

     Using Slab Decomposition



     bravais-lattice index     =            0
     lattice parameter (alat)  =      14.1729  a.u.
     unit-cell volume          =    8574.3059 (a.u.)^3
     number of atoms/cell      =           39
     number of atomic types    =            4
     number of electrons       =       335.00
     number of Kohn-Sham states=          202
     kinetic-energy cutoff     =      50.0000  Ry
     charge density cutoff     =     300.0000  Ry
     scf convergence threshold =      1.0E-08
     mixing beta               =       0.7000
     number of iterations used =            8  local-TF  mixing
     Exchange-correlation= BEEF-VDW
                           (   1   4  43  14   2   0   0)

     celldm(1)=  14.172946  celldm(2)=   0.000000  celldm(3)=   0.000000
     celldm(4)=   0.000000  celldm(5)=   0.000000  celldm(6)=   0.000000

     crystal axes: (cart. coord. in units of alat)
               a(1) = (   1.000000   0.000000   0.000000 )  
               a(2) = (   0.500000   0.866025   0.000000 )  
               a(3) = (   0.000000   0.000000   3.477667 )  

     reciprocal axes: (cart. coord. in units 2 pi/alat)
               b(1) = (  1.000000 -0.577350  0.000000 )  
               b(2) = (  0.000000  1.154701  0.000000 )  
               b(3) = (  0.000000  0.000000  0.287549 )  


     PseudoPot. # 1 for Co read from file:
     /users/kbadger1/espresso/pseudo/pslibrary.1.0.0/pbe/PSEUDOPOTENTIALS/Co.pbe-n-kjpaw_psl.1.0.0.UPF
     MD5 check sum: 88af6ec42553d4236c267fdfcb472151
     Pseudo is Projector augmented-wave + core cor, Zval =  9.0
     Generated using 'atomic' code by A. Dal Corso  v.7.0
     Shape of augmentation charge: PSQ
     Using radial grid of 1193 points,  6 beta functions with: 
                l(1) =   0
                l(2) =   0
                l(3) =   1
                l(4) =   1
                l(5) =   2
                l(6) =   2
     Q(r) pseudized with 0 coefficients 


     PseudoPot. # 2 for C  read from file:
     /users/kbadger1/espresso/pseudo/pslibrary.1.0.0/pbe/PSEUDOPOTENTIALS/C.pbe-n-kjpaw_psl.1.0.0.UPF
     MD5 check sum: 6408e75cdba28732cea38a4db8498ce4
     Pseudo is Projector augmented-wave + core cor, Zval =  4.0
     Generated using 'atomic' code by A. Dal Corso  v.7.0
     Shape of augmentation charge: PSQ
     Using radial grid of 1073 points,  4 beta functions with: 
                l(1) =   0
                l(2) =   0
                l(3) =   1
                l(4) =   1
     Q(r) pseudized with 0 coefficients 


     PseudoPot. # 3 for O  read from file:
     /users/kbadger1/espresso/pseudo/pslibrary.1.0.0/pbe/PSEUDOPOTENTIALS/O.pbe-nl-kjpaw_psl.1.0.0.UPF
     MD5 check sum: f0439fab3598ca4e468f064226030408
     Pseudo is Projector augmented-wave + core cor, Zval =  6.0
     Generated using 'atomic' code by A. Dal Corso  v.7.0
     Shape of augmentation charge: PSQ
     Using radial grid of 1095 points,  4 beta functions with: 
                l(1) =   0
                l(2) =   0
                l(3) =   1
                l(4) =   1
     Q(r) pseudized with 0 coefficients 


     PseudoPot. # 4 for H  read from file:
     /users/kbadger1/espresso/pseudo/pslibrary.1.0.0/pbe/PSEUDOPOTENTIALS/H.pbe-kjpaw_psl.1.0.0.UPF
     MD5 check sum: fe4c6fa958fa6d3815bf5d2419cbf1df
     Pseudo is Projector augmented-wave, Zval =  1.0
     Generated using 'atomic' code by A. Dal Corso  v.7.0
     Shape of augmentation charge: PSQ
     Using radial grid of  929 points,  2 beta functions with: 
                l(1) =   0
                l(2) =   0
     Q(r) pseudized with 0 coefficients 


     atomic species   valence    mass     pseudopotential
        Co             9.00    58.93319     Co( 1.00)
        C              4.00    12.01100     C ( 1.00)
        O              6.00    15.99900     O ( 1.00)
        H              1.00     1.00800     H ( 1.00)

     Starting magnetic structure 
     atomic species   magnetization
        Co           1.000
        C            1.000
        O            0.000
        H            0.000

     No symmetry found



   Cartesian axes

     site n.     atom                  positions (alat units)
         1           Co  tau(   1) = (   0.0000000   0.1924501   1.3333333  )
         2           Co  tau(   2) = (   0.3333333   0.1924501   1.3333333  )
         3           Co  tau(   3) = (   0.6666667   0.1924501   1.3333333  )
         4           Co  tau(   4) = (   0.1666667   0.4811252   1.3333333  )
         5           Co  tau(   5) = (   0.5000000   0.4811252   1.3333333  )
         6           Co  tau(   6) = (   0.8333333   0.4811252   1.3333333  )
         7           Co  tau(   7) = (   0.3333333   0.7698004   1.3333333  )
         8           Co  tau(   8) = (   0.6666667   0.7698004   1.3333333  )
         9           Co  tau(   9) = (   1.0000000   0.7698004   1.3333333  )
        10           Co  tau(  10) = (   0.0000000   0.0000000   1.6036667  )
        11           Co  tau(  11) = (   0.3333333   0.0000000   1.6036667  )
        12           Co  tau(  12) = (   0.6666667   0.0000000   1.6036667  )
        13           Co  tau(  13) = (   0.1666667   0.2886751   1.6036667  )
        14           Co  tau(  14) = (   0.5000000   0.2886751   1.6036667  )
        15           Co  tau(  15) = (   0.8333333   0.2886751   1.6036667  )
        16           Co  tau(  16) = (   0.3333333   0.5773503   1.6036667  )
        17           Co  tau(  17) = (   0.6666667   0.5773503   1.6036667  )
        18           Co  tau(  18) = (   1.0000000   0.5773503   1.6036667  )
        19           Co  tau(  19) = (   0.0000000   0.1924501   1.8740000  )
        20           Co  tau(  20) = (   0.3333333   0.1924501   1.8740000  )
        21           Co  tau(  21) = (   0.6666667   0.1924501   1.8740000  )
        22           Co  tau(  22) = (   0.1666667   0.4811252   1.8740000  )
        23           Co  tau(  23) = (   0.5000000   0.4811252   1.8740000  )
        24           Co  tau(  24) = (   0.8333333   0.4811252   1.8740000  )
        25           Co  tau(  25) = (   0.3333333   0.7698004   1.8740000  )
        26           Co  tau(  26) = (   0.6666667   0.7698004   1.8740000  )
        27           Co  tau(  27) = (   1.0000000   0.7698004   1.8740000  )
        28           Co  tau(  28) = (   0.0000000   0.0000000   2.1443333  )
        29           Co  tau(  29) = (   0.3333333   0.0000000   2.1443333  )
        30           Co  tau(  30) = (   0.6666667   0.0000000   2.1443333  )
        31           Co  tau(  31) = (   0.1666667   0.2886751   2.1443333  )
        32           Co  tau(  32) = (   0.5000000   0.2886751   2.1443333  )
        33           Co  tau(  33) = (   0.8333333   0.2886751   2.1443333  )
        34           Co  tau(  34) = (   0.3333333   0.5773503   2.1443333  )
        35           Co  tau(  35) = (   0.6666667   0.5773503   2.1443333  )
        36           Co  tau(  36) = (   1.0000000   0.5773503   2.1443333  )
        37           C   tau(  37) = (   0.1684803  -0.0512333   2.3327129  )
        38           O   tau(  38) = (   0.1612544  -0.0626775   2.4906505  )
        39           H   tau(  39) = (   0.4961760   0.0831493   2.2763882  )

     number of k points=    13  Marzari-Vanderbilt smearing, width (Ry)=  0.0010
                       cart. coord. in units 2pi/alat
        k(    1) = (   0.0000000   0.0000000   0.0000000), wk =   0.0400000
        k(    2) = (   0.0000000   0.2309401   0.0000000), wk =   0.0800000
        k(    3) = (   0.0000000   0.4618802   0.0000000), wk =   0.0800000
        k(    4) = (   0.2000000  -0.1154701   0.0000000), wk =   0.0800000
        k(    5) = (   0.2000000   0.1154701   0.0000000), wk =   0.0800000
        k(    6) = (   0.2000000   0.3464102   0.0000000), wk =   0.0800000
        k(    7) = (   0.2000000  -0.5773503   0.0000000), wk =   0.0800000
        k(    8) = (   0.2000000  -0.3464102   0.0000000), wk =   0.0800000
        k(    9) = (   0.4000000  -0.2309401   0.0000000), wk =   0.0800000
        k(   10) = (   0.4000000   0.0000000   0.0000000), wk =   0.0800000
        k(   11) = (   0.4000000   0.2309401   0.0000000), wk =   0.0800000
        k(   12) = (   0.4000000  -0.6928203   0.0000000), wk =   0.0800000
        k(   13) = (   0.4000000  -0.4618802   0.0000000), wk =   0.0800000

     Dense  grid:   752179 G-vectors     FFT dimensions: (  80,  80, 288)

     Smooth grid:   409445 G-vectors     FFT dimensions: (  64,  64, 225)

     Estimated max dynamical RAM per process >      99.02 MB

     Estimated total dynamical RAM >       9.28 GB
     Generating pointlists ...
     new r_m :   0.0930 (alat units)  1.3186 (a.u.) for type    1
     new r_m :   0.0654 (alat units)  0.9267 (a.u.) for type    2
     new r_m :   0.0654 (alat units)  0.9267 (a.u.) for type    3
     new r_m :   0.0930 (alat units)  1.3186 (a.u.) for type    4

     Initial potential from superposition of free atoms

     starting charge     334.9897, renormalised to     335.0000

     negative rho (up, down):  3.057E-03 4.500E-04


     %%%%%%%%%%%%%%%%%%%%%%%%%%%%%%%%%%%%%%%%%%%%%%%%%%%%%%%%%%%%%%%%%%%%%%%%
     %                                                                      %
     % You are using vdW-DF, which was implemented by the Thonhauser group. %
     % Please cite the following two papers that made this development      %
     % possible and the two reviews that describe the various versions:     %
     %                                                                      %
     %   T. Thonhauser et al., PRL 115, 136402 (2015).                      %
     %   T. Thonhauser et al., PRB 76, 125112 (2007).                       %
     %   K. Berland et al., Rep. Prog. Phys. 78, 066501 (2015).             %
     %   D.C. Langreth et al., J. Phys.: Condens. Matter 21, 084203 (2009). %
     %                                                                      %
     % If you are calculating stress with vdW-DF, please also cite:         %
     %                                                                      %
     %   R. Sabatini et al., J. Phys.: Condens. Matter 24, 424209 (2012).   %
     %   C.M. Frostenson et al., Electr. Struct. 4, 014001 (2022).          %
     %                                                                      %
     %%%%%%%%%%%%%%%%%%%%%%%%%%%%%%%%%%%%%%%%%%%%%%%%%%%%%%%%%%%%%%%%%%%%%%%%

     %%%%%%%%%%%%%%%%%%%%%%%%%%%%%%%%%%%%%%%%%%%%%%%%%%%%%%%%%%%%%%%%%%%%%%%%
     %                                                                      %
     %  vdW-DF NEWS:                                                        %
     %                                                                      %
     %  * vdW-DF3 is now available. DOI: 10.1021/acs.jctc.0c00471           %
     %    use with input_dft = 'vdW-DF3-opt1' or 'vdW-DF3-opt2'             %
     %                                                                      %
     %  * Unscreened and range-separated hybrid vdW-DF-cx functionals       %
     %    DOI: 10.1063/1.4986522 and 10.1088/1361-648X/ac2ad2               %
     %    use with input_dft = 'vdW-DF-cx0'    and 'vdW-DF-ahcx'            %
     %  * Unscreened and range-separated hybrid vdW-DF2-b86r functionals    %
     %    DOI: 10.1063/1.4986522 and DOI: 10.1103/PhysRevX.12.041003        %
     %    use with input_dft = 'vdW-DF2-br0' and 'vdW-DF2-ahbr'             %
     %                                                                      %
     %%%%%%%%%%%%%%%%%%%%%%%%%%%%%%%%%%%%%%%%%%%%%%%%%%%%%%%%%%%%%%%%%%%%%%%%


     Starting wfcs are  333 randomized atomic wfcs
     Checking if some PAW data can be deallocated... 

     total cpu time spent up to now is       12.5 secs

     per-process dynamical memory:   230.9 Mb

     Self-consistent Calculation

     iteration #  1     ecut=    50.00 Ry     beta= 0.70
     Davidson diagonalization with overlap
     ethr =  1.00E-02,  avg # of iterations =  2.0

     negative rho (up, down):  3.476E-05 1.134E-07

     total cpu time spent up to now is       35.4 secs

     total energy              =   -6053.13630068 Ry
     estimated scf accuracy    <      39.02321115 Ry

     total magnetization       =    69.00 Bohr mag/cell
     absolute magnetization    =    81.22 Bohr mag/cell

     iteration #  2     ecut=    50.00 Ry     beta= 0.70
     Davidson diagonalization with overlap
     ethr =  1.00E-02,  avg # of iterations =  1.0

     negative rho (up, down):  4.995E-06 3.887E-08

     total cpu time spent up to now is       49.4 secs

     total energy              =   -6052.70709904 Ry
     estimated scf accuracy    <      24.12639269 Ry

     total magnetization       =    69.00 Bohr mag/cell
     absolute magnetization    =    76.82 Bohr mag/cell

     iteration #  3     ecut=    50.00 Ry     beta= 0.70
     Davidson diagonalization with overlap
     ethr =  7.20E-03,  avg # of iterations =  1.3

     negative rho (up, down):  3.924E-08 0.000E+00

     total cpu time spent up to now is       67.8 secs

     total energy              =   -6055.19980394 Ry
     estimated scf accuracy    <      85.76463969 Ry

     total magnetization       =    66.12 Bohr mag/cell
     absolute magnetization    =    73.60 Bohr mag/cell

     iteration #  4     ecut=    50.00 Ry     beta= 0.70
     Davidson diagonalization with overlap
     ethr =  7.20E-03,  avg # of iterations =  1.0

     negative rho (up, down):  1.120E-08 0.000E+00

     total cpu time spent up to now is       81.7 secs

     total energy              =   -6056.46927510 Ry
     estimated scf accuracy    <       5.54330254 Ry

     total magnetization       =    60.34 Bohr mag/cell
     absolute magnetization    =    70.18 Bohr mag/cell

     iteration #  5     ecut=    50.00 Ry     beta= 0.70
     Davidson diagonalization with overlap
     ethr =  1.65E-03,  avg # of iterations =  1.2

     total cpu time spent up to now is       99.9 secs

     total energy              =   -6056.45398485 Ry
     estimated scf accuracy    <       2.08522165 Ry

     total magnetization       =    60.35 Bohr mag/cell
     absolute magnetization    =    69.75 Bohr mag/cell

     iteration #  6     ecut=    50.00 Ry     beta= 0.70
     Davidson diagonalization with overlap
     ethr =  6.22E-04,  avg # of iterations =  2.2

     total cpu time spent up to now is      115.0 secs

     total energy              =   -6056.55591817 Ry
     estimated scf accuracy    <       0.85614733 Ry

     total magnetization       =    59.96 Bohr mag/cell
     absolute magnetization    =    69.04 Bohr mag/cell

     iteration #  7     ecut=    50.00 Ry     beta= 0.70
     Davidson diagonalization with overlap
     ethr =  2.56E-04,  avg # of iterations =  4.1

     total cpu time spent up to now is      136.6 secs

     total energy              =   -6056.58166363 Ry
     estimated scf accuracy    <       0.63387905 Ry

     total magnetization       =    59.96 Bohr mag/cell
     absolute magnetization    =    68.74 Bohr mag/cell

     iteration #  8     ecut=    50.00 Ry     beta= 0.70
     Davidson diagonalization with overlap
     ethr =  1.89E-04,  avg # of iterations =  1.6

     total cpu time spent up to now is      155.0 secs

     total energy              =   -6056.60895148 Ry
     estimated scf accuracy    <       0.16060210 Ry

     total magnetization       =    60.00 Bohr mag/cell
     absolute magnetization    =    68.62 Bohr mag/cell

     iteration #  9     ecut=    50.00 Ry     beta= 0.70
     Davidson diagonalization with overlap
     c_bands:  1 eigenvalues not converged
     c_bands:  1 eigenvalues not converged
     c_bands:  2 eigenvalues not converged
     ethr =  4.79E-05,  avg # of iterations =  9.3

     total cpu time spent up to now is      182.7 secs

     total energy              =   -6056.61730100 Ry
     estimated scf accuracy    <       0.10530282 Ry

     total magnetization       =    60.40 Bohr mag/cell
     absolute magnetization    =    68.61 Bohr mag/cell

     iteration # 10     ecut=    50.00 Ry     beta= 0.70
     Davidson diagonalization with overlap
     ethr =  3.14E-05,  avg # of iterations =  4.0

     total cpu time spent up to now is      199.2 secs

     total energy              =   -6056.62139412 Ry
     estimated scf accuracy    <       0.14580209 Ry

     total magnetization       =    60.69 Bohr mag/cell
     absolute magnetization    =    68.65 Bohr mag/cell

     iteration # 11     ecut=    50.00 Ry     beta= 0.70
     Davidson diagonalization with overlap
     ethr =  3.14E-05,  avg # of iterations =  1.5

     total cpu time spent up to now is      217.7 secs

     total energy              =   -6056.61713266 Ry
     estimated scf accuracy    <       0.11510819 Ry

     total magnetization       =    60.69 Bohr mag/cell
     absolute magnetization    =    68.57 Bohr mag/cell

     iteration # 12     ecut=    50.00 Ry     beta= 0.70
     Davidson diagonalization with overlap
     ethr =  3.14E-05,  avg # of iterations =  1.8

     total cpu time spent up to now is      232.1 secs

     total energy              =   -6056.61806145 Ry
     estimated scf accuracy    <       0.08242854 Ry

     total magnetization       =    60.57 Bohr mag/cell
     absolute magnetization    =    68.39 Bohr mag/cell

     iteration # 13     ecut=    50.00 Ry     beta= 0.70
     Davidson diagonalization with overlap
     ethr =  2.46E-05,  avg # of iterations =  1.5

     negative rho (up, down):  6.581E-08 0.000E+00

     total cpu time spent up to now is      250.5 secs

     total energy              =   -6056.61725103 Ry
     estimated scf accuracy    <       0.11045882 Ry

     total magnetization       =    60.70 Bohr mag/cell
     absolute magnetization    =    68.42 Bohr mag/cell

     iteration # 14     ecut=    50.00 Ry     beta= 0.70
     Davidson diagonalization with overlap
     ethr =  2.46E-05,  avg # of iterations =  1.2

     negative rho (up, down):  7.615E-03 6.231E-03

     total cpu time spent up to now is      264.0 secs

     total energy              =   -6056.61175931 Ry
     estimated scf accuracy    <       0.07936499 Ry

     total magnetization       =    60.67 Bohr mag/cell
     absolute magnetization    =    68.37 Bohr mag/cell

     iteration # 15     ecut=    50.00 Ry     beta= 0.70
     Davidson diagonalization with overlap
     ethr =  2.37E-05,  avg # of iterations =  1.2

     negative rho (up, down):  1.493E-02 1.340E-02

     total cpu time spent up to now is      282.3 secs

     total energy              =   -6056.60846865 Ry
     estimated scf accuracy    <       0.03838557 Ry

     total magnetization       =    60.58 Bohr mag/cell
     absolute magnetization    =    68.29 Bohr mag/cell

     iteration # 16     ecut=    50.00 Ry     beta= 0.70
     Davidson diagonalization with overlap
     c_bands:  1 eigenvalues not converged
     c_bands:  4 eigenvalues not converged
     c_bands:  2 eigenvalues not converged
     ethr =  1.15E-05,  avg # of iterations =  5.9

     negative rho (up, down):  1.954E-02 1.794E-02

     total cpu time spent up to now is      305.8 secs

     total energy              =   -6056.60779487 Ry
     estimated scf accuracy    <       0.05663636 Ry

     total magnetization       =    60.54 Bohr mag/cell
     absolute magnetization    =    68.24 Bohr mag/cell

     iteration # 17     ecut=    50.00 Ry     beta= 0.70
     Davidson diagonalization with overlap
     ethr =  1.15E-05,  avg # of iterations =  1.8

     negative rho (up, down):  2.280E-02 2.105E-02

     total cpu time spent up to now is      319.8 secs

     total energy              =   -6056.60872112 Ry
     estimated scf accuracy    <       0.02062773 Ry

     total magnetization       =    60.64 Bohr mag/cell
     absolute magnetization    =    68.30 Bohr mag/cell

     iteration # 18     ecut=    50.00 Ry     beta= 0.70
     Davidson diagonalization with overlap
     c_bands:  1 eigenvalues not converged
     c_bands:  1 eigenvalues not converged
     ethr =  6.16E-06,  avg # of iterations =  3.3

     negative rho (up, down):  9.350E-03 8.116E-03

     total cpu time spent up to now is      340.8 secs

     total energy              =   -6056.60890442 Ry
     estimated scf accuracy    <       0.01987898 Ry

     total magnetization       =    60.68 Bohr mag/cell
     absolute magnetization    =    68.30 Bohr mag/cell

     iteration # 19     ecut=    50.00 Ry     beta= 0.70
     Davidson diagonalization with overlap
     ethr =  5.93E-06,  avg # of iterations =  1.5

     negative rho (up, down):  1.446E-02 1.313E-02

     total cpu time spent up to now is      355.2 secs

     total energy              =   -6056.60792964 Ry
     estimated scf accuracy    <       0.00965101 Ry

     total magnetization       =    60.66 Bohr mag/cell
     absolute magnetization    =    68.30 Bohr mag/cell

     iteration # 20     ecut=    50.00 Ry     beta= 0.70
     Davidson diagonalization with overlap
     c_bands:  1 eigenvalues not converged
     c_bands:  2 eigenvalues not converged
     ethr =  2.88E-06,  avg # of iterations =  6.2

     negative rho (up, down):  1.270E-02 1.187E-02

     total cpu time spent up to now is      378.1 secs

     total energy              =   -6056.60602690 Ry
     estimated scf accuracy    <       0.01070358 Ry

     total magnetization       =    60.68 Bohr mag/cell
     absolute magnetization    =    68.29 Bohr mag/cell

     iteration # 21     ecut=    50.00 Ry     beta= 0.70
     Davidson diagonalization with overlap
     ethr =  2.88E-06,  avg # of iterations =  1.9

     negative rho (up, down):  1.667E-02 1.587E-02

     total cpu time spent up to now is      397.6 secs

     total energy              =   -6056.60615788 Ry
     estimated scf accuracy    <       0.00749660 Ry

     total magnetization       =    60.70 Bohr mag/cell
     absolute magnetization    =    68.29 Bohr mag/cell

     iteration # 22     ecut=    50.00 Ry     beta= 0.70
     Davidson diagonalization with overlap
     c_bands:  1 eigenvalues not converged
     ethr =  2.24E-06,  avg # of iterations =  2.3

     negative rho (up, down):  1.285E-02 1.216E-02

     total cpu time spent up to now is      412.1 secs

     total energy              =   -6056.60639723 Ry
     estimated scf accuracy    <       0.00257863 Ry

     total magnetization       =    60.70 Bohr mag/cell
     absolute magnetization    =    68.29 Bohr mag/cell

     iteration # 23     ecut=    50.00 Ry     beta= 0.70
     Davidson diagonalization with overlap
     ethr =  7.70E-07,  avg # of iterations =  3.1

     negative rho (up, down):  1.032E-02 9.670E-03

     total cpu time spent up to now is      432.2 secs

     total energy              =   -6056.60639379 Ry
     estimated scf accuracy    <       0.00315584 Ry

     total magnetization       =    60.71 Bohr mag/cell
     absolute magnetization    =    68.30 Bohr mag/cell

     iteration # 24     ecut=    50.00 Ry     beta= 0.70
     Davidson diagonalization with overlap
     ethr =  7.70E-07,  avg # of iterations =  1.6

     negative rho (up, down):  7.159E-03 6.421E-03

     total cpu time spent up to now is      448.9 secs

     total energy              =   -6056.60617184 Ry
     estimated scf accuracy    <       0.00335872 Ry

     total magnetization       =    60.70 Bohr mag/cell
     absolute magnetization    =    68.30 Bohr mag/cell

     iteration # 25     ecut=    50.00 Ry     beta= 0.70
     Davidson diagonalization with overlap
     ethr =  7.70E-07,  avg # of iterations =  2.6

     negative rho (up, down):  7.039E-03 6.380E-03

     total cpu time spent up to now is      466.2 secs

     total energy              =   -6056.60635027 Ry
     estimated scf accuracy    <       0.00256758 Ry

     total magnetization       =    60.71 Bohr mag/cell
     absolute magnetization    =    68.31 Bohr mag/cell

     iteration # 26     ecut=    50.00 Ry     beta= 0.70
     Davidson diagonalization with overlap
     ethr =  7.66E-07,  avg # of iterations =  1.2

     negative rho (up, down):  6.585E-03 5.924E-03

     total cpu time spent up to now is      483.9 secs

     total energy              =   -6056.60660258 Ry
     estimated scf accuracy    <       0.00141081 Ry

     total magnetization       =    60.71 Bohr mag/cell
     absolute magnetization    =    68.30 Bohr mag/cell

     iteration # 27     ecut=    50.00 Ry     beta= 0.70
     Davidson diagonalization with overlap
     ethr =  4.21E-07,  avg # of iterations =  1.6

     negative rho (up, down):  5.130E-03 4.403E-03

     total cpu time spent up to now is      498.0 secs

     total energy              =   -6056.60661292 Ry
     estimated scf accuracy    <       0.00051541 Ry

     total magnetization       =    60.71 Bohr mag/cell
     absolute magnetization    =    68.30 Bohr mag/cell

     iteration # 28     ecut=    50.00 Ry     beta= 0.70
     Davidson diagonalization with overlap
     ethr =  1.54E-07,  avg # of iterations =  2.3

     negative rho (up, down):  3.538E-03 2.628E-03

     total cpu time spent up to now is      517.4 secs

     total energy              =   -6056.60665194 Ry
     estimated scf accuracy    <       0.00011438 Ry

     total magnetization       =    60.71 Bohr mag/cell
     absolute magnetization    =    68.30 Bohr mag/cell

     iteration # 29     ecut=    50.00 Ry     beta= 0.70
     Davidson diagonalization with overlap
     c_bands:  1 eigenvalues not converged
     ethr =  3.41E-08,  avg # of iterations =  8.0

     negative rho (up, down):  3.330E-03 2.361E-03

     total cpu time spent up to now is      544.7 secs

     total energy              =   -6056.60667998 Ry
     estimated scf accuracy    <       0.00019672 Ry

     total magnetization       =    60.71 Bohr mag/cell
     absolute magnetization    =    68.30 Bohr mag/cell

     iteration # 30     ecut=    50.00 Ry     beta= 0.70
     Davidson diagonalization with overlap
     ethr =  3.41E-08,  avg # of iterations =  1.4

     negative rho (up, down):  3.110E-03 2.025E-03

     total cpu time spent up to now is      558.6 secs

     total energy              =   -6056.60670278 Ry
     estimated scf accuracy    <       0.00006899 Ry

     total magnetization       =    60.71 Bohr mag/cell
     absolute magnetization    =    68.30 Bohr mag/cell

     iteration # 31     ecut=    50.00 Ry     beta= 0.70
     Davidson diagonalization with overlap
     ethr =  2.06E-08,  avg # of iterations =  1.8

     negative rho (up, down):  3.071E-03 1.969E-03

     total cpu time spent up to now is      577.7 secs

     total energy              =   -6056.60670874 Ry
     estimated scf accuracy    <       0.00003181 Ry

     total magnetization       =    60.71 Bohr mag/cell
     absolute magnetization    =    68.29 Bohr mag/cell

     iteration # 32     ecut=    50.00 Ry     beta= 0.70
     Davidson diagonalization with overlap
     ethr =  9.50E-09,  avg # of iterations =  2.6

     negative rho (up, down):  2.926E-03 1.812E-03

     total cpu time spent up to now is      593.3 secs

     total energy              =   -6056.60670983 Ry
     estimated scf accuracy    <       0.00001889 Ry

     total magnetization       =    60.71 Bohr mag/cell
     absolute magnetization    =    68.29 Bohr mag/cell

     iteration # 33     ecut=    50.00 Ry     beta= 0.70
     Davidson diagonalization with overlap
     ethr =  5.64E-09,  avg # of iterations =  2.8

     negative rho (up, down):  2.468E-03 1.358E-03

     total cpu time spent up to now is      612.8 secs

     total energy              =   -6056.60671180 Ry
     estimated scf accuracy    <       0.00001866 Ry

     total magnetization       =    60.71 Bohr mag/cell
     absolute magnetization    =    68.29 Bohr mag/cell

     iteration # 34     ecut=    50.00 Ry     beta= 0.70
     Davidson diagonalization with overlap
     ethr =  5.57E-09,  avg # of iterations =  2.2

     negative rho (up, down):  2.813E-03 1.743E-03

     total cpu time spent up to now is      632.3 secs

     total energy              =   -6056.60671288 Ry
     estimated scf accuracy    <       0.00001823 Ry

     total magnetization       =    60.71 Bohr mag/cell
     absolute magnetization    =    68.29 Bohr mag/cell

     iteration # 35     ecut=    50.00 Ry     beta= 0.70
     Davidson diagonalization with overlap
     ethr =  5.44E-09,  avg # of iterations =  2.0

     negative rho (up, down):  2.517E-03 1.450E-03

     total cpu time spent up to now is      647.4 secs

     total energy              =   -6056.60671319 Ry
     estimated scf accuracy    <       0.00000911 Ry

     total magnetization       =    60.71 Bohr mag/cell
     absolute magnetization    =    68.29 Bohr mag/cell

     iteration # 36     ecut=    50.00 Ry     beta= 0.70
     Davidson diagonalization with overlap
     ethr =  2.72E-09,  avg # of iterations =  2.9

     negative rho (up, down):  2.419E-03 1.330E-03

     total cpu time spent up to now is      668.0 secs

     total energy              =   -6056.60671370 Ry
     estimated scf accuracy    <       0.00000522 Ry

     total magnetization       =    60.71 Bohr mag/cell
     absolute magnetization    =    68.28 Bohr mag/cell

     iteration # 37     ecut=    50.00 Ry     beta= 0.70
     Davidson diagonalization with overlap
     ethr =  1.56E-09,  avg # of iterations =  3.0

     negative rho (up, down):  2.470E-03 1.397E-03

     total cpu time spent up to now is      683.5 secs

     total energy              =   -6056.60671368 Ry
     estimated scf accuracy    <       0.00000509 Ry

     total magnetization       =    60.71 Bohr mag/cell
     absolute magnetization    =    68.28 Bohr mag/cell

     iteration # 38     ecut=    50.00 Ry     beta= 0.70
     Davidson diagonalization with overlap
     ethr =  1.52E-09,  avg # of iterations =  1.6

     negative rho (up, down):  2.400E-03 1.319E-03

     total cpu time spent up to now is      701.9 secs

     total energy              =   -6056.60671374 Ry
     estimated scf accuracy    <       0.00000460 Ry

     total magnetization       =    60.71 Bohr mag/cell
     absolute magnetization    =    68.28 Bohr mag/cell

     iteration # 39     ecut=    50.00 Ry     beta= 0.70
     Davidson diagonalization with overlap
     ethr =  1.37E-09,  avg # of iterations =  1.6

     negative rho (up, down):  2.363E-03 1.285E-03

     total cpu time spent up to now is      721.0 secs

     total energy              =   -6056.60671354 Ry
     estimated scf accuracy    <       0.00000969 Ry

     total magnetization       =    60.71 Bohr mag/cell
     absolute magnetization    =    68.28 Bohr mag/cell

     iteration # 40     ecut=    50.00 Ry     beta= 0.70
     Davidson diagonalization with overlap
     ethr =  1.37E-09,  avg # of iterations =  1.2

     negative rho (up, down):  2.346E-03 1.267E-03

     total cpu time spent up to now is      735.1 secs

     total energy              =   -6056.60671395 Ry
     estimated scf accuracy    <       0.00000169 Ry

     total magnetization       =    60.71 Bohr mag/cell
     absolute magnetization    =    68.28 Bohr mag/cell

     iteration # 41     ecut=    50.00 Ry     beta= 0.70
     Davidson diagonalization with overlap
     c_bands:  1 eigenvalues not converged
     ethr =  5.06E-10,  avg # of iterations =  2.5

     negative rho (up, down):  2.329E-03 1.248E-03

     total cpu time spent up to now is      754.3 secs

     total energy              =   -6056.60671400 Ry
     estimated scf accuracy    <       0.00000096 Ry

     total magnetization       =    60.71 Bohr mag/cell
     absolute magnetization    =    68.28 Bohr mag/cell

     iteration # 42     ecut=    50.00 Ry     beta= 0.70
     Davidson diagonalization with overlap
     ethr =  2.86E-10,  avg # of iterations =  3.0

     negative rho (up, down):  2.305E-03 1.218E-03

     total cpu time spent up to now is      770.2 secs

     total energy              =   -6056.60671407 Ry
     estimated scf accuracy    <       0.00000088 Ry

     total magnetization       =    60.71 Bohr mag/cell
     absolute magnetization    =    68.28 Bohr mag/cell

     iteration # 43     ecut=    50.00 Ry     beta= 0.70
     Davidson diagonalization with overlap
     ethr =  2.63E-10,  avg # of iterations =  1.7

     negative rho (up, down):  2.296E-03 1.209E-03

     total cpu time spent up to now is      789.6 secs

     total energy              =   -6056.60671411 Ry
     estimated scf accuracy    <       0.00000024 Ry

     total magnetization       =    60.71 Bohr mag/cell
     absolute magnetization    =    68.28 Bohr mag/cell

     iteration # 44     ecut=    50.00 Ry     beta= 0.70
     Davidson diagonalization with overlap
     ethr =  7.03E-11,  avg # of iterations =  5.5

     negative rho (up, down):  2.279E-03 1.190E-03

     total cpu time spent up to now is      812.7 secs

     total energy              =   -6056.60671411 Ry
     estimated scf accuracy    <       0.00000024 Ry

     total magnetization       =    60.71 Bohr mag/cell
     absolute magnetization    =    68.28 Bohr mag/cell

     iteration # 45     ecut=    50.00 Ry     beta= 0.70
     Davidson diagonalization with overlap
     ethr =  7.03E-11,  avg # of iterations =  1.4

     negative rho (up, down):  2.267E-03 1.179E-03

     total cpu time spent up to now is      827.4 secs

     total energy              =   -6056.60671410 Ry
     estimated scf accuracy    <       0.00000025 Ry

     total magnetization       =    60.71 Bohr mag/cell
     absolute magnetization    =    68.28 Bohr mag/cell

     iteration # 46     ecut=    50.00 Ry     beta= 0.70
     Davidson diagonalization with overlap
     ethr =  7.03E-11,  avg # of iterations =  1.2

     negative rho (up, down):  2.270E-03 1.182E-03

     total cpu time spent up to now is      845.8 secs

     total energy              =   -6056.60671410 Ry
     estimated scf accuracy    <       0.00000020 Ry

     total magnetization       =    60.71 Bohr mag/cell
     absolute magnetization    =    68.28 Bohr mag/cell

     iteration # 47     ecut=    50.00 Ry     beta= 0.70
     Davidson diagonalization with overlap
     ethr =  5.96E-11,  avg # of iterations =  1.2

     negative rho (up, down):  2.264E-03 1.175E-03

     total cpu time spent up to now is      859.7 secs

     total energy              =   -6056.60671410 Ry
     estimated scf accuracy    <       0.00000012 Ry

     total magnetization       =    60.71 Bohr mag/cell
     absolute magnetization    =    68.28 Bohr mag/cell

     iteration # 48     ecut=    50.00 Ry     beta= 0.70
     Davidson diagonalization with overlap
     ethr =  3.66E-11,  avg # of iterations =  1.2

     negative rho (up, down):  2.248E-03 1.159E-03

     total cpu time spent up to now is      877.7 secs

     total energy              =   -6056.60671407 Ry
     estimated scf accuracy    <       0.00000009 Ry

     total magnetization       =    60.71 Bohr mag/cell
     absolute magnetization    =    68.28 Bohr mag/cell

     iteration # 49     ecut=    50.00 Ry     beta= 0.70
     Davidson diagonalization with overlap
     ethr =  2.69E-11,  avg # of iterations =  1.7

     negative rho (up, down):  2.254E-03 1.165E-03

     total cpu time spent up to now is      892.8 secs

     total energy              =   -6056.60671408 Ry
     estimated scf accuracy    <       0.00000006 Ry

     total magnetization       =    60.71 Bohr mag/cell
     absolute magnetization    =    68.28 Bohr mag/cell

     iteration # 50     ecut=    50.00 Ry     beta= 0.70
     Davidson diagonalization with overlap
     ethr =  1.79E-11,  avg # of iterations =  1.5

     negative rho (up, down):  2.251E-03 1.162E-03

     total cpu time spent up to now is      911.7 secs

     total energy              =   -6056.60671408 Ry
     estimated scf accuracy    <       0.00000003 Ry

     total magnetization       =    60.71 Bohr mag/cell
     absolute magnetization    =    68.28 Bohr mag/cell

     iteration # 51     ecut=    50.00 Ry     beta= 0.70
     Davidson diagonalization with overlap
     ethr =  9.90E-12,  avg # of iterations =  2.8

     negative rho (up, down):  2.252E-03 1.163E-03

     total cpu time spent up to now is      932.3 secs

     total energy              =   -6056.60671408 Ry
     estimated scf accuracy    <       0.00000010 Ry

     total magnetization       =    60.71 Bohr mag/cell
     absolute magnetization    =    68.28 Bohr mag/cell

     iteration # 52     ecut=    50.00 Ry     beta= 0.70
     Davidson diagonalization with overlap
     ethr =  9.90E-12,  avg # of iterations =  1.4

     negative rho (up, down):  2.248E-03 1.158E-03

     total cpu time spent up to now is      946.5 secs

     total energy              =   -6056.60671407 Ry
     estimated scf accuracy    <       0.00000002 Ry

     total magnetization       =    60.71 Bohr mag/cell
     absolute magnetization    =    68.28 Bohr mag/cell

     iteration # 53     ecut=    50.00 Ry     beta= 0.70
     Davidson diagonalization with overlap
     ethr =  6.72E-12,  avg # of iterations =  1.5

     negative rho (up, down):  2.246E-03 1.156E-03

     total cpu time spent up to now is      965.5 secs

     total energy              =   -6056.60671407 Ry
     estimated scf accuracy    <       0.00000002 Ry

     total magnetization       =    60.71 Bohr mag/cell
     absolute magnetization    =    68.28 Bohr mag/cell

     iteration # 54     ecut=    50.00 Ry     beta= 0.70
     Davidson diagonalization with overlap
     ethr =  5.27E-12,  avg # of iterations =  1.3

     negative rho (up, down):  2.258E-03 1.168E-03

     Magnetic moment per site  (integrated on atomic sphere of radius R)
     atom   1 (R=0.093)  charge=  5.7995  magn=  1.6814
     atom   2 (R=0.093)  charge=  5.8007  magn=  1.6763
     atom   3 (R=0.093)  charge=  5.7999  magn=  1.6858
     atom   4 (R=0.093)  charge=  5.8009  magn=  1.6916
     atom   5 (R=0.093)  charge=  5.8001  magn=  1.6842
     atom   6 (R=0.093)  charge=  5.8010  magn=  1.6844
     atom   7 (R=0.093)  charge=  5.7991  magn=  1.6846
     atom   8 (R=0.093)  charge=  5.8005  magn=  1.6756
     atom   9 (R=0.093)  charge=  5.8011  magn=  1.6820
     atom  10 (R=0.093)  charge=  5.7963  magn=  1.6183
     atom  11 (R=0.093)  charge=  5.7976  magn=  1.6141
     atom  12 (R=0.093)  charge=  5.7975  magn=  1.6234
     atom  13 (R=0.093)  charge=  5.7967  magn=  1.6264
     atom  14 (R=0.093)  charge=  5.7973  magn=  1.6220
     atom  15 (R=0.093)  charge=  5.7973  magn=  1.6232
     atom  16 (R=0.093)  charge=  5.7969  magn=  1.6166
     atom  17 (R=0.093)  charge=  5.7973  magn=  1.6222
     atom  18 (R=0.093)  charge=  5.7972  magn=  1.6185
     atom  19 (R=0.093)  charge=  5.7967  magn=  1.6045
     atom  20 (R=0.093)  charge=  5.7974  magn=  1.6173
     atom  21 (R=0.093)  charge=  5.7957  magn=  1.6433
     atom  22 (R=0.093)  charge=  5.7968  magn=  1.6174
     atom  23 (R=0.093)  charge=  5.7964  magn=  1.5959
     atom  24 (R=0.093)  charge=  5.7969  magn=  1.6107
     atom  25 (R=0.093)  charge=  5.7957  magn=  1.5853
     atom  26 (R=0.093)  charge=  5.7948  magn=  1.6423
     atom  27 (R=0.093)  charge=  5.7973  magn=  1.6168
     atom  28 (R=0.093)  charge=  5.8114  magn=  1.3302
     atom  29 (R=0.093)  charge=  5.8165  magn=  1.1148
     atom  30 (R=0.093)  charge=  5.7993  magn=  1.5820
     atom  31 (R=0.093)  charge=  5.8009  magn=  1.7246
     atom  32 (R=0.093)  charge=  5.8011  magn=  1.6258
     atom  33 (R=0.093)  charge=  5.7979  magn=  1.7143
     atom  34 (R=0.093)  charge=  5.7972  magn=  1.7227
     atom  35 (R=0.093)  charge=  5.8060  magn=  1.5906
     atom  36 (R=0.093)  charge=  5.7998  magn=  1.7329
     atom  37 (R=0.065)  charge=  1.0427  magn= -0.0202
     atom  38 (R=0.065)  charge=  2.9145  magn= -0.0412
     atom  39 (R=0.093)  charge=  0.9053  magn= -0.0149

     total cpu time spent up to now is      979.4 secs

     End of self-consistent calculation

 ------ SPIN UP ------------


          k = 0.0000 0.0000 0.0000 ( 51087 PWs)   bands (ev):

   -21.9860  -9.1792  -7.6709  -6.5616  -5.8323  -5.6717  -5.3978  -5.2176
    -4.8379  -4.8296  -4.8251  -4.8100  -4.7972  -4.7838  -4.6459  -4.3892
    -4.2959  -4.2955  -4.2696  -4.2615  -4.2420  -4.0995  -3.7800  -3.7794
    -3.7696  -3.7576  -3.7320  -3.6975  -3.6466  -3.6445  -3.6414  -3.6356
    -3.6142  -3.5673  -3.5664  -3.4709  -3.2654  -3.2571  -3.2546  -3.2525
    -3.1971  -3.1929  -3.1890  -3.1856  -3.1809  -3.1749  -3.1657  -3.1072
    -3.0279  -3.0236  -2.9602  -2.9538  -2.9518  -2.9456  -2.9367  -2.9223
    -2.9182  -2.9146  -2.8927  -2.8702  -2.8210  -2.8128  -2.8113  -2.8050
    -2.7444  -2.6017  -2.3212  -2.2835  -2.2795  -2.2780  -2.2747  -2.1722
    -2.1516  -2.1393  -2.1365  -2.1223  -2.1105  -2.1059  -2.0965  -2.0916
    -2.0545  -2.0487  -2.0230  -2.0085  -1.9967  -1.9928  -1.9777  -1.9682
    -1.9651  -1.9572  -1.9524  -1.9445  -1.9356  -1.9239  -1.9202  -1.9094
    -1.9079  -1.9045  -1.9036  -1.9006  -1.8997  -1.8960  -1.8924  -1.8810
    -1.8715  -1.8618  -1.8431  -1.8344  -1.8303  -1.7509  -1.7479  -1.6613
    -1.5379  -1.4630  -1.4574  -1.4540  -1.4534  -1.4418  -1.4257  -1.4137
    -1.4092  -1.4063  -1.3972  -1.3651  -1.3617  -1.2356  -1.2270  -1.2156
    -1.2038  -1.1516  -1.0864  -1.0636  -1.0464  -1.0227  -0.9959  -0.9786
    -0.9767  -0.9693  -0.9622  -0.9467  -0.9112  -0.8925  -0.8476  -0.8297
    -0.7535  -0.7157  -0.7122  -0.7095  -0.6932  -0.6727  -0.6600  -0.6491
    -0.6460  -0.6422  -0.6394  -0.6341  -0.6333  -0.6284  -0.6219  -0.6124
    -0.6089  -0.6026  -0.5925  -0.5800  -0.5773  -0.5707  -0.5596  -0.5542
    -0.5422  -0.5370  -0.5288  -0.5161  -0.5126  -0.5073  -0.5009  -0.4955
    -0.4925  -0.4864  -0.4729  -0.4601  -0.4406  -0.4176  -0.4124  -0.4041
    -0.4028  -0.3952  -0.3908  -0.3852  -0.3780  -0.3396  -0.3268  -0.3173
    -0.3143  -0.3109  -0.2539  -0.2500  -0.2450  -0.2372  -0.2239  -0.2087
     0.5057   0.7122

          k = 0.0000 0.2309 0.0000 ( 51134 PWs)   bands (ev):

   -21.9860  -9.1690  -7.5302  -6.4695  -5.8601  -5.6945  -5.5281  -5.3675
    -5.2001  -5.0479  -5.0254  -4.6471  -4.5028  -4.4838  -4.4720  -4.4165
    -4.3291  -4.3000  -4.2375  -4.1779  -4.1555  -4.0909  -3.8855  -3.7835
    -3.7763  -3.7052  -3.6637  -3.6503  -3.6481  -3.6363  -3.6343  -3.6111
    -3.5961  -3.5404  -3.5214  -3.5017  -3.4991  -3.4351  -3.2797  -3.2739
    -3.2627  -3.2184  -3.2139  -3.2077  -3.1763  -3.1127  -3.0847  -3.0676
    -3.0498  -3.0468  -3.0307  -3.0082  -2.9646  -2.9100  -2.9047  -2.8758
    -2.8441  -2.8336  -2.8083  -2.8030  -2.7792  -2.7425  -2.7361  -2.7256
    -2.7003  -2.6020  -2.4019  -2.3909  -2.3712  -2.3488  -2.3366  -2.2506
    -2.2426  -2.2266  -2.2203  -2.2130  -2.2058  -2.1951  -2.1727  -2.1176
    -2.1103  -2.0951  -2.0767  -2.0415  -2.0340  -2.0284  -2.0209  -2.0110
    -1.9989  -1.9959  -1.9902  -1.9861  -1.9778  -1.9707  -1.9453  -1.8959
    -1.8826  -1.8745  -1.8183  -1.8081  -1.7990  -1.7974  -1.7887  -1.7867
    -1.7744  -1.7672  -1.7588  -1.7519  -1.7485  -1.7248  -1.7145  -1.6957
    -1.6871  -1.6795  -1.6349  -1.5904  -1.5797  -1.4889  -1.4816  -1.4785
    -1.4704  -1.4501  -1.4438  -1.4363  -1.4128  -1.4003  -1.3753  -1.2821
    -1.2607  -1.2011  -1.1936  -1.1753  -1.1634  -1.1073  -1.0929  -1.0858
    -1.0601  -0.9944  -0.9820  -0.9719  -0.9491  -0.9413  -0.9077  -0.9036
    -0.8784  -0.8673  -0.8593  -0.8376  -0.8242  -0.8005  -0.7945  -0.7921
    -0.7275  -0.7193  -0.7132  -0.7074  -0.6932  -0.6675  -0.6508  -0.6380
    -0.6341  -0.6292  -0.6240  -0.6108  -0.5980  -0.5864  -0.5756  -0.5636
    -0.5259  -0.5108  -0.4991  -0.4770  -0.4519  -0.4421  -0.4191  -0.3909
    -0.3874  -0.3728  -0.3694  -0.3583  -0.3395  -0.3325  -0.3254  -0.2925
    -0.2612  -0.2514  -0.2384  -0.2195  -0.2116  -0.1955  -0.1884  -0.1729
    -0.1188  -0.0422   0.0999   0.1364   0.1850   0.2713   0.3933   0.4113
     0.4511   0.7600

          k = 0.0000 0.4619 0.0000 ( 51204 PWs)   bands (ev):

   -21.9860  -9.1528  -7.1163  -6.4889  -6.1935  -5.8372  -5.5877  -5.3827
    -5.2467  -5.1437  -5.1318  -4.9240  -4.3332  -4.3164  -4.2949  -4.2461
    -4.2104  -4.1258  -4.1237  -4.0472  -3.9929  -3.9867  -3.9777  -3.8279
    -3.8105  -3.8073  -3.7972  -3.7954  -3.7318  -3.6937  -3.6875  -3.5659
    -3.5238  -3.5154  -3.4968  -3.4822  -3.4727  -3.4404  -3.3686  -3.3631
    -3.3492  -3.3429  -3.2790  -3.2165  -3.1451  -3.1035  -3.0522  -3.0349
    -3.0108  -2.9849  -2.9655  -2.9478  -2.9422  -2.9319  -2.9138  -2.8622
    -2.8515  -2.8299  -2.7970  -2.7736  -2.6599  -2.6481  -2.6262  -2.6159
    -2.5580  -2.5362  -2.5110  -2.4999  -2.4855  -2.4197  -2.3700  -2.3672
    -2.3621  -2.3509  -2.3476  -2.3237  -2.3126  -2.2941  -2.2792  -2.2611
    -2.2395  -2.2054  -2.1869  -2.1641  -2.1421  -2.1140  -2.0710  -2.0499
    -2.0348  -2.0181  -2.0016  -1.9840  -1.9722  -1.9381  -1.9258  -1.9185
    -1.9067  -1.8950  -1.8781  -1.8579  -1.8522  -1.8445  -1.8422  -1.8160
    -1.7983  -1.7666  -1.7464  -1.7364  -1.6686  -1.6493  -1.6323  -1.6277
    -1.6123  -1.5814  -1.5504  -1.5292  -1.5216  -1.5004  -1.4947  -1.4883
    -1.4859  -1.4754  -1.4640  -1.4544  -1.4511  -1.4438  -1.4309  -1.4210
    -1.4180  -1.3616  -1.2999  -1.2940  -1.2716  -1.2637  -1.2327  -1.2248
    -1.1961  -1.1410  -1.1234  -1.1131  -1.0716  -1.0588  -1.0228  -0.9864
    -0.9794  -0.9666  -0.9350  -0.9203  -0.9055  -0.8894  -0.8648  -0.7874
    -0.7542  -0.7466  -0.7285  -0.7144  -0.7090  -0.7015  -0.6954  -0.6846
    -0.6776  -0.6465  -0.5668  -0.5633  -0.5496  -0.5404  -0.5317  -0.5253
    -0.5148  -0.4967  -0.4787  -0.4695  -0.4667  -0.4369  -0.3837  -0.3646
    -0.3582  -0.3396  -0.3226  -0.2646  -0.2590  -0.2331  -0.2259  -0.1846
    -0.1571  -0.1465  -0.1409  -0.1279  -0.1155  -0.1108  -0.1058  -0.0633
    -0.0127   0.0034   0.4616   0.5795   0.8875   1.0919   1.1236   1.2938
     1.4718   1.4872

          k = 0.2000-0.1155 0.0000 ( 51134 PWs)   bands (ev):

   -21.9860  -9.1676  -7.5312  -6.4704  -5.8768  -5.6944  -5.5247  -5.3557
    -5.1889  -5.0570  -5.0276  -4.6260  -4.5171  -4.4834  -4.4743  -4.4162
    -4.3431  -4.2941  -4.2283  -4.1939  -4.1536  -4.0718  -3.8937  -3.7822
    -3.7724  -3.7041  -3.6665  -3.6522  -3.6476  -3.6419  -3.6315  -3.6099
    -3.5911  -3.5461  -3.5217  -3.5037  -3.4974  -3.4377  -3.2868  -3.2756
    -3.2664  -3.2198  -3.2144  -3.2002  -3.1775  -3.1194  -3.0840  -3.0655
    -3.0499  -3.0428  -3.0363  -3.0029  -2.9618  -2.9126  -2.9034  -2.8796
    -2.8391  -2.8334  -2.8065  -2.8021  -2.7775  -2.7406  -2.7352  -2.7293
    -2.6942  -2.6044  -2.4040  -2.3895  -2.3653  -2.3486  -2.3362  -2.2507
    -2.2442  -2.2299  -2.2238  -2.2112  -2.2060  -2.1908  -2.1704  -2.1154
    -2.1123  -2.0937  -2.0788  -2.0423  -2.0382  -2.0318  -2.0172  -2.0090
    -1.9995  -1.9987  -1.9929  -1.9885  -1.9744  -1.9692  -1.9344  -1.8906
    -1.8857  -1.8684  -1.8216  -1.8120  -1.8042  -1.7950  -1.7873  -1.7864
    -1.7763  -1.7685  -1.7657  -1.7512  -1.7495  -1.7275  -1.7124  -1.6973
    -1.6881  -1.6734  -1.6417  -1.5985  -1.5780  -1.5004  -1.4792  -1.4754
    -1.4615  -1.4565  -1.4459  -1.4402  -1.4221  -1.3908  -1.3360  -1.2898
    -1.2527  -1.2048  -1.1946  -1.1770  -1.1541  -1.1232  -1.1000  -1.0854
    -1.0402  -1.0067  -0.9959  -0.9787  -0.9511  -0.9464  -0.9126  -0.9026
    -0.8836  -0.8635  -0.8491  -0.8287  -0.8209  -0.8044  -0.7971  -0.7852
    -0.7250  -0.7166  -0.7108  -0.7065  -0.6829  -0.6629  -0.6475  -0.6414
    -0.6359  -0.6309  -0.6252  -0.6145  -0.6008  -0.5871  -0.5764  -0.5567
    -0.5183  -0.5039  -0.4942  -0.4786  -0.4583  -0.4474  -0.4119  -0.3927
    -0.3836  -0.3752  -0.3656  -0.3597  -0.3411  -0.3323  -0.3251  -0.2867
    -0.2636  -0.2493  -0.2397  -0.2198  -0.2100  -0.1985  -0.1887  -0.1679
    -0.1192  -0.0519   0.0876   0.1352   0.1714   0.2642   0.3792   0.4115
     0.4493   0.8043

          k = 0.2000 0.1155 0.0000 ( 51134 PWs)   bands (ev):

   -21.9860  -9.1668  -7.5324  -6.4727  -5.9111  -5.6755  -5.4644  -5.4050
    -5.1746  -5.0552  -5.0438  -4.5963  -4.5166  -4.4805  -4.4766  -4.4148
    -4.3436  -4.3161  -4.2295  -4.1952  -4.1588  -4.0555  -3.8958  -3.7882
    -3.7630  -3.6954  -3.6594  -3.6530  -3.6484  -3.6459  -3.6344  -3.6239
    -3.5645  -3.5537  -3.5341  -3.5034  -3.4979  -3.4393  -3.2924  -3.2727
    -3.2704  -3.2190  -3.2179  -3.2049  -3.1713  -3.1190  -3.0883  -3.0608
    -3.0478  -3.0438  -3.0378  -3.0122  -2.9569  -2.9115  -2.9031  -2.8809
    -2.8456  -2.8222  -2.8086  -2.8019  -2.7889  -2.7392  -2.7371  -2.7243
    -2.6768  -2.6080  -2.4024  -2.3866  -2.3649  -2.3499  -2.3385  -2.2504
    -2.2436  -2.2371  -2.2229  -2.2140  -2.2058  -2.1936  -2.1512  -2.1162
    -2.1119  -2.0953  -2.0770  -2.0403  -2.0351  -2.0335  -2.0292  -2.0071
    -2.0014  -1.9977  -1.9932  -1.9890  -1.9756  -1.9645  -1.9429  -1.8937
    -1.8781  -1.8683  -1.8216  -1.8157  -1.8059  -1.7978  -1.7902  -1.7848
    -1.7771  -1.7713  -1.7651  -1.7507  -1.7485  -1.7417  -1.7036  -1.7004
    -1.6859  -1.6803  -1.6412  -1.6020  -1.5836  -1.5128  -1.4822  -1.4735
    -1.4608  -1.4558  -1.4466  -1.4396  -1.4243  -1.3844  -1.3062  -1.2922
    -1.2501  -1.2006  -1.1952  -1.1774  -1.1546  -1.1379  -1.0976  -1.0914
    -1.0373  -1.0003  -0.9932  -0.9716  -0.9517  -0.9478  -0.9129  -0.9071
    -0.8818  -0.8653  -0.8509  -0.8289  -0.8229  -0.8056  -0.8012  -0.7850
    -0.7236  -0.7156  -0.7098  -0.7017  -0.6930  -0.6616  -0.6482  -0.6391
    -0.6385  -0.6304  -0.6233  -0.6046  -0.5989  -0.5879  -0.5777  -0.5661
    -0.5180  -0.4977  -0.4896  -0.4796  -0.4625  -0.4479  -0.4109  -0.3930
    -0.3843  -0.3755  -0.3661  -0.3579  -0.3406  -0.3311  -0.3259  -0.2862
    -0.2573  -0.2507  -0.2386  -0.2187  -0.2117  -0.1936  -0.1727  -0.1636
    -0.1180  -0.0812   0.1033   0.1343   0.1737   0.2547   0.3853   0.4080
     0.4449   0.7361

          k = 0.2000 0.3464 0.0000 ( 51202 PWs)   bands (ev):

   -21.9860  -9.1534  -7.2557  -6.3383  -6.0580  -5.9263  -5.6955  -5.4840
    -5.3691  -5.1591  -4.7522  -4.6371  -4.4924  -4.4774  -4.3364  -4.2706
    -4.2660  -4.1706  -4.1637  -4.0785  -4.0390  -3.9918  -3.8984  -3.8763
    -3.8255  -3.7801  -3.6872  -3.6717  -3.6439  -3.6394  -3.6306  -3.6205
    -3.5899  -3.5810  -3.5407  -3.5199  -3.4788  -3.4468  -3.4376  -3.3917
    -3.2987  -3.2464  -3.2149  -3.1901  -3.1704  -3.1571  -3.1016  -3.0541
    -3.0167  -2.9873  -2.9792  -2.9635  -2.9467  -2.9188  -2.9058  -2.8887
    -2.8762  -2.8470  -2.7597  -2.7215  -2.6909  -2.6694  -2.6565  -2.6381
    -2.6106  -2.5646  -2.5028  -2.4366  -2.4205  -2.3916  -2.3790  -2.3458
    -2.3332  -2.3247  -2.3177  -2.2959  -2.2795  -2.2654  -2.2559  -2.2495
    -2.2392  -2.1882  -2.1633  -2.1268  -2.0716  -2.0660  -2.0423  -2.0282
    -2.0220  -1.9992  -1.9697  -1.9631  -1.9471  -1.9289  -1.9110  -1.9070
    -1.9011  -1.8921  -1.8874  -1.8642  -1.8567  -1.8482  -1.8347  -1.8222
    -1.8064  -1.7921  -1.7646  -1.7275  -1.7188  -1.6817  -1.6765  -1.6704
    -1.6569  -1.6511  -1.6163  -1.5822  -1.5671  -1.5586  -1.5413  -1.5088
    -1.5062  -1.4963  -1.4805  -1.4645  -1.4439  -1.4338  -1.4248  -1.3719
    -1.3612  -1.3357  -1.3190  -1.2412  -1.2214  -1.1952  -1.1782  -1.1008
    -1.0797  -1.0607  -1.0495  -1.0462  -1.0390  -1.0329  -1.0032  -0.9968
    -0.9800  -0.9641  -0.9429  -0.9036  -0.8962  -0.8734  -0.8656  -0.8501
    -0.8221  -0.8065  -0.7941  -0.7794  -0.7703  -0.7514  -0.6316  -0.6112
    -0.6048  -0.5891  -0.5723  -0.5611  -0.5475  -0.5387  -0.5225  -0.5142
    -0.4988  -0.4744  -0.4476  -0.4370  -0.4120  -0.4024  -0.3632  -0.3453
    -0.3352  -0.3338  -0.3284  -0.3046  -0.2954  -0.2885  -0.2827  -0.2699
    -0.2545  -0.1802  -0.1683  -0.1640  -0.1218  -0.1139  -0.1019   0.0340
     0.1416   0.2283   0.2513   0.4118   0.5125   0.6349   0.9792   1.1227
     1.2258   1.4430

          k = 0.2000-0.5774 0.0000 ( 51262 PWs)   bands (ev):

   -21.9860  -9.1462  -6.7621  -6.6827  -6.1851  -6.0373  -5.7590  -5.5151
    -5.2653  -5.2154  -4.9687  -4.6984  -4.4714  -4.2351  -4.1863  -4.0750
    -4.0566  -4.0467  -4.0250  -4.0205  -3.9708  -3.9514  -3.9427  -3.9408
    -3.9190  -3.8562  -3.7951  -3.7880  -3.7672  -3.7644  -3.7128  -3.6189
    -3.6091  -3.6030  -3.5788  -3.5331  -3.4851  -3.4501  -3.3752  -3.3171
    -3.3098  -3.2662  -3.2288  -3.2118  -3.1839  -3.1291  -3.0983  -3.0901
    -3.0563  -3.0290  -2.9975  -2.9365  -2.9057  -2.8750  -2.8602  -2.8238
    -2.8066  -2.7363  -2.7316  -2.7198  -2.7075  -2.6978  -2.6735  -2.6367
    -2.5699  -2.5219  -2.5081  -2.4977  -2.4674  -2.4367  -2.4156  -2.3733
    -2.3690  -2.3299  -2.3194  -2.3121  -2.3036  -2.2845  -2.2609  -2.2595
    -2.2388  -2.2300  -2.2140  -2.1859  -2.1833  -2.1514  -2.1086  -2.0928
    -2.0758  -2.0495  -2.0193  -1.9897  -1.9685  -1.9462  -1.9334  -1.9247
    -1.9066  -1.8974  -1.8922  -1.8814  -1.8688  -1.8440  -1.8401  -1.7878
    -1.7719  -1.7516  -1.7429  -1.7351  -1.7151  -1.7109  -1.7044  -1.6924
    -1.6828  -1.6756  -1.6587  -1.6299  -1.5971  -1.5841  -1.5583  -1.5391
    -1.4920  -1.4866  -1.4647  -1.4418  -1.4294  -1.4150  -1.4060  -1.3857
    -1.3466  -1.3362  -1.3151  -1.2753  -1.2163  -1.1948  -1.1860  -1.1675
    -1.1509  -1.1360  -1.1327  -1.1015  -1.0826  -1.0692  -1.0521  -1.0347
    -0.9895  -0.9794  -0.9584  -0.9515  -0.9364  -0.8869  -0.8797  -0.8636
    -0.8572  -0.8392  -0.8338  -0.8164  -0.7887  -0.7649  -0.7419  -0.5953
    -0.5792  -0.5732  -0.5604  -0.5504  -0.5416  -0.5335  -0.5223  -0.4904
    -0.4792  -0.4659  -0.4585  -0.4485  -0.4060  -0.3545  -0.3372  -0.3309
    -0.3190  -0.3056  -0.2904  -0.2800  -0.2422  -0.2346  -0.2281  -0.2179
    -0.2136  -0.1478  -0.1375  -0.1296  -0.1175  -0.1082  -0.0871  -0.0603
     0.1164   0.2471   0.4803   0.8765   1.0529   1.1678   1.2603   1.5210
     1.6573   1.7157

          k = 0.2000-0.3464 0.0000 ( 51202 PWs)   bands (ev):

   -21.9860  -9.1548  -7.2523  -6.3394  -6.0164  -5.9370  -5.7007  -5.5385
    -5.3486  -5.1470  -4.7143  -4.7035  -4.4863  -4.4758  -4.3323  -4.2721
    -4.2656  -4.1707  -4.1659  -4.0681  -4.0276  -4.0173  -3.9025  -3.8771
    -3.8265  -3.7819  -3.6862  -3.6670  -3.6616  -3.6401  -3.6304  -3.6047
    -3.5904  -3.5840  -3.5420  -3.5209  -3.4815  -3.4377  -3.4280  -3.3995
    -3.3020  -3.2419  -3.2149  -3.1887  -3.1730  -3.1498  -3.0830  -3.0546
    -3.0075  -2.9964  -2.9734  -2.9603  -2.9571  -2.9227  -2.8980  -2.8913
    -2.8694  -2.8481  -2.7583  -2.7303  -2.6948  -2.6777  -2.6535  -2.6330
    -2.6160  -2.5653  -2.5011  -2.4389  -2.4079  -2.3918  -2.3791  -2.3459
    -2.3397  -2.3242  -2.3185  -2.2900  -2.2799  -2.2645  -2.2565  -2.2459
    -2.2370  -2.1967  -2.1606  -2.1429  -2.0734  -2.0672  -2.0411  -2.0271
    -2.0198  -1.9955  -1.9762  -1.9623  -1.9436  -1.9261  -1.9111  -1.9080
    -1.9006  -1.8928  -1.8832  -1.8652  -1.8552  -1.8492  -1.8285  -1.8125
    -1.8089  -1.7998  -1.7741  -1.7247  -1.7205  -1.6845  -1.6742  -1.6666
    -1.6626  -1.6486  -1.5955  -1.5889  -1.5708  -1.5447  -1.5270  -1.5087
    -1.5049  -1.4963  -1.4905  -1.4663  -1.4462  -1.4343  -1.4279  -1.3717
    -1.3614  -1.3272  -1.3141  -1.2542  -1.2195  -1.1902  -1.1638  -1.1081
    -1.0856  -1.0626  -1.0545  -1.0481  -1.0417  -1.0328  -1.0036  -0.9932
    -0.9800  -0.9689  -0.9484  -0.9051  -0.8935  -0.8811  -0.8625  -0.8482
    -0.8238  -0.8114  -0.7869  -0.7769  -0.7668  -0.7512  -0.6313  -0.6194
    -0.5968  -0.5885  -0.5720  -0.5595  -0.5545  -0.5340  -0.5310  -0.5101
    -0.5023  -0.4781  -0.4467  -0.4296  -0.4128  -0.4039  -0.3660  -0.3455
    -0.3361  -0.3320  -0.3288  -0.3060  -0.2964  -0.2885  -0.2809  -0.2695
    -0.2549  -0.1808  -0.1695  -0.1650  -0.1185  -0.1157  -0.1097   0.0496
     0.1155   0.2284   0.2427   0.4488   0.5087   0.6250   0.9966   1.1204
     1.2293   1.3800

          k = 0.4000-0.2309 0.0000 ( 51204 PWs)   bands (ev):

   -21.9860  -9.1492  -7.1209  -6.4924  -6.1980  -5.8743  -5.5518  -5.3843
    -5.2167  -5.1563  -5.1273  -4.9321  -4.3480  -4.3186  -4.2826  -4.2464
    -4.2056  -4.1279  -4.1232  -4.0323  -3.9959  -3.9872  -3.9644  -3.8314
    -3.8104  -3.8026  -3.7974  -3.7959  -3.7260  -3.6963  -3.6872  -3.6042
    -3.5255  -3.5157  -3.4990  -3.4821  -3.4730  -3.4325  -3.3702  -3.3632
    -3.3509  -3.3394  -3.3054  -3.2219  -3.1362  -3.1087  -3.0446  -3.0304
    -3.0079  -2.9855  -2.9662  -2.9522  -2.9394  -2.9310  -2.9163  -2.8664
    -2.8516  -2.8318  -2.7894  -2.7654  -2.6592  -2.6449  -2.6234  -2.6011
    -2.5643  -2.5359  -2.5148  -2.4992  -2.4886  -2.4240  -2.3702  -2.3671
    -2.3642  -2.3518  -2.3432  -2.3224  -2.3102  -2.3013  -2.2743  -2.2526
    -2.2392  -2.2075  -2.1884  -2.1633  -2.1382  -2.1254  -2.0677  -2.0521
    -2.0342  -2.0202  -2.0045  -1.9798  -1.9738  -1.9338  -1.9248  -1.9157
    -1.9064  -1.8908  -1.8804  -1.8589  -1.8548  -1.8488  -1.8421  -1.8113
    -1.7967  -1.7608  -1.7469  -1.7341  -1.6689  -1.6525  -1.6277  -1.6178
    -1.6011  -1.5800  -1.5629  -1.5244  -1.5198  -1.5037  -1.4991  -1.4918
    -1.4822  -1.4751  -1.4689  -1.4582  -1.4532  -1.4432  -1.4258  -1.4162
    -1.3962  -1.3732  -1.3114  -1.2854  -1.2715  -1.2646  -1.2381  -1.2172
    -1.1973  -1.1474  -1.1244  -1.1106  -1.0813  -1.0722  -1.0323  -1.0095
    -0.9896  -0.9605  -0.9360  -0.9269  -0.9022  -0.8756  -0.8478  -0.7998
    -0.7563  -0.7344  -0.7220  -0.7106  -0.7079  -0.7013  -0.6936  -0.6846
    -0.6685  -0.6453  -0.5655  -0.5586  -0.5509  -0.5382  -0.5307  -0.5148
    -0.5080  -0.4914  -0.4824  -0.4744  -0.4636  -0.4399  -0.3749  -0.3623
    -0.3507  -0.3429  -0.3154  -0.2658  -0.2594  -0.2303  -0.2246  -0.1856
    -0.1584  -0.1447  -0.1387  -0.1202  -0.1160  -0.1137  -0.1057  -0.0655
    -0.0120   0.0031   0.3911   0.5985   0.9124   1.0782   1.1180   1.2620
     1.4597   1.5015

          k = 0.4000 0.0000 0.0000 ( 51202 PWs)   bands (ev):

   -21.9860  -9.1512  -7.2583  -6.3370  -6.0796  -5.9234  -5.6946  -5.4683
    -5.3759  -5.1461  -4.7676  -4.6148  -4.4914  -4.4871  -4.3371  -4.2725
    -4.2627  -4.1706  -4.1652  -4.0930  -4.0398  -3.9614  -3.9000  -3.8771
    -3.8212  -3.7819  -3.6897  -3.6757  -3.6493  -3.6399  -3.6335  -3.6138
    -3.5901  -3.5802  -3.5492  -3.5235  -3.4784  -3.4527  -3.4414  -3.3920
    -3.3064  -3.2537  -3.2150  -3.1872  -3.1666  -3.1574  -3.0954  -3.0527
    -3.0222  -2.9831  -2.9782  -2.9678  -2.9442  -2.9170  -2.9035  -2.8890
    -2.8777  -2.8510  -2.7667  -2.7064  -2.6922  -2.6705  -2.6470  -2.6313
    -2.6136  -2.5601  -2.5066  -2.4350  -2.4182  -2.3909  -2.3789  -2.3479
    -2.3359  -2.3260  -2.3195  -2.3012  -2.2779  -2.2667  -2.2611  -2.2484
    -2.2263  -2.1931  -2.1673  -2.1192  -2.0721  -2.0622  -2.0489  -2.0318
    -2.0163  -1.9969  -1.9723  -1.9604  -1.9480  -1.9289  -1.9071  -1.9021
    -1.8981  -1.8938  -1.8878  -1.8662  -1.8619  -1.8468  -1.8291  -1.8210
    -1.8058  -1.7788  -1.7527  -1.7258  -1.7178  -1.6891  -1.6756  -1.6688
    -1.6574  -1.6492  -1.6218  -1.5868  -1.5711  -1.5579  -1.5368  -1.5182
    -1.5073  -1.4978  -1.4842  -1.4752  -1.4544  -1.4399  -1.4211  -1.3712
    -1.3602  -1.3365  -1.3246  -1.2301  -1.2146  -1.1971  -1.1817  -1.1044
    -1.0723  -1.0670  -1.0588  -1.0469  -1.0383  -1.0313  -1.0046  -1.0013
    -0.9828  -0.9589  -0.9424  -0.9015  -0.8850  -0.8696  -0.8670  -0.8481
    -0.8188  -0.8069  -0.7979  -0.7793  -0.7722  -0.7517  -0.6287  -0.6155
    -0.5920  -0.5826  -0.5734  -0.5617  -0.5512  -0.5323  -0.5283  -0.5185
    -0.5001  -0.4765  -0.4484  -0.4348  -0.4134  -0.3977  -0.3559  -0.3419
    -0.3365  -0.3324  -0.3267  -0.3039  -0.2966  -0.2861  -0.2847  -0.2675
    -0.2558  -0.1777  -0.1697  -0.1658  -0.1228  -0.1195  -0.0942   0.0338
     0.1866   0.2252   0.2585   0.3676   0.5156   0.6162   0.9340   1.1234
     1.2169   1.5303

          k = 0.4000 0.2309 0.0000 ( 51204 PWs)   bands (ev):

   -21.9860  -9.1469  -7.1268  -6.4986  -6.2092  -5.9059  -5.4552  -5.4160
    -5.2207  -5.1551  -5.1334  -4.9234  -4.3485  -4.3134  -4.3051  -4.2430
    -4.2011  -4.1284  -4.1239  -4.0149  -3.9943  -3.9882  -3.9248  -3.8406
    -3.8098  -3.8000  -3.7977  -3.7943  -3.7089  -3.6920  -3.6720  -3.6553
    -3.5276  -3.5246  -3.5099  -3.4825  -3.4786  -3.4285  -3.3696  -3.3637
    -3.3495  -3.3416  -3.3058  -3.2240  -3.1420  -3.0987  -3.0485  -3.0239
    -3.0146  -2.9792  -2.9662  -2.9614  -2.9505  -2.9236  -2.9059  -2.8685
    -2.8554  -2.8330  -2.8000  -2.7512  -2.6541  -2.6442  -2.6330  -2.5968
    -2.5695  -2.5333  -2.5106  -2.5079  -2.4930  -2.4235  -2.3702  -2.3674
    -2.3625  -2.3566  -2.3400  -2.3234  -2.3100  -2.3040  -2.2759  -2.2433
    -2.2279  -2.2106  -2.1943  -2.1758  -2.1334  -2.1195  -2.0637  -2.0535
    -2.0315  -2.0222  -2.0060  -1.9951  -1.9675  -1.9318  -1.9258  -1.9176
    -1.9076  -1.8936  -1.8768  -1.8688  -1.8551  -1.8473  -1.8427  -1.8140
    -1.7959  -1.7833  -1.7438  -1.7337  -1.6722  -1.6543  -1.6284  -1.6176
    -1.5929  -1.5804  -1.5548  -1.5218  -1.5214  -1.5044  -1.5003  -1.4949
    -1.4867  -1.4770  -1.4675  -1.4587  -1.4538  -1.4407  -1.4152  -1.4072
    -1.3897  -1.3787  -1.3301  -1.2866  -1.2700  -1.2568  -1.2355  -1.2219
    -1.1928  -1.1457  -1.1263  -1.1082  -1.0856  -1.0619  -1.0461  -1.0055
    -0.9874  -0.9619  -0.9368  -0.9268  -0.8993  -0.8747  -0.8515  -0.8139
    -0.7387  -0.7298  -0.7202  -0.7116  -0.7086  -0.6952  -0.6887  -0.6785
    -0.6722  -0.6642  -0.5650  -0.5594  -0.5518  -0.5390  -0.5305  -0.5115
    -0.4994  -0.4962  -0.4821  -0.4712  -0.4550  -0.4433  -0.3752  -0.3604
    -0.3511  -0.3437  -0.3110  -0.2645  -0.2606  -0.2267  -0.2247  -0.1848
    -0.1681  -0.1430  -0.1404  -0.1183  -0.1169  -0.1101  -0.0894  -0.0738
    -0.0118   0.0039   0.3875   0.6522   0.8554   1.0293   1.1238   1.2007
     1.4659   1.5556

          k = 0.4000-0.6928 0.0000 ( 51262 PWs)   bands (ev):

   -21.9860  -9.1426  -6.7907  -6.6709  -6.1960  -5.9467  -5.9176  -5.4165
    -5.2214  -5.2029  -5.0359  -4.6992  -4.4721  -4.2347  -4.1856  -4.0595
    -4.0549  -4.0304  -4.0245  -3.9988  -3.9660  -3.9485  -3.9441  -3.9400
    -3.9259  -3.8166  -3.8005  -3.7889  -3.7742  -3.7593  -3.7353  -3.6364
    -3.6106  -3.6038  -3.5865  -3.5653  -3.5029  -3.4463  -3.3513  -3.3161
    -3.3140  -3.2861  -3.2201  -3.2100  -3.1825  -3.1357  -3.0986  -3.0964
    -3.0646  -3.0145  -3.0012  -2.9333  -2.9071  -2.8794  -2.8639  -2.8173
    -2.7958  -2.7379  -2.7308  -2.7246  -2.7109  -2.7042  -2.6552  -2.6407
    -2.5631  -2.5163  -2.5111  -2.4934  -2.4838  -2.4451  -2.4250  -2.3706
    -2.3610  -2.3292  -2.3257  -2.3088  -2.3016  -2.2768  -2.2636  -2.2526
    -2.2340  -2.2224  -2.1972  -2.1930  -2.1814  -2.1660  -2.1141  -2.1001
    -2.0870  -2.0515  -2.0184  -1.9821  -1.9674  -1.9471  -1.9316  -1.9222
    -1.9084  -1.9002  -1.8964  -1.8724  -1.8593  -1.8518  -1.8374  -1.7749
    -1.7621  -1.7526  -1.7420  -1.7271  -1.7157  -1.7116  -1.6989  -1.6935
    -1.6900  -1.6736  -1.6585  -1.6509  -1.5979  -1.5806  -1.5729  -1.5294
    -1.5139  -1.4926  -1.4652  -1.4380  -1.4255  -1.4160  -1.4032  -1.3890
    -1.3418  -1.3374  -1.3083  -1.2678  -1.2126  -1.2015  -1.1886  -1.1684
    -1.1481  -1.1350  -1.1279  -1.1006  -1.0955  -1.0745  -1.0551  -1.0260
    -0.9927  -0.9846  -0.9623  -0.9427  -0.9319  -0.8915  -0.8799  -0.8749
    -0.8565  -0.8407  -0.8252  -0.8108  -0.7799  -0.7712  -0.7464  -0.5846
    -0.5753  -0.5697  -0.5616  -0.5518  -0.5460  -0.5303  -0.5262  -0.4867
    -0.4787  -0.4700  -0.4636  -0.4407  -0.3992  -0.3460  -0.3342  -0.3249
    -0.3146  -0.3041  -0.2886  -0.2494  -0.2456  -0.2373  -0.2280  -0.2209
    -0.2119  -0.1998  -0.1372  -0.1319  -0.1169  -0.1107  -0.0852  -0.0576
     0.1420   0.2616   0.5540   0.7359   1.0356   1.1707   1.2213   1.5687
     1.6748   1.7108

          k = 0.4000-0.4619 0.0000 ( 51262 PWs)   bands (ev):

   -21.9860  -9.1440  -6.7756  -6.6755  -6.1922  -6.0179  -5.8075  -5.4763
    -5.2556  -5.2042  -4.9942  -4.6943  -4.4708  -4.2332  -4.1886  -4.0642
    -4.0550  -4.0455  -4.0253  -4.0168  -3.9707  -3.9482  -3.9438  -3.9395
    -3.9223  -3.8474  -3.7955  -3.7905  -3.7687  -3.7655  -3.7129  -3.6232
    -3.6103  -3.6025  -3.5798  -3.5478  -3.5026  -3.4510  -3.3581  -3.3155
    -3.3088  -3.2915  -3.2262  -3.2091  -3.1825  -3.1292  -3.0976  -3.0932
    -3.0528  -3.0268  -2.9970  -2.9328  -2.9076  -2.8817  -2.8594  -2.8224
    -2.7965  -2.7366  -2.7327  -2.7222  -2.7098  -2.6993  -2.6710  -2.6230
    -2.5677  -2.5171  -2.5075  -2.5002  -2.4736  -2.4352  -2.4289  -2.3731
    -2.3642  -2.3302  -2.3192  -2.3096  -2.3033  -2.2818  -2.2630  -2.2564
    -2.2363  -2.2274  -2.2115  -2.1869  -2.1808  -2.1443  -2.1082  -2.1018
    -2.0871  -2.0594  -2.0152  -1.9852  -1.9654  -1.9445  -1.9319  -1.9261
    -1.9063  -1.8972  -1.8895  -1.8822  -1.8633  -1.8433  -1.8354  -1.7787
    -1.7705  -1.7478  -1.7424  -1.7363  -1.7169  -1.7114  -1.7050  -1.6919
    -1.6853  -1.6797  -1.6564  -1.6396  -1.5964  -1.5833  -1.5684  -1.5228
    -1.4991  -1.4978  -1.4729  -1.4375  -1.4250  -1.4126  -1.4062  -1.3851
    -1.3417  -1.3386  -1.3148  -1.2644  -1.2124  -1.2042  -1.1805  -1.1696
    -1.1457  -1.1347  -1.1285  -1.1143  -1.0871  -1.0718  -1.0591  -1.0319
    -0.9906  -0.9884  -0.9628  -0.9451  -0.9299  -0.8913  -0.8787  -0.8669
    -0.8564  -0.8394  -0.8356  -0.8102  -0.7819  -0.7663  -0.7475  -0.5920
    -0.5749  -0.5666  -0.5578  -0.5514  -0.5389  -0.5356  -0.5245  -0.4854
    -0.4819  -0.4740  -0.4598  -0.4439  -0.3997  -0.3499  -0.3354  -0.3291
    -0.3105  -0.3039  -0.2943  -0.2768  -0.2463  -0.2341  -0.2279  -0.2144
    -0.2069  -0.1738  -0.1358  -0.1318  -0.1181  -0.1086  -0.0856  -0.0591
     0.1255   0.2548   0.5001   0.8684   0.9937   1.1707   1.2342   1.5347
     1.6478   1.7231

 ------ SPIN DOWN ----------


          k = 0.0000 0.0000 0.0000 ( 51087 PWs)   bands (ev):

   -22.0755  -9.2593  -7.8029  -6.6243  -5.8197  -5.6587  -5.4376  -5.1383
    -4.6433  -4.6319  -4.6292  -4.6038  -4.5987  -4.5735  -4.2452  -3.7621
    -3.7586  -3.7398  -3.7303  -3.7185  -3.6561  -3.3377  -2.8221  -2.8142
    -2.8016  -2.8006  -2.7196  -2.5969  -2.3580  -2.3464  -2.3397  -2.3371
    -2.3113  -2.2220  -2.1475  -2.1424  -2.0747  -2.0576  -2.0471  -2.0467
    -1.9637  -1.9573  -1.9125  -1.9089  -1.8436  -1.8237  -1.8067  -1.7985
    -1.7610  -1.7223  -1.5603  -1.5509  -1.5412  -1.5318  -1.5266  -1.5240
    -1.5092  -1.5080  -1.4783  -1.4637  -1.4378  -1.4343  -1.4307  -1.4289
    -1.3597  -1.2560  -0.9110  -0.8779  -0.8516  -0.8498  -0.8010  -0.7373
    -0.6559  -0.6426  -0.5484  -0.5420  -0.5305  -0.5238  -0.5125  -0.4924
    -0.4780  -0.4661  -0.4504  -0.4429  -0.4342  -0.4334  -0.3927  -0.3721
    -0.3601  -0.3330  -0.3234  -0.3048  -0.2956  -0.2927  -0.2752  -0.2725
    -0.2648  -0.2582  -0.2478  -0.2444  -0.2433  -0.2354  -0.2134  -0.1546
    -0.1421  -0.1265  -0.1084  -0.0588  -0.0414  -0.0285  -0.0170  -0.0145
    -0.0113  -0.0096  -0.0027   0.0624   0.0652   0.0665   0.1131   0.1415
     0.1506   0.1578   0.1676   0.2049   0.2587   0.3755   0.3865   0.4340
     0.4486   0.4562   0.4655   0.4735   0.6194   0.6774   0.7567   0.7947
     0.8089   0.8561   0.9705   1.0155   1.0177   1.0293   1.0361   1.0412
     1.0823   1.1604   1.1831   1.1991   1.2093   1.2154   1.2219   1.2476
     1.2548   1.2655   1.2760   1.2906   1.3083   1.3205   1.3233   1.3505
     1.3559   1.3650   1.3689   1.3803   1.4000   1.4233   1.4281   1.4366
     1.4500   1.4525   1.4685   1.4803   1.4868   1.4958   1.4991   1.5344
     1.5423   1.5574   1.5597   1.5644   1.5721   1.5785   1.5845   1.6231
     1.6277   1.6303   1.6323   1.6377   1.6402   1.6539   1.6598   1.6667
     1.6684   1.7147   1.7159   1.8570   1.8646   1.8648   1.8703   1.8722
     1.8735   2.0729

          k = 0.0000 0.2309 0.0000 ( 51134 PWs)   bands (ev):

   -22.0756  -9.2490  -7.6614  -6.5240  -5.8733  -5.6941  -5.5520  -5.3969
    -5.1382  -4.9875  -4.9198  -4.4590  -4.1391  -4.0802  -4.0602  -3.9535
    -3.8529  -3.7777  -3.4619  -3.4045  -3.3679  -3.2630  -2.9428  -2.8120
    -2.7730  -2.7286  -2.6809  -2.6157  -2.4446  -2.3779  -2.3750  -2.3608
    -2.3331  -2.2906  -2.2891  -2.2810  -2.2355  -2.2014  -2.1101  -2.1043
    -2.0190  -2.0163  -1.9533  -1.8755  -1.8365  -1.8253  -1.8076  -1.7091
    -1.6831  -1.6532  -1.6103  -1.5828  -1.5568  -1.5393  -1.5320  -1.5231
    -1.5139  -1.5013  -1.4167  -1.4044  -1.3911  -1.3719  -1.3354  -1.2912
    -1.2467  -1.1571  -0.9719  -0.9235  -0.9029  -0.8997  -0.8375  -0.7973
    -0.7428  -0.7159  -0.6871  -0.6472  -0.6293  -0.5816  -0.5610  -0.5475
    -0.5152  -0.5054  -0.4912  -0.4838  -0.4765  -0.4512  -0.4185  -0.3938
    -0.3526  -0.3231  -0.3190  -0.3096  -0.2983  -0.2771  -0.2571  -0.2504
    -0.2421  -0.2398  -0.2316  -0.2254  -0.2210  -0.2191  -0.1840  -0.1661
    -0.1504  -0.1384  -0.1231  -0.1122  -0.0917  -0.0786  -0.0603  -0.0382
    -0.0319  -0.0058   0.0188   0.0484   0.0924   0.1013   0.1239   0.1322
     0.2301   0.2530   0.2856   0.3366   0.3515   0.3575   0.4146   0.4204
     0.4311   0.4394   0.4414   0.4502   0.5901   0.6949   0.7694   0.7752
     0.7845   0.7883   0.8066   0.8160   0.8651   0.8803   0.9316   0.9583
     1.0043   1.0276   1.0517   1.0655   1.0906   1.1117   1.1344   1.1909
     1.2081   1.2230   1.2448   1.2503   1.2706   1.2779   1.3194   1.3274
     1.3443   1.3642   1.4062   1.4166   1.4324   1.4395   1.4643   1.4736
     1.5111   1.5198   1.5242   1.5282   1.5555   1.6077   1.6123   1.6215
     1.6244   1.6519   1.6552   1.6840   1.6912   1.6977   1.7046   1.7102
     1.7321   1.7741   1.7782   1.7913   1.7954   1.8048   1.8167   1.8335
     1.8544   1.8585   1.8617   1.8998   1.9540   1.9656   1.9670   2.0239
     2.0476   2.1117

          k = 0.0000 0.4619 0.0000 ( 51204 PWs)   bands (ev):

   -22.0756  -9.2328  -7.2412  -6.5808  -6.2378  -5.8399  -5.6347  -5.4170
    -5.2637  -5.1596  -5.1030  -4.7924  -4.1140  -4.0333  -3.8455  -3.4675
    -3.4606  -3.4010  -3.3382  -3.1670  -3.0712  -3.0183  -2.9926  -2.8646
    -2.8598  -2.7995  -2.7518  -2.6998  -2.6466  -2.6212  -2.6104  -2.5612
    -2.5453  -2.4059  -2.3379  -2.3175  -2.2480  -2.2248  -2.1318  -2.1232
    -2.1081  -2.0940  -2.0410  -1.8475  -1.8270  -1.8009  -1.7800  -1.7304
    -1.6057  -1.6024  -1.5869  -1.5754  -1.5598  -1.5386  -1.5329  -1.5110
    -1.4877  -1.4252  -1.4143  -1.3986  -1.3739  -1.3576  -1.2140  -1.1835
    -1.0804  -1.0453  -0.9504  -0.9292  -0.9111  -0.8819  -0.8700  -0.8604
    -0.8447  -0.8223  -0.7936  -0.7777  -0.7249  -0.6968  -0.6759  -0.6448
    -0.6271  -0.6017  -0.5853  -0.5765  -0.5428  -0.5079  -0.4688  -0.4119
    -0.3939  -0.3760  -0.3530  -0.3342  -0.3012  -0.2904  -0.2664  -0.2416
    -0.2147  -0.2075  -0.1958  -0.1847  -0.1725  -0.1670  -0.1252  -0.1161
    -0.1054  -0.0890  -0.0775  -0.0665  -0.0586  -0.0456  -0.0333  -0.0103
    -0.0012   0.0176   0.0566   0.0981   0.1407   0.1432   0.1625   0.2015
     0.2076   0.2166   0.2479   0.2672   0.3085   0.3161   0.3305   0.3439
     0.3813   0.4024   0.4126   0.4161   0.4578   0.5300   0.5798   0.5922
     0.6630   0.6667   0.7451   0.7668   0.8249   0.8467   0.8675   0.8853
     0.9104   0.9155   0.9352   0.9752   0.9869   1.0528   1.1670   1.1783
     1.1827   1.2076   1.2343   1.2402   1.2828   1.2987   1.3292   1.3394
     1.3661   1.3776   1.3941   1.4597   1.4689   1.4807   1.5302   1.5368
     1.5468   1.5504   1.5682   1.5849   1.6067   1.6207   1.6311   1.6563
     1.6671   1.7065   1.7402   1.7715   1.7823   1.7977   1.8063   1.8215
     1.8280   1.8569   1.8606   1.8741   1.8895   1.8965   1.9061   1.9087
     1.9536   2.0123   2.0539   2.1160   2.1206   2.1973   2.5469   2.6260
     2.6479   2.7010

          k = 0.2000-0.1155 0.0000 ( 51134 PWs)   bands (ev):

   -22.0756  -9.2478  -7.6623  -6.5253  -5.8927  -5.6906  -5.5368  -5.3976
    -5.1294  -4.9908  -4.9272  -4.4280  -4.1891  -4.0775  -4.0641  -3.9315
    -3.8460  -3.7818  -3.4731  -3.3980  -3.3414  -3.2669  -2.9705  -2.7971
    -2.7758  -2.7404  -2.6816  -2.5991  -2.4554  -2.3765  -2.3734  -2.3639
    -2.3298  -2.2968  -2.2893  -2.2851  -2.2353  -2.1945  -2.1078  -2.1051
    -2.0203  -2.0174  -1.9666  -1.8532  -1.8369  -1.8236  -1.8040  -1.7137
    -1.6804  -1.6511  -1.6130  -1.5780  -1.5610  -1.5399  -1.5295  -1.5279
    -1.5065  -1.5001  -1.4213  -1.4027  -1.3896  -1.3691  -1.3381  -1.2981
    -1.2404  -1.1621  -0.9693  -0.9198  -0.9069  -0.8969  -0.8402  -0.7833
    -0.7666  -0.7219  -0.6853  -0.6487  -0.6269  -0.5875  -0.5586  -0.5465
    -0.5149  -0.5060  -0.4867  -0.4783  -0.4723  -0.4593  -0.4267  -0.3918
    -0.3496  -0.3268  -0.3208  -0.3167  -0.3096  -0.2693  -0.2598  -0.2519
    -0.2446  -0.2340  -0.2304  -0.2241  -0.2202  -0.2175  -0.1875  -0.1682
    -0.1422  -0.1390  -0.1166  -0.1121  -0.1036  -0.0848  -0.0631  -0.0393
    -0.0288  -0.0103   0.0270   0.0626   0.0877   0.1036   0.1140   0.1320
     0.2369   0.2567   0.2910   0.3392   0.3561   0.3661   0.4025   0.4231
     0.4295   0.4384   0.4437   0.4524   0.5886   0.7046   0.7532   0.7741
     0.7871   0.7959   0.8082   0.8247   0.8638   0.8839   0.9303   0.9614
     1.0056   1.0338   1.0540   1.0791   1.0931   1.1151   1.1352   1.1403
     1.2071   1.2304   1.2488   1.2543   1.2686   1.2807   1.3194   1.3270
     1.3418   1.3610   1.4031   1.4202   1.4340   1.4419   1.4653   1.4932
     1.5103   1.5201   1.5249   1.5291   1.5504   1.5997   1.6101   1.6176
     1.6217   1.6475   1.6555   1.6854   1.6946   1.6984   1.7055   1.7124
     1.7301   1.7748   1.7792   1.7939   1.7953   1.8048   1.8128   1.8334
     1.8495   1.8574   1.8615   1.8884   1.9530   1.9640   1.9680   2.0293
     2.0441   2.1039

          k = 0.2000 0.1155 0.0000 ( 51134 PWs)   bands (ev):

   -22.0756  -9.2470  -7.6634  -6.5276  -5.9258  -5.6701  -5.4857  -5.4355
    -5.1107  -4.9902  -4.9543  -4.3643  -4.2172  -4.0822  -4.0630  -3.9745
    -3.8304  -3.7797  -3.4772  -3.4104  -3.3136  -3.2486  -2.9796  -2.8270
    -2.7754  -2.7230  -2.7052  -2.5697  -2.4615  -2.3791  -2.3717  -2.3536
    -2.3404  -2.3036  -2.2909  -2.2873  -2.2508  -2.1728  -2.1061  -2.1046
    -2.0197  -2.0179  -1.9664  -1.8693  -1.8281  -1.8206  -1.7978  -1.7045
    -1.6880  -1.6591  -1.6030  -1.5926  -1.5574  -1.5427  -1.5279  -1.5221
    -1.5210  -1.4735  -1.4420  -1.3970  -1.3888  -1.3690  -1.3376  -1.2951
    -1.2341  -1.1711  -0.9734  -0.9234  -0.9078  -0.8946  -0.8346  -0.8137
    -0.7814  -0.6935  -0.6705  -0.6532  -0.6340  -0.5836  -0.5681  -0.5405
    -0.5206  -0.5051  -0.4878  -0.4783  -0.4711  -0.4522  -0.4446  -0.3740
    -0.3409  -0.3269  -0.3222  -0.3164  -0.3060  -0.2667  -0.2575  -0.2526
    -0.2457  -0.2350  -0.2293  -0.2252  -0.2209  -0.2189  -0.1862  -0.1707
    -0.1495  -0.1367  -0.1186  -0.1134  -0.1075  -0.0839  -0.0596  -0.0499
    -0.0246  -0.0033   0.0350   0.0719   0.0817   0.1025   0.1122   0.1315
     0.2065   0.2804   0.2996   0.3348   0.3511   0.3743   0.4033   0.4184
     0.4296   0.4368   0.4474   0.4530   0.6152   0.6839   0.7527   0.7720
     0.7907   0.7987   0.8114   0.8213   0.8612   0.8822   0.9333   0.9616
     0.9787   1.0422   1.0611   1.0762   1.0931   1.1230   1.1352   1.1424
     1.1982   1.2315   1.2442   1.2598   1.2763   1.2797   1.3173   1.3258
     1.3400   1.3669   1.4071   1.4218   1.4321   1.4414   1.4616   1.4924
     1.5067   1.5211   1.5275   1.5377   1.5429   1.5947   1.6044   1.6160
     1.6260   1.6490   1.6539   1.6847   1.6940   1.7012   1.7045   1.7131
     1.7315   1.7755   1.7793   1.7927   1.7955   1.8049   1.8164   1.8320
     1.8494   1.8553   1.8627   1.8772   1.9525   1.9625   1.9706   2.0240
     2.0503   2.0973

          k = 0.2000 0.3464 0.0000 ( 51202 PWs)   bands (ev):

   -22.0756  -9.2336  -7.3831  -6.3747  -6.1188  -6.0069  -5.7029  -5.5159
    -5.4045  -5.0946  -4.6800  -4.4920  -4.2689  -4.2548  -3.9185  -3.4431
    -3.4314  -3.4273  -3.4162  -3.2838  -3.1598  -3.1292  -3.1122  -2.9181
    -2.7626  -2.6883  -2.6791  -2.6552  -2.5894  -2.5654  -2.5622  -2.4800
    -2.4711  -2.4629  -2.4290  -2.3205  -2.3035  -2.2426  -2.0900  -2.0844
    -2.0638  -2.0022  -1.9668  -1.9513  -1.9219  -1.7984  -1.7436  -1.7378
    -1.6333  -1.6123  -1.5693  -1.5663  -1.5551  -1.5433  -1.5269  -1.5067
    -1.4918  -1.4809  -1.4293  -1.3813  -1.3478  -1.3034  -1.1978  -1.1671
    -1.1085  -1.0756  -0.9937  -0.9436  -0.8999  -0.8696  -0.8500  -0.8337
    -0.8162  -0.7778  -0.7552  -0.7242  -0.7046  -0.6857  -0.6677  -0.6510
    -0.6385  -0.6194  -0.6014  -0.5700  -0.5418  -0.4586  -0.4383  -0.4229
    -0.4126  -0.3805  -0.3494  -0.3352  -0.3200  -0.2973  -0.2901  -0.2791
    -0.2638  -0.2486  -0.2342  -0.2131  -0.2019  -0.1859  -0.1675  -0.1367
    -0.1196  -0.1128  -0.1080  -0.0893  -0.0806  -0.0712  -0.0569  -0.0458
     0.0311   0.0425   0.0479   0.0674   0.1603   0.1642   0.2003   0.2258
     0.2441   0.2760   0.2953   0.3112   0.3381   0.3566   0.3729   0.3784
     0.3846   0.4185   0.4333   0.4731   0.5211   0.5916   0.6625   0.6903
     0.7386   0.7730   0.7970   0.8247   0.8355   0.8441   0.8631   0.8814
     0.8923   0.9030   0.9211   0.9370   0.9776   1.0316   1.0750   1.0938
     1.1139   1.1427   1.1509   1.1786   1.1955   1.2455   1.2603   1.3072
     1.3325   1.3852   1.4523   1.4867   1.5031   1.5127   1.5293   1.5415
     1.5631   1.5687   1.5882   1.5950   1.6545   1.6659   1.6747   1.6779
     1.6924   1.7201   1.7340   1.7457   1.7543   1.7691   1.7764   1.7995
[...]
     atom    8 type  1   force =     0.00136403   -0.00052225   -0.10233927
     atom    9 type  1   force =     0.00167373   -0.00075510   -0.10662162
     atom   10 type  1   force =    -0.00100732    0.00177481   -0.01094498
     atom   11 type  1   force =     0.00136656    0.00051628   -0.00650322
     atom   12 type  1   force =    -0.00015245    0.00011133   -0.00957135
     atom   13 type  1   force =     0.00130685   -0.00135195   -0.01208585
     atom   14 type  1   force =    -0.00117209   -0.00060579   -0.01041900
     atom   15 type  1   force =    -0.00059983   -0.00049352   -0.01378329
     atom   16 type  1   force =    -0.00092057    0.00021016   -0.01688939
     atom   17 type  1   force =     0.00204007   -0.00136476   -0.01062893
     atom   18 type  1   force =    -0.00132491    0.00236804   -0.01365007
     atom   19 type  1   force =     0.00262504    0.00503883    0.00763268
     atom   20 type  1   force =    -0.00309211    0.00986455   -0.00110328
     atom   21 type  1   force =     0.00009209    0.00079445    0.01389989
     atom   22 type  1   force =     0.00042362    0.00011983    0.02072522
     atom   23 type  1   force =    -0.00171916    0.00053125    0.00586340
     atom   24 type  1   force =     0.00087523    0.00072997    0.01248246
     atom   25 type  1   force =    -0.00222795   -0.00502140   -0.00277120
     atom   26 type  1   force =    -0.00241136   -0.00548472    0.00097902
     atom   27 type  1   force =     0.00505067   -0.00658260   -0.00009263
     atom   28 type  1   force =     0.05270226   -0.01454988    0.09111465
     atom   29 type  1   force =    -0.05488861   -0.01655087    0.05972507
     atom   30 type  1   force =     0.00179538    0.00269863    0.08111292
     atom   31 type  1   force =     0.00529255   -0.02253297    0.13695928
     atom   32 type  1   force =     0.00008408   -0.00985009    0.09735073
     atom   33 type  1   force =    -0.00470297   -0.00105177    0.11146654
     atom   34 type  1   force =     0.00102587   -0.00202679    0.11725294
     atom   35 type  1   force =     0.00297326    0.05003906    0.13614996
     atom   36 type  1   force =    -0.00329776    0.00680466    0.12216549
     atom   37 type  2   force =    -0.02752231   -0.07959767    0.42387106
     atom   38 type  3   force =     0.12383431    0.18627627   -2.69926979
     atom   39 type  4   force =    -0.00041673   -0.00167799   -0.02169483
     The ionic contribution  to forces
     atom    1 type  1   force =    -0.00514378    0.00790157 -111.14147304
     atom    2 type  1   force =     0.00320044    0.00871173 -111.14532940
     atom    3 type  1   force =     0.00194333    0.00229053 -111.13513342
     atom    4 type  1   force =    -0.00027390    0.00104892 -111.13145570
     atom    5 type  1   force =    -0.00296848   -0.00453059 -111.13787430
     atom    6 type  1   force =     0.00324239   -0.00657524 -111.13731045
     atom    7 type  1   force =    -0.00646987   -0.00208714 -111.13991695
     atom    8 type  1   force =    -0.00163761   -0.00336969 -111.15624041
     atom    9 type  1   force =     0.00810749   -0.00339011 -111.14321834
     atom   10 type  1   force =    -0.05849048    0.01688146  -40.17219735
     atom   11 type  1   force =     0.04389993    0.01184194  -40.20039554
     atom   12 type  1   force =     0.01458989   -0.00033712  -40.08561254
     atom   13 type  1   force =    -0.01059275    0.06585279  -40.09577747
     atom   14 type  1   force =     0.01794137    0.02204420  -40.08107056
     atom   15 type  1   force =    -0.00734790    0.01140546  -40.05923419
     atom   16 type  1   force =    -0.03458449   -0.02289748  -40.06760222
     atom   17 type  1   force =    -0.00285489   -0.06792728  -40.14371186
     atom   18 type  1   force =     0.03743920   -0.03686261  -40.07356462
     atom   19 type  1   force =    -0.25778981    0.39221791   31.35233660
     atom   20 type  1   force =     0.14697938    0.44878478   31.16842710
     atom   21 type  1   force =     0.11060890    0.11411392   31.61374603
     atom   22 type  1   force =    -0.00968777    0.04545804   31.78924914
     atom   23 type  1   force =    -0.14380752   -0.22491732   31.52870801
     atom   24 type  1   force =     0.15351785   -0.31116245   31.55173927
     atom   25 type  1   force =    -0.32451895   -0.09465737   31.43510302
     atom   26 type  1   force =    -0.07282851   -0.18801271   30.50824572
     atom   27 type  1   force =     0.39734588   -0.18517104   31.26638075
     atom   28 type  1   force =    -4.36592764    1.38225859   99.45104495
     atom   29 type  1   force =     3.21150733    0.82314244   98.56250507
     atom   30 type  1   force =     1.14113274   -0.38808569  103.64567973
     atom   31 type  1   force =    -0.26466165    2.43906104  103.56895019
     atom   32 type  1   force =     0.50440882    1.34758616  103.82296911
     atom   33 type  1   force =    -0.23156900    0.35110638  104.43960793
     atom   34 type  1   force =    -1.16919017   -0.79114452  104.18358764
     atom   35 type  1   force =    -0.04571723   -3.84932287  101.47568396
     atom   36 type  1   force =     1.21276983   -1.14740414  104.13542124
     atom   37 type  2   force =     0.18282436    0.34619240   51.06798271
     atom   38 type  3   force =    -0.58174386   -0.75914981   89.66279151
     atom   39 type  4   force =     0.40634716    0.24910491   15.01695868
     The local contribution  to forces
     atom    1 type  1   force =     0.00316054   -0.00679172  111.24757834
     atom    2 type  1   force =    -0.00171946   -0.01083148  111.25385845
     atom    3 type  1   force =    -0.00121259   -0.00155189  111.23764429
     atom    4 type  1   force =    -0.00109774   -0.00180693  111.23623470
     atom    5 type  1   force =     0.00251135    0.00527725  111.24357379
     atom    6 type  1   force =    -0.00160798    0.00382781  111.24492285
     atom    7 type  1   force =     0.00938356    0.00194931  111.24653321
     atom    8 type  1   force =     0.00022797    0.00473565  111.26309950
     atom    9 type  1   force =    -0.00983089    0.00537330  111.25297133
     atom   10 type  1   force =     0.05759724   -0.01977745   40.16286212
     atom   11 type  1   force =    -0.04356305   -0.01255321   40.18636152
     atom   12 type  1   force =    -0.01386152    0.00021133   40.07462479
     atom   13 type  1   force =     0.00872779   -0.06319886   40.09055495
     atom   14 type  1   force =    -0.01726978   -0.02065924   40.07099970
     atom   15 type  1   force =     0.00877219   -0.01012424   40.05137488
     atom   16 type  1   force =     0.03535951    0.02402871   40.06512068
     atom   17 type  1   force =     0.00022009    0.06833711   40.13625203
     atom   18 type  1   force =    -0.03549529    0.03475661   40.06791479
     atom   19 type  1   force =     0.25663538   -0.39386187  -31.34363934
     atom   20 type  1   force =    -0.14648521   -0.45564458  -31.15424338
     atom   21 type  1   force =    -0.10938034   -0.11491313  -31.60599825
     atom   22 type  1   force =     0.00825944   -0.04649580  -31.78454991
     atom   23 type  1   force =     0.14396625    0.22291620  -31.51292233
     atom   24 type  1   force =    -0.15202492    0.30952406  -31.54378806
     atom   25 type  1   force =     0.32592345    0.09841241  -31.41717647
     atom   26 type  1   force =     0.07613992    0.19410743  -30.49293943
     atom   27 type  1   force =    -0.40298867    0.18933091  -31.25370138
     atom   28 type  1   force =     4.29443655   -1.36562059  -99.53965087
     atom   29 type  1   force =    -3.15295332   -0.81062581  -98.60962044
     atom   30 type  1   force =    -1.12848880    0.38006849 -103.73444313
     atom   31 type  1   force =     0.25413445   -2.40470937 -103.71524964
     atom   32 type  1   force =    -0.50281184   -1.32868412 -103.92555134
     atom   33 type  1   force =     0.23947348   -0.34876417 -104.56097528
     atom   34 type  1   force =     1.16584117    0.79195590 -104.30908547
     atom   35 type  1   force =     0.04142533    3.79018096 -101.61493709
     atom   36 type  1   force =    -1.20549993    1.13231643 -104.26696021
     atom   37 type  2   force =    -0.15532112   -0.26956573  -51.49118269
     atom   38 type  3   force =     0.46003308    0.57261806  -86.98262014
     atom   39 type  4   force =    -0.40460574   -0.24174988  -14.99717865
     The core correction contribution to forces
     atom    1 type  1   force =    -0.00019757   -0.00014177    0.00984789
     atom    2 type  1   force =    -0.00003512   -0.00025858    0.01007521
     atom    3 type  1   force =     0.00024545    0.00001379    0.00985295
     atom    4 type  1   force =     0.00009859   -0.00010597    0.01008007
     atom    5 type  1   force =     0.00014573    0.00004500    0.00997204
     atom    6 type  1   force =    -0.00016148   -0.00011463    0.00982332
     atom    7 type  1   force =     0.00005576   -0.00003552    0.01005796
     atom    8 type  1   force =     0.00005987    0.00037659    0.00947449
     atom    9 type  1   force =    -0.00017498   -0.00007171    0.01016749
     atom   10 type  1   force =    -0.00003607   -0.00001979   -0.00196990
     atom   11 type  1   force =     0.00005383    0.00014457   -0.00181161
     atom   12 type  1   force =    -0.00002388    0.00024555   -0.00187546
     atom   13 type  1   force =    -0.00036659    0.00028533   -0.00170428
     atom   14 type  1   force =     0.00019058   -0.00009419   -0.00192868
     atom   15 type  1   force =     0.00018992    0.00000759   -0.00166941
     atom   16 type  1   force =    -0.00007577    0.00005204   -0.00187252
     atom   17 type  1   force =    -0.00016632    0.00010149   -0.00193543
     atom   18 type  1   force =     0.00012764   -0.00034290   -0.00168299
     atom   19 type  1   force =    -0.00010177    0.00081914    0.00088078
     atom   20 type  1   force =    -0.00023461    0.00091310    0.00039068
     atom   21 type  1   force =     0.00053197    0.00009814    0.00204136
     atom   22 type  1   force =    -0.00002140    0.00012261    0.00194963
     atom   23 type  1   force =    -0.00033620    0.00055480    0.00150466
     atom   24 type  1   force =     0.00050671   -0.00055147    0.00142765
     atom   25 type  1   force =     0.00044086   -0.00049790    0.00149846
     atom   26 type  1   force =    -0.00103677   -0.00089204    0.00121476
     atom   27 type  1   force =     0.00071488   -0.00047433    0.00100391
     atom   28 type  1   force =     0.00994546   -0.00305167   -0.00509995
     atom   29 type  1   force =    -0.00228270    0.00217876    0.00067900
     atom   30 type  1   force =    -0.00965600    0.00479264   -0.00561597
     atom   31 type  1   force =     0.00111401   -0.00502132   -0.00766521
     atom   32 type  1   force =    -0.00014127   -0.01027966   -0.00561669
     atom   33 type  1   force =    -0.00077042   -0.00141725   -0.00989220
     atom   34 type  1   force =     0.00127208    0.00140300   -0.00933822
     atom   35 type  1   force =    -0.00022418    0.00806576   -0.00557307
     atom   36 type  1   force =    -0.00132347    0.00330974   -0.00821046
     atom   37 type  2   force =     0.00019339    0.00143700   -0.00095109
     atom   38 type  3   force =    -0.00091170   -0.00133654    0.01958385
     atom   39 type  4   force =     0.00000000    0.00000000    0.00000000
     The Hubbard contrib.    to forces
     atom    1 type  1   force =     0.00000000    0.00000000    0.00000000
     atom    2 type  1   force =     0.00000000    0.00000000    0.00000000
     atom    3 type  1   force =     0.00000000    0.00000000    0.00000000
     atom    4 type  1   force =     0.00000000    0.00000000    0.00000000
     atom    5 type  1   force =     0.00000000    0.00000000    0.00000000
     atom    6 type  1   force =     0.00000000    0.00000000    0.00000000
     atom    7 type  1   force =     0.00000000    0.00000000    0.00000000
     atom    8 type  1   force =     0.00000000    0.00000000    0.00000000
     atom    9 type  1   force =     0.00000000    0.00000000    0.00000000
     atom   10 type  1   force =     0.00000000    0.00000000    0.00000000
     atom   11 type  1   force =     0.00000000    0.00000000    0.00000000
     atom   12 type  1   force =     0.00000000    0.00000000    0.00000000
     atom   13 type  1   force =     0.00000000    0.00000000    0.00000000
     atom   14 type  1   force =     0.00000000    0.00000000    0.00000000
     atom   15 type  1   force =     0.00000000    0.00000000    0.00000000
     atom   16 type  1   force =     0.00000000    0.00000000    0.00000000
     atom   17 type  1   force =     0.00000000    0.00000000    0.00000000
     atom   18 type  1   force =     0.00000000    0.00000000    0.00000000
     atom   19 type  1   force =     0.00000000    0.00000000    0.00000000
     atom   20 type  1   force =     0.00000000    0.00000000    0.00000000
     atom   21 type  1   force =     0.00000000    0.00000000    0.00000000
     atom   22 type  1   force =     0.00000000    0.00000000    0.00000000
     atom   23 type  1   force =     0.00000000    0.00000000    0.00000000
     atom   24 type  1   force =     0.00000000    0.00000000    0.00000000
     atom   25 type  1   force =     0.00000000    0.00000000    0.00000000
     atom   26 type  1   force =     0.00000000    0.00000000    0.00000000
     atom   27 type  1   force =     0.00000000    0.00000000    0.00000000
     atom   28 type  1   force =     0.00000000    0.00000000    0.00000000
     atom   29 type  1   force =     0.00000000    0.00000000    0.00000000
     atom   30 type  1   force =     0.00000000    0.00000000    0.00000000
     atom   31 type  1   force =     0.00000000    0.00000000    0.00000000
     atom   32 type  1   force =     0.00000000    0.00000000    0.00000000
     atom   33 type  1   force =     0.00000000    0.00000000    0.00000000
     atom   34 type  1   force =     0.00000000    0.00000000    0.00000000
     atom   35 type  1   force =     0.00000000    0.00000000    0.00000000
     atom   36 type  1   force =     0.00000000    0.00000000    0.00000000
     atom   37 type  2   force =     0.00000000    0.00000000    0.00000000
     atom   38 type  3   force =     0.00000000    0.00000000    0.00000000
     atom   39 type  4   force =     0.00000000    0.00000000    0.00000000
     The SCF correction term to forces
     atom    1 type  1   force =     0.00000000   -0.00000000   -0.00000000
     atom    2 type  1   force =     0.00000000    0.00000000   -0.00000000
     atom    3 type  1   force =    -0.00000000   -0.00000000   -0.00000000
     atom    4 type  1   force =     0.00000000    0.00000000   -0.00000000
     atom    5 type  1   force =    -0.00000000   -0.00000000   -0.00000000
     atom    6 type  1   force =     0.00000000   -0.00000000   -0.00000000
     atom    7 type  1   force =    -0.00000000   -0.00000000   -0.00000000
     atom    8 type  1   force =    -0.00000000    0.00000000   -0.00000000
     atom    9 type  1   force =     0.00000000    0.00000000   -0.00000000
     atom   10 type  1   force =     0.00000000    0.00000000   -0.00000000
     atom   11 type  1   force =     0.00000000    0.00000000   -0.00000000
     atom   12 type  1   force =    -0.00000000    0.00000000   -0.00000000
     atom   13 type  1   force =     0.00000000   -0.00000000   -0.00000000
     atom   14 type  1   force =    -0.00000000   -0.00000000   -0.00000000
     atom   15 type  1   force =     0.00000000   -0.00000000   -0.00000000
     atom   16 type  1   force =     0.00000000   -0.00000000   -0.00000000
     atom   17 type  1   force =    -0.00000000    0.00000000   -0.00000000
     atom   18 type  1   force =     0.00000000    0.00000000   -0.00000000
     atom   19 type  1   force =     0.00000000    0.00000000    0.00000000
     atom   20 type  1   force =    -0.00000000    0.00000000    0.00000000
     atom   21 type  1   force =    -0.00000000    0.00000000    0.00000000
     atom   22 type  1   force =     0.00000000   -0.00000000    0.00000000
     atom   23 type  1   force =     0.00000000   -0.00000000    0.00000000
     atom   24 type  1   force =    -0.00000000   -0.00000000    0.00000000
     atom   25 type  1   force =     0.00000000   -0.00000000    0.00000000
     atom   26 type  1   force =     0.00000000   -0.00000000    0.00000000
     atom   27 type  1   force =    -0.00000000    0.00000000    0.00000000
     atom   28 type  1   force =     0.00000000    0.00000000    0.00000000
     atom   29 type  1   force =     0.00000000    0.00000000    0.00000000
     atom   30 type  1   force =    -0.00000000    0.00000000    0.00000000
     atom   31 type  1   force =     0.00000000    0.00000000    0.00000000
     atom   32 type  1   force =    -0.00000000    0.00000000    0.00000000
     atom   33 type  1   force =    -0.00000000    0.00000000    0.00000000
     atom   34 type  1   force =     0.00000000   -0.00000000    0.00000000
     atom   35 type  1   force =    -0.00000000   -0.00000000    0.00000000
     atom   36 type  1   force =     0.00000000   -0.00000000    0.00000000
     atom   37 type  2   force =     0.00000424   -0.00000195    0.00003778
     atom   38 type  3   force =     0.00000163   -0.00000017    0.00004422
     atom   39 type  4   force =     0.00000176    0.00000212    0.00000669

     Total force =     0.006665     Total SCF correction =     0.000059

     Writing all to output data dir ./pwscf.save/

     init_run     :     11.68s CPU     12.16s WALL (       1 calls)
     electrons    :    950.20s CPU    967.02s WALL (       1 calls)
     forces       :      3.40s CPU      3.51s WALL (       1 calls)

     Called by init_run:
     wfcinit      :      8.61s CPU      8.94s WALL (       1 calls)
     potinit      :      1.96s CPU      2.07s WALL (       1 calls)
     hinit0       :      0.85s CPU      0.87s WALL (       1 calls)

     Called by electrons:
     c_bands      :    797.55s CPU    811.71s WALL (      54 calls)
     sum_band     :    101.17s CPU    102.60s WALL (      54 calls)
     v_of_rho     :     11.76s CPU     12.22s WALL (      55 calls)
     newd         :      4.95s CPU      5.02s WALL (      55 calls)
     PAW_pot      :     14.47s CPU     14.68s WALL (      55 calls)
     mix_rho      :     21.38s CPU     21.74s WALL (      54 calls)
     vdW_kernel   :      1.08s CPU      1.09s WALL (       1 calls)

     Called by c_bands:
     init_us_2    :      9.49s CPU      9.68s WALL (    2860 calls)
     init_us_2:cp :      9.48s CPU      9.67s WALL (    2860 calls)
     cegterg      :    770.07s CPU    783.45s WALL (    1405 calls)

     Called by *egterg:
     cdiaghg      :    213.33s CPU    215.12s WALL (    4763 calls)
     h_psi        :    367.30s CPU    374.78s WALL (    4789 calls)
     s_psi        :     39.69s CPU     40.86s WALL (    4789 calls)
     g_psi        :      1.09s CPU      1.15s WALL (    3358 calls)

     Called by h_psi:
     h_psi:calbec :     61.22s CPU     62.73s WALL (    4789 calls)
     vloc_psi     :    262.68s CPU    267.45s WALL (    4789 calls)
     add_vuspsi   :     40.88s CPU     41.99s WALL (    4789 calls)

     General routines
     calbec       :     89.29s CPU     91.12s WALL (    6297 calls)
     fft          :      8.69s CPU      9.17s WALL (    4972 calls)
     ffts         :     13.39s CPU     13.65s WALL (   24847 calls)
     fftw         :    303.15s CPU    308.44s WALL ( 1455604 calls)
     interpolate  :      0.61s CPU      0.62s WALL (     110 calls)

     Parallel routines

     PWSCF        :  16m15.20s CPU  16m38.24s WALL


   This run was terminated on:  14:58:36   9Dec2025            

=------------------------------------------------------------------------------=
   JOB DONE.
=------------------------------------------------------------------------------=
